 Entering Gaussian System, Link 0=g16
 Input=gaussian_test.inp
 Output=gaussian_test.log
 Initial command:
 /sw/restricted/lms/sw/Gaussian/g16_B01/g16/l1.exe "/scratch/user/peterchao1/peterchao1/6097804_1659647584000000886883764/Gau-7170.inp" -scrdir="/scratch/user/peterchao1/peterchao1/6097804_1659647584000000886883764/"
 Entering Link 1 = /sw/restricted/lms/sw/Gaussian/g16_B01/g16/l1.exe PID=      7175.
  
 Copyright (c) 1988-2017, Gaussian, Inc.  All Rights Reserved.
  
 This is part of the Gaussian(R) 16 program.  It is based on
 the Gaussian(R) 09 system (copyright 2009, Gaussian, Inc.),
 the Gaussian(R) 03 system (copyright 2003, Gaussian, Inc.),
 the Gaussian(R) 98 system (copyright 1998, Gaussian, Inc.),
 the Gaussian(R) 94 system (copyright 1995, Gaussian, Inc.),
 the Gaussian 92(TM) system (copyright 1992, Gaussian, Inc.),
 the Gaussian 90(TM) system (copyright 1990, Gaussian, Inc.),
 the Gaussian 88(TM) system (copyright 1988, Gaussian, Inc.),
 the Gaussian 86(TM) system (copyright 1986, Carnegie Mellon
 University), and the Gaussian 82(TM) system (copyright 1983,
 Carnegie Mellon University). Gaussian is a federally registered
 trademark of Gaussian, Inc.
  
 This software contains proprietary and confidential information,
 including trade secrets, belonging to Gaussian, Inc.
  
 This software is provided under written license and may be
 used, copied, transmitted, or stored only in accord with that
 written license.
  
 The following legend is applicable only to US Government
 contracts under FAR:
  
                    RESTRICTED RIGHTS LEGEND
  
 Use, reproduction and disclosure by the US Government is
 subject to restrictions as set forth in subparagraphs (a)
 and (c) of the Commercial Computer Software - Restricted
 Rights clause in FAR 52.227-19.
  
 Gaussian, Inc.
 340 Quinnipiac St., Bldg. 40, Wallingford CT 06492
  
  
 ---------------------------------------------------------------
 Warning -- This program may not be used in any manner that
 competes with the business of Gaussian, Inc. or will provide
 assistance to any competitor of Gaussian, Inc.  The licensee
 of this program is prohibited from giving any competitor of
 Gaussian, Inc. access to this program.  By using this program,
 the user acknowledges that Gaussian, Inc. is engaged in the
 business of creating and licensing software in the field of
 computational chemistry and represents and warrants to the
 licensee that it is not a competitor of Gaussian, Inc. and that
 it will not use this program in any manner prohibited above.
 ---------------------------------------------------------------
  

 Cite this work as:
 Gaussian 16, Revision B.01,
 M. J. Frisch, G. W. Trucks, H. B. Schlegel, G. E. Scuseria, 
 M. A. Robb, J. R. Cheeseman, G. Scalmani, V. Barone, 
 G. A. Petersson, H. Nakatsuji, X. Li, M. Caricato, A. V. Marenich, 
 J. Bloino, B. G. Janesko, R. Gomperts, B. Mennucci, H. P. Hratchian, 
 J. V. Ortiz, A. F. Izmaylov, J. L. Sonnenberg, D. Williams-Young, 
 F. Ding, F. Lipparini, F. Egidi, J. Goings, B. Peng, A. Petrone, 
 T. Henderson, D. Ranasinghe, V. G. Zakrzewski, J. Gao, N. Rega, 
 G. Zheng, W. Liang, M. Hada, M. Ehara, K. Toyota, R. Fukuda, 
 J. Hasegawa, M. Ishida, T. Nakajima, Y. Honda, O. Kitao, H. Nakai, 
 T. Vreven, K. Throssell, J. A. Montgomery, Jr., J. E. Peralta, 
 F. Ogliaro, M. J. Bearpark, J. J. Heyd, E. N. Brothers, K. N. Kudin, 
 V. N. Staroverov, T. A. Keith, R. Kobayashi, J. Normand, 
 K. Raghavachari, A. P. Rendell, J. C. Burant, S. S. Iyengar, 
 J. Tomasi, M. Cossi, J. M. Millam, M. Klene, C. Adamo, R. Cammi, 
 J. W. Ochterski, R. L. Martin, K. Morokuma, O. Farkas, 
 J. B. Foresman, and D. J. Fox, Gaussian, Inc., Wallingford CT, 2016.
 
 ******************************************
 Gaussian 16:  ES64L-G16RevB.01 20-Dec-2017
                 4-Aug-2022 
 ******************************************
 %nprocshared=4
 Will use up to    4 processors via shared memory.
 %mem=8000mb
 ----------------------------------------------------------------------
 #T wB97XD/def2svpp opt=tight freq int(grid=ultrafine) scf=(verytight,q
 c)
 ----------------------------------------------------------------------
 --------------
 Comment gs min
 --------------
 Symbolic Z-matrix:
 Charge =  0 Multiplicity = 1
 O                     2.7711   -0.53794   1.23083 
 C                     2.29057   0.08196   0.04056 
 C                     2.85603   1.50184  -0.09206 
 C                     2.39374   2.39182   1.06446 
 O                     2.91954   1.9706    2.31542 
 C                     4.38522   1.49682  -0.17892 
 O                     4.81209   0.78795  -1.33926 
 H                     2.43991  -1.45731   1.22356 
 H                     1.19574   0.10976   0.09074 
 H                     2.57595  -0.53895  -0.81461 
 H                     2.45943   1.91585  -1.02939 
 H                     1.29728   2.39157   1.13765 
 H                     2.70552   3.43002   0.90434 
 H                     2.88487   0.99004   2.32377 
 H                     4.85775   1.04436   0.69984 
 H                     4.7636    2.51982  -0.26714 
 H                     4.8399   -0.15529  -1.10079 
 

 GradGradGradGradGradGradGradGradGradGradGradGradGradGradGradGradGradGrad
 Initialization pass.
                           ----------------------------
                           !    Initial Parameters    !
                           ! (Angstroms and Degrees)  !
 --------------------------                            --------------------------
 ! Name  Definition              Value          Derivative Info.                !
 --------------------------------------------------------------------------------
 ! R1    R(1,2)                  1.4255         estimate D2E/DX2                !
 ! R2    R(1,8)                  0.9772         estimate D2E/DX2                !
 ! R3    R(2,3)                  1.5341         estimate D2E/DX2                !
 ! R4    R(2,9)                  1.0963         estimate D2E/DX2                !
 ! R5    R(2,10)                 1.0947         estimate D2E/DX2                !
 ! R6    R(3,4)                  1.5308         estimate D2E/DX2                !
 ! R7    R(3,6)                  1.5317         estimate D2E/DX2                !
 ! R8    R(3,11)                 1.0988         estimate D2E/DX2                !
 ! R9    R(4,5)                  1.4208         estimate D2E/DX2                !
 ! R10   R(4,12)                 1.0989         estimate D2E/DX2                !
 ! R11   R(4,13)                 1.0958         estimate D2E/DX2                !
 ! R12   R(5,14)                 0.9812         estimate D2E/DX2                !
 ! R13   R(6,7)                  1.4252         estimate D2E/DX2                !
 ! R14   R(6,15)                 1.0955         estimate D2E/DX2                !
 ! R15   R(6,16)                 1.0943         estimate D2E/DX2                !
 ! R16   R(7,17)                 0.9733         estimate D2E/DX2                !
 ! A1    A(2,1,8)              106.7783         estimate D2E/DX2                !
 ! A2    A(1,2,3)              110.5139         estimate D2E/DX2                !
 ! A3    A(1,2,9)              108.0262         estimate D2E/DX2                !
 ! A4    A(1,2,10)             108.5281         estimate D2E/DX2                !
 ! A5    A(3,2,9)              110.4006         estimate D2E/DX2                !
 ! A6    A(3,2,10)             111.1839         estimate D2E/DX2                !
 ! A7    A(9,2,10)             108.0884         estimate D2E/DX2                !
 ! A8    A(2,3,4)              111.1911         estimate D2E/DX2                !
 ! A9    A(2,3,6)              111.7078         estimate D2E/DX2                !
 ! A10   A(2,3,11)             106.825          estimate D2E/DX2                !
 ! A11   A(4,3,6)              110.2585         estimate D2E/DX2                !
 ! A12   A(4,3,11)             108.4475         estimate D2E/DX2                !
 ! A13   A(6,3,11)             108.2537         estimate D2E/DX2                !
 ! A14   A(3,4,5)              112.3994         estimate D2E/DX2                !
 ! A15   A(3,4,12)             110.5797         estimate D2E/DX2                !
 ! A16   A(3,4,13)             110.7638         estimate D2E/DX2                !
 ! A17   A(5,4,12)             108.0914         estimate D2E/DX2                !
 ! A18   A(5,4,13)             107.7127         estimate D2E/DX2                !
 ! A19   A(12,4,13)            107.0884         estimate D2E/DX2                !
 ! A20   A(4,5,14)             106.8986         estimate D2E/DX2                !
 ! A21   A(3,6,7)              110.2942         estimate D2E/DX2                !
 ! A22   A(3,6,15)             112.7361         estimate D2E/DX2                !
 ! A23   A(3,6,16)             110.2871         estimate D2E/DX2                !
 ! A24   A(7,6,15)             108.5695         estimate D2E/DX2                !
 ! A25   A(7,6,16)             107.2045         estimate D2E/DX2                !
 ! A26   A(15,6,16)            107.5548         estimate D2E/DX2                !
 ! A27   A(6,7,17)             106.924          estimate D2E/DX2                !
 ! D1    D(8,1,2,3)           -175.4389         estimate D2E/DX2                !
 ! D2    D(8,1,2,9)             63.6868         estimate D2E/DX2                !
 ! D3    D(8,1,2,10)           -53.2768         estimate D2E/DX2                !
 ! D4    D(1,2,3,4)            -62.5245         estimate D2E/DX2                !
 ! D5    D(1,2,3,6)             61.1215         estimate D2E/DX2                !
 ! D6    D(1,2,3,11)           179.3244         estimate D2E/DX2                !
 ! D7    D(9,2,3,4)             56.9258         estimate D2E/DX2                !
 ! D8    D(9,2,3,6)           -179.4282         estimate D2E/DX2                !
 ! D9    D(9,2,3,11)           -61.2253         estimate D2E/DX2                !
 ! D10   D(10,2,3,4)           176.8862         estimate D2E/DX2                !
 ! D11   D(10,2,3,6)           -59.4678         estimate D2E/DX2                !
 ! D12   D(10,2,3,11)           58.7351         estimate D2E/DX2                !
 ! D13   D(2,3,4,5)             65.9109         estimate D2E/DX2                !
 ! D14   D(2,3,4,12)           -54.9879         estimate D2E/DX2                !
 ! D15   D(2,3,4,13)          -173.5453         estimate D2E/DX2                !
 ! D16   D(6,3,4,5)            -58.5574         estimate D2E/DX2                !
 ! D17   D(6,3,4,12)          -179.4562         estimate D2E/DX2                !
 ! D18   D(6,3,4,13)            61.9864         estimate D2E/DX2                !
 ! D19   D(11,3,4,5)          -176.9222         estimate D2E/DX2                !
 ! D20   D(11,3,4,12)           62.1789         estimate D2E/DX2                !
 ! D21   D(11,3,4,13)          -56.3784         estimate D2E/DX2                !
 ! D22   D(2,3,6,7)             62.092          estimate D2E/DX2                !
 ! D23   D(2,3,6,15)           -59.4486         estimate D2E/DX2                !
 ! D24   D(2,3,6,16)          -179.6845         estimate D2E/DX2                !
 ! D25   D(4,3,6,7)           -173.7371         estimate D2E/DX2                !
 ! D26   D(4,3,6,15)            64.7224         estimate D2E/DX2                !
 ! D27   D(4,3,6,16)           -55.5136         estimate D2E/DX2                !
 ! D28   D(11,3,6,7)           -55.2535         estimate D2E/DX2                !
 ! D29   D(11,3,6,15)         -176.7941         estimate D2E/DX2                !
 ! D30   D(11,3,6,16)           62.97           estimate D2E/DX2                !
 ! D31   D(3,4,5,14)           -40.301          estimate D2E/DX2                !
 ! D32   D(12,4,5,14)           82.0169         estimate D2E/DX2                !
 ! D33   D(13,4,5,14)         -162.5884         estimate D2E/DX2                !
 ! D34   D(3,6,7,17)           -84.6825         estimate D2E/DX2                !
 ! D35   D(15,6,7,17)           39.2994         estimate D2E/DX2                !
 ! D36   D(16,6,7,17)          155.2189         estimate D2E/DX2                !
 --------------------------------------------------------------------------------
 Number of steps in this run=     89 maximum allowed number of steps=    102.
 GradGradGradGradGradGradGradGradGradGradGradGradGradGradGradGradGradGrad

                    Distance matrix (angstroms):
                    1          2          3          4          5
     1  O    0.000000
     2  C    1.425457   0.000000
     3  C    2.432684   1.534077   0.000000
     4  C    2.958644   2.528729   1.530789   0.000000
     5  O    2.736995   3.022838   2.453514   1.420842   0.000000
     6  C    2.955169   2.537235   1.531663   2.512571   2.931624
     7  O    3.539631   2.959795   2.427204   3.768114   4.282183
     8  H    0.977231   1.947086   3.265054   3.852693   3.629431
     9  H    2.049654   1.096332   2.174366   2.755201   3.373931
    10  H    2.054729   1.094663   2.182968   3.486190   4.026535
    11  H    3.350644   2.129897   1.098764   2.148272   3.376752
    12  H    3.280679   2.743088   2.175663   1.098900   2.048435
    13  H    3.981909   3.482500   2.175625   1.095767   2.041288
    14  H    1.882069   2.528013   2.469616   1.947321   0.981208
    15  H    2.672028   2.819801   2.200745   2.831950   2.687876
    16  H    3.945107   3.486218   2.169276   2.721356   3.220530
    17  H    3.140511   2.803222   2.774771   4.142436   4.458439
                    6          7          8          9         10
     6  C    0.000000
     7  O    1.425168   0.000000
     8  H    3.805005   4.151684   0.000000
     9  H    3.488472   3.947509   2.299337   0.000000
    10  H    2.796769   2.652592   2.239649   1.773545   0.000000
    11  H    2.146521   2.627392   4.056399   2.472562   2.466931
    12  H    3.474091   4.589180   4.015826   2.512566   3.746233
    13  H    2.780667   4.056096   4.904941   3.737045   4.327158
    14  H    2.961644   4.144008   2.719922   2.935043   3.504664
    15  H    1.095547   2.055665   3.518321   3.828158   3.163391
    16  H    1.094296   2.037441   4.841414   4.320427   3.800212
    17  H    1.945776   0.973315   3.585779   3.843162   2.313993
                   11         12         13         14         15
    11  H    0.000000
    12  H    2.504589   0.000000
    13  H    2.468316   1.765206   0.000000
    14  H    3.504541   2.427264   2.828507   0.000000
    15  H    3.082478   3.831918   3.219517   2.555847   0.000000
    16  H    2.501001   3.742360   2.537030   3.547206   1.766606
    17  H    3.156162   4.903801   4.629317   4.106280   2.163735
                   16         17
    16  H    0.000000
    17  H    2.803035   0.000000
 Framework group  C1[X(C4H10O3)]
 Deg. of freedom    45
                         Standard orientation:                         
 ---------------------------------------------------------------------
 Center     Atomic      Atomic             Coordinates (Angstroms)
 Number     Number       Type             X           Y           Z
 ---------------------------------------------------------------------
      1          8           0       -0.488528    1.670006   -0.540486
      2          6           0        0.024614    1.196762    0.702355
      3          6           0        0.118235   -0.334447    0.697239
      4          6           0       -1.264171   -0.972830    0.539963
      5          8           0       -1.845821   -0.699390   -0.727202
      6          6           0        1.063654   -0.840570   -0.396385
      7          8           0        2.386109   -0.361286   -0.167251
      8          1           0       -0.456006    2.646079   -0.505796
      9          1           0       -0.648538    1.535822    1.498501
     10          1           0        1.005715    1.652500    0.869776
     11          1           0        0.529379   -0.631197    1.672012
     12          1           0       -1.949714   -0.605857    1.316457
     13          1           0       -1.204390   -2.061269    0.651460
     14          1           0       -1.641278    0.236617   -0.938917
     15          1           0        0.751046   -0.535154   -1.400985
     16          1           0        1.108724   -1.933854   -0.382848
     17          1           0        2.436996    0.528180   -0.559176
 ---------------------------------------------------------------------
 Rotational constants (GHZ):           3.2253227           2.0854582           1.6062116
   118 basis functions,   215 primitive gaussians,   125 cartesian basis functions
    29 alpha electrons       29 beta electrons
       nuclear repulsion energy       344.4182282982 Hartrees.
 NAtoms=   17 NActive=   17 NUniq=   17 SFac= 1.00D+00 NAtFMM=   60 NAOKFM=F Big=F
 Nuclear repulsion after empirical dispersion term =      344.4082404350 Hartrees.
   1 Symmetry operations used in ECPInt.
 ECPInt:  NShTT=    1953 NPrTT=    7871 LenC2=    1941 LenP2D=    6373.
 LDataN:  DoStor=T MaxTD1= 4 Len=   56
 ExpMin= 1.22D-01 ExpMax= 2.27D+03 ExpMxC= 3.41D+02 IAcc=3 IRadAn=         5 AccDes= 0.00D+00
 Harris functional with IExCor= 4639 and IRadAn=       5 diagonalized for initial guess.
 HarFok:  IExCor= 4639 AccDes= 0.00D+00 IRadAn=         5 IDoV= 1 UseB2=F ITyADJ=14
 ICtDFT=  3500011 ScaDFX=  1.000000  1.000000  1.000000  1.000000
 FoFCou: FMM=F IPFlag=           0 FMFlag=      100000 FMFlg1=           0
         NFxFlg=           0 DoJE=T BraDBF=F KetDBF=T FulRan=T
         wScrn=  0.000000 ICntrl=       500 IOpCl=  0 I1Cent=   200000004 NGrid=           0
         NMat0=    1 NMatS0=      1 NMatT0=    0 NMatD0=    1 NMtDS0=    0 NMtDT0=    0
 Petite list used in FoFCou.
     Minimum is close to point  3 DX= -9.41D-03 DF= -1.38D-05 DXR=  1.59D-02 DFR=  2.51D-04 which will be used.
     Accept linear search using points  2 and  3.
     Accept linear search using points  1 and  2.
     Minimum is close to point  2 DX=  3.87D-05 DF= -1.14D-13 DXR=  3.87D-05 DFR=  2.62D-09 which will be used.
 SCF Done:  E(RwB97XD) =  -383.652445280     a.u. after    7 cycles
            Convg  =    0.9856D-09                    33 Fock formations.
              S**2 =  0.0000                  -V/T =  2.0081

 **********************************************************************

            Population analysis using the SCF Density.

 **********************************************************************

 Orbital symmetries:
       Occupied  (A) (A) (A) (A) (A) (A) (A) (A) (A) (A) (A) (A)
                 (A) (A) (A) (A) (A) (A) (A) (A) (A) (A) (A) (A)
                 (A) (A) (A) (A) (A)
       Virtual   (A) (A) (A) (A) (A) (A) (A) (A) (A) (A) (A) (A)
                 (A) (A) (A) (A) (A) (A) (A) (A) (A) (A) (A) (A)
                 (A) (A) (A) (A) (A) (A) (A) (A) (A) (A) (A) (A)
                 (A) (A) (A) (A) (A) (A) (A) (A) (A) (A) (A) (A)
                 (A) (A) (A) (A) (A) (A) (A) (A) (A) (A) (A) (A)
                 (A) (A) (A) (A) (A) (A) (A) (A) (A) (A) (A) (A)
                 (A) (A) (A) (A) (A) (A) (A) (A) (A) (A) (A) (A)
                 (A) (A) (A) (A) (A)
 The electronic state is 1-A.
 Alpha  occ. eigenvalues --  -19.28171 -19.24622 -19.22330 -10.35395 -10.33096
 Alpha  occ. eigenvalues --  -10.32866 -10.30137  -1.13916  -1.10401  -1.08405
 Alpha  occ. eigenvalues --   -0.88616  -0.77689  -0.75370  -0.66647  -0.64037
 Alpha  occ. eigenvalues --   -0.60432  -0.58125  -0.55203  -0.53868  -0.50600
 Alpha  occ. eigenvalues --   -0.49403  -0.48998  -0.47404  -0.44111  -0.40492
 Alpha  occ. eigenvalues --   -0.39703  -0.37304  -0.35947  -0.33009
 Alpha virt. eigenvalues --    0.10247   0.14664   0.15398   0.17902   0.19143
 Alpha virt. eigenvalues --    0.20204   0.22115   0.22561   0.24502   0.25651
 Alpha virt. eigenvalues --    0.27208   0.28465   0.30007   0.30415   0.35035
 Alpha virt. eigenvalues --    0.36229   0.52532   0.53442   0.55445   0.57946
 Alpha virt. eigenvalues --    0.59746   0.61811   0.64680   0.66532   0.70006
 Alpha virt. eigenvalues --    0.70903   0.73414   0.74274   0.74845   0.75753
 Alpha virt. eigenvalues --    0.75844   0.77075   0.79255   0.79518   0.82002
 Alpha virt. eigenvalues --    0.82204   0.83060   0.84275   0.94301   0.99544
 Alpha virt. eigenvalues --    1.09035   1.11492   1.12698   1.12903   1.14816
 Alpha virt. eigenvalues --    1.20697   1.22652   1.26772   1.31648   1.32537
 Alpha virt. eigenvalues --    1.46866   1.54687   1.55412   1.61372   1.66779
 Alpha virt. eigenvalues --    1.70560   1.75759   1.81178   1.85355   1.92494
 Alpha virt. eigenvalues --    1.94305   2.00195   2.05337   2.07228   2.14340
 Alpha virt. eigenvalues --    2.14900   2.16509   2.19993   2.23320   2.43437
 Alpha virt. eigenvalues --    2.43831   2.50486   2.67779   2.68810   2.71783
 Alpha virt. eigenvalues --    2.72345   2.75958   2.91136   2.92932   2.94564
 Alpha virt. eigenvalues --    2.96386   3.02892   3.06483   3.07385   3.08942
 Alpha virt. eigenvalues --    3.14159   3.41685   3.45592   3.47924
          Condensed to atoms (all electrons):
 Mulliken charges:
               1
     1  O   -0.517004
     2  C   -0.004258
     3  C   -0.261056
     4  C    0.070109
     5  O   -0.530359
     6  C    0.042108
     7  O   -0.504482
     8  H    0.333472
     9  H    0.103545
    10  H    0.098268
    11  H    0.112338
    12  H    0.083588
    13  H    0.104279
    14  H    0.328916
    15  H    0.111349
    16  H    0.110665
    17  H    0.318522
 Sum of Mulliken charges =   0.00000
 Mulliken charges with hydrogens summed into heavy atoms:
               1
     1  O   -0.183532
     2  C    0.197555
     3  C   -0.148718
     4  C    0.257975
     5  O   -0.201443
     6  C    0.264122
     7  O   -0.185959
 Electronic spatial extent (au):  <R**2>=            823.8351
 Charge=              0.0000 electrons
 Dipole moment (field-independent basis, Debye):
    X=              0.4934    Y=              3.5680    Z=              1.2657  Tot=              3.8179
   1 Symmetry operations used in ECPInt.
 ECPInt:  NShTT=    1953 NPrTT=    7871 LenC2=    1941 LenP2D=    6373.
 LDataN:  DoStor=T MaxTD1= 5 Len=  102
 Calling FoFJK, ICntrl=      2127 FMM=F ISym2X=0 I1Cent= 0 IOpClX= 0 NMat=1 NMatS=1 NMatT=0.

 GradGradGradGradGradGradGradGradGradGradGradGradGradGradGradGradGradGrad
 FormGI is forming the generalized inverse of G from B-inverse, IUseBI=4.
 Internal  Forces:  Max     0.010858846 RMS     0.003966631
 Step number   1 out of a maximum of   89
 All quantities printed in internal units (Hartrees-Bohrs-Radians)
 Mixed Optimization -- RFO/linear search
 Second derivative matrix not updated -- first step.
 ITU=  0
     Eigenvalues ---    0.00315   0.00347   0.00359   0.01355   0.01359
     Eigenvalues ---    0.01416   0.03500   0.04784   0.04790   0.04823
     Eigenvalues ---    0.04953   0.04987   0.05595   0.05649   0.05667
     Eigenvalues ---    0.11547   0.11608   0.11770   0.13827   0.13831
     Eigenvalues ---    0.13982   0.16000   0.16000   0.16000   0.16710
     Eigenvalues ---    0.16943   0.21978   0.22008   0.22014   0.29050
     Eigenvalues ---    0.29270   0.29351   0.33804   0.33819   0.34091
     Eigenvalues ---    0.34155   0.34179   0.34279   0.34321   0.41649
     Eigenvalues ---    0.41691   0.42334   0.51151   0.51926   0.52705
 Linear search not attempted -- first point.
 Iteration  1 RMS(Cart)=  0.04947740 RMS(Int)=  0.00184872
 Iteration  2 RMS(Cart)=  0.00184838 RMS(Int)=  0.00049127
 Iteration  3 RMS(Cart)=  0.00000357 RMS(Int)=  0.00049126
 Iteration  4 RMS(Cart)=  0.00000000 RMS(Int)=  0.00049126
 Variable       Old X    -DE/DX   Delta X   Delta X   Delta X     New X
                                 (Linear)    (Quad)   (Total)
    R1        2.69372   0.00156   0.00000   0.00369   0.00369   2.69742
    R2        1.84670  -0.01086   0.00000  -0.02063  -0.02063   1.82607
    R3        2.89899  -0.00645   0.00000  -0.02168  -0.02168   2.87731
    R4        2.07177   0.00757   0.00000   0.02175   0.02175   2.09352
    R5        2.06861   0.00792   0.00000   0.02264   0.02264   2.09125
    R6        2.89277   0.00248   0.00000   0.00826   0.00826   2.90103
    R7        2.89442   0.00015   0.00000   0.00049   0.00049   2.89492
    R8        2.07636   0.00356   0.00000   0.01030   0.01030   2.08666
    R9        2.68500  -0.00812   0.00000  -0.01886  -0.01886   2.66615
   R10        2.07662   0.00789   0.00000   0.02285   0.02285   2.09947
   R11        2.07070   0.00490   0.00000   0.01406   0.01406   2.08476
   R12        1.85421  -0.00847   0.00000  -0.01633  -0.01633   1.83788
   R13        2.69318  -0.00329   0.00000  -0.00775  -0.00775   2.68543
   R14        2.07028   0.00473   0.00000   0.01357   0.01357   2.08386
   R15        2.06792   0.00513   0.00000   0.01465   0.01465   2.08257
   R16        1.83930  -0.00784   0.00000  -0.01467  -0.01467   1.82463
    A1        1.86363   0.00888   0.00000   0.05316   0.05316   1.91679
    A2        1.92883  -0.00728   0.00000  -0.02874  -0.02860   1.90024
    A3        1.88541   0.00651   0.00000   0.05320   0.05283   1.93825
    A4        1.89417   0.00533   0.00000   0.03489   0.03418   1.92835
    A5        1.92685  -0.00207   0.00000  -0.02245  -0.02239   1.90447
    A6        1.94052  -0.00211   0.00000  -0.02922  -0.02934   1.91119
    A7        1.88650   0.00015   0.00000  -0.00386  -0.00540   1.88110
    A8        1.94065   0.00084   0.00000   0.01679   0.01643   1.95708
    A9        1.94967  -0.00015   0.00000   0.00796   0.00740   1.95707
   A10        1.86445  -0.00085   0.00000  -0.02174  -0.02170   1.84275
   A11        1.92437   0.00115   0.00000   0.01923   0.01890   1.94328
   A12        1.89277  -0.00030   0.00000  -0.00576  -0.00551   1.88725
   A13        1.88938  -0.00081   0.00000  -0.01939  -0.01935   1.87004
   A14        1.96174   0.00393   0.00000   0.02079   0.02031   1.98205
   A15        1.92998  -0.00424   0.00000  -0.01537  -0.01655   1.91343
   A16        1.93319  -0.00203   0.00000  -0.03012  -0.03042   1.90277
   A17        1.88655   0.00422   0.00000   0.06051   0.06026   1.94681
   A18        1.87994  -0.00303   0.00000  -0.03220  -0.03202   1.84792
   A19        1.86905   0.00119   0.00000  -0.00308  -0.00331   1.86574
   A20        1.86573   0.00134   0.00000   0.00801   0.00801   1.87374
   A21        1.92500   0.00862   0.00000   0.04475   0.04488   1.96988
   A22        1.96762  -0.00737   0.00000  -0.04366  -0.04500   1.92262
   A23        1.92487  -0.00266   0.00000  -0.02708  -0.02762   1.89725
   A24        1.89490   0.00257   0.00000   0.04755   0.04799   1.94289
   A25        1.87107  -0.00317   0.00000  -0.01415  -0.01359   1.85748
   A26        1.87718   0.00207   0.00000  -0.00650  -0.00791   1.86928
   A27        1.86618   0.00443   0.00000   0.02652   0.02652   1.89270
    D1       -3.06199  -0.00059   0.00000  -0.03667  -0.03668  -3.09866
    D2        1.11154   0.00223   0.00000  -0.02536  -0.02430   1.08725
    D3       -0.92986  -0.00433   0.00000  -0.06828  -0.06934  -0.99919
    D4       -1.09126  -0.00173   0.00000  -0.06228  -0.06223  -1.15349
    D5        1.06677   0.00028   0.00000  -0.01908  -0.01897   1.04780
    D6        3.12980  -0.00131   0.00000  -0.05150  -0.05137   3.07843
    D7        0.99354   0.00040   0.00000  -0.02881  -0.02900   0.96454
    D8       -3.13161   0.00240   0.00000   0.01439   0.01426  -3.11736
    D9       -1.06858   0.00081   0.00000  -0.01803  -0.01814  -1.08672
   D10        3.08725  -0.00216   0.00000  -0.06759  -0.06758   3.01966
   D11       -1.03791  -0.00016   0.00000  -0.02439  -0.02433  -1.06223
   D12        1.02512  -0.00175   0.00000  -0.05681  -0.05672   0.96840
   D13        1.15036   0.00342   0.00000   0.07917   0.07924   1.22960
   D14       -0.95972  -0.00169   0.00000  -0.00166  -0.00133  -0.96105
   D15       -3.02894   0.00081   0.00000   0.03104   0.03098  -2.99795
   D16       -1.02202   0.00218   0.00000   0.04302   0.04286  -0.97916
   D17       -3.13210  -0.00293   0.00000  -0.03782  -0.03771   3.11337
   D18        1.08187  -0.00043   0.00000  -0.00512  -0.00540   1.07647
   D19       -3.08788   0.00268   0.00000   0.05886   0.05881  -3.02906
   D20        1.08523  -0.00243   0.00000  -0.02197  -0.02175   1.06347
   D21       -0.98399   0.00007   0.00000   0.01073   0.01056  -0.97343
   D22        1.08371  -0.00014   0.00000  -0.05287  -0.05304   1.03066
   D23       -1.03757  -0.00455   0.00000  -0.11601  -0.11532  -1.15290
   D24       -3.13609  -0.00037   0.00000  -0.05940  -0.05999   3.08711
   D25       -3.03228   0.00168   0.00000  -0.01139  -0.01147  -3.04375
   D26        1.12962  -0.00273   0.00000  -0.07452  -0.07374   1.05588
   D27       -0.96889   0.00145   0.00000  -0.01791  -0.01841  -0.98731
   D28       -0.96436   0.00149   0.00000  -0.01891  -0.01909  -0.98345
   D29       -3.08564  -0.00292   0.00000  -0.08204  -0.08137   3.11618
   D30        1.09903   0.00126   0.00000  -0.02544  -0.02604   1.07299
   D31       -0.70338  -0.00151   0.00000  -0.06342  -0.06416  -0.76754
   D32        1.43146  -0.00138   0.00000  -0.02732  -0.02626   1.40520
   D33       -2.83770   0.00061   0.00000  -0.01667  -0.01699  -2.85469
   D34       -1.47799   0.00005   0.00000  -0.03143  -0.03234  -1.51032
   D35        0.68590  -0.00180   0.00000  -0.02479  -0.02371   0.66219
   D36        2.70908   0.00027   0.00000  -0.01569  -0.01586   2.69322
         Item               Value     Threshold  Converged?
 Maximum Force            0.010859     0.000015     NO 
 RMS     Force            0.003967     0.000010     NO 
 Maximum Displacement     0.155683     0.000060     NO 
 RMS     Displacement     0.049713     0.000040     NO 
 GradGradGradGradGradGradGradGradGradGradGradGradGradGradGradGradGradGrad

                    Distance matrix (angstroms):
                    1          2          3          4          5
     1  O    0.000000
     2  C    1.427411   0.000000
     3  C    2.400430   1.522605   0.000000
     4  C    2.976122   2.536986   1.535158   0.000000
     5  O    2.841123   3.095954   2.465547   1.410863   0.000000
     6  C    2.912858   2.534289   1.531924   2.532830   2.950938
     7  O    3.484502   2.977912   2.461310   3.803966   4.309939
     8  H    0.966314   1.976567   3.251336   3.855621   3.698904
     9  H    2.097850   1.107843   2.156512   2.737140   3.432612
    10  H    2.089943   1.106644   2.160570   3.486858   4.110520
    11  H    3.320539   2.107332   1.104213   2.151988   3.381996
    12  H    3.329482   2.748551   2.176477   1.110993   2.091899
    13  H    3.992563   3.475851   2.162799   1.103208   2.014765
    14  H    2.037989   2.653258   2.513895   1.937818   0.972565
    15  H    2.643136   2.837924   2.174190   2.786084   2.638760
    16  H    3.919625   3.473547   2.155019   2.731813   3.223336
    17  H    3.121015   2.881336   2.840056   4.203733   4.521014
                    6          7          8          9         10
     6  C    0.000000
     7  O    1.421066   0.000000
     8  H    3.780107   4.131259   0.000000
     9  H    3.484758   3.978902   2.378489   0.000000
    10  H    2.785184   2.659266   2.339107   1.789046   0.000000
    11  H    2.136215   2.665133   4.054268   2.439677   2.398415
    12  H    3.492389   4.624298   4.047174   2.480290   3.733095
    13  H    2.779388   4.064814   4.905374   3.706629   4.296105
    14  H    3.012284   4.214413   2.823090   3.043376   3.661821
    15  H    1.102729   2.091624   3.504722   3.835646   3.226814
    16  H    1.102047   2.029684   4.826388   4.294664   3.764930
    17  H    1.954457   0.965550   3.605796   3.941510   2.416851
                   11         12         13         14         15
    11  H    0.000000
    12  H    2.490169   0.000000
    13  H    2.442935   1.778743   0.000000
    14  H    3.549791   2.461940   2.808651   0.000000
    15  H    3.061854   3.804520   3.154439   2.544508   0.000000
    16  H    2.457434   3.743731   2.519398   3.579512   1.773488
    17  H    3.225930   4.976127   4.658138   4.217817   2.221751
                   16         17
    16  H    0.000000
    17  H    2.802771   0.000000
 Framework group  C1[X(C4H10O3)]
 Deg. of freedom    45
                         Standard orientation:                         
 ---------------------------------------------------------------------
 Center     Atomic      Atomic             Coordinates (Angstroms)
 Number     Number       Type             X           Y           Z
 ---------------------------------------------------------------------
      1          8           0       -0.321001    1.690838   -0.574368
      2          6           0        0.089254    1.215888    0.707667
      3          6           0        0.072196   -0.306587    0.697540
      4          6           0       -1.348455   -0.868078    0.545268
      5          8           0       -1.900747   -0.664990   -0.737021
      6          6           0        1.017409   -0.887337   -0.358914
      7          8           0        2.368148   -0.487978   -0.170648
      8          1           0       -0.278069    2.655968   -0.595430
      9          1           0       -0.589652    1.581066    1.503311
     10          1           0        1.109819    1.572368    0.944376
     11          1           0        0.459243   -0.614125    1.684911
     12          1           0       -2.001770   -0.451563    1.341509
     13          1           0       -1.320746   -1.961092    0.692313
     14          1           0       -1.697758    0.249403   -0.998870
     15          1           0        0.660673   -0.630591   -1.370266
     16          1           0        1.003472   -1.986442   -0.279661
     17          1           0        2.501154    0.358734   -0.615255
 ---------------------------------------------------------------------
 Rotational constants (GHZ):           3.1902812           2.0603090           1.5938875
   118 basis functions,   215 primitive gaussians,   125 cartesian basis functions
    29 alpha electrons       29 beta electrons
       nuclear repulsion energy       343.2877438594 Hartrees.
 NAtoms=   17 NActive=   17 NUniq=   17 SFac= 1.00D+00 NAtFMM=   60 NAOKFM=F Big=F
 Nuclear repulsion after empirical dispersion term =      343.2776964615 Hartrees.
   1 Symmetry operations used in ECPInt.
 ECPInt:  NShTT=    1953 NPrTT=    7871 LenC2=    1941 LenP2D=    6366.
 LDataN:  DoStor=T MaxTD1= 4 Len=   56
 Initial guess from the checkpoint file:  "/scratch/user/peterchao1/peterchao1/6097804_1659647584000000886883764/Gau-7175.chk"
 B after Tr=     0.000000   -0.000000   -0.000000
         Rot=    0.999505    0.011026    0.003611    0.029260 Ang=   3.61 deg.
 ExpMin= 1.22D-01 ExpMax= 2.27D+03 ExpMxC= 3.41D+02 IAcc=3 IRadAn=         5 AccDes= 0.00D+00
 Harris functional with IExCor= 4639 and IRadAn=       5 diagonalized for initial guess.
 HarFok:  IExCor= 4639 AccDes= 0.00D+00 IRadAn=         5 IDoV= 1 UseB2=F ITyADJ=14
 ICtDFT=  3500011 ScaDFX=  1.000000  1.000000  1.000000  1.000000
 FoFCou: FMM=F IPFlag=           0 FMFlag=      100000 FMFlg1=           0
         NFxFlg=           0 DoJE=T BraDBF=F KetDBF=T FulRan=T
         wScrn=  0.000000 ICntrl=       500 IOpCl=  0 I1Cent=   200000004 NGrid=           0
         NMat0=    1 NMatS0=      1 NMatT0=    0 NMatD0=    1 NMtDS0=    0 NMtDT0=    0
 Petite list used in FoFCou.
     Accept linear search using points  3 and  4.
     Accept linear search using points  2 and  3.
     Accept linear search using points  1 and  2.
     Minimum is close to point  2 DX= -3.48D-03 DF= -4.32D-09 DXR=  3.49D-03 DFR=  1.22D-05 which will be used.
     Accept linear search using points  1 and  2.
     Accept linear search using points  1 and  2.
     Minimum is close to point  2 DX= -3.86D-04 DF= -1.16D-11 DXR=  3.86D-04 DFR=  1.49D-07 which will be used.
 SCF Done:  E(RwB97XD) =  -383.655674722     a.u. after    8 cycles
            Convg  =    0.8010D-09                    36 Fock formations.
              S**2 =  0.0000                  -V/T =  2.0083
   1 Symmetry operations used in ECPInt.
 ECPInt:  NShTT=    1953 NPrTT=    7871 LenC2=    1941 LenP2D=    6366.
 LDataN:  DoStor=T MaxTD1= 5 Len=  102
 Calling FoFJK, ICntrl=      2127 FMM=F ISym2X=0 I1Cent= 0 IOpClX= 0 NMat=1 NMatS=1 NMatT=0.

 GradGradGradGradGradGradGradGradGradGradGradGradGradGradGradGradGradGrad
 Using GEDIIS/GDIIS optimizer.
 FormGI is forming the generalized inverse of G from B-inverse, IUseBI=4.
 Internal  Forces:  Max     0.007919293 RMS     0.001600611
 Step number   2 out of a maximum of   89
 All quantities printed in internal units (Hartrees-Bohrs-Radians)
 Mixed Optimization -- RFO/linear search
 Trust test= 8.28D-01 RLast= 3.27D-01 DXMaxT set to 5.05D-01
 ITU=  1  0
 Use linear search instead of GDIIS.
     Eigenvalues ---    0.00323   0.00341   0.00369   0.01335   0.01360
     Eigenvalues ---    0.01414   0.03392   0.04688   0.04815   0.04905
     Eigenvalues ---    0.05106   0.05430   0.05870   0.05874   0.06173
     Eigenvalues ---    0.11023   0.11454   0.11742   0.13635   0.13847
     Eigenvalues ---    0.14043   0.15896   0.16000   0.16059   0.17257
     Eigenvalues ---    0.17310   0.21136   0.22025   0.23373   0.28820
     Eigenvalues ---    0.29271   0.29696   0.32562   0.33841   0.33936
     Eigenvalues ---    0.34128   0.34169   0.34230   0.34312   0.41346
     Eigenvalues ---    0.41905   0.43283   0.51055   0.51800   0.52711
 Quartic linear search produced a step of -0.06920.
 Iteration  1 RMS(Cart)=  0.06652664 RMS(Int)=  0.00191582
 Iteration  2 RMS(Cart)=  0.00257670 RMS(Int)=  0.00005674
 Iteration  3 RMS(Cart)=  0.00000416 RMS(Int)=  0.00005670
 Iteration  4 RMS(Cart)=  0.00000000 RMS(Int)=  0.00005670
 Variable       Old X    -DE/DX   Delta X   Delta X   Delta X     New X
                                 (Linear)    (Quad)   (Total)
    R1        2.69742  -0.00595  -0.00026  -0.01212  -0.01237   2.68504
    R2        1.82607  -0.00082   0.00143  -0.00714  -0.00571   1.82035
    R3        2.87731  -0.00002   0.00150  -0.00604  -0.00454   2.87277
    R4        2.09352   0.00030  -0.00151   0.00682   0.00531   2.09883
    R5        2.09125   0.00047  -0.00157   0.00749   0.00593   2.09718
    R6        2.90103  -0.00278  -0.00057  -0.00642  -0.00699   2.89404
    R7        2.89492  -0.00025  -0.00003  -0.00066  -0.00070   2.89422
    R8        2.08666   0.00108  -0.00071   0.00578   0.00507   2.09173
    R9        2.66615  -0.00543   0.00131  -0.01701  -0.01570   2.65044
   R10        2.09947   0.00024  -0.00158   0.00695   0.00537   2.10484
   R11        2.08476   0.00050  -0.00097   0.00522   0.00424   2.08901
   R12        1.83788  -0.00069   0.00113  -0.00574  -0.00461   1.83327
   R13        2.68543  -0.00792   0.00054  -0.01960  -0.01907   2.66636
   R14        2.08386   0.00045  -0.00094   0.00494   0.00400   2.08786
   R15        2.08257   0.00053  -0.00101   0.00547   0.00446   2.08702
   R16        1.82463  -0.00020   0.00102  -0.00439  -0.00338   1.82125
    A1        1.91679  -0.00079  -0.00368   0.01016   0.00649   1.92328
    A2        1.90024  -0.00202   0.00198  -0.01745  -0.01550   1.88473
    A3        1.93825  -0.00074  -0.00366   0.00091  -0.00278   1.93546
    A4        1.92835   0.00111  -0.00237   0.01809   0.01579   1.94414
    A5        1.90447   0.00139   0.00155  -0.00076   0.00073   1.90520
    A6        1.91119   0.00069   0.00203  -0.00076   0.00132   1.91251
    A7        1.88110  -0.00037   0.00037   0.00004   0.00051   1.88161
    A8        1.95708  -0.00142  -0.00114  -0.00980  -0.01094   1.94614
    A9        1.95707   0.00045  -0.00051  -0.00141  -0.00196   1.95511
   A10        1.84275   0.00074   0.00150   0.00815   0.00967   1.85242
   A11        1.94328   0.00004  -0.00131  -0.00209  -0.00345   1.93983
   A12        1.88725   0.00040   0.00038   0.00493   0.00533   1.89258
   A13        1.87004  -0.00011   0.00134   0.00168   0.00301   1.87305
   A14        1.98205  -0.00392  -0.00141  -0.01216  -0.01363   1.96842
   A15        1.91343  -0.00017   0.00115  -0.01714  -0.01601   1.89742
   A16        1.90277   0.00142   0.00211   0.00680   0.00900   1.91177
   A17        1.94681   0.00092  -0.00417   0.00701   0.00257   1.94938
   A18        1.84792   0.00232   0.00222   0.01511   0.01734   1.86526
   A19        1.86574  -0.00025   0.00023   0.00264   0.00289   1.86863
   A20        1.87374  -0.00070  -0.00055  -0.00182  -0.00237   1.87137
   A21        1.96988  -0.00176  -0.00311   0.00415   0.00104   1.97092
   A22        1.92262   0.00008   0.00311  -0.01618  -0.01299   1.90964
   A23        1.89725   0.00051   0.00191  -0.00225  -0.00032   1.89693
   A24        1.94289   0.00038  -0.00332   0.00926   0.00589   1.94878
   A25        1.85748   0.00100   0.00094   0.00547   0.00636   1.86384
   A26        1.86928  -0.00008   0.00055  -0.00008   0.00052   1.86980
   A27        1.89270  -0.00022  -0.00184   0.00604   0.00420   1.89690
    D1       -3.09866  -0.00070   0.00254  -0.05223  -0.04962   3.13490
    D2        1.08725  -0.00066   0.00168  -0.04061  -0.03902   1.04823
    D3       -0.99919  -0.00045   0.00480  -0.05309  -0.04826  -1.04745
    D4       -1.15349   0.00122   0.00431   0.06493   0.06921  -1.08428
    D5        1.04780   0.00050   0.00131   0.05315   0.05445   1.10225
    D6        3.07843   0.00104   0.00355   0.05925   0.06280   3.14123
    D7        0.96454  -0.00007   0.00201   0.05486   0.05688   1.02142
    D8       -3.11736  -0.00079  -0.00099   0.04308   0.04212  -3.07523
    D9       -1.08672  -0.00026   0.00126   0.04918   0.05047  -1.03625
   D10        3.01966   0.00069   0.00468   0.05403   0.05868   3.07835
   D11       -1.06223  -0.00003   0.00168   0.04224   0.04393  -1.01831
   D12        0.96840   0.00051   0.00393   0.04835   0.05228   1.02068
   D13        1.22960  -0.00165  -0.00548  -0.06115  -0.06654   1.16306
   D14       -0.96105   0.00021   0.00009  -0.04776  -0.04776  -1.00881
   D15       -2.99795  -0.00021  -0.00214  -0.04514  -0.04725  -3.04521
   D16       -0.97916  -0.00117  -0.00297  -0.04988  -0.05277  -1.03194
   D17        3.11337   0.00069   0.00261  -0.03650  -0.03400   3.07937
   D18        1.07647   0.00027   0.00037  -0.03387  -0.03349   1.04298
   D19       -3.02906  -0.00130  -0.00407  -0.05373  -0.05772  -3.08678
   D20        1.06347   0.00056   0.00151  -0.04034  -0.03894   1.02453
   D21       -0.97343   0.00014  -0.00073  -0.03772  -0.03843  -1.01186
   D22        1.03066  -0.00006   0.00367  -0.09874  -0.09505   0.93562
   D23       -1.15290   0.00069   0.00798  -0.10150  -0.09356  -1.24645
   D24        3.08711   0.00045   0.00415  -0.09090  -0.08671   3.00040
   D25       -3.04375  -0.00157   0.00079  -0.11461  -0.11381   3.12562
   D26        1.05588  -0.00082   0.00510  -0.11737  -0.11232   0.94355
   D27       -0.98731  -0.00106   0.00127  -0.10677  -0.10547  -1.09278
   D28       -0.98345  -0.00113   0.00132  -0.10880  -0.10746  -1.09091
   D29        3.11618  -0.00038   0.00563  -0.11156  -0.10597   3.01020
   D30        1.07299  -0.00062   0.00180  -0.10096  -0.09912   0.97387
   D31       -0.76754   0.00095   0.00444  -0.01114  -0.00666  -0.77420
   D32        1.40520  -0.00159   0.00182  -0.03797  -0.03629   1.36891
   D33       -2.85469  -0.00008   0.00118  -0.02256  -0.02129  -2.87599
   D34       -1.51032   0.00032   0.00224  -0.00686  -0.00455  -1.51487
   D35        0.66219  -0.00062   0.00164  -0.01795  -0.01640   0.64579
   D36        2.69322   0.00006   0.00110  -0.01002  -0.00890   2.68432
         Item               Value     Threshold  Converged?
 Maximum Force            0.007919     0.000015     NO 
 RMS     Force            0.001601     0.000010     NO 
 Maximum Displacement     0.236997     0.000060     NO 
 RMS     Displacement     0.066369     0.000040     NO 
 GradGradGradGradGradGradGradGradGradGradGradGradGradGradGradGradGradGrad

                    Distance matrix (angstroms):
                    1          2          3          4          5
     1  O    0.000000
     2  C    1.420862   0.000000
     3  C    2.379897   1.520205   0.000000
     4  C    2.899711   2.522568   1.531461   0.000000
     5  O    2.690261   3.024707   2.444589   1.402555   0.000000
     6  C    2.919980   2.530320   1.531556   2.526490   2.952642
     7  O    3.428613   2.920643   2.453580   3.791661   4.258989
     8  H    0.963290   1.972766   3.234722   3.771463   3.523535
     9  H    2.092369   1.110654   2.157049   2.748344   3.391319
    10  H    2.097789   1.109780   2.161786   3.480939   4.037262
    11  H    3.311839   2.114602   1.106895   2.154720   3.371264
    12  H    3.264961   2.739842   2.163468   1.113834   2.088682
    13  H    3.919038   3.473185   2.167871   1.105454   2.022166
    14  H    1.871174   2.557611   2.488488   1.927174   0.970126
    15  H    2.693654   2.868923   2.165931   2.717972   2.574196
    16  H    3.942125   3.468268   2.156202   2.775391   3.329031
    17  H    3.058071   2.839226   2.836296   4.160477   4.405452
                    6          7          8          9         10
     6  C    0.000000
     7  O    1.410976   0.000000
     8  H    3.794594   4.087242   0.000000
     9  H    3.483622   3.926680   2.361782   0.000000
    10  H    2.762902   2.577653   2.368357   1.794183   0.000000
    11  H    2.140129   2.710859   4.054500   2.429206   2.429028
    12  H    3.481562   4.606289   3.968630   2.494683   3.738287
    13  H    2.765295   4.083409   4.827042   3.730346   4.306522
    14  H    3.034279   4.148692   2.624013   2.966576   3.559993
    15  H    1.104848   2.088581   3.566430   3.866607   3.253178
    16  H    1.104404   2.027520   4.850656   4.290920   3.725178
    17  H    1.947036   0.963762   3.562667   3.905511   2.375169
                   11         12         13         14         15
    11  H    0.000000
    12  H    2.465213   0.000000
    13  H    2.468943   1.784740   0.000000
    14  H    3.521367   2.441581   2.812840   0.000000
    15  H    3.057945   3.756194   3.042205   2.561592   0.000000
    16  H    2.423640   3.761644   2.555072   3.692122   1.777432
    17  H    3.291443   4.940329   4.638284   4.090746   2.217348
                   16         17
    16  H    0.000000
    17  H    2.800033   0.000000
 Framework group  C1[X(C4H10O3)]
 Deg. of freedom    45
                         Standard orientation:                         
 ---------------------------------------------------------------------
 Center     Atomic      Atomic             Coordinates (Angstroms)
 Number     Number       Type             X           Y           Z
 ---------------------------------------------------------------------
      1          8           0       -0.408677    1.628256   -0.545576
      2          6           0        0.064582    1.187339    0.719519
      3          6           0        0.086319   -0.332673    0.708873
      4          6           0       -1.317645   -0.912887    0.514941
      5          8           0       -1.850466   -0.633627   -0.752053
      6          6           0        1.061612   -0.885701   -0.334499
      7          8           0        2.364044   -0.359198   -0.202895
      8          1           0       -0.440949    2.590655   -0.571586
      9          1           0       -0.602718    1.536645    1.535761
     10          1           0        1.084572    1.572407    0.926772
     11          1           0        0.458497   -0.641987    1.704375
     12          1           0       -1.975903   -0.535964    1.330570
     13          1           0       -1.279380   -2.013457    0.611429
     14          1           0       -1.664729    0.299315   -0.942489
     15          1           0        0.652847   -0.714265   -1.346532
     16          1           0        1.143938   -1.978504   -0.197709
     17          1           0        2.415416    0.465229   -0.699401
 ---------------------------------------------------------------------
 Rotational constants (GHZ):           3.3084829           2.0848884           1.6349239
   118 basis functions,   215 primitive gaussians,   125 cartesian basis functions
    29 alpha electrons       29 beta electrons
       nuclear repulsion energy       345.9959362134 Hartrees.
 NAtoms=   17 NActive=   17 NUniq=   17 SFac= 1.00D+00 NAtFMM=   60 NAOKFM=F Big=F
 Nuclear repulsion after empirical dispersion term =      345.9858914683 Hartrees.
   1 Symmetry operations used in ECPInt.
 ECPInt:  NShTT=    1953 NPrTT=    7871 LenC2=    1941 LenP2D=    6379.
 LDataN:  DoStor=T MaxTD1= 4 Len=   56
 Initial guess from the checkpoint file:  "/scratch/user/peterchao1/peterchao1/6097804_1659647584000000886883764/Gau-7175.chk"
 B after Tr=    -0.000000    0.000000    0.000000
         Rot=    0.999835   -0.007515   -0.001264   -0.016483 Ang=  -2.08 deg.
 ExpMin= 1.22D-01 ExpMax= 2.27D+03 ExpMxC= 3.41D+02 IAcc=3 IRadAn=         5 AccDes= 0.00D+00
 Harris functional with IExCor= 4639 and IRadAn=       5 diagonalized for initial guess.
 HarFok:  IExCor= 4639 AccDes= 0.00D+00 IRadAn=         5 IDoV= 1 UseB2=F ITyADJ=14
 ICtDFT=  3500011 ScaDFX=  1.000000  1.000000  1.000000  1.000000
 FoFCou: FMM=F IPFlag=           0 FMFlag=      100000 FMFlg1=           0
         NFxFlg=           0 DoJE=T BraDBF=F KetDBF=T FulRan=T
         wScrn=  0.000000 ICntrl=       500 IOpCl=  0 I1Cent=   200000004 NGrid=           0
         NMat0=    1 NMatS0=      1 NMatT0=    0 NMatD0=    1 NMtDS0=    0 NMtDT0=    0
 Petite list used in FoFCou.
     Minimum is close to point  4 DX=  5.65D-02 DF= -1.16D-05 DXR=  4.50D-02 DFR=  2.03D-03 which will be used.
     Accept linear search using points  2 and  3.
     Accept linear search using points  1 and  2.
     Accept linear search using points  1 and  2.
     Accept linear search using points  1 and  2.
     Minimum is close to point  2 DX=  1.26D-04 DF= -9.66D-13 DXR=  1.26D-04 DFR=  1.75D-08 which will be used.
 SCF Done:  E(RwB97XD) =  -383.656133795     a.u. after    9 cycles
            Convg  =    0.1670D-08                    38 Fock formations.
              S**2 =  0.0000                  -V/T =  2.0081
   1 Symmetry operations used in ECPInt.
 ECPInt:  NShTT=    1953 NPrTT=    7871 LenC2=    1941 LenP2D=    6379.
 LDataN:  DoStor=T MaxTD1= 5 Len=  102
 Calling FoFJK, ICntrl=      2127 FMM=F ISym2X=0 I1Cent= 0 IOpClX= 0 NMat=1 NMatS=1 NMatT=0.

 GradGradGradGradGradGradGradGradGradGradGradGradGradGradGradGradGradGrad
 Using GEDIIS/GDIIS optimizer.
 FormGI is forming the generalized inverse of G from B-inverse, IUseBI=4.
 Internal  Forces:  Max     0.008679449 RMS     0.001855229
 Step number   3 out of a maximum of   89
 All quantities printed in internal units (Hartrees-Bohrs-Radians)
 Mixed Optimization -- RFO/linear search
 Trust test= 5.06D-01 RLast= 3.92D-01 DXMaxT set to 8.49D-01
 ITU=  1  1  0
 Use linear search instead of GDIIS.
     Eigenvalues ---    0.00239   0.00334   0.00529   0.01230   0.01360
     Eigenvalues ---    0.01427   0.03642   0.04742   0.04806   0.04899
     Eigenvalues ---    0.05180   0.05555   0.05876   0.05932   0.06349
     Eigenvalues ---    0.10901   0.11549   0.11656   0.13427   0.13749
     Eigenvalues ---    0.14022   0.15886   0.16000   0.16063   0.17064
     Eigenvalues ---    0.17683   0.21863   0.22578   0.26749   0.29125
     Eigenvalues ---    0.29452   0.30358   0.33826   0.33902   0.34127
     Eigenvalues ---    0.34164   0.34205   0.34308   0.39383   0.40767
     Eigenvalues ---    0.42197   0.42751   0.51273   0.52455   0.53823
 Quartic linear search produced a step of -0.29889.
 Iteration  1 RMS(Cart)=  0.06783745 RMS(Int)=  0.00202773
 Iteration  2 RMS(Cart)=  0.00246922 RMS(Int)=  0.00002624
 Iteration  3 RMS(Cart)=  0.00000326 RMS(Int)=  0.00002618
 Iteration  4 RMS(Cart)=  0.00000000 RMS(Int)=  0.00002618
 Variable       Old X    -DE/DX   Delta X   Delta X   Delta X     New X
                                 (Linear)    (Quad)   (Total)
    R1        2.68504  -0.00059   0.00370  -0.01182  -0.00812   2.67692
    R2        1.82035   0.00247   0.00171  -0.00267  -0.00097   1.81939
    R3        2.87277   0.00501   0.00136   0.00618   0.00753   2.88030
    R4        2.09883  -0.00136  -0.00159   0.00284   0.00125   2.10008
    R5        2.09718  -0.00187  -0.00177   0.00250   0.00073   2.09791
    R6        2.89404   0.00400   0.00209   0.00255   0.00464   2.89868
    R7        2.89422   0.00186   0.00021   0.00337   0.00358   2.89780
    R8        2.09173  -0.00053  -0.00151   0.00382   0.00231   2.09404
    R9        2.65044  -0.00066   0.00469  -0.01551  -0.01081   2.63963
   R10        2.10484  -0.00080  -0.00160   0.00394   0.00234   2.10718
   R11        2.08901  -0.00087  -0.00127   0.00258   0.00131   2.09031
   R12        1.83327   0.00145   0.00138  -0.00279  -0.00141   1.83186
   R13        2.66636  -0.00170   0.00570  -0.01978  -0.01408   2.65228
   R14        2.08786  -0.00048  -0.00120   0.00307   0.00187   2.08973
   R15        2.08702  -0.00080  -0.00133   0.00292   0.00159   2.08861
   R16        1.82125   0.00140   0.00101  -0.00175  -0.00074   1.82051
    A1        1.92328  -0.00076  -0.00194   0.00434   0.00240   1.92568
    A2        1.88473   0.00868   0.00463   0.01162   0.01623   1.90097
    A3        1.93546  -0.00266   0.00083  -0.00391  -0.00315   1.93231
    A4        1.94414  -0.00421  -0.00472  -0.00375  -0.00846   1.93568
    A5        1.90520  -0.00096  -0.00022   0.00376   0.00353   1.90872
    A6        1.91251  -0.00150  -0.00039  -0.00410  -0.00448   1.90803
    A7        1.88161   0.00060  -0.00015  -0.00360  -0.00376   1.87785
    A8        1.94614   0.00383   0.00327   0.00985   0.01313   1.95927
    A9        1.95511  -0.00074   0.00059   0.00273   0.00329   1.95840
   A10        1.85242  -0.00164  -0.00289  -0.00605  -0.00890   1.84352
   A11        1.93983  -0.00181   0.00103  -0.00249  -0.00153   1.93830
   A12        1.89258  -0.00131  -0.00159  -0.00983  -0.01139   1.88119
   A13        1.87305   0.00155  -0.00090   0.00492   0.00401   1.87706
   A14        1.96842   0.00540   0.00408   0.00550   0.00960   1.97801
   A15        1.89742  -0.00108   0.00479  -0.01494  -0.01014   1.88728
   A16        1.91177  -0.00099  -0.00269   0.00271  -0.00003   1.91174
   A17        1.94938  -0.00141  -0.00077   0.00498   0.00433   1.95371
   A18        1.86526  -0.00228  -0.00518   0.00540   0.00020   1.86546
   A19        1.86863   0.00009  -0.00086  -0.00363  -0.00453   1.86410
   A20        1.87137   0.00029   0.00071  -0.00075  -0.00004   1.87133
   A21        1.97092   0.00021  -0.00031   0.00292   0.00261   1.97353
   A22        1.90964   0.00037   0.00388  -0.01147  -0.00759   1.90205
   A23        1.89693  -0.00008   0.00010  -0.00081  -0.00073   1.89621
   A24        1.94878  -0.00047  -0.00176   0.00405   0.00229   1.95107
   A25        1.86384   0.00009  -0.00190   0.00638   0.00448   1.86831
   A26        1.86980  -0.00014  -0.00016  -0.00086  -0.00102   1.86878
   A27        1.89690  -0.00036  -0.00126   0.00309   0.00184   1.89873
    D1        3.13490   0.00019   0.01483  -0.05312  -0.03829   3.09661
    D2        1.04823  -0.00247   0.01166  -0.06265  -0.05096   0.99727
    D3       -1.04745   0.00138   0.01442  -0.05296  -0.03857  -1.08602
    D4       -1.08428  -0.00131  -0.02068  -0.02269  -0.04341  -1.12770
    D5        1.10225  -0.00130  -0.01627  -0.01627  -0.03254   1.06971
    D6        3.14123  -0.00081  -0.01877  -0.01254  -0.03134   3.10990
    D7        1.02142   0.00009  -0.01700  -0.01829  -0.03529   0.98613
    D8       -3.07523   0.00010  -0.01259  -0.01186  -0.02441  -3.09964
    D9       -1.03625   0.00058  -0.01508  -0.00814  -0.02321  -1.05946
   D10        3.07835  -0.00062  -0.01754  -0.02282  -0.04038   3.03796
   D11       -1.01831  -0.00062  -0.01313  -0.01640  -0.02950  -1.04781
   D12        1.02068  -0.00013  -0.01562  -0.01268  -0.02831   0.99237
   D13        1.16306   0.00137   0.01989   0.03518   0.05504   1.21810
   D14       -1.00881   0.00022   0.01428   0.03599   0.05032  -0.95850
   D15       -3.04521   0.00128   0.01412   0.04731   0.06143  -2.98378
   D16       -1.03194   0.00081   0.01577   0.02600   0.04174  -0.99020
   D17        3.07937  -0.00034   0.01016   0.02681   0.03702   3.11639
   D18        1.04298   0.00072   0.01001   0.03813   0.04814   1.09112
   D19       -3.08678   0.00077   0.01725   0.02747   0.04466  -3.04212
   D20        1.02453  -0.00038   0.01164   0.02828   0.03994   1.06448
   D21       -1.01186   0.00068   0.01149   0.03960   0.05105  -0.96080
   D22        0.93562  -0.00189   0.02841  -0.14440  -0.11599   0.81963
   D23       -1.24645  -0.00170   0.02796  -0.14306  -0.11508  -1.36154
   D24        3.00040  -0.00170   0.02592  -0.13520  -0.10928   2.89112
   D25        3.12562   0.00122   0.03402  -0.13123  -0.09722   3.02841
   D26        0.94355   0.00140   0.03357  -0.12989  -0.09631   0.84724
   D27       -1.09278   0.00141   0.03152  -0.12203  -0.09051  -1.18329
   D28       -1.09091  -0.00044   0.03212  -0.14155  -0.10944  -1.20035
   D29        3.01020  -0.00025   0.03167  -0.14020  -0.10853   2.90167
   D30        0.97387  -0.00025   0.02963  -0.13234  -0.10273   0.87114
   D31       -0.77420  -0.00013   0.00199  -0.00438  -0.00240  -0.77660
   D32        1.36891   0.00140   0.01085  -0.01617  -0.00529   1.36362
   D33       -2.87599  -0.00062   0.00636  -0.01462  -0.00829  -2.88427
   D34       -1.51487  -0.00021   0.00136  -0.01121  -0.00985  -1.52472
   D35        0.64579   0.00007   0.00490  -0.02105  -0.01615   0.62964
   D36        2.68432  -0.00030   0.00266  -0.01610  -0.01344   2.67087
         Item               Value     Threshold  Converged?
 Maximum Force            0.008679     0.000015     NO 
 RMS     Force            0.001855     0.000010     NO 
 Maximum Displacement     0.290344     0.000060     NO 
 RMS     Displacement     0.067707     0.000040     NO 
 GradGradGradGradGradGradGradGradGradGradGradGradGradGradGradGradGradGrad

                    Distance matrix (angstroms):
                    1          2          3          4          5
     1  O    0.000000
     2  C    1.416565   0.000000
     3  C    2.393701   1.524191   0.000000
     4  C    2.959095   2.539131   1.533916   0.000000
     5  O    2.813129   3.079666   2.449742   1.396832   0.000000
     6  C    2.924497   2.538003   1.533450   2.528753   2.939201
     7  O    3.306329   2.871431   2.451211   3.785633   4.210964
     8  H    0.962779   1.970130   3.245913   3.813968   3.639206
     9  H    2.086933   1.111316   2.163634   2.755084   3.434802
    10  H    2.088414   1.110165   2.162260   3.490669   4.092954
    11  H    3.316688   2.112096   1.108117   2.149220   3.366795
    12  H    3.288651   2.727205   2.158925   1.115071   2.087680
    13  H    3.987655   3.483824   2.170517   1.106147   2.017955
    14  H    2.007678   2.629642   2.496153   1.921594   0.969380
    15  H    2.771484   2.927224   2.162719   2.671101   2.510766
    16  H    3.974480   3.466577   2.157939   2.820696   3.368691
    17  H    2.905395   2.816626   2.839362   4.127990   4.319022
                    6          7          8          9         10
     6  C    0.000000
     7  O    1.403527   0.000000
     8  H    3.813369   3.983570   0.000000
     9  H    3.493005   3.903665   2.339800   0.000000
    10  H    2.780958   2.548740   2.372483   1.792563   0.000000
    11  H    2.145698   2.764189   4.053977   2.438034   2.410395
    12  H    3.480955   4.597880   3.966071   2.471312   3.717510
    13  H    2.789880   4.119595   4.878456   3.722139   4.306124
    14  H    3.008999   4.070297   2.758164   3.033649   3.638689
    15  H    1.105840   2.084458   3.671744   3.903820   3.351927
    16  H    1.105243   2.025077   4.885421   4.292606   3.699376
    17  H    1.941386   0.963370   3.445725   3.904076   2.432514
                   11         12         13         14         15
    11  H    0.000000
    12  H    2.465280   0.000000
    13  H    2.442843   1.783298   0.000000
    14  H    3.531273   2.438218   2.809538   0.000000
    15  H    3.052319   3.711933   3.004761   2.505989   0.000000
    16  H    2.391721   3.802456   2.630283   3.712689   1.778234
    17  H    3.363528   4.905335   4.644302   3.973436   2.210188
                   16         17
    16  H    0.000000
    17  H    2.796235   0.000000
 Framework group  C1[X(C4H10O3)]
 Deg. of freedom    45
                         Standard orientation:                         
 ---------------------------------------------------------------------
 Center     Atomic      Atomic             Coordinates (Angstroms)
 Number     Number       Type             X           Y           Z
 ---------------------------------------------------------------------
      1          8           0       -0.181122    1.675495   -0.563152
      2          6           0        0.161036    1.188850    0.722445
      3          6           0        0.032038   -0.329867    0.726378
      4          6           0       -1.414985   -0.790619    0.510209
      5          8           0       -1.883776   -0.552936   -0.783964
      6          6           0        0.978178   -0.994525   -0.280854
      7          8           0        2.288431   -0.495495   -0.216857
      8          1           0       -0.145355    2.637509   -0.577141
      9          1           0       -0.510963    1.617697    1.496739
     10          1           0        1.201624    1.469801    0.988356
     11          1           0        0.342356   -0.653153    1.739843
     12          1           0       -2.054120   -0.300551    1.281392
     13          1           0       -1.485559   -1.881026    0.682236
     14          1           0       -1.610784    0.344702   -1.027722
     15          1           0        0.550307   -0.895391   -1.295733
     16          1           0        1.031695   -2.075206   -0.055402
     17          1           0        2.354932    0.276082   -0.789857
 ---------------------------------------------------------------------
 Rotational constants (GHZ):           3.2206627           2.1126266           1.6435765
   118 basis functions,   215 primitive gaussians,   125 cartesian basis functions
    29 alpha electrons       29 beta electrons
       nuclear repulsion energy       345.5554754432 Hartrees.
 NAtoms=   17 NActive=   17 NUniq=   17 SFac= 1.00D+00 NAtFMM=   60 NAOKFM=F Big=F
 Nuclear repulsion after empirical dispersion term =      345.5454205708 Hartrees.
   1 Symmetry operations used in ECPInt.
 ECPInt:  NShTT=    1953 NPrTT=    7871 LenC2=    1941 LenP2D=    6377.
 LDataN:  DoStor=T MaxTD1= 4 Len=   56
 Initial guess from the checkpoint file:  "/scratch/user/peterchao1/peterchao1/6097804_1659647584000000886883764/Gau-7175.chk"
 B after Tr=    -0.000000    0.000000    0.000000
         Rot=    0.999100    0.008936    0.006309    0.040983 Ang=   4.86 deg.
 ExpMin= 1.22D-01 ExpMax= 2.27D+03 ExpMxC= 3.41D+02 IAcc=3 IRadAn=         5 AccDes= 0.00D+00
 Harris functional with IExCor= 4639 and IRadAn=       5 diagonalized for initial guess.
 HarFok:  IExCor= 4639 AccDes= 0.00D+00 IRadAn=         5 IDoV= 1 UseB2=F ITyADJ=14
 ICtDFT=  3500011 ScaDFX=  1.000000  1.000000  1.000000  1.000000
 FoFCou: FMM=F IPFlag=           0 FMFlag=      100000 FMFlg1=           0
         NFxFlg=           0 DoJE=T BraDBF=F KetDBF=T FulRan=T
         wScrn=  0.000000 ICntrl=       500 IOpCl=  0 I1Cent=   200000004 NGrid=           0
         NMat0=    1 NMatS0=      1 NMatT0=    0 NMatD0=    1 NMtDS0=    0 NMtDT0=    0
 Petite list used in FoFCou.
     Minimum is close to point  4 DX=  8.72D-02 DF= -2.76D-05 DXR=  6.77D-02 DFR=  4.61D-03 which will be used.
     Accept linear search using points  2 and  3.
     Accept linear search using points  1 and  2.
     Accept linear search using points  1 and  2.
     Accept linear search using points  1 and  2.
     Minimum is close to point  2 DX=  2.22D-05 DF=  0.00D+00 DXR=  2.22D-05 DFR=  0.00D+00 which will be used.
 SCF Done:  E(RwB97XD) =  -383.656469001     a.u. after    9 cycles
            Convg  =    0.1357D-08                    38 Fock formations.
              S**2 =  0.0000                  -V/T =  2.0081
   1 Symmetry operations used in ECPInt.
 ECPInt:  NShTT=    1953 NPrTT=    7871 LenC2=    1941 LenP2D=    6377.
 LDataN:  DoStor=T MaxTD1= 5 Len=  102
 Calling FoFJK, ICntrl=      2127 FMM=F ISym2X=0 I1Cent= 0 IOpClX= 0 NMat=1 NMatS=1 NMatT=0.

 GradGradGradGradGradGradGradGradGradGradGradGradGradGradGradGradGradGrad
 Using GEDIIS/GDIIS optimizer.
 FormGI is forming the generalized inverse of G from B-inverse, IUseBI=4.
 Internal  Forces:  Max     0.003452090 RMS     0.001047850
 Step number   4 out of a maximum of   89
 All quantities printed in internal units (Hartrees-Bohrs-Radians)
 Mixed Optimization -- RFO/linear search
 Trust test= 5.02D-01 RLast= 3.72D-01 DXMaxT set to 1.12D+00
 ITU=  1  1  1  0
 Use linear search instead of GDIIS.
     Eigenvalues ---    0.00273   0.00349   0.00585   0.01227   0.01367
     Eigenvalues ---    0.01427   0.03877   0.04741   0.04826   0.04876
     Eigenvalues ---    0.05072   0.05508   0.05888   0.05944   0.06629
     Eigenvalues ---    0.10941   0.11610   0.11679   0.13587   0.13842
     Eigenvalues ---    0.14058   0.15913   0.16000   0.16067   0.17223
     Eigenvalues ---    0.17960   0.21866   0.22539   0.27052   0.29008
     Eigenvalues ---    0.29432   0.31467   0.33838   0.33933   0.34125
     Eigenvalues ---    0.34166   0.34223   0.34308   0.38232   0.41472
     Eigenvalues ---    0.42601   0.42750   0.51133   0.51796   0.52723
 Quartic linear search produced a step of -0.30852.
 Iteration  1 RMS(Cart)=  0.02680362 RMS(Int)=  0.00029737
 Iteration  2 RMS(Cart)=  0.00038079 RMS(Int)=  0.00001176
 Iteration  3 RMS(Cart)=  0.00000007 RMS(Int)=  0.00001176
 Variable       Old X    -DE/DX   Delta X   Delta X   Delta X     New X
                                 (Linear)    (Quad)   (Total)
    R1        2.67692   0.00183   0.00251   0.00365   0.00615   2.68307
    R2        1.81939   0.00263   0.00030   0.00595   0.00625   1.82564
    R3        2.88030  -0.00177  -0.00232   0.00190  -0.00043   2.87988
    R4        2.10008  -0.00153  -0.00039  -0.00530  -0.00569   2.09440
    R5        2.09791  -0.00216  -0.00022  -0.00706  -0.00729   2.09062
    R6        2.89868   0.00031  -0.00143   0.00527   0.00384   2.90252
    R7        2.89780   0.00201  -0.00110   0.00669   0.00559   2.90339
    R8        2.09404  -0.00117  -0.00071  -0.00356  -0.00427   2.08976
    R9        2.63963   0.00345   0.00334   0.00704   0.01037   2.65000
   R10        2.10718  -0.00144  -0.00072  -0.00467  -0.00539   2.10179
   R11        2.09031  -0.00127  -0.00040  -0.00405  -0.00446   2.08586
   R12        1.83186   0.00256   0.00043   0.00512   0.00555   1.83741
   R13        2.65228   0.00250   0.00434   0.00483   0.00918   2.66146
   R14        2.08973  -0.00092  -0.00058  -0.00295  -0.00353   2.08620
   R15        2.08861  -0.00117  -0.00049  -0.00381  -0.00430   2.08430
   R16        1.82051   0.00196   0.00023   0.00403   0.00426   1.82476
    A1        1.92568  -0.00158  -0.00074  -0.00995  -0.01069   1.91499
    A2        1.90097  -0.00171  -0.00501   0.00811   0.00310   1.90407
    A3        1.93231   0.00055   0.00097  -0.00124  -0.00024   1.93207
    A4        1.93568   0.00035   0.00261  -0.01146  -0.00885   1.92683
    A5        1.90872   0.00023  -0.00109   0.00260   0.00151   1.91024
    A6        1.90803   0.00046   0.00138  -0.00032   0.00105   1.90907
    A7        1.87785   0.00015   0.00116   0.00234   0.00350   1.88134
    A8        1.95927  -0.00133  -0.00405  -0.00198  -0.00606   1.95320
    A9        1.95840  -0.00055  -0.00102  -0.00539  -0.00643   1.95197
   A10        1.84352   0.00076   0.00275   0.00080   0.00355   1.84707
   A11        1.93830   0.00082   0.00047  -0.00218  -0.00175   1.93656
   A12        1.88119   0.00011   0.00351  -0.00204   0.00147   1.88266
   A13        1.87706   0.00029  -0.00124   0.01181   0.01059   1.88764
   A14        1.97801  -0.00082  -0.00296   0.00628   0.00332   1.98133
   A15        1.88728   0.00142   0.00313   0.00747   0.01060   1.89789
   A16        1.91174   0.00019   0.00001   0.00039   0.00041   1.91214
   A17        1.95371  -0.00103  -0.00133  -0.00947  -0.01083   1.94287
   A18        1.86546   0.00066  -0.00006  -0.00118  -0.00125   1.86421
   A19        1.86410  -0.00041   0.00140  -0.00415  -0.00277   1.86133
   A20        1.87133   0.00046   0.00001   0.00256   0.00257   1.87390
   A21        1.97353   0.00035  -0.00081   0.00055  -0.00025   1.97328
   A22        1.90205   0.00058   0.00234   0.00635   0.00869   1.91074
   A23        1.89621   0.00009   0.00022   0.00195   0.00217   1.89838
   A24        1.95107  -0.00065  -0.00071  -0.00610  -0.00681   1.94426
   A25        1.86831  -0.00013  -0.00138  -0.00027  -0.00165   1.86667
   A26        1.86878  -0.00028   0.00032  -0.00264  -0.00234   1.86644
   A27        1.89873  -0.00110  -0.00057  -0.00637  -0.00694   1.89180
    D1        3.09661  -0.00023   0.01181  -0.00865   0.00316   3.09976
    D2        0.99727   0.00023   0.01572  -0.01627  -0.00055   0.99672
    D3       -1.08602  -0.00054   0.01190  -0.01095   0.00095  -1.08507
    D4       -1.12770   0.00010   0.01339  -0.03378  -0.02039  -1.14809
    D5        1.06971  -0.00031   0.01004  -0.04261  -0.03256   1.03715
    D6        3.10990   0.00021   0.00967  -0.03078  -0.02110   3.08879
    D7        0.98613  -0.00014   0.01089  -0.02870  -0.01783   0.96830
    D8       -3.09964  -0.00054   0.00753  -0.03753  -0.03000  -3.12964
    D9       -1.05946  -0.00003   0.00716  -0.02570  -0.01854  -1.07800
   D10        3.03796   0.00045   0.01246  -0.02456  -0.01211   3.02585
   D11       -1.04781   0.00004   0.00910  -0.03339  -0.02428  -1.07209
   D12        0.99237   0.00055   0.00873  -0.02156  -0.01282   0.97955
   D13        1.21810  -0.00123  -0.01698  -0.02794  -0.04491   1.17319
   D14       -0.95850  -0.00039  -0.01552  -0.02568  -0.04121  -0.99971
   D15       -2.98378  -0.00080  -0.01895  -0.02510  -0.04405  -3.02783
   D16       -0.99020  -0.00011  -0.01288  -0.01747  -0.03034  -1.02054
   D17        3.11639   0.00074  -0.01142  -0.01521  -0.02665   3.08975
   D18        1.09112   0.00033  -0.01485  -0.01463  -0.02949   1.06163
   D19       -3.04212  -0.00098  -0.01378  -0.02931  -0.04307  -3.08519
   D20        1.06448  -0.00014  -0.01232  -0.02705  -0.03938   1.02510
   D21       -0.96080  -0.00055  -0.01575  -0.02647  -0.04222  -1.00302
   D22        0.81963   0.00073   0.03578  -0.00256   0.03322   0.85285
   D23       -1.36154   0.00088   0.03551   0.00016   0.03566  -1.32588
   D24        2.89112   0.00085   0.03371  -0.00124   0.03246   2.92358
   D25        3.02841  -0.00082   0.02999  -0.01114   0.01886   3.04726
   D26        0.84724  -0.00067   0.02972  -0.00842   0.02130   0.86854
   D27       -1.18329  -0.00071   0.02792  -0.00982   0.01810  -1.16520
   D28       -1.20035  -0.00006   0.03376  -0.00772   0.02605  -1.17430
   D29        2.90167   0.00009   0.03349  -0.00501   0.02849   2.93016
   D30        0.87114   0.00006   0.03169  -0.00641   0.02529   0.89643
   D31       -0.77660  -0.00015   0.00074   0.00135   0.00211  -0.77449
   D32        1.36362   0.00032   0.00163   0.00869   0.01028   1.37390
   D33       -2.88427  -0.00033   0.00256  -0.00216   0.00042  -2.88385
   D34       -1.52472   0.00013   0.00304   0.00852   0.01156  -1.51317
   D35        0.62964   0.00067   0.00498   0.01264   0.01761   0.64725
   D36        2.67087  -0.00010   0.00415   0.00595   0.01011   2.68098
         Item               Value     Threshold  Converged?
 Maximum Force            0.003452     0.000015     NO 
 RMS     Force            0.001048     0.000010     NO 
 Maximum Displacement     0.118177     0.000060     NO 
 RMS     Displacement     0.026816     0.000040     NO 
 GradGradGradGradGradGradGradGradGradGradGradGradGradGradGradGradGradGrad

                    Distance matrix (angstroms):
                    1          2          3          4          5
     1  O    0.000000
     2  C    1.419822   0.000000
     3  C    2.398764   1.523964   0.000000
     4  C    2.970501   2.535451   1.535950   0.000000
     5  O    2.797486   3.056618   2.458637   1.402321   0.000000
     6  C    2.905345   2.534777   1.536407   2.531348   2.962974
     7  O    3.303343   2.884026   2.457494   3.793866   4.241985
     8  H    0.966085   1.968483   3.248876   3.823611   3.618279
     9  H    2.087265   1.108308   2.162305   2.741663   3.383902
    10  H    2.082023   1.106310   2.159957   3.485215   4.077101
    11  H    3.320776   2.113006   1.105856   2.150438   3.375244
    12  H    3.340357   2.749501   2.166542   1.112220   2.082689
    13  H    3.984280   3.482003   2.170841   1.103789   2.019952
    14  H    1.991452   2.599329   2.508341   1.930252   0.972318
    15  H    2.734323   2.911755   2.170344   2.689494   2.553881
    16  H    3.953078   3.466860   2.160456   2.814709   3.386005
    17  H    2.888603   2.810081   2.836790   4.134217   4.347371
                    6          7          8          9         10
     6  C    0.000000
     7  O    1.408383   0.000000
     8  H    3.797801   3.982970   0.000000
     9  H    3.490077   3.917814   2.333896   0.000000
    10  H    2.786400   2.570887   2.358978   1.789309   0.000000
    11  H    2.154580   2.765750   4.054414   2.447140   2.406547
    12  H    3.486189   4.611691   4.017347   2.487208   3.728573
    13  H    2.777112   4.111123   4.877468   3.724146   4.304718
    14  H    3.045636   4.116652   2.729892   2.962119   3.617465
    15  H    1.103971   2.082507   3.638238   3.885560   3.340930
    16  H    1.102966   2.026310   4.868397   4.296589   3.712909
    17  H    1.942717   0.965622   3.428913   3.895679   2.428110
                   11         12         13         14         15
    11  H    0.000000
    12  H    2.459864   0.000000
    13  H    2.459907   1.777282   0.000000
    14  H    3.535206   2.440382   2.814456   0.000000
    15  H    3.063391   3.733666   3.003680   2.563462   0.000000
    16  H    2.413169   3.792959   2.609259   3.741556   1.773362
    17  H    3.351913   4.920115   4.634841   4.017205   2.206847
                   16         17
    16  H    0.000000
    17  H    2.797224   0.000000
 Framework group  C1[X(C4H10O3)]
 Deg. of freedom    45
                         Standard orientation:                         
 ---------------------------------------------------------------------
 Center     Atomic      Atomic             Coordinates (Angstroms)
 Number     Number       Type             X           Y           Z
 ---------------------------------------------------------------------
      1          8           0       -0.178659    1.670898   -0.553487
      2          6           0        0.140563    1.172733    0.737181
      3          6           0        0.036109   -0.347596    0.724646
      4          6           0       -1.407272   -0.821070    0.497455
      5          8           0       -1.899295   -0.523042   -0.781449
      6          6           0        0.989199   -0.977539   -0.302650
      7          8           0        2.304108   -0.481181   -0.212164
      8          1           0       -0.151937    2.636585   -0.545982
      9          1           0       -0.552293    1.583964    1.498223
     10          1           0        1.168307    1.467802    1.021078
     11          1           0        0.347477   -0.679670    1.732462
     12          1           0       -2.054723   -0.387321    1.290992
     13          1           0       -1.458720   -1.917721    0.611737
     14          1           0       -1.643843    0.392879   -0.984514
     15          1           0        0.576978   -0.843293   -1.317935
     16          1           0        1.042070   -2.063706   -0.118313
     17          1           0        2.365853    0.317910   -0.750743
 ---------------------------------------------------------------------
 Rotational constants (GHZ):           3.2465153           2.0956914           1.6380433
   118 basis functions,   215 primitive gaussians,   125 cartesian basis functions
    29 alpha electrons       29 beta electrons
       nuclear repulsion energy       345.2293843880 Hartrees.
 NAtoms=   17 NActive=   17 NUniq=   17 SFac= 1.00D+00 NAtFMM=   60 NAOKFM=F Big=F
 Nuclear repulsion after empirical dispersion term =      345.2193262194 Hartrees.
   1 Symmetry operations used in ECPInt.
 ECPInt:  NShTT=    1953 NPrTT=    7871 LenC2=    1941 LenP2D=    6375.
 LDataN:  DoStor=T MaxTD1= 4 Len=   56
 Initial guess from the checkpoint file:  "/scratch/user/peterchao1/peterchao1/6097804_1659647584000000886883764/Gau-7175.chk"
 B after Tr=     0.000000   -0.000000   -0.000000
         Rot=    0.999957   -0.008918    0.000635   -0.002640 Ang=  -1.07 deg.
 ExpMin= 1.22D-01 ExpMax= 2.27D+03 ExpMxC= 3.41D+02 IAcc=3 IRadAn=         5 AccDes= 0.00D+00
 Harris functional with IExCor= 4639 and IRadAn=       5 diagonalized for initial guess.
 HarFok:  IExCor= 4639 AccDes= 0.00D+00 IRadAn=         5 IDoV= 1 UseB2=F ITyADJ=14
 ICtDFT=  3500011 ScaDFX=  1.000000  1.000000  1.000000  1.000000
 FoFCou: FMM=F IPFlag=           0 FMFlag=      100000 FMFlg1=           0
         NFxFlg=           0 DoJE=T BraDBF=F KetDBF=T FulRan=T
         wScrn=  0.000000 ICntrl=       500 IOpCl=  0 I1Cent=   200000004 NGrid=           0
         NMat0=    1 NMatS0=      1 NMatT0=    0 NMatD0=    1 NMtDS0=    0 NMtDT0=    0
 Petite list used in FoFCou.
     Minimum is close to point  4 DX=  8.11D-02 DF= -3.93D-06 DXR=  6.33D-02 DFR=  4.02D-03 which will be used.
     Accept linear search using points  2 and  3.
     Accept linear search using points  1 and  2.
     Accept linear search using points  1 and  2.
     Accept linear search using points  1 and  2.
     Minimum is close to point  2 DX= -2.05D-04 DF= -1.88D-12 DXR=  2.05D-04 DFR=  4.21D-08 which will be used.
 SCF Done:  E(RwB97XD) =  -383.656647231     a.u. after    7 cycles
            Convg  =    0.1468D-08                    32 Fock formations.
              S**2 =  0.0000                  -V/T =  2.0082
   1 Symmetry operations used in ECPInt.
 ECPInt:  NShTT=    1953 NPrTT=    7871 LenC2=    1941 LenP2D=    6375.
 LDataN:  DoStor=T MaxTD1= 5 Len=  102
 Calling FoFJK, ICntrl=      2127 FMM=F ISym2X=0 I1Cent= 0 IOpClX= 0 NMat=1 NMatS=1 NMatT=0.

 GradGradGradGradGradGradGradGradGradGradGradGradGradGradGradGradGradGrad
 Using GEDIIS/GDIIS optimizer.
 FormGI is forming the generalized inverse of G from B-inverse, IUseBI=4.
 Internal  Forces:  Max     0.002026913 RMS     0.000465534
 Step number   5 out of a maximum of   89
 All quantities printed in internal units (Hartrees-Bohrs-Radians)
 Mixed Optimization -- En-DIIS/RFO-DIIS
 Trust test= 7.88D-01 RLast= 1.63D-01 DXMaxT set to 1.12D+00
 ITU=  1  1  1  1  0
 Use linear search instead of GDIIS.
     Eigenvalues ---    0.00226   0.00405   0.00619   0.01157   0.01345
     Eigenvalues ---    0.01531   0.03630   0.04690   0.04774   0.04846
     Eigenvalues ---    0.05154   0.05518   0.05861   0.05942   0.06333
     Eigenvalues ---    0.11536   0.11625   0.11772   0.13738   0.14052
     Eigenvalues ---    0.14456   0.15139   0.16010   0.16048   0.17135
     Eigenvalues ---    0.18038   0.21909   0.22290   0.27201   0.29312
     Eigenvalues ---    0.29484   0.32730   0.33833   0.33990   0.34145
     Eigenvalues ---    0.34172   0.34196   0.34314   0.40830   0.41703
     Eigenvalues ---    0.42822   0.43994   0.51275   0.52247   0.52560
 Quartic linear search produced a step of -0.18077.
 Iteration  1 RMS(Cart)=  0.03377421 RMS(Int)=  0.00054994
 Iteration  2 RMS(Cart)=  0.00067270 RMS(Int)=  0.00000833
 Iteration  3 RMS(Cart)=  0.00000016 RMS(Int)=  0.00000833
 Variable       Old X    -DE/DX   Delta X   Delta X   Delta X     New X
[...]
   aniso      0.657830D+01      0.974804D+00      0.108462D+01
   xx         0.514022D+02      0.761702D+01      0.847508D+01
   yx         0.118299D+01      0.175302D+00      0.195049D+00
   yy         0.496086D+02      0.735123D+01      0.817935D+01
   zx         0.139988D+01      0.207441D+00      0.230810D+00
   zy         0.271073D+01      0.401688D+00      0.446938D+00
   zz         0.534617D+02      0.792220D+01      0.881464D+01

 ----------------------------------------------------------------------
 1\1\GINC-C242\Freq\RwB97XD\def2SVPP\C4H10O3\PETERCHAO1\04-Aug-2022\0\\
 #T Geom=AllCheck Guess=TCheck SCRF=Check GenChk RwB97XD/def2SVPP Freq\
 \Comment gs min\\0,1\O,2.9032947628,-0.5826938957,1.0450125903\C,2.274
 2243753,0.1084008244,-0.0276431744\C,2.8325309689,1.5248431802,-0.0898
 619729\C,2.4102567414,2.3593145922,1.1271079588\O,2.9475589083,1.89037
 50829,2.3344142793\C,4.3642971883,1.5186247381,-0.2421570228\O,4.83331
 76024,0.5503828724,-1.1479289037\H,2.5079367177,-1.4585578967,1.143057
 9266\H,1.17688445,0.1470958779,0.1225213215\H,2.4715175713,-0.40782633
 38,-0.9854803891\H,2.3861220627,1.986455414,-0.9898705251\H,1.29930460
 88,2.3954046436,1.1656782915\H,2.7581090193,3.4001786607,1.0022170833\
 H,2.9208684588,0.919056231,2.3102101872\H,4.8218392532,1.3916299401,0.
 7552490453\H,4.6906531489,2.499381818,-0.6265913817\H,4.8495241618,-0.
 2991457494,-0.6869353141\\Version=ES64L-G16RevB.01\State=1-A\HF=-383.6
 568148\RMSD=3.673e-10\RMSF=6.266e-07\ZeroPoint=0.1498586\Thermal=0.157
 9429\Dipole=-0.8456616,-1.0482162,-0.244193\DipoleDeriv=-0.5048903,0.1
 782564,-0.0662538,0.1720896,-0.6725526,0.2054485,-0.0529784,0.1849437,
 -0.7745979,0.3826361,-0.087647,0.1006857,-0.1156326,0.4151359,-0.23149
 48,0.1240177,-0.1831172,0.5642026,-0.1058452,0.0264352,0.1033667,-0.00
 45648,-0.0248789,-0.0378921,0.0047894,-0.064604,-0.0116124,0.4773439,-
 0.1147456,0.0959878,-0.1284663,0.392349,-0.1148339,0.145092,-0.1134549
 ,0.6912402,-0.5787427,0.1267703,-0.0341754,0.1183725,-0.5289038,0.1594
 284,-0.0986414,0.0949453,-0.927666,0.5206625,-0.141086,-0.1900213,-0.1
 62895,0.5052692,0.1876859,-0.134548,0.1818525,0.4238452,-0.7486853,0.1
 541657,0.152509,0.2090318,-0.6245058,-0.3238284,0.1614903,-0.2882102,-
 0.5443395,0.2693137,-0.08542,-0.0342744,-0.0549282,0.2490201,-0.002361
 9,-0.0554251,-0.0447007,0.304196,-0.1985935,0.0022781,-0.0069913,0.006
 5974,0.0126167,0.0378487,0.0578761,0.0517493,0.0004517,0.0625812,0.062
 8627,0.0285347,0.0283365,-0.0662035,-0.0712126,-0.0180478,-0.0507001,-
 0.1258191,-0.0210695,0.0175554,-0.0617171,0.0218932,0.0022717,0.045886
 2,-0.0701666,0.0549443,-0.0853895,-0.2666942,0.0642845,-0.0071742,-0.0
 092089,0.0200858,0.0001095,0.0019463,0.0037199,-0.0475896,0.0285391,-0
 .092829,-0.00194,-0.0347258,-0.1578221,0.0160936,-0.0062285,0.0150799,
 0.0002385,0.2866672,-0.0403458,-0.0572321,-0.0027353,0.3641412,0.02145
 76,-0.0370776,0.0515698,0.390309,0.0029386,0.0222624,-0.0480783,0.0387
 706,0.0159821,0.0211839,-0.07737,-0.0294898,-0.0859419,-0.0084579,-0.0
 404618,0.0279259,-0.0464724,-0.1216372,0.0287839,0.0571695,0.0643349,0
 .0278195,0.4022963,-0.0523357,-0.0011518,-0.0354623,0.2196324,0.057697
 5,-0.001898,0.0711374,0.2006534\Polar=50.0271153,0.3739509,55.5810216,
 -1.1166831,0.3905489,48.8643187\Quadrupole=0.2184435,6.0821249,-6.3005
 683,1.3181406,2.1519456,-3.3048535\PG=C01 [X(C4H10O3)]\NImag=0\\0.2278
 5989,0.15028322,0.56809821,0.09937394,-0.13644709,0.25027363,-0.118033
 21,0.03598347,-0.07448113,0.59519629,0.00669443,-0.12166509,0.03733574
 ,0.00145455,0.52084934,-0.05791568,0.06935754,-0.17342163,-0.03336547,
 0.05368958,0.56109800,0.00909121,0.01982859,-0.00303829,-0.10622335,-0
 .04715251,0.00164615,0.51554173,-0.00470483,-0.02359258,0.01032094,-0.
 04143445,-0.18222013,-0.00018251,-0.01894750,0.53511694,0.00931656,0.0
 3887292,-0.00613509,-0.00135765,-0.01063033,-0.08289202,0.05135442,-0.
 03661225,0.57663469,-0.00094109,-0.00007693,-0.00063313,0.00484883,-0.
 00739236,-0.01027663,-0.09919008,0.02009475,0.02755519,0.58650939,0.00
 051382,0.00401609,0.00122206,0.00742474,-0.02559989,-0.03468136,0.0179
 5494,-0.12558749,-0.04109483,0.03176205,0.61676044,-0.00081915,-0.0013
 6188,-0.00685853,-0.00185224,-0.00859872,0.00723462,0.02564024,-0.0492
 7745,-0.13706462,0.00331941,-0.02707085,0.47771983,0.00357204,-0.00077
 413,-0.00040690,-0.00130192,0.00128400,0.00031937,0.00505125,-0.001409
 31,0.00144805,-0.10299664,0.01396877,-0.07220384,0.11135628,-0.0016493
 8,-0.00820755,-0.00816794,0.00110091,-0.00300063,0.00670201,-0.0080698
 6,0.01034287,-0.00932290,0.02976190,-0.12224881,0.07039662,-0.02528123
 ,0.60521566,0.00008957,-0.00697070,0.00468627,0.00000690,0.00521797,-0
 .00015879,-0.01557265,0.01615001,-0.04356279,-0.06680410,0.02831066,-0
 .21337900,0.11912779,-0.05216811,0.32420340,-0.00198481,0.00233073,-0.
 00136026,-0.01857229,-0.01200153,0.00420709,-0.18132811,-0.01144539,-0
 .01096190,-0.00583388,0.00593101,0.01312571,-0.00399146,0.00248337,-0.
 00397974,0.48299725,0.00265808,0.00008254,-0.00135609,-0.03854565,0.00
 194780,0.00424280,-0.00765912,-0.08555659,0.00408529,0.02140808,-0.001
 91504,-0.00364831,-0.00079784,0.00071922,0.00173634,0.02156594,0.61735
 980,0.00189279,-0.00231889,-0.00036259,0.00404866,0.00476531,0.0009962
 4,-0.00264189,0.00487557,-0.08380358,0.02886556,-0.00310635,-0.0032769
 6,-0.00164526,0.00066741,0.00126405,0.02745704,-0.04876831,0.59996083,
 0.00051755,-0.00147475,0.00213365,0.00088341,0.00081638,-0.00224578,-0
 .01265551,0.02945547,0.03303659,-0.00965952,-0.00062409,-0.00422756,0.
 00177429,-0.00101019,0.00157774,-0.08458768,0.03469796,0.04706519,0.10
 111831,-0.00214591,0.00187699,0.00120425,-0.00082656,-0.00426434,-0.00
 147985,0.00928558,-0.00634140,-0.01168132,0.00216690,0.00161522,0.0024
 9337,0.00081329,0.00098090,-0.00179243,0.04818109,-0.17803745,-0.09798
 731,-0.08062412,0.59961398,0.00105380,0.00127284,0.00012508,-0.0021373
 9,-0.00255700,-0.00203328,0.01163071,-0.01068471,-0.00710775,0.0015256
 4,0.00123505,0.00114912,0.00240430,-0.00019237,-0.00068735,0.03533716,
 -0.04772509,-0.17238473,-0.07794476,-0.08281273,0.35015529,-0.11029320
 ,-0.20494655,0.00866831,0.00676139,0.02235564,-0.00456455,-0.00200564,
 0.00139001,-0.00271763,0.00010444,-0.00014358,-0.00036008,0.00006267,0
 .00018987,0.00040653,0.00017070,-0.00040414,-0.00068774,-0.00015128,0.
 00037382,0.00039763,0.10466109,-0.17087381,-0.41205441,0.05884305,-0.0
 1040573,-0.01802838,-0.00060504,0.00331933,-0.00039290,0.00445395,-0.0
 0017527,0.00038725,-0.00014534,0.00036537,0.00041398,-0.00040234,0.000
 25409,0.00047656,0.00010928,0.00039541,0.00008998,-0.00023488,0.179861
 55,0.42889312,-0.01046382,0.02538855,-0.03434343,0.01475529,0.03206155
 ,-0.00361762,-0.00349005,0.00181840,-0.00501043,-0.00073147,0.00050572
 ,-0.00072301,0.00074421,-0.00216197,-0.00129148,-0.00062003,-0.0002784
 0,0.00020121,-0.00010594,-0.00044545,-0.00027787,-0.00067983,-0.059379
 50,0.04034051,-0.01263840,0.00722109,-0.00948968,-0.29237398,0.0049881
 7,0.04412151,-0.01133001,0.00026781,0.00251505,-0.00010959,0.00179018,
 0.00044246,0.00060198,-0.00043192,-0.00038409,0.00075847,-0.00223925,0
 .00071298,0.00015080,-0.00022451,-0.00013902,0.00016661,-0.00051766,-0
 .00060586,0.31852868,0.02198646,-0.00323447,0.00667302,0.00386933,-0.0
 5258352,-0.00384346,-0.03233182,0.00079453,0.00394347,-0.00181135,0.00
 181738,0.00082475,0.00049339,0.00004198,-0.00023860,-0.00001712,-0.007
 27633,-0.00036107,0.00117225,0.00122709,0.00031163,0.00141293,0.001052
 78,-0.00039081,-0.00933180,0.05660210,-0.03703136,0.00814392,-0.003136
 89,0.04944737,-0.00253557,-0.06298653,0.00084885,-0.00163942,0.0004157
 4,-0.00151129,-0.00015408,-0.00030310,0.00034449,-0.00046330,0.0002970
 0,0.00037825,-0.00053961,-0.00016982,0.00106896,0.00122413,0.00074309,
 0.00003160,-0.00172427,0.00107148,-0.03920687,-0.00349846,0.06550364,0
 .00350943,-0.00548896,-0.02402867,-0.06549180,0.02773629,0.04987375,0.
 00339068,-0.00548684,-0.01101805,-0.00129114,-0.00172850,0.00085024,0.
 00005752,0.00000542,0.00015188,0.00057091,-0.00094979,-0.00115608,-0.0
 0077927,0.00046598,0.00020621,-0.00008155,-0.00068797,0.00113464,-0.00
 424883,0.01543338,0.02601994,0.06480064,0.00006411,0.01011828,0.025376
 94,0.02530836,-0.11453996,-0.10906708,0.00701499,-0.01522744,-0.026462
 04,-0.00362007,-0.00597392,0.00309671,-0.00032830,0.00132457,-0.000578
 06,0.00201258,-0.00127336,-0.00151816,0.00120502,0.00205654,0.00122721
 ,-0.00040088,0.00151098,0.00033713,-0.00105043,0.00179150,0.00009408,-
 0.03039851,0.12135949,-0.00536281,-0.00018195,-0.03162658,0.04447786,-
 0.10663210,-0.23257398,-0.00074870,0.00042423,0.00281416,0.00034488,0.
 00031385,0.00068237,0.00007565,-0.00050434,0.00035817,0.00080448,-0.00
 149160,-0.00131491,0.00228778,0.00222592,0.00075533,-0.00051903,-0.001
 00010,-0.00022309,0.00192463,-0.00344819,-0.00145167,-0.04204752,0.108
 84900,0.26156716,-0.00019769,-0.00324087,0.00050749,0.00395090,-0.0038
 1580,0.00964349,-0.08731844,0.04379630,-0.08305048,0.00280100,-0.00519
 519,0.00779668,0.00104071,0.00115292,0.00239221,-0.01593470,0.01188232
 ,-0.02969931,0.00179160,-0.00071297,0.00207118,0.00054045,-0.00060165,
 0.00035431,0.00014319,0.00057198,0.00022683,0.00067528,0.00042883,-0.0
 0030756,0.09774218,-0.00360322,-0.00797478,0.00086530,0.01465657,-0.01
 047756,0.02564026,0.04307520,-0.09676447,0.08883328,-0.00825396,0.0088
 2072,-0.01400099,0.00081583,-0.00123429,-0.00515287,-0.00187432,0.0004
 5693,-0.00099930,0.00018641,-0.00008045,-0.00026452,0.00080581,-0.0010
 6227,0.00151326,-0.00060212,0.00068590,-0.00004969,0.00069375,0.000130
 49,-0.00018522,-0.04411184,0.10592818,0.00064820,0.00006433,0.00156247
 ,-0.00133943,-0.00066671,-0.00285603,-0.08248669,0.08900399,-0.2206696
 3,-0.01223322,0.01479131,-0.01859483,0.00176696,-0.00363317,-0.0061098
 6,0.00320795,-0.00244375,0.00315617,-0.00080292,0.00087719,0.00093026,
 -0.00025378,-0.00022940,0.00021813,0.00030660,0.00026139,0.00006352,0.
 00023585,-0.00003395,0.00084082,0.09006912,-0.09592753,0.23774430,0.00
 062518,0.00021566,0.00050953,-0.00010730,-0.00075891,-0.00141806,-0.01
 040127,-0.00173752,0.00162454,-0.28663981,-0.00050497,0.02367899,-0.00
 958701,0.00871364,-0.01632798,0.00205328,0.00065631,0.00134578,-0.0007
 4111,0.00087185,0.00048340,-0.00011429,0.00011727,0.00016930,0.0007923
 3,0.00098805,0.00004484,0.00040973,-0.00012489,0.00008398,0.00009520,0
 .00016983,0.00095041,0.31317894,-0.00053940,-0.00016062,-0.00009612,0.
 00228492,0.00111681,0.00050834,0.02037336,-0.00110908,-0.00432608,-0.0
 0331448,-0.05641148,0.00020853,0.01667098,0.00251718,0.00543279,-0.001
 83618,-0.00164998,-0.00230180,0.00171351,-0.00054558,-0.00079894,0.000
 06923,-0.00012007,-0.00002648,-0.00061227,-0.00048520,-0.00013754,-0.0
 0023457,0.00031263,0.00005396,-0.00046631,0.00049490,0.00013022,-0.006
 20687,0.05310057,-0.00012855,0.00015644,0.00070274,0.00051271,0.001612
 89,0.00023504,0.02810073,-0.00152219,-0.00198560,0.02304136,0.00045726
 ,-0.05025759,-0.03980404,0.00764662,-0.01075217,-0.00216305,-0.0034575
 0,-0.00327084,0.00254985,-0.00123463,-0.00098143,0.00005866,-0.0000342
 9,0.00007044,-0.00061152,-0.00043742,0.00015808,-0.00007303,0.00027038
 ,0.00005226,-0.00029620,0.00065336,0.00061920,-0.01275538,-0.00173859,
 0.06389647,0.00001268,-0.00020014,0.00017821,-0.00066789,0.00043016,0.
 00141399,0.00377482,0.01081170,-0.00079771,-0.08575266,-0.08853911,0.0
 1068979,0.00678832,0.01967386,-0.00531293,0.00041724,0.00115503,-0.000
 20713,0.00017457,-0.00049082,-0.00028708,-0.00003511,0.00005416,0.0000
 6403,0.00052260,0.00027217,0.00006773,0.00053774,0.00041244,0.00008219
 ,0.00027325,-0.00060940,-0.00049563,-0.00931383,-0.02940149,0.00217385
 ,0.08328241,0.00028615,0.00004568,0.00006692,0.00132763,-0.00032926,-0
 .00391812,-0.00644753,-0.01534156,0.00144718,-0.08125392,-0.27864041,0
 .02091084,0.00278220,-0.01254698,0.00858324,-0.00088731,-0.00011422,0.
 00088623,0.00022313,0.00064683,-0.00011039,-0.00001554,0.00009533,-0.0
 0012938,0.00006706,0.00025492,0.00001050,-0.00043225,-0.00116721,0.000
 10576,-0.00005887,0.00042997,-0.00037126,-0.00025275,0.00214647,-0.000
 85742,0.08489702,0.30250015,0.00014145,0.00047791,0.00125108,0.0022688
 9,-0.00214548,-0.00512792,-0.00986751,-0.02504369,0.00380167,0.0075375
 6,0.01378244,-0.05073829,0.00244192,0.03873810,-0.01104023,-0.00047464
 ,-0.00019157,0.00052423,-0.00010846,0.00051456,0.00011751,0.00007809,0
 .00004034,0.00005998,0.00016205,0.00025862,-0.00001446,-0.00039841,-0.
 00166782,0.00003345,-0.00045290,0.00042775,0.00078630,0.00243470,0.003
 17383,0.00176274,-0.00435543,-0.02929372,0.06501639,-0.00381018,0.0012
 8140,0.00271206,0.00099725,-0.00053644,-0.00219818,0.00190801,-0.00100
 912,-0.00047634,-0.00090025,0.01794541,-0.00223971,-0.01501085,-0.0254
 7429,-0.01614258,0.00063447,0.00035539,0.00152104,-0.00032488,-0.00051
 080,-0.00090148,-0.00016785,-0.00077114,-0.00120521,-0.00074593,-0.000
 19629,-0.00037479,-0.00026309,0.00013804,0.00002793,-0.00048670,0.0000
 4336,-0.00000513,-0.00087386,0.00128627,-0.00081752,-0.00013350,-0.000
 78527,0.00012014,0.02050668,0.00095923,-0.00550161,0.00388175,-0.00282
 342,0.00678888,-0.00516151,-0.00015330,0.00292053,-0.00199656,0.000376
 12,-0.01725292,0.00523058,-0.00737141,-0.47389564,0.00188950,-0.000776
 69,0.00060051,0.00080710,0.00019399,-0.00126205,-0.00084229,0.00014386
 ,-0.00155163,0.00091296,0.00064466,-0.00059101,0.00080868,0.00063776,-
 0.00110601,0.00141475,0.00026957,-0.00092058,-0.00117635,-0.00175448,0
 .00044108,-0.00187906,0.00172821,0.00186941,0.00069490,0.00831702,0.48
 889663,0.00083611,0.00223018,-0.00279700,-0.00253935,-0.00023188,-0.00
 662577,0.00094638,0.00115066,0.00049030,-0.00016366,0.04566865,-0.0053
 8066,-0.01687413,-0.04656472,-0.04201362,0.00086331,-0.00030291,-0.000
 94344,-0.00056486,0.00012351,0.00046641,-0.00011730,0.00021215,0.00333
 414,0.00047602,-0.00020741,0.00029879,0.00019288,0.00000122,0.00055560
 ,-0.00015296,-0.00020592,0.00096489,-0.00051648,-0.00014299,-0.0002067
 1,-0.00330426,0.00295638,-0.00620100,0.01981814,-0.00469074,0.05814429
 ,0.00071234,-0.00082103,0.00105349,-0.00027509,0.00219475,-0.00149027,
 -0.01588549,0.00717651,-0.02861924,-0.00109325,0.00091482,-0.00372606,
 0.00287340,-0.00109382,0.00114997,-0.09992448,0.01657133,-0.10057689,0
 .00764525,0.00075089,0.01711234,0.00030174,0.00004177,0.00024207,0.000
 09136,-0.00036128,0.00027131,-0.00006130,-0.00009753,0.00002612,-0.006
 21757,-0.00068806,0.00090027,0.00059084,-0.00014942,0.00033978,0.00004
 128,0.00004488,0.00031677,-0.00146427,-0.00078294,0.00087436,0.1061717
 1,-0.00025116,-0.00058070,0.00018420,-0.00017546,0.00002527,-0.0006054
 4,-0.00052276,0.00176198,-0.00100894,0.00100766,0.00040305,0.00083610,
 -0.00043153,-0.00050523,-0.00036154,0.01590805,-0.06354202,0.04201558,
 -0.00654491,-0.00401281,-0.03449747,0.00002215,0.00009504,-0.00001582,
 0.00009986,0.00003304,0.00012613,0.00021497,0.00013979,-0.00000198,0.0
 0036712,0.00085710,-0.00023389,-0.00014797,-0.00007923,-0.00001089,-0.
 00008457,-0.00006172,0.00002637,-0.00043181,0.00032541,0.00029301,-0.0
 2093626,0.06340771,0.00070983,0.00060126,0.00015812,-0.00042577,0.0003
 4479,-0.00049006,-0.00003127,0.00094164,0.00405722,-0.00017522,-0.0006
 7283,-0.00049613,0.00204357,-0.00059674,-0.00122530,-0.10024976,0.0352
 6287,-0.25555768,-0.00260223,-0.00937083,-0.02325325,0.00024923,-0.000
 11291,0.00005806,-0.00000548,0.00000609,0.00009813,0.00022573,0.000127
 60,0.00014325,0.00108491,-0.00034349,0.00053469,-0.00027947,0.00018893
 ,0.00003159,-0.00018967,0.00002832,-0.00007193,0.00039887,0.00040992,-
 0.00027098,0.10333018,-0.02922550,0.28234632,0.00078524,0.00032506,0.0
 0015289,-0.00660035,0.00192718,0.00089300,-0.01234434,-0.02961640,0.01
 211287,0.00036656,-0.00108004,-0.00074538,0.00016641,0.00017124,-0.000
 11949,-0.07429453,-0.07390462,0.02985921,0.00379805,0.01663672,-0.0034
 7491,-0.00000977,0.00012900,-0.00000074,-0.00074407,-0.00183283,0.0000
 4133,0.00014987,0.00008283,-0.00013831,0.00111366,-0.00041488,-0.00041
 069,0.00015993,0.00035229,-0.00015684,0.00006859,0.00076197,0.00035255
 ,-0.00015505,-0.00015691,-0.00025874,0.00547624,0.01269766,-0.00480572
 ,0.08183465,-0.00023927,0.00025416,0.00013825,0.00058182,0.00082087,-0
 .00040180,0.00040068,0.00086114,0.00093363,-0.00039124,0.00012074,0.00
 024446,-0.00032193,0.00008380,0.00000924,-0.06978871,-0.24993999,0.087
 27432,0.00080664,-0.02997312,0.00248245,0.00003507,0.00001371,-0.00008
 968,-0.00003848,0.00003223,0.00010208,0.00015034,0.00003662,0.00010301
 ,0.00005541,0.00072505,-0.00033495,-0.00010006,0.00024968,0.00019833,-
 0.00014142,0.00012748,0.00019851,0.00011330,-0.00002043,-0.00014660,-0
 .00135354,-0.00109270,0.00157037,0.07115458,0.28004287,0.00025892,0.00
 019277,0.00022861,-0.00010090,-0.00014540,0.00013626,-0.00276710,0.001
 04477,0.00102152,-0.00008434,0.00086344,-0.00020304,0.00068222,-0.0008
 9109,-0.00042344,0.03093955,0.09807355,-0.09461833,-0.00361717,-0.0290
 9425,0.00884530,0.00020217,-0.00011123,0.00008781,0.00001760,0.0000848
 5,0.00001261,0.00023073,0.00002124,0.00005658,-0.00003374,-0.00090755,
 0.00084922,-0.00002763,-0.00014794,0.00005427,0.00031689,-0.00041940,-
 0.00014278,-0.00053262,0.00003073,0.00041981,0.00925237,0.02424747,-0.
 00661258,-0.03499652,-0.08777766,0.09256337,0.00121300,-0.00044586,-0.
 00185153,-0.00299088,0.00177600,0.00135626,-0.00007545,0.00279882,0.00
 003573,-0.00022231,-0.00039026,0.00063050,-0.00045700,-0.00024243,-0.0
 0025903,-0.00115040,0.01354996,-0.00615395,-0.00895460,0.00598958,0.01
 266228,0.00008962,-0.00050470,0.00043911,0.00043476,-0.00031745,-0.000
 66718,-0.00188481,-0.00064660,-0.00101157,-0.00001232,-0.00028896,-0.0
 0005788,-0.00012696,0.00001042,0.00002918,0.00000949,-0.00025660,-0.00
 019677,0.00029000,0.00054872,0.00048453,0.00101727,-0.00079103,0.00072
 227,0.00022891,-0.00092320,0.00025958,0.01259168,0.00056149,-0.0015201
 4,-0.00004516,0.00021896,0.00115978,-0.00019436,0.00003172,0.00033565,
 0.00056552,-0.00028787,-0.00031093,-0.00013841,-0.00047814,-0.00000103
 ,0.00033491,-0.00003958,-0.03233837,0.01596039,0.01941189,-0.38359032,
 0.17419123,-0.00074926,0.00018092,0.00037991,-0.00003039,-0.00016291,0
 .00023241,0.00006950,0.00050701,-0.00004500,-0.00032096,-0.00001487,-0
 .00007746,-0.00014421,0.00018192,0.00017673,0.00003222,0.00008512,0.00
 000896,0.00023497,0.00025943,-0.00014258,-0.00141106,0.00282602,0.0008
 4048,0.00276714,-0.00234212,-0.00506431,-0.01986642,0.41474484,-0.0025
 9980,0.00052187,-0.00030627,0.00208166,-0.00088465,0.00308347,0.000476
 67,-0.00076801,-0.00100379,0.00042346,-0.00037013,0.00048982,-0.000464
 36,0.00051588,-0.00016487,0.00348885,-0.03319770,0.00960015,0.00249992
 ,0.22723587,-0.15656173,-0.00019230,0.00032053,0.00004518,-0.00023639,
 0.00006161,-0.00059961,-0.00040010,-0.00007438,-0.00066890,-0.00015306
 ,0.00010385,-0.00003962,-0.00000045,0.00001989,-0.00012851,-0.00003684
 ,0.00010433,-0.00001672,0.00029538,-0.00033434,-0.00023505,-0.00045658
 ,-0.00176738,0.00055055,0.00169549,-0.00450397,-0.00227519,-0.00642155
 ,-0.18698327,0.14823110\\-0.00000008,-0.00000046,-0.00000077,-0.000000
 12,0.00000054,-0.00000115,-0.00000008,0.00000010,0.00000036,0.00000008
 ,-0.00000053,0.00000078,-0.00000060,-0.00000120,0.00000028,0.00000033,
 0.00000028,0.00000045,0.00000023,0.00000090,0.00000018,-0.00000024,-0.
 00000044,-0.00000170,0.00000004,0.00000020,-0.00000097,0.00000032,0.00
 000078,-0.00000095,0.00000038,0.00000083,0.00000037,-0.00000021,-0.000
 00037,0.00000036,-0.00000011,-0.00000030,0.00000124,-0.00000039,-0.000
 00120,-0.00000006,-0.00000005,-0.00000030,0.00000065,0.00000030,0.0000
 0058,0.00000128,0.00000022,0.00000058,-0.00000036\\\@


 There was a great rattling of the words for the fewness of ideas.
                   -- Charles Baxter in Gryphon
 File lengths (MBytes):  RWF=     35 Int=      0 D2E=      0 Chk=      2 Scr=      1
 Normal termination of Gaussian 16 at Thu Aug  4 16:21:34 2022.
real 509.82
user 1926.86
sys 14.92
