 Entering Gaussian System, Link 0=g16
 Input=gaussian_test.inp
 Output=gaussian_test.log
 Initial command:
 /sw/restricted/lms/sw/Gaussian/g16_B01/g16/l1.exe "/scratch/user/peterchao1/peterchao1/9993839_1712002017000000944761641/Gau-31496.inp" -scrdir="/scratch/user/peterchao1/peterchao1/9993839_1712002017000000944761641/"
 Entering Link 1 = /sw/restricted/lms/sw/Gaussian/g16_B01/g16/l1.exe PID=     31497.
  
 Copyright (c) 1988-2017, Gaussian, Inc.  All Rights Reserved.
  
 This is part of the Gaussian(R) 16 program.  It is based on
 the Gaussian(R) 09 system (copyright 2009, Gaussian, Inc.),
 the Gaussian(R) 03 system (copyright 2003, Gaussian, Inc.),
 the Gaussian(R) 98 system (copyright 1998, Gaussian, Inc.),
 the Gaussian(R) 94 system (copyright 1995, Gaussian, Inc.),
 the Gaussian 92(TM) system (copyright 1992, Gaussian, Inc.),
 the Gaussian 90(TM) system (copyright 1990, Gaussian, Inc.),
 the Gaussian 88(TM) system (copyright 1988, Gaussian, Inc.),
 the Gaussian 86(TM) system (copyright 1986, Carnegie Mellon
 University), and the Gaussian 82(TM) system (copyright 1983,
 Carnegie Mellon University). Gaussian is a federally registered
 trademark of Gaussian, Inc.
  
 This software contains proprietary and confidential information,
 including trade secrets, belonging to Gaussian, Inc.
  
 This software is provided under written license and may be
 used, copied, transmitted, or stored only in accord with that
 written license.
  
 The following legend is applicable only to US Government
 contracts under FAR:
  
                    RESTRICTED RIGHTS LEGEND
  
 Use, reproduction and disclosure by the US Government is
 subject to restrictions as set forth in subparagraphs (a)
 and (c) of the Commercial Computer Software - Restricted
 Rights clause in FAR 52.227-19.
  
 Gaussian, Inc.
 340 Quinnipiac St., Bldg. 40, Wallingford CT 06492
  
  
 ---------------------------------------------------------------
 Warning -- This program may not be used in any manner that
 competes with the business of Gaussian, Inc. or will provide
 assistance to any competitor of Gaussian, Inc.  The licensee
 of this program is prohibited from giving any competitor of
 Gaussian, Inc. access to this program.  By using this program,
 the user acknowledges that Gaussian, Inc. is engaged in the
 business of creating and licensing software in the field of
 computational chemistry and represents and warrants to the
 licensee that it is not a competitor of Gaussian, Inc. and that
 it will not use this program in any manner prohibited above.
 ---------------------------------------------------------------
  

 Cite this work as:
 Gaussian 16, Revision B.01,
 M. J. Frisch, G. W. Trucks, H. B. Schlegel, G. E. Scuseria, 
 M. A. Robb, J. R. Cheeseman, G. Scalmani, V. Barone, 
 G. A. Petersson, H. Nakatsuji, X. Li, M. Caricato, A. V. Marenich, 
 J. Bloino, B. G. Janesko, R. Gomperts, B. Mennucci, H. P. Hratchian, 
 J. V. Ortiz, A. F. Izmaylov, J. L. Sonnenberg, D. Williams-Young, 
 F. Ding, F. Lipparini, F. Egidi, J. Goings, B. Peng, A. Petrone, 
 T. Henderson, D. Ranasinghe, V. G. Zakrzewski, J. Gao, N. Rega, 
 G. Zheng, W. Liang, M. Hada, M. Ehara, K. Toyota, R. Fukuda, 
 J. Hasegawa, M. Ishida, T. Nakajima, Y. Honda, O. Kitao, H. Nakai, 
 T. Vreven, K. Throssell, J. A. Montgomery, Jr., J. E. Peralta, 
 F. Ogliaro, M. J. Bearpark, J. J. Heyd, E. N. Brothers, K. N. Kudin, 
 V. N. Staroverov, T. A. Keith, R. Kobayashi, J. Normand, 
 K. Raghavachari, A. P. Rendell, J. C. Burant, S. S. Iyengar, 
 J. Tomasi, M. Cossi, J. M. Millam, M. Klene, C. Adamo, R. Cammi, 
 J. W. Ochterski, R. L. Martin, K. Morokuma, O. Farkas, 
 J. B. Foresman, and D. J. Fox, Gaussian, Inc., Wallingford CT, 2016.
 
 ******************************************
 Gaussian 16:  ES64L-G16RevB.01 20-Dec-2017
                 1-Apr-2024 
 ******************************************
 %nprocshared=4
 Will use up to    4 processors via shared memory.
 %mem=8000mb
 %chk=dimer.chk
 %nprocshared=4
 Will use up to    4 processors via shared memory.
 %mem=8000mb
 ----------------------------------------------------------------------
 #T wB97XD/def2svpp opt=tight freq int(grid=ultrafine) scf=(verytight,q
 c) Volume=tight
 ----------------------------------------------------------------------
 -----
 Dimer
 -----
 Symbolic Z-matrix:
 Charge =  0 Multiplicity = 1
 C                     2.75784  -2.31638   0.01739 
 C                     2.47573  -1.0101   -0.71498 
 C                     2.70976   0.27294   0.10071 
 C                     1.96296   0.23248   1.43662 
 C                     4.20081   0.49699   0.35879 
 C                     2.18802   1.46191  -0.73719 
 O                     0.83143   1.37241  -1.08141 
 H                     2.61677  -3.15363  -0.66332 
 H                     2.08322  -2.451     0.85848 
 H                     3.78119  -2.35095   0.38286 
 H                     1.43672  -1.00921  -1.04993 
 H                     3.10424  -0.963    -1.60784 
 H                     2.41201  -0.49763   2.10475 
 H                     0.91788  -0.02841   1.2922 
 H                     2.00795   1.2061    1.92171 
 H                     4.61099  -0.30413   0.96792 
 H                     4.35659   1.43606   0.8861 
 H                     4.75228   0.53571  -0.57818 
 H                     2.72975   1.50401  -1.6867 
 H                     2.38207   2.39838  -0.19213 
 H                     0.30782   1.35817  -0.26235 
 C                    -1.31277  -2.13054  -0.03428 
 C                    -1.84729  -0.92493  -0.80016 
 C                    -2.88535  -0.06727  -0.0537 
 C                    -3.41744   0.99082  -1.03005 
 C                    -4.05732  -0.91825   0.44153 
 C                    -2.26311   0.63691   1.16816 
 O                    -1.2448    1.56178   0.85801 
 H                    -0.83465  -1.83263   0.89527 
 H                    -0.57048  -2.64397  -0.64118 
 H                    -2.10565  -2.83756   0.19581 
 H                    -2.30927  -1.28065  -1.72435 
 H                    -1.01031  -0.28323  -1.08213 
 H                    -4.01493   0.51454  -1.80363 
 H                    -2.59991   1.51572  -1.52142 
 H                    -4.04812   1.71363  -0.51369 
 H                    -4.85931  -0.28062   0.80809 
 H                    -3.75027  -1.57306   1.25263 
 H                    -4.44893  -1.5279   -0.36912 
 H                    -1.80025  -0.09492   1.83268 
 H                    -3.06193   1.14131   1.73088 
 H                    -1.62315   2.24431   0.29176 
 
 Add virtual bond connecting atoms O28        and H21        Dist= 3.64D+00.

 GradGradGradGradGradGradGradGradGradGradGradGradGradGradGradGradGradGrad
 Initialization pass.
                           ----------------------------
                           !    Initial Parameters    !
                           ! (Angstroms and Degrees)  !
 --------------------------                            --------------------------
 ! Name  Definition              Value          Derivative Info.                !
 --------------------------------------------------------------------------------
 ! R1    R(1,2)                  1.5239         estimate D2E/DX2                !
 ! R2    R(1,8)                  1.0882         estimate D2E/DX2                !
 ! R3    R(1,9)                  1.0866         estimate D2E/DX2                !
 ! R4    R(1,10)                 1.0872         estimate D2E/DX2                !
 ! R5    R(2,3)                  1.5383         estimate D2E/DX2                !
 ! R6    R(2,11)                 1.0917         estimate D2E/DX2                !
 ! R7    R(2,12)                 1.0929         estimate D2E/DX2                !
 ! R8    R(3,4)                  1.531          estimate D2E/DX2                !
 ! R9    R(3,5)                  1.5297         estimate D2E/DX2                !
 ! R10   R(3,6)                  1.5453         estimate D2E/DX2                !
 ! R11   R(4,13)                 1.0868         estimate D2E/DX2                !
 ! R12   R(4,14)                 1.0868         estimate D2E/DX2                !
 ! R13   R(4,15)                 1.0887         estimate D2E/DX2                !
 ! R14   R(5,16)                 1.0868         estimate D2E/DX2                !
 ! R15   R(5,17)                 1.0882         estimate D2E/DX2                !
 ! R16   R(5,18)                 1.0879         estimate D2E/DX2                !
 ! R17   R(6,7)                  1.4024         estimate D2E/DX2                !
 ! R18   R(6,19)                 1.094          estimate D2E/DX2                !
 ! R19   R(6,20)                 1.1008         estimate D2E/DX2                !
 ! R20   R(7,21)                 0.9722         estimate D2E/DX2                !
 ! R21   R(21,28)                1.9254         estimate D2E/DX2                !
 ! R22   R(22,23)                1.5251         estimate D2E/DX2                !
 ! R23   R(22,29)                1.0869         estimate D2E/DX2                !
 ! R24   R(22,30)                1.0876         estimate D2E/DX2                !
 ! R25   R(22,31)                1.087          estimate D2E/DX2                !
 ! R26   R(23,24)                1.5396         estimate D2E/DX2                !
 ! R27   R(23,32)                1.0927         estimate D2E/DX2                !
 ! R28   R(23,33)                1.0917         estimate D2E/DX2                !
 ! R29   R(24,25)                1.5349         estimate D2E/DX2                !
 ! R30   R(24,26)                1.5307         estimate D2E/DX2                !
 ! R31   R(24,27)                1.5414         estimate D2E/DX2                !
 ! R32   R(25,34)                1.0873         estimate D2E/DX2                !
 ! R33   R(25,35)                1.0887         estimate D2E/DX2                !
 ! R34   R(25,36)                1.0894         estimate D2E/DX2                !
 ! R35   R(26,37)                1.0882         estimate D2E/DX2                !
 ! R36   R(26,38)                1.0867         estimate D2E/DX2                !
 ! R37   R(26,39)                1.0873         estimate D2E/DX2                !
 ! R38   R(27,28)                1.4102         estimate D2E/DX2                !
 ! R39   R(27,40)                1.0915         estimate D2E/DX2                !
 ! R40   R(27,41)                1.0996         estimate D2E/DX2                !
 ! R41   R(28,42)                0.9642         estimate D2E/DX2                !
 ! A1    A(2,1,8)              109.5645         estimate D2E/DX2                !
 ! A2    A(2,1,9)              111.3011         estimate D2E/DX2                !
 ! A3    A(2,1,10)             111.2888         estimate D2E/DX2                !
 ! A4    A(8,1,9)              107.9616         estimate D2E/DX2                !
 ! A5    A(8,1,10)             107.9287         estimate D2E/DX2                !
 ! A6    A(9,1,10)             108.6782         estimate D2E/DX2                !
 ! A7    A(1,2,3)              115.5914         estimate D2E/DX2                !
 ! A8    A(1,2,11)             108.9264         estimate D2E/DX2                !
 ! A9    A(1,2,12)             108.8504         estimate D2E/DX2                !
 ! A10   A(3,2,11)             107.8676         estimate D2E/DX2                !
 ! A11   A(3,2,12)             108.045          estimate D2E/DX2                !
 ! A12   A(11,2,12)            107.2562         estimate D2E/DX2                !
 ! A13   A(2,3,4)              111.4961         estimate D2E/DX2                !
 ! A14   A(2,3,5)              111.0953         estimate D2E/DX2                !
 ! A15   A(2,3,6)              107.6295         estimate D2E/DX2                !
 ! A16   A(4,3,5)              109.3968         estimate D2E/DX2                !
 ! A17   A(4,3,6)              109.1938         estimate D2E/DX2                !
 ! A18   A(5,3,6)              107.9318         estimate D2E/DX2                !
 ! A19   A(3,4,13)             110.6486         estimate D2E/DX2                !
 ! A20   A(3,4,14)             111.0668         estimate D2E/DX2                !
 ! A21   A(3,4,15)             110.1822         estimate D2E/DX2                !
 ! A22   A(13,4,14)            108.5269         estimate D2E/DX2                !
 ! A23   A(13,4,15)            108.0467         estimate D2E/DX2                !
 ! A24   A(14,4,15)            108.2779         estimate D2E/DX2                !
 ! A25   A(3,5,16)             110.7617         estimate D2E/DX2                !
 ! A26   A(3,5,17)             110.3453         estimate D2E/DX2                !
 ! A27   A(3,5,18)             110.7324         estimate D2E/DX2                !
 ! A28   A(16,5,17)            108.0895         estimate D2E/DX2                !
 ! A29   A(16,5,18)            108.521          estimate D2E/DX2                !
 ! A30   A(17,5,18)            108.3044         estimate D2E/DX2                !
 ! A31   A(3,6,7)              114.2411         estimate D2E/DX2                !
 ! A32   A(3,6,19)             109.4531         estimate D2E/DX2                !
 ! A33   A(3,6,20)             109.0599         estimate D2E/DX2                !
 ! A34   A(7,6,19)             105.5704         estimate D2E/DX2                !
 ! A35   A(7,6,20)             110.2642         estimate D2E/DX2                !
 ! A36   A(19,6,20)            108.043          estimate D2E/DX2                !
 ! A37   A(6,7,21)             108.3678         estimate D2E/DX2                !
 ! A38   A(7,21,28)            157.3597         estimate D2E/DX2                !
 ! A39   A(23,22,29)           111.5298         estimate D2E/DX2                !
 ! A40   A(23,22,30)           109.4            estimate D2E/DX2                !
 ! A41   A(23,22,31)           111.398          estimate D2E/DX2                !
 ! A42   A(29,22,30)           107.8417         estimate D2E/DX2                !
 ! A43   A(29,22,31)           108.549          estimate D2E/DX2                !
 ! A44   A(30,22,31)           107.9934         estimate D2E/DX2                !
 ! A45   A(22,23,24)           115.6718         estimate D2E/DX2                !
 ! A46   A(22,23,32)           108.3957         estimate D2E/DX2                !
 ! A47   A(22,23,33)           109.0062         estimate D2E/DX2                !
 ! A48   A(24,23,32)           107.8399         estimate D2E/DX2                !
 ! A49   A(24,23,33)           108.3426         estimate D2E/DX2                !
 ! A50   A(32,23,33)           107.2788         estimate D2E/DX2                !
 ! A51   A(23,24,25)           108.0196         estimate D2E/DX2                !
 ! A52   A(23,24,26)           111.309          estimate D2E/DX2                !
 ! A53   A(23,24,27)           111.5089         estimate D2E/DX2                !
 ! A54   A(25,24,26)           108.882          estimate D2E/DX2                !
 ! A55   A(25,24,27)           109.2231         estimate D2E/DX2                !
 ! A56   A(26,24,27)           107.854          estimate D2E/DX2                !
 ! A57   A(24,25,34)           109.9439         estimate D2E/DX2                !
 ! A58   A(24,25,35)           111.0465         estimate D2E/DX2                !
 ! A59   A(24,25,36)           110.8892         estimate D2E/DX2                !
 ! A60   A(34,25,35)           107.621          estimate D2E/DX2                !
 ! A61   A(34,25,36)           108.0425         estimate D2E/DX2                !
 ! A62   A(35,25,36)           109.1924         estimate D2E/DX2                !
 ! A63   A(24,26,37)           110.3356         estimate D2E/DX2                !
 ! A64   A(24,26,38)           111.1088         estimate D2E/DX2                !
 ! A65   A(24,26,39)           110.2594         estimate D2E/DX2                !
 ! A66   A(37,26,38)           108.0534         estimate D2E/DX2                !
 ! A67   A(37,26,39)           108.3159         estimate D2E/DX2                !
 ! A68   A(38,26,39)           108.6861         estimate D2E/DX2                !
 ! A69   A(24,27,28)           114.6317         estimate D2E/DX2                !
 ! A70   A(24,27,40)           110.3328         estimate D2E/DX2                !
 ! A71   A(24,27,41)           108.7809         estimate D2E/DX2                !
 ! A72   A(28,27,40)           105.5104         estimate D2E/DX2                !
 ! A73   A(28,27,41)           109.6508         estimate D2E/DX2                !
 ! A74   A(40,27,41)           107.7017         estimate D2E/DX2                !
 ! A75   A(21,28,27)           129.8609         estimate D2E/DX2                !
 ! A76   A(21,28,42)            92.8403         estimate D2E/DX2                !
 ! A77   A(27,28,42)           108.0642         estimate D2E/DX2                !
 ! D1    D(8,1,2,3)           -176.7621         estimate D2E/DX2                !
 ! D2    D(8,1,2,11)            61.6464         estimate D2E/DX2                !
 ! D3    D(8,1,2,12)           -54.9971         estimate D2E/DX2                !
 ! D4    D(9,1,2,3)             63.9079         estimate D2E/DX2                !
 ! D5    D(9,1,2,11)           -57.6836         estimate D2E/DX2                !
 ! D6    D(9,1,2,12)          -174.3272         estimate D2E/DX2                !
 ! D7    D(10,1,2,3)           -57.4807         estimate D2E/DX2                !
 ! D8    D(10,1,2,11)         -179.0721         estimate D2E/DX2                !
 ! D9    D(10,1,2,12)           64.2843         estimate D2E/DX2                !
 ! D10   D(1,2,3,4)            -52.5753         estimate D2E/DX2                !
 ! D11   D(1,2,3,5)             69.7351         estimate D2E/DX2                !
 ! D12   D(1,2,3,6)           -172.3049         estimate D2E/DX2                !
 ! D13   D(11,2,3,4)            69.5825         estimate D2E/DX2                !
 ! D14   D(11,2,3,5)          -168.1071         estimate D2E/DX2                !
 ! D15   D(11,2,3,6)           -50.1471         estimate D2E/DX2                !
 ! D16   D(12,2,3,4)          -174.7705         estimate D2E/DX2                !
 ! D17   D(12,2,3,5)           -52.4602         estimate D2E/DX2                !
 ! D18   D(12,2,3,6)            65.4998         estimate D2E/DX2                !
 ! D19   D(2,3,4,13)            69.7958         estimate D2E/DX2                !
 ! D20   D(2,3,4,14)           -50.8044         estimate D2E/DX2                !
 ! D21   D(2,3,4,15)          -170.7824         estimate D2E/DX2                !
 ! D22   D(5,3,4,13)           -53.4868         estimate D2E/DX2                !
 ! D23   D(5,3,4,14)          -174.087          estimate D2E/DX2                !
 ! D24   D(5,3,4,15)            65.935          estimate D2E/DX2                !
 ! D25   D(6,3,4,13)          -171.4038         estimate D2E/DX2                !
 ! D26   D(6,3,4,14)            67.996          estimate D2E/DX2                !
 ! D27   D(6,3,4,15)           -51.982          estimate D2E/DX2                !
 ! D28   D(2,3,5,16)           -63.608          estimate D2E/DX2                !
 ! D29   D(2,3,5,17)           176.7397         estimate D2E/DX2                !
 ! D30   D(2,3,5,18)            56.8382         estimate D2E/DX2                !
 ! D31   D(4,3,5,16)            59.9116         estimate D2E/DX2                !
 ! D32   D(4,3,5,17)           -59.7407         estimate D2E/DX2                !
 ! D33   D(4,3,5,18)          -179.6422         estimate D2E/DX2                !
 ! D34   D(6,3,5,16)           178.6153         estimate D2E/DX2                !
 ! D35   D(6,3,5,17)            58.9631         estimate D2E/DX2                !
 ! D36   D(6,3,5,18)           -60.9385         estimate D2E/DX2                !
 ! D37   D(2,3,6,7)             58.435          estimate D2E/DX2                !
 ! D38   D(2,3,6,19)           -59.6798         estimate D2E/DX2                !
 ! D39   D(2,3,6,20)          -177.6858         estimate D2E/DX2                !
 ! D40   D(4,3,6,7)            -62.7467         estimate D2E/DX2                !
 ! D41   D(4,3,6,19)           179.1386         estimate D2E/DX2                !
 ! D42   D(4,3,6,20)            61.1325         estimate D2E/DX2                !
 ! D43   D(5,3,6,7)            178.4201         estimate D2E/DX2                !
 ! D44   D(5,3,6,19)            60.3053         estimate D2E/DX2                !
 ! D45   D(5,3,6,20)           -57.7007         estimate D2E/DX2                !
 ! D46   D(3,6,7,21)            61.2968         estimate D2E/DX2                !
 ! D47   D(19,6,7,21)         -178.3968         estimate D2E/DX2                !
 ! D48   D(20,6,7,21)          -61.9336         estimate D2E/DX2                !
 ! D49   D(6,7,21,28)          158.3719         estimate D2E/DX2                !
 ! D50   D(7,21,28,27)          88.5017         estimate D2E/DX2                !
 ! D51   D(7,21,28,42)         -27.9783         estimate D2E/DX2                !
 ! D52   D(29,22,23,24)        -59.1656         estimate D2E/DX2                !
 ! D53   D(29,22,23,32)        179.6316         estimate D2E/DX2                !
 ! D54   D(29,22,23,33)         63.1687         estimate D2E/DX2                !
 ! D55   D(30,22,23,24)       -178.383          estimate D2E/DX2                !
 ! D56   D(30,22,23,32)         60.4142         estimate D2E/DX2                !
 ! D57   D(30,22,23,33)        -56.0487         estimate D2E/DX2                !
 ! D58   D(31,22,23,24)         62.2933         estimate D2E/DX2                !
 ! D59   D(31,22,23,32)        -58.9095         estimate D2E/DX2                !
 ! D60   D(31,22,23,33)       -175.3724         estimate D2E/DX2                !
 ! D61   D(22,23,24,25)       -173.6938         estimate D2E/DX2                !
 ! D62   D(22,23,24,26)        -54.2103         estimate D2E/DX2                !
 ! D63   D(22,23,24,27)         66.2835         estimate D2E/DX2                !
 ! D64   D(32,23,24,25)        -52.1925         estimate D2E/DX2                !
 ! D65   D(32,23,24,26)         67.291          estimate D2E/DX2                !
 ! D66   D(32,23,24,27)       -172.2152         estimate D2E/DX2                !
 ! D67   D(33,23,24,25)         63.62           estimate D2E/DX2                !
 ! D68   D(33,23,24,26)       -176.8965         estimate D2E/DX2                !
 ! D69   D(33,23,24,27)        -56.4027         estimate D2E/DX2                !
 ! D70   D(23,24,25,34)         68.751          estimate D2E/DX2                !
 ! D71   D(23,24,25,35)        -50.2404         estimate D2E/DX2                !
 ! D72   D(23,24,25,36)       -171.833          estimate D2E/DX2                !
 ! D73   D(26,24,25,34)        -52.2555         estimate D2E/DX2                !
 ! D74   D(26,24,25,35)       -171.2469         estimate D2E/DX2                !
 ! D75   D(26,24,25,36)         67.1605         estimate D2E/DX2                !
 ! D76   D(27,24,25,34)       -169.7991         estimate D2E/DX2                !
 ! D77   D(27,24,25,35)         71.2094         estimate D2E/DX2                !
 ! D78   D(27,24,25,36)        -50.3831         estimate D2E/DX2                !
 ! D79   D(23,24,26,37)       -170.0294         estimate D2E/DX2                !
 ! D80   D(23,24,26,38)         70.1457         estimate D2E/DX2                !
 ! D81   D(23,24,26,39)        -50.4227         estimate D2E/DX2                !
 ! D82   D(25,24,26,37)        -51.0602         estimate D2E/DX2                !
 ! D83   D(25,24,26,38)       -170.8851         estimate D2E/DX2                !
 ! D84   D(25,24,26,39)         68.5464         estimate D2E/DX2                !
 ! D85   D(27,24,26,37)         67.3478         estimate D2E/DX2                !
 ! D86   D(27,24,26,38)        -52.4771         estimate D2E/DX2                !
 ! D87   D(27,24,26,39)       -173.0455         estimate D2E/DX2                !
 ! D88   D(23,24,27,28)         63.2256         estimate D2E/DX2                !
 ! D89   D(23,24,27,40)        -55.6975         estimate D2E/DX2                !
 ! D90   D(23,24,27,41)       -173.6354         estimate D2E/DX2                !
 ! D91   D(25,24,27,28)        -56.0852         estimate D2E/DX2                !
 ! D92   D(25,24,27,40)       -175.0083         estimate D2E/DX2                !
 ! D93   D(25,24,27,41)         67.0539         estimate D2E/DX2                !
 ! D94   D(26,24,27,28)       -174.2744         estimate D2E/DX2                !
 ! D95   D(26,24,27,40)         66.8025         estimate D2E/DX2                !
 ! D96   D(26,24,27,41)        -51.1353         estimate D2E/DX2                !
 ! D97   D(24,27,28,21)        -49.7142         estimate D2E/DX2                !
 ! D98   D(24,27,28,42)         60.177          estimate D2E/DX2                !
 ! D99   D(40,27,28,21)         71.8832         estimate D2E/DX2                !
 ! D100  D(40,27,28,42)       -178.2256         estimate D2E/DX2                !
 ! D101  D(41,27,28,21)       -172.3846         estimate D2E/DX2                !
 ! D102  D(41,27,28,42)        -62.4935         estimate D2E/DX2                !
 --------------------------------------------------------------------------------
 Number of steps in this run=    230 maximum allowed number of steps=    252.
 GradGradGradGradGradGradGradGradGradGradGradGradGradGradGradGradGradGrad

                    Distance matrix (angstroms):
                    1          2          3          4          5
     1  C    0.000000
     2  C    1.523914   0.000000
     3  C    2.591098   1.538281   0.000000
     4  C    3.023694   2.536993   1.531014   0.000000
     5  C    3.180208   2.529867   1.529717   2.497929   0.000000
     6  C    3.894809   2.488798   1.545298   2.507504   2.486680
     7  O    4.304136   2.917936   2.476770   2.986682   3.767399
     8  H    1.088241   2.148782   3.511941   4.037693   4.108639
     9  H    1.086591   2.169342   2.895967   2.747690   3.663954
    10  H    1.087200   2.169650   2.848220   3.330238   2.878789
    11  H    2.143185   1.091666   2.142082   2.828724   3.448674
    12  H    2.143127   1.092906   2.145297   3.464165   2.683596
    13  H    2.790072   2.866631   2.167627   1.086788   2.690248
    14  H    3.200843   2.723859   2.172863   1.086799   3.453257
    15  H    4.073895   3.475993   2.163191   1.088700   2.784640
    16  H    2.895998   2.808900   2.167885   2.742201   1.086771
    17  H    4.170302   3.476321   2.163730   2.735160   1.088201
    18  H    3.530843   2.755164   2.168364   3.454218   1.087896
    19  H    4.183310   2.707311   2.170431   3.458302   2.713329
    20  H    4.734349   3.449627   2.170405   2.742184   2.688237
    21  H    4.425284   3.242435   2.660613   2.625483   4.035198
    22  C    4.075180   4.008921   4.687824   4.298588   6.120294
    23  C    4.879735   4.324699   4.797209   4.567369   6.320175
    24  C    6.075290   5.483370   5.607569   5.081044   7.120546
    25  C    7.082998   6.231567   6.271893   5.967271   7.759548
    26  C    6.970018   6.635261   6.879572   6.209526   8.378933
    27  C    5.937693   5.358684   5.099161   4.253865   6.515905
    28  O    5.636302   4.788654   4.227670   3.520164   5.571149
    29  H    3.729709   3.772015   4.198528   3.519150   5.574124
    30  H    3.408632   3.457507   4.451824   4.359998   5.799207
    31  H    4.894597   5.015795   5.733451   5.245799   7.135635
    32  H    5.457290   4.897773   5.561934   5.525690   7.062619
    33  H    4.420593   3.579889   3.943014   3.930700   5.462671
    34  H    7.563116   6.755616   6.993310   6.805438   8.495576
    35  H    6.764499   5.726448   5.689325   5.587172   7.129011
    36  H    7.927436   7.072475   6.937012   6.490815   8.383699
    37  H    7.924050   7.526931   7.622186   6.870356   9.104528
    38  H    6.665872   6.553735   6.816644   5.994569   8.264608
    39  H    7.260072   6.952594   7.396660   6.889992   8.913361
    40  H    5.385749   5.060837   4.845124   3.798132   6.207690
    41  H    6.982939   6.424677   6.060031   5.114892   7.419247
    42  H    6.329947   5.329681   4.764128   4.268294   6.080800
                    6          7          8          9         10
     6  C    0.000000
     7  O    1.402442   0.000000
     8  H    4.635997   4.883363   0.000000
     9  H    4.227060   4.466388   1.759048   0.000000
    10  H    4.281429   4.970777   1.759172   1.766165   0.000000
    11  H    2.601673   2.457535   2.478005   2.477653   3.057734
    12  H    2.734538   3.301053   2.434868   3.056040   2.519441
    13  H    3.459273   4.018321   3.841678   2.340291   2.876514
    14  H    2.820066   2.757503   4.059221   2.723061   3.797321
    15  H    2.677241   3.229645   5.104929   3.809268   4.262048
    16  H    3.449213   4.614719   3.841557   3.318238   2.284810
    17  H    2.708949   4.037559   5.147129   4.503138   3.863392
    18  H    2.731034   4.040591   4.263668   4.255388   3.193654
    19  H    1.093987   1.996824   4.770081   4.747429   4.499931
    20  H    1.100788   2.061058   5.576911   4.970878   4.984408
    21  H    1.942004   0.972225   5.084122   4.349489   5.122319
    22  C    5.065109   4.238483   4.108970   3.525963   5.115760
    23  C    4.688789   3.540116   4.991356   4.530881   5.925616
    24  C    5.342714   4.116219   6.338021   5.585774   7.060348
    25  C    5.632844   4.266282   7.329571   6.757953   8.061272
    26  C    6.786666   5.609485   7.124681   6.342663   7.968585
    27  C    4.911577   3.895859   6.444823   5.340569   6.788050
    28  O    3.786673   2.847444   6.281816   5.213262   6.387159
    29  H    4.759778   4.117690   4.010804   2.982901   4.673033
    30  H    4.947405   4.276736   3.227811   3.054228   4.480129
    31  H    6.147485   5.289762   4.810329   4.258542   5.909882
    32  H    5.359262   4.161253   5.375837   5.228255   6.532961
    33  H    3.659754   2.476513   4.644382   4.246779   5.420349
    34  H    6.364857   4.974407   7.663889   7.284826   8.589024
    35  H    4.852027   3.462398   7.053571   6.582590   7.700383
    36  H    6.245224   4.924303   8.254295   7.537928   8.866952
    37  H    7.422211   6.219907   8.143154   7.274048   8.895244
    38  H    6.959434   5.925832   6.834337   5.912329   7.621315
    39  H    7.288587   6.066405   7.256277   6.710291   8.305283
    40  H    4.993418   4.191741   5.924161   4.645581   6.192256
    41  H    5.810001   4.808388   7.511745   6.335482   7.800087
    42  H    4.024410   2.944612   6.930136   6.008682   7.094476
                   11         12         13         14         15
    11  H    0.000000
    12  H    1.758984   0.000000
    13  H    3.341397   3.805139   0.000000
    14  H    2.591672   3.750188   1.764324   0.000000
    15  H    3.750277   4.285395   1.760528   1.763112   0.000000
    16  H    3.826864   3.055975   2.483004   3.717562   3.156948
    17  H    4.272378   3.680167   3.000937   3.759566   2.577106
    18  H    3.688126   2.454054   3.707116   4.303394   3.772295
    19  H    2.897185   2.496523   4.299138   3.808552   3.691933
    20  H    3.638850   3.718158   3.696404   3.199446   2.455567
    21  H    2.738460   3.875322   3.670799   2.170580   2.771948
    22  C    3.138250   4.832101   4.595199   3.339802   5.097671
    23  C    3.294574   5.017118   5.173277   3.581606   5.178107
    24  C    4.534311   6.252426   5.736387   4.034534   5.428448
    25  C    5.250085   6.832540   6.784175   5.022620   6.180142
    26  C    5.693611   7.449153   6.692945   5.125235   6.594792
    27  C    4.617186   6.250952   4.901143   3.252190   4.374220
    28  O    4.176216   5.600812   4.378104   2.719266   3.440688
    29  H    3.101768   4.747284   3.712940   2.546392   4.285774
    30  H    2.620757   4.154954   4.587176   3.576914   5.295259
    31  H    4.176498   5.823239   5.434026   4.270257   6.020933
    32  H    3.815875   5.424066   6.129080   4.591530   6.173819
    33  H    2.552652   4.203330   4.681289   3.069249   4.511213
    34  H    5.710548   7.273518   7.589831   5.849065   7.115581
    35  H    4.784552   6.220035   6.505540   4.761896   5.760501
    36  H    6.146944   7.714781   7.312953   5.563914   6.547121
    37  H    6.604776   8.349881   7.389223   5.802921   7.114056
    38  H    5.703029   7.452431   6.313190   4.917221   6.428722
    39  H    5.947549   7.674883   7.365732   5.814725   7.376579
    40  H    4.429819   6.053488   4.240203   2.772133   4.025287
    41  H    5.709246   7.320986   5.726254   4.171278   5.073883
    42  H    4.663508   6.020259   5.204582   3.552881   4.113328
                   16         17         18         19         20
    16  H    0.000000
    17  H    1.760588   0.000000
    18  H    1.765137   1.763891   0.000000
    19  H    3.722292   3.044752   2.501413   0.000000
    20  H    3.690166   2.446900   3.039154   1.776099   0.000000
    21  H    4.774311   4.209216   4.530935   2.813494   2.321531
    22  C    6.279420   6.760869   6.647519   5.681761   5.847047
    23  C    6.724652   6.848788   6.762920   5.256901   5.413104
    24  C    7.569337   7.455790   7.679320   6.055152   5.817587
    25  C    8.374040   8.019066   8.194857   6.203427   6.026424
    26  C    8.705966   8.748385   8.986814   7.514053   7.270996
    27  C    6.941106   6.673727   7.230191   5.816420   5.150820
    28  O    6.146865   5.602866   6.251432   4.719735   3.867416
    29  H    5.656558   6.134608   6.244509   5.523106   5.425057
    30  H    5.908613   6.576871   6.200491   5.402812   5.860425
    31  H    7.219954   7.778231   7.681746   6.765662   6.906902
    32  H    7.489451   7.656928   7.380939   5.757375   6.155620
    33  H    5.983491   5.969375   5.842263   4.189002   4.414907
    34  H    9.097155   8.841161   8.852465   6.817873   6.860574
    35  H    7.842558   7.361745   7.476949   5.332228   5.231277
    36  H    9.013700   8.524999   8.879118   6.881818   6.474546
    37  H    9.471681   9.374747   9.745296   8.185517   7.785576
    38  H    8.461789   8.655071   8.949416   7.752331   7.447505
    39  H    9.239448   9.375377   9.432091   7.903280   7.880964
    40  H    6.472674   6.414555   7.010384   5.955119   5.273350
    41  H    7.845069   7.472276   8.170700   6.734604   5.908921
    42  H    6.768765   6.063307   6.657487   4.838389   4.037285
                   21         22         23         24         25
    21  H    0.000000
    22  C    3.853496   0.000000
    23  C    3.185326   1.525055   0.000000
    24  C    3.503101   2.594319   1.539594   0.000000
    25  C    3.821246   3.894114   2.487633   1.534906   0.000000
    26  C    4.973127   3.037866   2.534970   1.530669   2.493899
    27  C    3.029240   3.163513   2.546871   1.541421   2.507961
    28  O    1.925437   3.799218   3.048980   2.485237   2.934480
    29  H    3.581414   1.086926   2.173441   2.867471   4.283635
    30  H    4.114857   1.087626   2.147238   3.513283   4.633372
    31  H    4.861985   1.086959   2.171833   2.888719   4.228476
    32  H    3.993736   2.138150   1.092740   2.143653   2.621004
    33  H    2.259131   2.145242   1.091713   2.149435   2.724003
    34  H    4.666200   4.174778   2.788851   2.162572   1.087311
    35  H    3.172533   4.142897   2.653950   2.177509   1.088733
    36  H    4.377647   4.742331   3.447862   2.176062   1.089427
    37  H    5.525464   4.087758   3.474745   2.164426   2.659755
    38  H    5.230237   2.812174   2.873212   2.173021   3.448900
    39  H    5.564839   3.211042   2.705154   2.162805   2.800842
    40  H    3.308260   2.804801   2.760974   2.176380   3.462571
    41  H    3.921124   4.108576   3.485810   2.162535   2.787789
    42  H    2.195661   4.397954   3.359560   2.656292   2.556941
                   26         27         28         29         30
    26  C    0.000000
    27  C    2.483079   0.000000
    28  O    3.772833   1.410157   0.000000
    29  H    3.380467   2.865937   3.419302   0.000000
    30  H    4.038374   4.111316   4.515599   1.757482   0.000000
    31  H    2.748298   3.611396   4.531419   1.764812   1.759203
    32  H    2.806795   3.470705   3.985108   3.056403   2.460753
    33  H    3.465412   2.734955   2.687597   2.518259   2.441520
    34  H    2.663726   3.451864   3.981791   4.786173   4.815784
    35  H    3.449850   2.849491   2.738639   4.490880   4.711315
    36  H    2.799880   2.678472   3.124621   4.988742   5.576648
    37  H    1.088171   2.777007   4.057296   4.314418   5.106847
    38  H    1.086716   2.665097   4.032411   2.948877   3.852845
    39  H    1.087288   3.439101   4.617186   3.841161   4.044996
    40  H    2.776245   1.091519   2.000792   2.197890   3.758982
    41  H    2.625834   1.099627   2.059284   3.808325   5.114917
    42  H    3.993673   1.939428   0.964177   4.196117   5.086631
                   31         32         33         34         35
    31  H    0.000000
    32  H    2.480420   0.000000
    33  H    3.059011   1.759144   0.000000
    34  H    4.345079   2.477558   3.191355   0.000000
    35  H    4.705769   2.818749   2.440495   1.756217   0.000000
    36  H    4.998994   3.668113   3.679522   1.761492   1.775395
    37  H    3.807287   3.730421   4.288094   2.857677   3.709230
    38  H    2.328210   3.320308   3.823895   3.710645   4.308054
    39  H    2.743226   2.544786   3.725812   2.533324   3.743035
    40  H    3.208526   3.783850   3.025817   4.301048   3.805739
    41  H    4.370619   4.286143   3.761844   3.713996   3.306221
    42  H    5.105628   4.118350   2.941358   3.619860   2.184612
                   36         37         38         39         40
    36  H    0.000000
    37  H    2.526297   0.000000
    38  H    3.743127   1.760116   0.000000
    39  H    3.269415   1.763501   1.766426   0.000000
    40  H    3.718775   3.231434   2.514743   3.730531   0.000000
    41  H    2.517579   2.470634   2.840841   3.668578   1.769322
    42  H    2.609768   4.136988   4.474403   4.759347   2.806747
                   41         42
    41  H    0.000000
    42  H    2.314684   0.000000
 Framework group  C1[X(C12H28O2)]
 Deg. of freedom   120
                         Standard orientation:                         
 ---------------------------------------------------------------------
 Center     Atomic      Atomic             Coordinates (Angstroms)
 Number     Number       Type             X           Y           Z
 ---------------------------------------------------------------------
      1          6           0       -2.758552    2.281051   -0.012740
      2          6           0       -2.471454    0.972013   -0.738210
      3          6           0       -2.707868   -0.307825    0.081810
      4          6           0       -1.967457   -0.260821    1.421058
      5          6           0       -4.199864   -0.532535    0.333779
      6          6           0       -2.180784   -1.499731   -0.748543
      7          8           0       -0.822679   -1.410095   -1.086715
      8          1           0       -2.615217    3.115571   -0.696334
      9          1           0       -2.088073    2.420042    0.830954
     10          1           0       -3.783657    2.315974    0.347734
     11          1           0       -1.430868    0.970922   -1.068230
     12          1           0       -3.095672    0.920383   -1.633828
     13          1           0       -2.420514    0.471591    2.083945
     14          1           0       -0.921999    0.000692    1.280486
     15          1           0       -2.013614   -1.232421    1.910069
     16          1           0       -4.613851    0.270675    0.937552
     17          1           0       -4.357048   -1.469544    0.864333
     18          1           0       -4.746837   -0.575883   -0.605615
     19          1           0       -2.717954   -1.546503   -1.700420
     20          1           0       -2.376336   -2.434109   -0.200426
     21          1           0       -0.302979   -1.391759   -0.265255
     22          6           0        1.312473    2.099795   -0.044346
     23          6           0        1.852018    0.891572   -0.802556
     24          6           0        2.887512    0.038307   -0.047547
     25          6           0        3.425457   -1.023286   -1.016862
     26          6           0        4.056141    0.892762    0.449606
     27          6           0        2.260311   -0.661407    1.174336
     28          8           0        1.244549   -1.588784    0.863304
     29          1           0        0.830303    1.805268    0.884188
     30          1           0        0.572475    2.609768   -0.656932
     31          1           0        2.103440    2.808714    0.186491
     32          1           0        2.317952    1.243903   -1.726055
     33          1           0        1.017123    0.247688   -1.085754
     34          1           0        4.026052   -0.549599   -1.789617
     35          1           0        2.610865   -1.551237   -1.509861
     36          1           0        4.054518   -1.743160   -0.494450
     37          1           0        4.857124    0.257646    0.822660
     38          1           0        3.744488    1.550656    1.256451
     39          1           0        4.450878    1.499427   -0.361772
     40          1           0        1.793451    0.072698    1.833538
     41          1           0        3.057034   -1.162476    1.742968
     42          1           0        1.626365   -2.273268    0.301758
 ---------------------------------------------------------------------
 Rotational constants (GHZ):           1.0287666           0.3232431           0.2876516
   252 basis functions,   462 primitive gaussians,   266 cartesian basis functions
    58 alpha electrons       58 beta electrons
       nuclear repulsion energy      1039.0610412384 Hartrees.
 NAtoms=   42 NActive=   42 NUniq=   42 SFac= 1.00D+00 NAtFMM=   60 NAOKFM=F Big=F
 Nuclear repulsion after empirical dispersion term =     1039.0227142096 Hartrees.
   1 Symmetry operations used in ECPInt.
 ECPInt:  NShTT=    9870 NPrTT=   39606 LenC2=    9533 LenP2D=   27416.
 LDataN:  DoStor=T MaxTD1= 4 Len=   56
 ExpMin= 1.22D-01 ExpMax= 2.27D+03 ExpMxC= 3.41D+02 IAcc=3 IRadAn=         5 AccDes= 0.00D+00
 Harris functional with IExCor= 4639 and IRadAn=       5 diagonalized for initial guess.
 HarFok:  IExCor= 4639 AccDes= 0.00D+00 IRadAn=         5 IDoV= 1 UseB2=F ITyADJ=14
 ICtDFT=  3500011 ScaDFX=  1.000000  1.000000  1.000000  1.000000
 FoFCou: FMM=F IPFlag=           0 FMFlag=      100000 FMFlg1=           0
         NFxFlg=           0 DoJE=T BraDBF=F KetDBF=T FulRan=T
         wScrn=  0.000000 ICntrl=       500 IOpCl=  0 I1Cent=   200000004 NGrid=           0
         NMat0=    1 NMatS0=      1 NMatT0=    0 NMatD0=    1 NMtDS0=    0 NMtDT0=    0
 Petite list used in FoFCou.
     Minimum is close to point  3 DX= -4.32D-03 DF= -6.27D-06 DXR=  7.26D-03 DFR=  5.22D-05 which will be used.
     Accept linear search using points  2 and  3.
     Accept linear search using points  1 and  2.
     Accept linear search using points  2 and  3.
     Minimum is close to point  3 DX= -1.04D-01 DF= -2.66D-07 DXR=  8.66D-02 DFR=  4.00D-03 which will be used.
     Accept linear search using points  1 and  2.
     Minimum is close to point  2 DX= -4.24D-05 DF=  0.00D+00 DXR=  4.24D-05 DFR=  0.00D+00 which will be used.
 SCF Done:  E(RwB97XD) =  -623.900660133     a.u. after    7 cycles
            Convg  =    0.2714D-06                    24 Fock formations.
              S**2 =  0.0000                  -V/T =  2.0097

 **********************************************************************

            Population analysis using the SCF Density.

 **********************************************************************

 Orbital symmetries:
       Occupied  (A) (A) (A) (A) (A) (A) (A) (A) (A) (A) (A) (A)
                 (A) (A) (A) (A) (A) (A) (A) (A) (A) (A) (A) (A)
                 (A) (A) (A) (A) (A) (A) (A) (A) (A) (A) (A) (A)
                 (A) (A) (A) (A) (A) (A) (A) (A) (A) (A) (A) (A)
                 (A) (A) (A) (A) (A) (A) (A) (A) (A) (A)
       Virtual   (A) (A) (A) (A) (A) (A) (A) (A) (A) (A) (A) (A)
                 (A) (A) (A) (A) (A) (A) (A) (A) (A) (A) (A) (A)
                 (A) (A) (A) (A) (A) (A) (A) (A) (A) (A) (A) (A)
                 (A) (A) (A) (A) (A) (A) (A) (A) (A) (A) (A) (A)
                 (A) (A) (A) (A) (A) (A) (A) (A) (A) (A) (A) (A)
                 (A) (A) (A) (A) (A) (A) (A) (A) (A) (A) (A) (A)
                 (A) (A) (A) (A) (A) (A) (A) (A) (A) (A) (A) (A)
                 (A) (A) (A) (A) (A) (A) (A) (A) (A) (A) (A) (A)
                 (A) (A) (A) (A) (A) (A) (A) (A) (A) (A) (A) (A)
                 (A) (A) (A) (A) (A) (A) (A) (A) (A) (A) (A) (A)
                 (A) (A) (A) (A) (A) (A) (A) (A) (A) (A) (A) (A)
                 (A) (A) (A) (A) (A) (A) (A) (A) (A) (A) (A) (A)
                 (A) (A) (A) (A) (A) (A) (A) (A) (A) (A) (A) (A)
                 (A) (A) (A) (A) (A) (A) (A) (A) (A) (A) (A) (A)
                 (A) (A) (A) (A) (A) (A) (A) (A) (A) (A) (A) (A)
                 (A) (A) (A) (A) (A) (A) (A) (A) (A) (A) (A) (A)
                 (A) (A)
 The electronic state is 1-A.
 Alpha  occ. eigenvalues --  -19.27166 -19.22652 -10.34043 -10.31582 -10.30766
 Alpha  occ. eigenvalues --  -10.29136 -10.28389 -10.28165 -10.27903 -10.27417
 Alpha  occ. eigenvalues --  -10.27010 -10.26933 -10.26821 -10.26753  -1.13323
 Alpha  occ. eigenvalues --   -1.09173  -0.92360  -0.90856  -0.83218  -0.82140
 Alpha  occ. eigenvalues --   -0.79012  -0.77469  -0.77323  -0.75259  -0.71590
 Alpha  occ. eigenvalues --   -0.70508  -0.64508  -0.61899  -0.59859  -0.58332
 Alpha  occ. eigenvalues --   -0.56486  -0.55825  -0.54342  -0.53777  -0.53070
 Alpha  occ. eigenvalues --   -0.51999  -0.51360  -0.50896  -0.49798  -0.47764
 Alpha  occ. eigenvalues --   -0.47241  -0.46879  -0.46758  -0.46429  -0.45970
 Alpha  occ. eigenvalues --   -0.45340  -0.44713  -0.43345  -0.42638  -0.42224
 Alpha  occ. eigenvalues --   -0.41332  -0.40508  -0.39745  -0.39205  -0.39011
 Alpha  occ. eigenvalues --   -0.37564  -0.36226  -0.33074
 Alpha virt. eigenvalues --    0.11553   0.13516   0.14398   0.15851   0.16799
 Alpha virt. eigenvalues --    0.17446   0.18089   0.18506   0.18985   0.19561
 Alpha virt. eigenvalues --    0.20127   0.20630   0.20878   0.22011   0.22632
 Alpha virt. eigenvalues --    0.22947   0.23235   0.23820   0.24283   0.24951
 Alpha virt. eigenvalues --    0.25648   0.25917   0.26627   0.26996   0.28092
 Alpha virt. eigenvalues --    0.28546   0.29175   0.29820   0.30130   0.30858
 Alpha virt. eigenvalues --    0.31545   0.32039   0.32273   0.32820   0.33718
 Alpha virt. eigenvalues --    0.34489   0.35093   0.35484   0.37499   0.37847
 Alpha virt. eigenvalues --    0.48376   0.49103   0.50302   0.51032   0.51811
 Alpha virt. eigenvalues --    0.53290   0.54121   0.55260   0.56576   0.58181
 Alpha virt. eigenvalues --    0.58392   0.59955   0.60472   0.63656   0.65331
 Alpha virt. eigenvalues --    0.65843   0.66462   0.67651   0.68836   0.69760
 Alpha virt. eigenvalues --    0.70658   0.71616   0.72301   0.72798   0.73309
 Alpha virt. eigenvalues --    0.73858   0.75838   0.76509   0.77729   0.78229
 Alpha virt. eigenvalues --    0.78571   0.78789   0.78942   0.79333   0.79809
 Alpha virt. eigenvalues --    0.80310   0.80498   0.80887   0.81110   0.81583
 Alpha virt. eigenvalues --    0.81997   0.82218   0.82720   0.83193   0.83350
 Alpha virt. eigenvalues --    0.83993   0.84393   0.84764   0.85387   0.86173
 Alpha virt. eigenvalues --    0.86401   0.86728   0.87069   0.87942   0.88700
 Alpha virt. eigenvalues --    0.88900   0.90261   0.91275   0.91897   0.92918
 Alpha virt. eigenvalues --    0.95102   0.98910   1.00110   1.00771   1.02848
 Alpha virt. eigenvalues --    1.05042   1.08282   1.10892   1.13601   1.16011
 Alpha virt. eigenvalues --    1.17773   1.19352   1.24069   1.24319   1.26471
 Alpha virt. eigenvalues --    1.27765   1.29585   1.31551   1.35922   1.36559
 Alpha virt. eigenvalues --    1.37794   1.45187   1.47884   1.50857   1.52622
 Alpha virt. eigenvalues --    1.59622   1.62660   1.65703   1.69682   1.75044
 Alpha virt. eigenvalues --    1.77532   1.78040   1.81379   1.84100   1.85629
 Alpha virt. eigenvalues --    1.88456   1.90438   1.92448   1.94210   1.95835
 Alpha virt. eigenvalues --    1.97552   1.98899   1.99501   2.00778   2.03524
 Alpha virt. eigenvalues --    2.03881   2.07429   2.10429   2.12780   2.13524
 Alpha virt. eigenvalues --    2.14051   2.14838   2.16107   2.17405   2.18631
 Alpha virt. eigenvalues --    2.19026   2.20985   2.22613   2.26153   2.26617
 Alpha virt. eigenvalues --    2.27433   2.27941   2.28437   2.29271   2.30213
 Alpha virt. eigenvalues --    2.31034   2.32881   2.33825   2.37700   2.38836
 Alpha virt. eigenvalues --    2.38974   2.39998   2.50298   2.54391   2.60987
 Alpha virt. eigenvalues --    2.61910   2.68930   2.69980   2.73436   2.74574
 Alpha virt. eigenvalues --    2.75232   2.75468   2.80526   2.81335   2.82822
 Alpha virt. eigenvalues --    2.84093   2.91304   2.95766   3.05278   3.09041
 Alpha virt. eigenvalues --    3.10193   3.15139   3.47014   3.52242
          Condensed to atoms (all electrons):
 Mulliken charges:
               1
     1  C   -0.299367
     2  C   -0.186562
     3  C   -0.304837
     4  C   -0.300911
     5  C   -0.255591
     6  C    0.090487
     7  O   -0.523089
     8  H    0.114651
     9  H    0.115206
    10  H    0.108926
    11  H    0.124672
    12  H    0.087880
    13  H    0.117782
    14  H    0.125455
    15  H    0.110434
    16  H    0.115485
    17  H    0.106806
    18  H    0.108346
    19  H    0.084605
    20  H    0.078310
    21  H    0.346359
    22  C   -0.326106
    23  C   -0.201036
    24  C   -0.301509
    25  C   -0.290933
    26  C   -0.264858
    27  C    0.067250
    28  O   -0.492012
    29  H    0.121004
    30  H    0.131667
    31  H    0.114417
    32  H    0.095377
    33  H    0.133352
    34  H    0.121753
    35  H    0.125376
    36  H    0.110551
    37  H    0.111136
    38  H    0.120954
    39  H    0.117863
    40  H    0.112143
    41  H    0.093026
    42  H    0.335538
 Sum of Mulliken charges =   0.00000
 Mulliken charges with hydrogens summed into heavy atoms:
               1
     1  C    0.039416
     2  C    0.025991
     3  C   -0.304837
     4  C    0.052760
     5  C    0.075047
     6  C    0.253402
     7  O   -0.176730
    22  C    0.040982
    23  C    0.027692
    24  C   -0.301509
    25  C    0.066747
    26  C    0.085096
    27  C    0.272419
    28  O   -0.156474
 Electronic spatial extent (au):  <R**2>=           4247.1152
 Charge=              0.0000 electrons
 Dipole moment (field-independent basis, Debye):
    X=              1.7900    Y=             -0.0536    Z=              0.9612  Tot=              2.0325
 Evaluate density.
 Using the total density.
 Monte-Carlo method of calculating molar volume:
 based on  0.001 e/bohr**3 density envelope.
 Number of points per bohr**3 =  100 CutOff= 1.00D-04
 Using the SCF density.
 There are      2167 points.  Will hold      2167 in memory.
 LenV=  1047923521 MDV=  1048576000.
 Box volume =10181.233 fraction occupied=0.207
 Integrated density= 9.2879728924065162D+01 error=-2.3120271075934838D+01
 Molar volume = 2109.540 bohr**3/mol (188.253 cm**3/mol)
 Recommended a0 for SCRF calculation =  5.13 angstrom (  9.70 bohr)
   1 Symmetry operations used in ECPInt.
 ECPInt:  NShTT=    9870 NPrTT=   39606 LenC2=    9533 LenP2D=   27416.
 LDataN:  DoStor=T MaxTD1= 5 Len=  102
 Calling FoFJK, ICntrl=      2127 FMM=F ISym2X=0 I1Cent= 0 IOpClX= 0 NMat=1 NMatS=1 NMatT=0.

 GradGradGradGradGradGradGradGradGradGradGradGradGradGradGradGradGradGrad
 FormGI is forming the generalized inverse of G from B-inverse, IUseBI=4.
 Internal  Forces:  Max     0.011681172 RMS     0.003836372
 Step number   1 out of a maximum of  230
 All quantities printed in internal units (Hartrees-Bohrs-Radians)
 Mixed Optimization -- RFO/linear search
 Second derivative matrix not updated -- first step.
 ITU=  0
     Eigenvalues ---    0.00230   0.00230   0.00230   0.00242   0.00260
     Eigenvalues ---    0.00304   0.00356   0.00360   0.00373   0.00435
     Eigenvalues ---    0.00450   0.01396   0.01557   0.01659   0.03184
     Eigenvalues ---    0.03275   0.03296   0.04133   0.04373   0.04453
     Eigenvalues ---    0.04615   0.04781   0.04792   0.04793   0.04885
     Eigenvalues ---    0.04916   0.05096   0.05124   0.05425   0.05456
     Eigenvalues ---    0.05474   0.05512   0.05529   0.05550   0.05567
     Eigenvalues ---    0.05630   0.05637   0.05642   0.05646   0.05741
     Eigenvalues ---    0.05745   0.05763   0.08779   0.08784   0.09992
     Eigenvalues ---    0.11908   0.12523   0.12529   0.13134   0.14046
     Eigenvalues ---    0.14109   0.14123   0.14225   0.14584   0.14682
     Eigenvalues ---    0.16000   0.16000   0.16000   0.16000   0.16000
     Eigenvalues ---    0.16000   0.16000   0.16000   0.16000   0.16000
     Eigenvalues ---    0.16000   0.16000   0.16000   0.16000   0.16000
     Eigenvalues ---    0.16000   0.16000   0.16000   0.16000   0.16000
     Eigenvalues ---    0.22004   0.22007   0.22020   0.22094   0.25000
     Eigenvalues ---    0.28055   0.28393   0.28555   0.28672   0.28975
     Eigenvalues ---    0.29330   0.29362   0.29450   0.29885   0.29993
     Eigenvalues ---    0.33595   0.33723   0.34356   0.34479   0.34498
     Eigenvalues ---    0.34615   0.34621   0.34638   0.34879   0.34959
     Eigenvalues ---    0.34963   0.35017   0.35021   0.35025   0.35057
     Eigenvalues ---    0.35088   0.35125   0.35128   0.35138   0.35166
     Eigenvalues ---    0.35170   0.35185   0.35187   0.35188   0.35195
     Eigenvalues ---    0.35210   0.43978   0.45218   0.52925   0.54585
 Linear search not attempted -- first point.
 Iteration  1 RMS(Cart)=  0.26575489 RMS(Int)=  0.01230046
 Iteration  2 RMS(Cart)=  0.21129061 RMS(Int)=  0.00451352
 Iteration  3 RMS(Cart)=  0.01011603 RMS(Int)=  0.00007016
 Iteration  4 RMS(Cart)=  0.00002638 RMS(Int)=  0.00006917
 Iteration  5 RMS(Cart)=  0.00000001 RMS(Int)=  0.00006917
 Variable       Old X    -DE/DX   Delta X   Delta X   Delta X     New X
                                 (Linear)    (Quad)   (Total)
    R1        2.87978   0.00479   0.00000   0.01533   0.01533   2.89511
    R2        2.05648   0.01038   0.00000   0.02861   0.02861   2.08509
    R3        2.05336   0.01117   0.00000   0.03063   0.03063   2.08399
    R4        2.05451   0.01127   0.00000   0.03097   0.03097   2.08548
    R5        2.90693   0.00458   0.00000   0.01532   0.01532   2.92225
    R6        2.06295   0.00787   0.00000   0.02194   0.02194   2.08489
    R7        2.06529   0.00878   0.00000   0.02457   0.02457   2.08987
    R8        2.89320   0.00448   0.00000   0.01464   0.01464   2.90784
    R9        2.89075   0.00381   0.00000   0.01241   0.01241   2.90316
   R10        2.92019   0.00053   0.00000   0.00181   0.00181   2.92200
   R11        2.05373   0.01114   0.00000   0.03056   0.03056   2.08429
   R12        2.05375   0.01168   0.00000   0.03205   0.03205   2.08580
   R13        2.05735   0.01089   0.00000   0.03006   0.03006   2.08740
   R14        2.05370   0.01122   0.00000   0.03078   0.03078   2.08448
   R15        2.05640   0.01138   0.00000   0.03136   0.03136   2.08776
   R16        2.05583   0.01143   0.00000   0.03147   0.03147   2.08730
   R17        2.65023   0.00103   0.00000   0.00221   0.00221   2.65244
   R18        2.06734   0.00676   0.00000   0.01898   0.01898   2.08632
   R19        2.08019   0.00695   0.00000   0.01993   0.01993   2.10012
   R20        1.83724   0.00059   0.00000   0.00109   0.00109   1.83833
   R21        3.63855  -0.00259   0.00000  -0.04217  -0.04217   3.59638
   R22        2.88194   0.00422   0.00000   0.01354   0.01354   2.89548
   R23        2.05399   0.01133   0.00000   0.03109   0.03109   2.08508
   R24        2.05532   0.01050   0.00000   0.02889   0.02889   2.08421
   R25        2.05406   0.01103   0.00000   0.03029   0.03029   2.08434
   R26        2.90941   0.00512   0.00000   0.01716   0.01716   2.92657
   R27        2.06498   0.00865   0.00000   0.02418   0.02418   2.08916
   R28        2.06304   0.00818   0.00000   0.02280   0.02280   2.08584
   R29        2.90055   0.00351   0.00000   0.01162   0.01162   2.91217
   R30        2.89255   0.00388   0.00000   0.01266   0.01266   2.90520
   R31        2.91286  -0.00112   0.00000  -0.00378  -0.00378   2.90908
   R32        2.05472   0.01090   0.00000   0.02996   0.02996   2.08468
   R33        2.05741   0.01101   0.00000   0.03039   0.03039   2.08779
   R34        2.05872   0.01142   0.00000   0.03159   0.03159   2.09031
   R35        2.05634   0.01118   0.00000   0.03081   0.03081   2.08715
   R36        2.05360   0.01166   0.00000   0.03197   0.03197   2.08557
   R37        2.05468   0.01133   0.00000   0.03113   0.03113   2.08581
   R38        2.66481   0.00175   0.00000   0.00386   0.00386   2.66867
   R39        2.06267   0.00674   0.00000   0.01878   0.01878   2.08145
   R40        2.07799   0.00616   0.00000   0.01760   0.01760   2.09560
   R41        1.82203   0.00358   0.00000   0.00642   0.00642   1.82845
    A1        1.91226   0.00180   0.00000   0.01050   0.01044   1.92270
    A2        1.94257   0.00105   0.00000   0.00535   0.00533   1.94790
    A3        1.94236   0.00227   0.00000   0.01385   0.01379   1.95614
    A4        1.88429  -0.00168   0.00000  -0.01113  -0.01114   1.87315
    A5        1.88371  -0.00186   0.00000  -0.00930  -0.00939   1.87432
    A6        1.89679  -0.00182   0.00000  -0.01061  -0.01064   1.88615
    A7        2.01745   0.00263   0.00000   0.01493   0.01488   2.03233
    A8        1.90112  -0.00054   0.00000  -0.00049  -0.00051   1.90062
    A9        1.89980  -0.00030   0.00000   0.00238   0.00234   1.90214
   A10        1.88264  -0.00070   0.00000  -0.00221  -0.00224   1.88040
   A11        1.88574  -0.00080   0.00000  -0.00184  -0.00192   1.88382
   A12        1.87197  -0.00049   0.00000  -0.01512  -0.01513   1.85684
   A13        1.94597  -0.00114   0.00000  -0.00686  -0.00687   1.93911
   A14        1.93898   0.00021   0.00000   0.00191   0.00192   1.94090
   A15        1.87849   0.00120   0.00000   0.00954   0.00955   1.88804
   A16        1.90933   0.00083   0.00000   0.00327   0.00327   1.91260
   A17        1.90579   0.00008   0.00000   0.00014   0.00016   1.90595
   A18        1.88376  -0.00120   0.00000  -0.00804  -0.00805   1.87571
   A19        1.93118   0.00183   0.00000   0.01043   0.01038   1.94157
   A20        1.93848   0.00161   0.00000   0.00878   0.00874   1.94723
   A21        1.92304   0.00138   0.00000   0.00872   0.00867   1.93172
   A22        1.89415  -0.00201   0.00000  -0.01299  -0.01302   1.88113
   A23        1.88577  -0.00149   0.00000  -0.00753  -0.00759   1.87818
   A24        1.88981  -0.00152   0.00000  -0.00854  -0.00858   1.88123
   A25        1.93316   0.00184   0.00000   0.01036   0.01033   1.94348
   A26        1.92589   0.00143   0.00000   0.00834   0.00831   1.93420
   A27        1.93264   0.00101   0.00000   0.00607   0.00604   1.93868
   A28        1.88652  -0.00175   0.00000  -0.01053  -0.01057   1.87595
   A29        1.89405  -0.00152   0.00000  -0.00894  -0.00897   1.88508
   A30        1.89027  -0.00119   0.00000  -0.00632  -0.00635   1.88392
   A31        1.99388  -0.00161   0.00000  -0.00459  -0.00458   1.98931
   A32        1.91032  -0.00069   0.00000  -0.00631  -0.00633   1.90399
   A33        1.90345   0.00001   0.00000  -0.00340  -0.00342   1.90004
   A34        1.84255   0.00192   0.00000   0.01600   0.01600   1.85855
   A35        1.92447   0.00115   0.00000   0.00851   0.00850   1.93297
   A36        1.88571  -0.00074   0.00000  -0.01039  -0.01048   1.87523
   A37        1.89138   0.00224   0.00000   0.01297   0.01297   1.90435
   A38        2.74645   0.00153   0.00000   0.00582   0.00582   2.75226
   A39        1.94656   0.00150   0.00000   0.00822   0.00818   1.95474
   A40        1.90939   0.00166   0.00000   0.00880   0.00876   1.91815
   A41        1.94426   0.00179   0.00000   0.01171   0.01164   1.95590
   A42        1.88219  -0.00200   0.00000  -0.01414  -0.01415   1.86804
   A43        1.89454  -0.00158   0.00000  -0.00764  -0.00770   1.88684
   A44        1.88484  -0.00162   0.00000  -0.00840  -0.00846   1.87638
   A45        2.01885   0.00370   0.00000   0.02008   0.02000   2.03885
   A46        1.89186  -0.00016   0.00000   0.00542   0.00534   1.89720
   A47        1.90252  -0.00145   0.00000  -0.00698  -0.00700   1.89552
   A48        1.88216  -0.00135   0.00000  -0.00346  -0.00362   1.87854
   A49        1.89093  -0.00058   0.00000  -0.00091  -0.00091   1.89003
   A50        1.87237  -0.00042   0.00000  -0.01690  -0.01692   1.85545
   A51        1.88530  -0.00020   0.00000   0.00068   0.00063   1.88593
   A52        1.94271   0.00108   0.00000   0.00935   0.00931   1.95202
   A53        1.94620  -0.00089   0.00000  -0.01033  -0.01031   1.93588
   A54        1.90035   0.00004   0.00000   0.00491   0.00488   1.90523
   A55        1.90630   0.00056   0.00000   0.00119   0.00119   1.90750
   A56        1.88241  -0.00057   0.00000  -0.00551  -0.00549   1.87692
   A57        1.91888   0.00142   0.00000   0.00715   0.00713   1.92601
   A58        1.93813   0.00146   0.00000   0.00845   0.00841   1.94654
   A59        1.93538   0.00142   0.00000   0.00926   0.00921   1.94459
   A60        1.87834  -0.00176   0.00000  -0.01224  -0.01225   1.86609
   A61        1.88570  -0.00144   0.00000  -0.00835  -0.00838   1.87732
   A62        1.90577  -0.00127   0.00000  -0.00543  -0.00549   1.90028
   A63        1.92572   0.00152   0.00000   0.00966   0.00961   1.93533
   A64        1.93922   0.00217   0.00000   0.01272   0.01266   1.95188
   A65        1.92439   0.00076   0.00000   0.00337   0.00336   1.92775
   A66        1.88589  -0.00164   0.00000  -0.00760  -0.00769   1.87820
   A67        1.89047  -0.00121   0.00000  -0.00729  -0.00731   1.88316
   A68        1.89693  -0.00177   0.00000  -0.01185  -0.01186   1.88507
   A69        2.00070  -0.00321   0.00000  -0.01291  -0.01299   1.98771
   A70        1.92567   0.00023   0.00000  -0.00628  -0.00640   1.91928
   A71        1.89858   0.00195   0.00000   0.01679   0.01682   1.91540
   A72        1.84150   0.00071   0.00000  -0.00502  -0.00516   1.83634
   A73        1.91377   0.00142   0.00000   0.01442   0.01444   1.92821
   A74        1.87975  -0.00108   0.00000  -0.00764  -0.00757   1.87217
   A75        2.26650  -0.00939   0.00000  -0.05356  -0.05327   2.21323
   A76        1.62037   0.00075   0.00000   0.00546   0.00610   1.62647
   A77        1.88608   0.00472   0.00000   0.03325   0.03357   1.91964
    D1       -3.08508  -0.00018   0.00000  -0.00220  -0.00223  -3.08731
    D2        1.07593  -0.00068   0.00000  -0.00934  -0.00937   1.06657
    D3       -0.95988   0.00038   0.00000   0.00766   0.00765  -0.95223
    D4        1.11540   0.00008   0.00000   0.00149   0.00148   1.11689
    D5       -1.00677  -0.00042   0.00000  -0.00565  -0.00566  -1.01243
    D6       -3.04258   0.00064   0.00000   0.01134   0.01136  -3.03122
    D7       -1.00323   0.00010   0.00000   0.00171   0.00171  -1.00151
    D8       -3.12540  -0.00040   0.00000  -0.00543  -0.00543  -3.13083
    D9        1.12197   0.00066   0.00000   0.01156   0.01159   1.13357
   D10       -0.91761  -0.00006   0.00000  -0.00280  -0.00280  -0.92042
   D11        1.21711   0.00035   0.00000  -0.00208  -0.00209   1.21502
   D12       -3.00729  -0.00025   0.00000  -0.00498  -0.00496  -3.01225
   D13        1.21444   0.00049   0.00000   0.00505   0.00504   1.21948
   D14       -2.93402   0.00090   0.00000   0.00577   0.00575  -2.92827
   D15       -0.87523   0.00030   0.00000   0.00287   0.00288  -0.87235
   D16       -3.05032  -0.00086   0.00000  -0.01473  -0.01474  -3.06506
   D17       -0.91560  -0.00045   0.00000  -0.01402  -0.01402  -0.92963
   D18        1.14319  -0.00105   0.00000  -0.01691  -0.01689   1.12629
   D19        1.21817  -0.00041   0.00000  -0.00545  -0.00546   1.21271
   D20       -0.88670  -0.00017   0.00000  -0.00190  -0.00189  -0.88860
   D21       -2.98071  -0.00022   0.00000  -0.00261  -0.00261  -2.98332
   D22       -0.93352  -0.00049   0.00000  -0.00551  -0.00552  -0.93904
   D23       -3.03839  -0.00025   0.00000  -0.00195  -0.00195  -3.04035
   D24        1.15078  -0.00029   0.00000  -0.00267  -0.00267   1.14811
   D25       -2.99156   0.00043   0.00000   0.00223   0.00223  -2.98933
   D26        1.18675   0.00067   0.00000   0.00579   0.00579   1.19255
   D27       -0.90726   0.00062   0.00000   0.00507   0.00508  -0.90218
   D28       -1.11017   0.00055   0.00000   0.00633   0.00633  -1.10384
   D29        3.08469   0.00062   0.00000   0.00741   0.00741   3.09210
   D30        0.99201   0.00052   0.00000   0.00596   0.00596   0.99797
   D31        1.04565  -0.00018   0.00000   0.00119   0.00120   1.04685
   D32       -1.04267  -0.00011   0.00000   0.00227   0.00227  -1.04040
   D33       -3.13535  -0.00021   0.00000   0.00082   0.00082  -3.13453
   D34        3.11743  -0.00031   0.00000  -0.00145  -0.00145   3.11598
   D35        1.02910  -0.00023   0.00000  -0.00037  -0.00037   1.02873
   D36       -1.06358  -0.00033   0.00000  -0.00182  -0.00182  -1.06540
   D37        1.01988   0.00012   0.00000   0.01569   0.01570   1.03558
   D38       -1.04161  -0.00081   0.00000   0.00271   0.00274  -1.03887
   D39       -3.10120   0.00048   0.00000   0.02091   0.02090  -3.08030
   D40       -1.09514   0.00073   0.00000   0.01818   0.01818  -1.07696
   D41        3.12656  -0.00020   0.00000   0.00521   0.00522   3.13178
   D42        1.06696   0.00110   0.00000   0.02340   0.02338   1.09035
   D43        3.11402   0.00038   0.00000   0.01881   0.01880   3.13281
   D44        1.05253  -0.00055   0.00000   0.00584   0.00584   1.05837
   D45       -1.00707   0.00075   0.00000   0.02403   0.02401  -0.98306
   D46        1.06983   0.00061   0.00000   0.01795   0.01795   1.08778
   D47       -3.11361   0.00013   0.00000   0.01836   0.01832  -3.09529
   D48       -1.08095   0.00088   0.00000   0.01918   0.01922  -1.06172
   D49        2.76411   0.00589   0.00000   0.22179   0.22179   2.98590
   D50        1.54465   0.00388   0.00000   0.17840   0.17854   1.72319
   D51       -0.48831   0.00105   0.00000   0.15235   0.15222  -0.33610
   D52       -1.03263  -0.00028   0.00000  -0.00138  -0.00134  -1.03398
   D53        3.13516  -0.00091   0.00000  -0.01467  -0.01472   3.12044
   D54        1.10250   0.00046   0.00000   0.00623   0.00621   1.10871
   D55       -3.11337   0.00019   0.00000   0.00536   0.00543  -3.10795
   D56        1.05443  -0.00045   0.00000  -0.00792  -0.00795   1.04648
   D57       -0.97823   0.00093   0.00000   0.01297   0.01298  -0.96525
   D58        1.08722   0.00001   0.00000   0.00280   0.00285   1.09007
   D59       -1.02816  -0.00063   0.00000  -0.01049  -0.01053  -1.03869
   D60       -3.06083   0.00074   0.00000   0.01041   0.01040  -3.05042
   D61       -3.03153  -0.00077   0.00000  -0.02708  -0.02706  -3.05859
   D62       -0.94615  -0.00021   0.00000  -0.01507  -0.01504  -0.96119
   D63        1.15687  -0.00079   0.00000  -0.02275  -0.02275   1.13412
   D64       -0.91093   0.00048   0.00000  -0.00918  -0.00919  -0.92012
   D65        1.17445   0.00104   0.00000   0.00283   0.00283   1.17728
   D66       -3.00572   0.00045   0.00000  -0.00485  -0.00488  -3.01060
   D67        1.11038  -0.00101   0.00000  -0.03131  -0.03131   1.07907
   D68       -3.08743  -0.00045   0.00000  -0.01930  -0.01929  -3.10672
   D69       -0.98441  -0.00104   0.00000  -0.02698  -0.02700  -1.01141
   D70        1.19993   0.00042   0.00000  -0.00236  -0.00237   1.19756
   D71       -0.87686   0.00078   0.00000   0.00295   0.00296  -0.87391
   D72       -2.99905   0.00043   0.00000  -0.00229  -0.00230  -3.00135
   D73       -0.91203  -0.00078   0.00000  -0.01693  -0.01693  -0.92896
   D74       -2.98882  -0.00042   0.00000  -0.01162  -0.01160  -3.00042
   D75        1.17217  -0.00077   0.00000  -0.01686  -0.01686   1.15531
   D76       -2.96355  -0.00044   0.00000  -0.01379  -0.01380  -2.97735
   D77        1.24284  -0.00008   0.00000  -0.00848  -0.00847   1.23437
   D78       -0.87935  -0.00043   0.00000  -0.01372  -0.01373  -0.89308
   D79       -2.96757  -0.00033   0.00000  -0.00792  -0.00793  -2.97550
   D80        1.22427  -0.00067   0.00000  -0.01300  -0.01305   1.21123
   D81       -0.88004  -0.00038   0.00000  -0.00870  -0.00872  -0.88876
   D82       -0.89117   0.00010   0.00000   0.00171   0.00175  -0.88942
   D83       -2.98251  -0.00024   0.00000  -0.00337  -0.00337  -2.98588
   D84        1.19636   0.00005   0.00000   0.00094   0.00096   1.19732
   D85        1.17544   0.00047   0.00000   0.00273   0.00275   1.17819
   D86       -0.91590   0.00013   0.00000  -0.00235  -0.00237  -0.91827
   D87       -3.02021   0.00042   0.00000   0.00195   0.00196  -3.01826
   D88        1.10349  -0.00140   0.00000  -0.04225  -0.04224   1.06126
   D89       -0.97211  -0.00031   0.00000  -0.02245  -0.02251  -0.99461
   D90       -3.03051  -0.00030   0.00000  -0.01959  -0.01961  -3.05011
   D91       -0.97887  -0.00096   0.00000  -0.03745  -0.03742  -1.01629
   D92       -3.05447   0.00013   0.00000  -0.01765  -0.01769  -3.07216
   D93        1.17031   0.00013   0.00000  -0.01479  -0.01479   1.15553
   D94       -3.04166  -0.00099   0.00000  -0.04083  -0.04078  -3.08244
   D95        1.16592   0.00010   0.00000  -0.02103  -0.02105   1.14487
   D96       -0.89248   0.00010   0.00000  -0.01818  -0.01815  -0.91063
   D97       -0.86768   0.00183   0.00000   0.04159   0.04174  -0.82593
   D98        1.05029   0.00157   0.00000   0.04823   0.04803   1.09831
   D99        1.25460   0.00067   0.00000   0.02229   0.02251   1.27711
   D100      -3.11062   0.00041   0.00000   0.02893   0.02879  -3.08183
   D101      -3.00868   0.00047   0.00000   0.01765   0.01782  -2.99086
   D102      -1.09072   0.00021   0.00000   0.02429   0.02410  -1.06661
         Item               Value     Threshold  Converged?
 Maximum Force            0.011681     0.000015     NO 
 RMS     Force            0.003836     0.000010     NO 
 Maximum Displacement     1.647061     0.000060     NO 
 RMS     Displacement     0.474555     0.000040     NO 
 GradGradGradGradGradGradGradGradGradGradGradGradGradGradGradGradGradGrad

                    Distance matrix (angstroms):
                    1          2          3          4          5
     1  C    0.000000
     2  C    1.532028   0.000000
     3  C    2.616952   1.546386   0.000000
     4  C    3.049742   2.544118   1.538760   0.000000
     5  C    3.211977   2.543643   1.536284   2.512508   0.000000
     6  C    3.922508   2.504799   1.546258   2.514731   2.485435
     7  O    4.333888   2.938793   2.474892   2.978040   3.767799
     8  H    1.103380   2.174828   3.552323   4.077046   4.156155
     9  H    1.102802   2.192610   2.936524   2.782850   3.709029
    10  H    1.103590   2.199101   2.895202   3.374653   2.928972
    11  H    2.158515   1.103277   2.155959   2.839645   3.470220
    12  H    2.161597   1.105909   2.160461   3.483997   2.705944
    13  H    2.820179   2.885195   2.194127   1.102957   2.722724
    14  H    3.232878   2.742976   2.198807   1.103759   3.486228
    15  H    4.117362   3.503153   2.188241   1.104605   2.812091
    16  H    2.935397   2.834919   2.193396   2.772645   1.103059
    17  H    4.219125   3.508629   2.188003   2.762303   1.104798
    18  H    3.571684   2.782879   2.191065   3.485877   1.104551
    19  H    4.205159   2.720850   2.174045   3.472313   2.710500
    20  H    4.768426   3.471507   2.176510   2.760667   2.673221
    21  H    4.478988   3.283408   2.675722   2.629875   4.046304
    22  C    2.875254   3.091852   3.613975   3.005906   4.903144
    23  C    3.776678   3.430165   3.946396   3.593490   5.435092
    24  C    5.229457   4.833573   5.038596   4.393023   6.539488
    25  C    6.205647   5.563122   5.825338   5.462847   7.358821
    26  C    5.931667   5.884367   6.209231   5.396062   7.647775
    27  C    5.613869   5.103817   4.833219   3.893601   6.235329
    28  O    5.601628   4.752139   4.206376   3.489662   5.563762
    29  H    3.111881   3.241514   3.282684   2.261527   4.482750
    30  H    1.836615   2.313066   3.181667   2.968345   4.332384
    31  H    3.509345   4.043133   4.647994   3.943490   5.844580
    32  H    4.011455   3.770935   4.617106   4.508810   6.066376
    33  H    3.627484   2.847449   3.217386   3.150971   4.746811
    34  H    6.416840   5.893121   6.408409   6.168627   7.939826
    35  H    6.040160   5.155970   5.352213   5.221986   6.862340
    36  H    7.204664   6.547099   6.653906   6.161973   8.169019
    37  H    7.003519   6.874770   7.091725   6.223033   8.541015
    38  H    5.728491   5.888542   6.131237   5.129058   7.465461
    39  H    5.944291   6.017792   6.599270   5.959327   8.035575
    40  H    5.203724   4.907259   4.544570   3.347014   5.828168
    41  H    6.695939   6.212317   5.893459   4.889380   7.260364
    42  H    6.202020   5.225802   4.773738   4.286464   6.151504
                    6          7          8          9         10
     6  C    0.000000
     7  O    1.403609   0.000000
     8  H    4.678130   4.929514   0.000000
     9  H    4.270880   4.507099   1.777150   0.000000
    10  H    4.329635   5.020328   1.778551   1.785784   0.000000
    11  H    2.621028   2.480005   2.503813   2.505152   3.095056
    12  H    2.747629   3.321235   2.464294   3.091362   2.560123
    13  H    3.484866   4.029081   3.884591   2.368989   2.919491
    14  H    2.845433   2.759228   4.100700   2.758475   3.849235
    15  H    2.696353   3.224708   5.162041   3.857917   4.323521
    16  H    3.468517   4.636501   3.895852   3.368680   2.331764
    17  H    2.719857   4.045021   5.211740   4.563912   3.927349
    18  H    2.741320   4.057411   4.318140   4.312746   3.250159
    19  H    1.104033   2.017072   4.804774   4.788754   4.541543
    20  H    1.111336   2.076186   5.626263   5.023914   5.033159
    21  H    1.952063   0.972804   5.154488   4.413707   5.191922
    22  C    4.422172   4.023948   3.234099   2.083923   3.803678
    23  C    4.218001   3.368453   3.994431   3.316929   4.818704
    24  C    5.076376   4.020543   5.513700   4.637980   6.220839
    25  C    5.497226   4.204104   6.369880   5.808933   7.247089
    26  C    6.471386   5.510062   6.101883   5.160337   6.896267
    27  C    4.785206   3.854665   6.161333   4.972152   6.456876
    28  O    3.790667   2.827338   6.251373   5.180171   6.378376
    29  H    4.159390   3.926220   3.774048   2.237462   3.835565
    30  H    4.187272   4.036421   2.135584   1.210202   2.830359
    31  H    5.522535   5.100645   3.674986   2.587841   4.364386
    32  H    4.866135   3.987523   3.922097   3.690245   5.108716
    33  H    3.220342   2.290813   3.964386   3.426903   4.628291
    34  H    6.160553   4.890444   6.391553   6.062416   7.502521
    35  H    4.784913   3.416660   6.240581   5.817922   7.057117
    36  H    6.235191   4.920095   7.424680   6.745892   8.220319
    37  H    7.215703   6.165414   7.195569   6.230880   7.960995
    38  H    6.610425   5.836186   5.984559   4.817015   6.591702
    39  H    6.920339   5.959106   5.912400   5.235049   6.950854
    40  H    4.802030   4.155378   5.852759   4.434418   5.937830
    41  H    5.765139   4.790534   7.225345   6.005674   7.528767
    42  H    4.098147   2.925465   6.761319   5.873912   7.032349
                   11         12         13         14         15
    11  H    0.000000
    12  H    1.768841   0.000000
    13  H    3.364900   3.841698   0.000000
    14  H    2.606293   3.780106   1.782788   0.000000
    15  H    3.778725   4.324435   1.781551   1.784182   0.000000
    16  H    3.864940   3.091800   2.522718   3.766313   3.196840
    17  H    4.311347   3.719776   3.042824   3.804863   2.608251
    18  H    3.722037   2.481626   3.756526   4.353022   3.817033
    19  H    2.914966   2.498937   4.330383   3.840131   3.721670
    20  H    3.671210   3.734621   3.727326   3.243161   2.479868
    21  H    2.784704   3.914332   3.693043   2.186792   2.765349
    22  C    2.606390   4.108936   3.055079   2.200792   3.921209
    23  C    2.521463   4.282665   4.053855   2.613429   4.357741
    24  C    3.943362   5.704379   4.909642   3.296585   4.876139
    25  C    4.537476   6.239395   6.147701   4.427996   5.877244
    26  C    5.060763   6.805127   5.661523   4.311587   5.915135
    27  C    4.412686   6.045350   4.482589   2.863703   4.045002
    28  O    4.128326   5.572514   4.348364   2.663463   3.429951
    29  H    2.989763   4.340771   2.246486   1.473956   3.045287
    30  H    2.041761   3.261697   2.912091   2.499654   4.032072
    31  H    3.593915   5.019346   3.784694   3.165415   4.816863
    32  H    2.780806   4.444039   4.908179   3.617836   5.352429
    33  H    1.877237   3.605643   3.852099   2.307033   3.854455
    34  H    4.818126   6.488127   6.777023   5.143167   6.712305
    35  H    4.128054   5.705764   6.045649   4.299086   5.593128
    36  H    5.555246   7.247470   6.861061   5.121498   6.426520
    37  H    6.024248   7.784825   6.541865   5.130741   6.609608
    38  H    5.226699   6.893431   5.203843   4.112127   5.636192
    39  H    5.151556   6.856632   6.168805   4.907311   6.617991
    40  H    4.407600   5.941199   3.731047   2.380241   3.495218
    41  H    5.506862   7.146640   5.437603   3.902761   4.904766
    42  H    4.489914   5.927432   5.208517   3.487296   4.233903
                   16         17         18         19         20
    16  H    0.000000
    17  H    1.780333   0.000000
    18  H    1.786072   1.786730   0.000000
    19  H    3.737098   3.057303   2.499141   0.000000
    20  H    3.695498   2.431895   3.031345   1.785921   0.000000
    21  H    4.809140   4.220567   4.558980   2.837725   2.338946
    22  C    4.905802   5.554557   5.588025   5.151107   5.151090
    23  C    5.719542   6.036524   5.983508   4.879551   4.999333
    24  C    6.880040   6.956824   7.177820   5.853121   5.644101
    25  C    7.858096   7.767455   7.844440   6.107104   6.081077
    26  C    7.818246   8.099304   8.348047   7.265392   7.035861
    27  C    6.623596   6.416439   7.005992   5.733971   5.061171
    28  O    6.150737   5.618767   6.260382   4.733772   3.919486
    29  H    4.468303   4.963280   5.329322   5.043211   4.687004
    30  H    4.252177   5.144968   4.897530   4.749463   5.029768
    31  H    5.708905   6.504639   6.544388   6.240366   6.232531
    32  H    6.324704   6.783660   6.474071   5.340023   5.764492
    33  H    5.210767   5.313271   5.211236   3.843443   4.041300
    34  H    8.387827   8.461957   8.348932   6.654060   6.865203
    35  H    7.485654   7.247383   7.245744   5.292968   5.372360
    36  H    8.693434   8.472393   8.701944   6.895581   6.679124
    37  H    8.761955   8.911253   9.258020   8.031954   7.691528
    38  H    7.504170   7.888170   8.259438   7.477700   7.115111
    39  H    8.161139   8.608656   8.649304   7.603234   7.612607
    40  H    6.068839   5.985498   6.710017   5.824216   5.024833
    41  H    7.649267   7.360869   8.051546   6.716415   5.936214
    42  H    6.832399   6.215540   6.732275   4.904742   4.248069
                   21         22         23         24         25
    21  H    0.000000
    22  C    3.625675   0.000000
    23  C    2.994558   1.532220   0.000000
    24  C    3.388377   2.624343   1.548673   0.000000
    25  C    3.750921   3.923644   2.500528   1.541053   0.000000
    26  C    4.858211   3.094939   2.556075   1.537368   2.508710
    27  C    2.972658   3.171119   2.543732   1.539421   2.512403
[...]
 006915,0.00000897,0.00001183,-0.00001065,-0.00000794,0.00000939,-0.000
 00302,0.00003495,-0.00001579,-0.00000841,0.00000792,-0.00000755,0.0000
 2966,-0.00001987,-0.00001485,-0.00000976,0.00000521,0.00001913,-0.0000
 0295,0.00001338,-0.00001181,0.00005144,-0.00001933,-0.00002500,-0.0000
 1646,-0.00001083,0.00000930,-0.00000162,0.00000594,-0.00000379,-0.0000
 0451,-0.00000502,-0.00000464,0.00000202,0.00000184,0.00001179,-0.00000
 206,0.00000239,0.00001103,-0.00000638,0.00000670,-0.00014095,0.0000510
 8,0.00001718,0.00015211,0.00062087,0.00019594,-0.00052977,0.00075153,-
 0.00031478,-0.00415981,0.00480453,-0.00819650,0.00279115,0.00090541,-0
 .00044326,-0.06092898,0.11426178,-0.21185727,-0.00082352,-0.00102711,0
 .00018827,0.00046422,-0.00000688,0.00015555,0.00012247,0.00001769,-0.0
 0000718,-0.00032574,-0.00033714,0.00026640,0.00021827,-0.00103050,-0.0
 0028658,0.00006191,0.00005615,0.00013965,0.00013646,-0.00012612,0.0001
 4619,0.00014403,-0.00020643,0.00044669,-0.00036679,0.00076571,-0.00024
 784,-0.00012993,0.00013644,0.00008125,0.00300661,-0.00652303,0.0096859
 3,0.06523547,-0.12626247,0.22423055,0.00000740,0.00000623,0.00001716,-
 0.00003185,-0.00001094,-0.00001894,0.00000199,-0.00001293,-0.00002709,
 -0.00000901,0.00003058,0.00001081,-0.00000443,0.00001404,0.00001379,0.
 00006305,-0.00001195,0.00002733,-0.00010274,0.00013568,0.00010442,-0.0
 0001058,0.00001188,0.00000705,-0.00000829,-0.00000310,-0.00001990,0.00
 001236,0.00000070,-0.00000167,0.00000592,-0.00001521,0.00001200,0.0000
 0801,0.00000762,0.00000439,-0.00002011,0.00000490,-0.00000573,0.000012
 37,-0.00006083,-0.00002950,0.00003651,0.00002020,0.00002109,-0.0000046
 7,0.00000014,-0.00000535,0.00000768,0.00000617,0.00000419,-0.00000470,
 -0.00000283,0.00000129,-0.00001952,0.00000037,0.00000473,0.00001155,0.
 00001491,0.00000106,0.00028129,-0.00011350,-0.00023383,-0.00032631,-0.
 00003227,-0.00010436,0.00074638,-0.00042471,-0.00135600,-0.01027310,-0
 .01539890,-0.01884870,0.00035628,0.00110785,-0.00060126,-0.08022632,-0
 .05706873,-0.06646081,-0.00234816,-0.00104703,0.00424557,-0.00145354,-
 0.00207791,-0.00101046,0.00019851,-0.00005015,0.00017040,0.00012936,0.
 00014664,0.00001645,-0.00028229,0.00029080,-0.00022846,-0.00018954,0.0
 0018373,0.00076450,0.00033568,0.00003071,0.00012824,0.00047964,-0.0000
 6101,0.00038061,-0.00001089,0.00021420,0.00003971,0.00000856,0.0000724
 5,0.00009128,0.01027153,0.01406751,0.01752809,-0.00362037,-0.00594044,
 -0.00529435,0.08565210,0.00000142,0.00000193,0.00000133,-0.00000426,-0
 .00000440,-0.00000607,-0.00000116,-0.00000192,-0.00001744,0.00000355,0
 .00000855,0.00000063,-0.00000090,0.00000605,0.00000695,0.00007923,-0.0
 0000164,0.00002226,-0.00012878,0.00004539,0.00010390,0.00000112,0.0000
 0480,0.00000132,-0.00000056,-0.00000346,0.00000370,-0.00000301,-0.0000
 0171,-0.00000122,0.00000354,-0.00000410,-0.00000478,-0.00000538,0.0000
 0136,0.00000553,-0.00001407,0.00000724,-0.00000048,0.00000259,-0.00003
 141,-0.00000444,0.00001980,0.00000866,0.00001370,-0.00000260,0.0000021
 2,-0.00000296,0.00000386,0.00000022,0.00000016,-0.00000559,-0.00000146
 ,0.00000387,-0.00002116,0.00000187,0.00000710,0.00000244,0.00000302,-0
 .00000643,0.00022256,-0.00005924,-0.00019537,0.00003278,0.00044315,0.0
 0022816,0.00124327,0.00057662,-0.00018106,-0.00535727,-0.01111057,-0.0
 1294952,0.00003716,0.00025100,-0.00130898,-0.05756548,-0.14956199,-0.1
 1622044,-0.00134161,-0.00096091,0.00282239,-0.00160036,-0.00101033,-0.
 00060519,0.00006135,-0.00004733,-0.00001211,-0.00008904,-0.00002788,-0
 .00004392,-0.00007142,-0.00008291,-0.00000732,-0.00031528,0.00034475,0
 .00040122,0.00022753,-0.00006753,0.00015636,0.00012555,-0.00028304,0.0
 0085349,0.00017568,0.00030688,0.00021909,-0.00009314,0.00004301,0.0000
 1245,-0.00792850,-0.01015340,-0.01180612,0.00667568,0.01290553,0.01308
 611,0.06577993,0.15801161,-0.00000029,0.,0.00000100,0.00000377,-0.0000
 0460,0.00000265,-0.00000185,-0.00000237,-0.00001344,0.00000003,0.00000
 374,0.00001554,-0.00000079,0.00000376,0.00000522,0.00004639,-0.0000020
 2,0.00000878,-0.00007929,-0.00000546,0.00001226,-0.00000259,0.00000485
 ,0.00000571,-0.00000081,-0.00000394,-0.00000558,0.00000016,0.00000181,
 -0.00000305,0.00000521,-0.00000924,-0.00000193,-0.00000267,0.00000252,
 0.00000248,-0.00000059,-0.00000129,-0.00000400,0.00000249,-0.00000723,
 -0.00001279,0.00000541,0.00000771,0.00000147,-0.00000182,0.00000109,-0
 .00000327,0.00000191,0.00000116,-0.00000009,-0.00000352,-0.00000144,0.
 00000281,-0.00000666,-0.00000044,0.00000471,-0.00000632,0.00000022,-0.
 00000550,0.00003601,-0.00000043,-0.00001041,-0.00018094,-0.00025186,-0
 .00005372,0.00017929,0.00003090,0.00112456,0.00468747,0.00863503,0.008
 56877,0.00040552,0.00025284,0.00127982,-0.06760108,-0.11704105,-0.1813
 4323,0.00124330,0.00081196,-0.00115256,0.00069584,0.00067123,0.0007849
 1,0.00015824,0.00012031,0.00004268,0.00007978,0.00010388,0.00004270,-0
 .00003769,0.00021459,-0.00013667,-0.00031423,0.00000996,-0.00014792,-0
 .00014204,0.00014816,0.00006370,-0.00005958,-0.00014930,-0.00008290,-0
 .00002205,-0.00017227,0.00013878,-0.00001608,0.00004903,-0.00008095,-0
 .00318802,-0.00308092,-0.00525872,-0.00679662,-0.01595565,-0.01464506,
 0.07078207,0.12533810,0.19067116,-0.00000391,-0.00000322,-0.00001370,0
 .00001017,0.00002952,-0.00001778,0.00005566,-0.00000840,0.00012676,-0.
 00021567,-0.00002913,-0.00012652,0.00000458,-0.00000197,-0.00006696,0.
 00003193,-0.00004320,0.00002611,-0.00008256,0.00009186,-0.00002386,0.0
 0000565,-0.00000755,-0.00000908,0.00001189,0.00000723,0.00000947,-0.00
 000080,-0.00000035,0.00000499,-0.00000292,0.00000164,-0.00000690,0.000
 00195,-0.00001454,-0.00001241,0.00005978,0.00001061,-0.00000045,-0.000
 76961,0.00000369,0.00036161,0.00001109,-0.00003822,-0.00002989,-0.0000
 0309,-0.00000243,0.00000525,-0.00000479,-0.00000002,0.00000439,0.00002
 811,0.00000503,-0.00000267,-0.00000905,0.00001040,-0.00001533,0.000005
 80,0.00000390,0.00000684,0.00020844,-0.00007312,0.00001453,-0.00011041
 ,0.00046698,0.00033303,0.00006283,0.00028856,0.00049118,-0.00398152,0.
 00757028,-0.00562134,-0.00086388,-0.00217116,-0.00178655,0.00007629,0.
 00078981,-0.00054354,-0.12584958,0.09146550,-0.09015364,0.01169324,-0.
 02402901,0.01859589,0.00038291,0.00037831,0.00044215,0.00005372,-0.000
 03197,0.00017881,-0.00001189,-0.00004256,-0.00001366,-0.00003843,0.000
 03111,0.00001432,0.00004376,-0.00013034,-0.00007930,-0.00000151,0.0004
 3047,-0.00082907,0.00007630,-0.00002611,-0.00017603,0.00027820,-0.0003
 4972,0.00034916,0.00014343,-0.00005377,-0.00010959,-0.00036937,-0.0006
 8743,0.00017161,0.00015318,-0.00021113,0.00021504,0.13015752,-0.000012
 75,-0.00000531,-0.00000959,0.00003948,0.00003888,-0.00001908,0.0000142
 2,-0.00004411,0.00013210,0.00000858,-0.00001672,-0.00020442,0.00001866
 ,0.00003116,-0.00008454,0.00032775,-0.00005538,0.00014221,-0.00057430,
 0.00016662,0.00012534,0.00000731,-0.00000541,-0.00000907,0.00000607,0.
 00001418,0.00001260,-0.00001279,0.00000318,0.00000166,-0.00001013,-0.0
 0001382,-0.00000844,0.00000179,-0.00002126,-0.00002050,0.00002366,0.00
 001085,0.00001312,0.00007654,0.00027244,0.00014983,-0.00008286,-0.0000
 8658,0.00001726,-0.00001845,0.00000727,-0.00000072,-0.00000524,-0.0000
 1045,0.00000715,0.00003277,0.00000325,-0.00000802,-0.00005614,0.000014
 51,-0.00002043,-0.00002077,-0.00001486,-0.00002027,0.00073617,-0.00027
 780,-0.00030155,0.00012329,-0.00116182,-0.00084560,0.00050989,0.000293
 66,0.00018966,-0.00861855,0.01128998,-0.01017953,-0.00151589,-0.001945
 00,-0.00244821,0.00052761,0.00113814,-0.00025220,0.08041336,-0.1411562
 8,0.09566967,0.00607117,-0.02473665,0.01820081,0.00044115,-0.00094561,
 -0.00050007,0.00002319,0.00011117,0.00008710,-0.00002085,-0.00001975,-
 0.00006010,-0.00013275,0.00014864,0.00023617,0.00017065,-0.00006221,-0
 .00001960,-0.00030627,0.00070645,-0.00082915,0.00017267,0.00002482,-0.
 00004659,-0.00014163,0.00001087,0.00006242,-0.00004779,-0.00009312,-0.
 00002568,-0.00003843,-0.00012122,0.00023215,0.00019895,0.00007284,0.00
 005731,-0.08140951,0.16459558,0.00001935,0.00000806,-0.00002910,0.0000
 1769,-0.00002752,0.00001604,-0.00010980,-0.00002995,-0.00019854,0.0003
 5380,0.00012425,0.00023786,-0.00003179,-0.00002526,0.00013124,-0.00015
 465,0.00011270,-0.00008678,0.00031264,-0.00025115,0.00004200,0.0000026
 3,0.00000210,0.00000884,0.00000846,-0.00003169,0.00003306,-0.00002128,
 -0.00000885,0.00000482,-0.00000646,0.00002394,-0.00003903,-0.00003436,
 0.00000497,0.00002476,-0.00010124,-0.00000706,-0.00002366,0.00033892,-
 0.00004256,-0.00016483,-0.00008093,-0.00007913,-0.00003863,0.00001845,
 0.00000261,0.00000059,0.00000459,-0.00000656,-0.00001216,-0.00005729,-
 0.00000689,0.00001120,0.00001766,-0.00001690,0.00002811,0.00000294,-0.
 00001433,-0.00000103,-0.00035032,0.00035639,-0.00005079,-0.00017274,-0
 .00042623,-0.00048019,-0.00051152,0.00140641,0.00062826,-0.01334636,0.
 01479789,-0.01576658,-0.00195005,-0.00398580,-0.00262173,0.00086983,0.
 00032180,-0.00002919,-0.08276047,0.09716594,-0.15313195,-0.00191721,0.
 01020209,-0.00500848,0.00053299,-0.00077523,0.00067585,0.00012954,0.00
 011246,0.00036181,0.00007415,0.00012817,0.00016216,0.00005162,0.000155
 24,0.00028873,0.00017355,0.00000483,-0.00011122,-0.00052783,0.00093012
 ,-0.00109888,0.00013313,0.00011180,0.00016364,-0.00003837,0.00005259,0
 .00015534,0.00007478,-0.00005505,0.00006189,-0.00032009,-0.00033191,0.
 00052817,0.00006395,-0.00022734,0.00010663,0.08980866,-0.10979871,0.16
 370107,0.00000381,0.00000683,0.00002102,-0.00000886,-0.00002155,-0.000
 04148,-0.00006564,-0.00006183,-0.00010805,0.00010990,0.00011841,0.0000
 3576,-0.00000149,0.00006865,0.00003177,0.00074576,0.00002181,0.0003209
 1,-0.00129638,0.00030334,0.00071926,-0.00000419,0.00002733,0.00001199,
 0.00000146,-0.00001415,-0.00000748,-0.00001013,0.00000187,-0.00001125,
 -0.00000834,-0.00004220,-0.00001775,-0.00001170,0.00000686,0.00001477,
 -0.00009056,0.00004131,-0.00002250,0.00002428,-0.00018773,-0.00004737,
 0.00004922,-0.00000259,0.00006768,-0.00002927,0.00001629,-0.00002050,0
 .00001677,-0.00000980,0.00000289,-0.00002198,-0.00001101,0.00001399,-0
 .00017205,0.00000417,0.00001502,-0.00004104,-0.00001896,-0.00007896,0.
 00191330,-0.00056039,-0.00149104,-0.00002846,0.00002812,-0.00008097,-0
 .00061129,-0.00111656,-0.00199571,0.00689254,-0.00512898,-0.00665435,0
 .00069887,-0.00057089,0.00025540,0.00097562,-0.00095913,-0.00119933,-0
 .17992228,0.08632531,0.09039041,-0.02506810,-0.00408469,0.01663887,0.0
 0008388,-0.00018908,0.00015898,0.00003276,-0.00000350,0.00005553,0.000
 05329,0.00007373,0.00004989,0.00060064,-0.00039580,-0.00023579,-0.0000
 2224,-0.00005002,-0.00009480,0.00011199,-0.00004761,0.00011805,0.00001
 011,0.00005789,-0.00027162,0.00003161,0.00002170,0.00037884,-0.0001325
 8,-0.00011811,-0.00030653,0.00001115,0.00020545,0.00019792,0.00025855,
 0.00004289,-0.00005472,-0.00889047,0.00707762,0.00798042,0.20355517,-0
 .00000084,0.00000464,0.00003942,-0.00005528,0.00000610,-0.00004994,0.0
 0004117,-0.00002554,0.00008947,-0.00018243,-0.00001055,-0.00015827,0.0
 0000986,0.00005302,-0.00006539,0.00041312,-0.00005405,0.00024929,-0.00
 094627,0.00046356,0.00066007,-0.00001190,0.00001680,0.00000095,-0.0000
 1340,0.00001434,-0.00003560,0.00002174,0.00000400,-0.00000424,-0.00000
 208,-0.00003185,0.00002923,0.00002582,0.00000141,-0.00000774,-0.000001
 37,0.00003083,-0.00000411,-0.00004068,-0.00004607,0.00007099,0.0000734
 6,0.00004013,0.00005825,-0.00002491,0.00000191,-0.00001048,0.00000823,
 0.00000684,0.00001285,0.00002730,-0.00000097,-0.00000361,-0.00011473,0
 .00000809,-0.00001898,-0.00000305,0.00001106,-0.00003157,0.00130559,-0
 .00075022,-0.00114673,-0.00011116,0.00039794,-0.00022106,-0.00258978,-
 0.00096682,-0.00285513,0.01239205,-0.00783024,-0.00734244,-0.00011656,
 0.00045789,0.00105724,0.00099636,-0.00006394,-0.00090476,0.09148558,-0
 .10696564,-0.05859936,-0.03235918,0.00620436,0.01852975,-0.00013859,0.
 00032149,0.00003324,0.00000395,-0.00011242,-0.00002047,-0.00005392,-0.
 00013911,-0.00005554,0.00072554,-0.00081172,-0.00072334,-0.00018580,0.
 00007863,0.00020630,-0.00009060,0.00004854,0.00004169,-0.00003574,-0.0
 0001024,-0.00002499,-0.00029860,0.00042070,-0.00017584,-0.00094977,-0.
 00010015,-0.00022763,0.00019210,-0.00020200,0.00008006,-0.00014899,0.0
 0012787,0.00033659,0.01231092,-0.00650715,-0.01038786,-0.08113192,0.11
 344469,0.00001823,0.00001021,-0.00000236,-0.00003887,-0.00001462,-0.00
 000289,-0.00002443,-0.00000320,-0.00008467,0.00007620,0.00001332,0.000
 13410,-0.00001488,-0.00002343,0.00006077,-0.00035111,0.00002810,-0.000
 15786,0.00063980,-0.00003151,-0.00019995,-0.00000860,0.00000011,0.0000
 0424,-0.00000699,-0.00001000,-0.00000375,0.00001139,-0.00000592,0.0000
 0686,0.00000118,0.00001834,0.00001006,0.00000570,0.00000711,0.00000857
 ,0.00000400,-0.00001961,0.00000087,0.00008181,-0.00003128,-0.00012035,
 -0.00001579,-0.00000070,-0.00002192,0.00001613,-0.00000621,0.00000434,
 0.00000302,0.00000733,-0.00000113,-0.00001922,-0.00000185,-0.00000053,
 0.00007447,-0.00001048,0.00001013,0.00003723,0.00001800,0.00004080,-0.
 00069599,0.00015995,0.00040199,-0.00021308,0.00031755,-0.00021221,-0.0
 0367880,-0.00132181,-0.00347513,0.01876127,-0.01471409,-0.01285181,0.0
 0145623,-0.00080920,0.00102470,0.00130166,0.00068906,0.00076198,0.0881
 3115,-0.05725808,-0.11670621,0.01235700,0.00332212,-0.00425643,0.00015
 295,-0.00016655,0.00028316,0.00008150,-0.00005710,0.00016848,0.0000158
 8,-0.00004438,0.00009957,0.00105689,-0.00107359,-0.00071282,-0.0001539
 5,0.00024848,0.00017109,-0.00021622,0.00016707,0.00030341,-0.00005637,
 0.00003596,0.00009389,-0.00060579,0.00069863,-0.00031457,-0.00093558,-
 0.00009991,0.00030939,-0.00021097,-0.00007920,0.00002885,-0.00012662,0
 .00045921,0.00006830,-0.01450756,0.00813201,0.01196180,-0.10361489,0.0
 6191645,0.12312526,0.00001314,-0.00000785,-0.00003693,0.00001420,-0.00
 006342,0.00010933,0.00019097,0.00000534,-0.00021677,0.00028408,0.00030
 577,-0.00002928,-0.00003179,-0.00009965,0.00015340,-0.00076545,0.00019
 628,-0.00039976,0.00106615,-0.00169164,0.00093710,0.00000160,-0.000025
 11,0.00000436,-0.00000671,-0.00001992,0.00002275,0.00000150,-0.0000063
 3,0.00000695,0.00000822,0.00004638,-0.00002116,-0.00002036,0.00002346,
 0.00002435,-0.00023090,-0.00001244,0.00004216,-0.00033279,-0.00030971,
 -0.00013621,0.00016277,0.00009097,0.00006266,0.00005985,-0.00002211,0.
 00002342,-0.00000995,0.00000667,-0.00002775,-0.00005490,0.00000285,-0.
 00000132,0.00012332,-0.00006433,-0.00000270,-0.00004609,-0.00000250,-0
 .00000125,-0.00219163,0.00430245,-0.00203336,-0.00004472,-0.00002779,0
 .00009376,0.00006873,0.00019356,-0.00004407,-0.00005526,-0.00121205,0.
 00059938,0.00105114,-0.00055336,-0.00047778,-0.00012413,0.00004879,-0.
 00020309,0.01259745,-0.02665568,0.01563155,-0.16293471,0.18638814,-0.1
 1897718,-0.00006629,-0.00000554,-0.00004829,-0.00003660,0.00004007,-0.
 00005605,0.00000478,-0.00000979,0.00001090,0.00003658,-0.00000880,-0.0
 0003484,0.00001640,0.00014212,-0.00001626,-0.00030171,0.00050787,0.000
 23793,-0.00010936,-0.00051220,-0.00103641,-0.00140887,0.00031428,0.000
 08763,-0.00012325,-0.00001832,0.00007479,0.00007695,0.00016636,-0.0000
 9981,-0.00009145,0.00001878,-0.00002768,-0.00234695,-0.00399749,0.0015
 0301,0.00025638,-0.00042523,0.00121198,0.15529964,-0.00001477,-0.00001
 453,-0.00002421,0.00006268,-0.00001298,0.00003027,-0.00011010,-0.00005
 616,-0.00009769,-0.00000487,0.00005009,0.00003447,0.00000240,0.0000571
 2,0.00000958,0.00072350,0.00032862,0.00040178,-0.00147895,-0.00045057,
 0.00013403,0.00001230,-0.00000317,0.00000068,0.00001063,-0.00000543,0.
 00002358,-0.00002716,0.00000628,-0.00000854,-0.00001628,-0.00003242,-0
 .00003079,-0.00002494,-0.00000223,0.00000952,-0.00005397,0.00002204,-0
 .00001236,-0.00004477,-0.00003440,-0.00001450,0.00006997,0.00000112,0.
 00000998,-0.00001793,0.00000345,-0.00001003,-0.00000355,-0.00002114,-0
 .00002100,-0.00001563,-0.00000071,0.00001220,-0.00016594,-0.00001461,0
 .00000059,-0.00019539,-0.00011574,-0.00016900,0.00316614,-0.00016832,-
 0.00046803,0.00009118,0.00009485,0.00018270,0.00007108,-0.00014393,-0.
 00012217,0.00127798,-0.00093668,0.00023404,-0.00105573,0.00010394,0.00
 022167,-0.00012990,0.00046544,0.00050483,0.01563389,-0.02395060,0.0162
 3526,0.14278128,-0.27840158,0.16656485,-0.00003279,0.00001738,-0.00009
 869,-0.00005991,0.00007417,-0.00003337,0.00000567,0.00004290,-0.000068
 07,-0.00002612,0.00009072,0.00004530,0.00010820,-0.00021543,-0.0000671
 2,0.00057133,0.00038811,-0.00011642,0.00001928,0.00031795,-0.00146879,
 -0.00000468,-0.00006933,-0.00022143,-0.00000813,-0.00006407,-0.0000107
 1,0.00005164,0.00016923,-0.00020283,0.00013526,0.00024079,-0.00011723,
 -0.00453095,-0.00165401,0.00051161,0.00027692,0.00246383,-0.00046628,-
 0.15704886,0.30143000,-0.00002486,-0.00000940,-0.00000100,0.00004075,0
 .00003113,-0.00004246,-0.00020742,-0.00007405,0.00003437,-0.00006796,-
 0.00006325,0.00008893,0.00002393,0.00009696,-0.00008996,0.00083735,0.0
 0021027,0.00048854,-0.00114474,0.00095984,-0.00138803,0.00000808,-0.00
 000015,-0.00000724,0.00001382,0.00001807,-0.00000146,-0.00001649,0.000
 01035,-0.00000640,-0.00002975,-0.00003525,0.00001323,0.00001582,-0.000
 02114,-0.00002276,0.00010611,0.00000474,-0.00001083,0.00011427,0.00004
 892,0.00002991,-0.00005855,-0.00003505,-0.00003320,-0.00004518,0.00001
 179,-0.00001519,-0.00001001,-0.00002444,0.00000175,0.00003439,-0.00000
 433,-0.00000488,-0.00010436,-0.00001085,-0.00003678,-0.00014706,-0.000
 12204,-0.00011310,0.00182816,-0.00260919,0.00249209,0.00000691,0.00009
 234,0.00001748,-0.00025298,-0.00014707,-0.00051722,0.00048035,-0.00187
 502,0.00148725,-0.00123947,-0.00050891,0.00132117,-0.00057928,0.000123
 66,-0.00070729,-0.00621392,0.01067883,-0.00736375,-0.09851291,0.173460
 02,-0.11167147,-0.00000727,0.00003638,-0.00004638,-0.00001314,0.000035
 07,0.00000124,-0.00000974,0.00003365,-0.00003904,0.00003778,-0.0001447
 6,-0.00007178,0.00010296,-0.00018787,0.00015842,0.00054838,0.00041307,
 -0.00026173,-0.00041141,-0.00085678,-0.00267156,-0.00025215,-0.0000955
 4,0.00005732,0.00014260,-0.00005542,0.00005665,0.00012184,0.00017224,-
 0.00009946,-0.00006713,-0.00014586,0.00000715,0.00298598,0.00224349,-0
 .00044108,-0.00112426,-0.00033674,0.00004200,0.10309054,-0.18131769,0.
 11936656\\0.,0.00000085,-0.00000154,0.00000012,0.00000008,-0.00000025,
 0.00000023,0.00000050,0.00000013,0.00000002,-0.00000022,-0.00000010,-0
 .00000014,0.00000035,0.00000010,-0.00000084,0.00000065,0.00000064,0.00
 000005,0.00000045,0.00000056,0.00000034,0.00000077,-0.00000137,0.00000
 042,-0.00000012,-0.00000132,0.00000008,0.00000019,-0.00000123,-0.00000
 010,0.00000063,-0.00000050,-0.00000016,0.00000112,-0.00000052,0.000000
 13,-0.00000045,-0.00000049,0.00000024,-0.00000040,0.00000008,-0.000000
 02,-0.00000076,0.00000039,0.00000007,0.00000025,-0.00000056,-0.0000001
 0,-0.00000015,0.00000026,-0.00000021,0.00000073,0.00000015,-0.00000035
 ,0.00000104,0.00000067,-0.00000025,0.00000035,0.00000099,-0.00000027,0
 .00000034,0.00000039,0.00000014,0.00000022,-0.00000123,0.00000049,-0.0
 0000055,0.00000025,-0.00000089,-0.00000016,0.00000006,-0.00000006,-0.0
 0000015,0.00000100,0.00000021,-0.00000046,-0.00000003,0.00000077,-0.00
 000037,0.00000024,-0.00000101,-0.00000078,0.00000233,0.00000023,-0.000
 00083,-0.00000069,0.00000038,0.00000025,-0.00000095,0.00000046,-0.0000
 0024,-0.00000102,0.00000018,0.00000056,-0.00000037,-0.00000031,0.00000
 034,-0.00000016,-0.00000010,0.00000051,0.00000065,-0.00000038,0.000000
 39,0.00000101,-0.00000017,-0.00000025,0.00000102,0.00000018,-0.0000010
 5,0.00000031,0.00000023,-0.00000092,-0.00000048,0.00000018,-0.00000029
 ,-0.00000013,0.00000003,-0.00000095,0.00000018,-0.00000004,-0.00000114
 ,0.00000092,0.00000024,-0.00000033,0.00000061\\\@


 Everything starts as somebody's daydream.
                           -- Larry Niven
 File lengths (MBytes):  RWF=    322 Int=      0 D2E=      0 Chk=      7 Scr=      1
 Normal termination of Gaussian 16 at Mon Apr  1 17:29:00 2024.
real 8521.46
user 32115.78
sys 34.77
