 Entering Gaussian System, Link 0=g16
 Input=gaussian_test.inp
 Output=gaussian_test.log
 Initial command:
 /sw/restricted/lms/sw/Gaussian/g16_B01/g16/l1.exe "/scratch/user/peterchao1/peterchao1/8625352_1689034674000000750818222/Gau-23456.inp" -scrdir="/scratch/user/peterchao1/peterchao1/8625352_1689034674000000750818222/"
 Entering Link 1 = /sw/restricted/lms/sw/Gaussian/g16_B01/g16/l1.exe PID=     23461.
  
 Copyright (c) 1988-2017, Gaussian, Inc.  All Rights Reserved.
  
 This is part of the Gaussian(R) 16 program.  It is based on
 the Gaussian(R) 09 system (copyright 2009, Gaussian, Inc.),
 the Gaussian(R) 03 system (copyright 2003, Gaussian, Inc.),
 the Gaussian(R) 98 system (copyright 1998, Gaussian, Inc.),
 the Gaussian(R) 94 system (copyright 1995, Gaussian, Inc.),
 the Gaussian 92(TM) system (copyright 1992, Gaussian, Inc.),
 the Gaussian 90(TM) system (copyright 1990, Gaussian, Inc.),
 the Gaussian 88(TM) system (copyright 1988, Gaussian, Inc.),
 the Gaussian 86(TM) system (copyright 1986, Carnegie Mellon
 University), and the Gaussian 82(TM) system (copyright 1983,
 Carnegie Mellon University). Gaussian is a federally registered
 trademark of Gaussian, Inc.
  
 This software contains proprietary and confidential information,
 including trade secrets, belonging to Gaussian, Inc.
  
 This software is provided under written license and may be
 used, copied, transmitted, or stored only in accord with that
 written license.
  
 The following legend is applicable only to US Government
 contracts under FAR:
  
                    RESTRICTED RIGHTS LEGEND
  
 Use, reproduction and disclosure by the US Government is
 subject to restrictions as set forth in subparagraphs (a)
 and (c) of the Commercial Computer Software - Restricted
 Rights clause in FAR 52.227-19.
  
 Gaussian, Inc.
 340 Quinnipiac St., Bldg. 40, Wallingford CT 06492
  
  
 ---------------------------------------------------------------
 Warning -- This program may not be used in any manner that
 competes with the business of Gaussian, Inc. or will provide
 assistance to any competitor of Gaussian, Inc.  The licensee
 of this program is prohibited from giving any competitor of
 Gaussian, Inc. access to this program.  By using this program,
 the user acknowledges that Gaussian, Inc. is engaged in the
 business of creating and licensing software in the field of
 computational chemistry and represents and warrants to the
 licensee that it is not a competitor of Gaussian, Inc. and that
 it will not use this program in any manner prohibited above.
 ---------------------------------------------------------------
  

 Cite this work as:
 Gaussian 16, Revision B.01,
 M. J. Frisch, G. W. Trucks, H. B. Schlegel, G. E. Scuseria, 
 M. A. Robb, J. R. Cheeseman, G. Scalmani, V. Barone, 
 G. A. Petersson, H. Nakatsuji, X. Li, M. Caricato, A. V. Marenich, 
 J. Bloino, B. G. Janesko, R. Gomperts, B. Mennucci, H. P. Hratchian, 
 J. V. Ortiz, A. F. Izmaylov, J. L. Sonnenberg, D. Williams-Young, 
 F. Ding, F. Lipparini, F. Egidi, J. Goings, B. Peng, A. Petrone, 
 T. Henderson, D. Ranasinghe, V. G. Zakrzewski, J. Gao, N. Rega, 
 G. Zheng, W. Liang, M. Hada, M. Ehara, K. Toyota, R. Fukuda, 
 J. Hasegawa, M. Ishida, T. Nakajima, Y. Honda, O. Kitao, H. Nakai, 
 T. Vreven, K. Throssell, J. A. Montgomery, Jr., J. E. Peralta, 
 F. Ogliaro, M. J. Bearpark, J. J. Heyd, E. N. Brothers, K. N. Kudin, 
 V. N. Staroverov, T. A. Keith, R. Kobayashi, J. Normand, 
 K. Raghavachari, A. P. Rendell, J. C. Burant, S. S. Iyengar, 
 J. Tomasi, M. Cossi, J. M. Millam, M. Klene, C. Adamo, R. Cammi, 
 J. W. Ochterski, R. L. Martin, K. Morokuma, O. Farkas, 
 J. B. Foresman, and D. J. Fox, Gaussian, Inc., Wallingford CT, 2016.
 
 ******************************************
 Gaussian 16:  ES64L-G16RevB.01 20-Dec-2017
                10-Jul-2023 
 ******************************************
 %nprocshared=4
 Will use up to    4 processors via shared memory.
 %mem=8000mb
 %chk=11.chk
 %mem=8000mb
 ----------------------------------------------------------------------
 #T wB97XD/def2svpp opt=tight freq int(grid=ultrafine) scf=(verytight,q
 c)
 ----------------------------------------------------------------------
 -------
 comment
 -------
 Symbolic Z-matrix:
 Charge =  1 Multiplicity = 2
 C                    -0.41476   1.52391  -0.21045 
 C                    -0.40507   0.00435   0.00855 
 C                    -0.4812   -0.30277   1.50879 
 C                    -1.59609  -0.62664  -0.72212 
 C                     0.88857  -0.59822  -0.57421 
 O                     2.07006  -0.11498   0.01214 
 H                    -1.36054   1.96705   0.14817 
 H                    -0.31214   1.77632  -1.28249 
 H                     0.40285   2.01932   0.34402 
 H                    -1.37603   0.15929   1.96318 
 H                     0.41292   0.07931   2.02912 
 H                    -0.53416  -1.39204   1.68652 
 H                    -2.55088  -0.24164  -0.32205 
 H                    -1.60099  -1.72526  -0.6028 
 H                    -1.57045  -0.40307  -1.80433 
 H                     0.89693  -0.44318  -1.67493 
 H                     0.89109  -1.68812  -0.40052 
 H                     2.19227   0.80807  -0.24437 
 

 GradGradGradGradGradGradGradGradGradGradGradGradGradGradGradGradGradGrad
 Initialization pass.
                           ----------------------------
                           !    Initial Parameters    !
                           ! (Angstroms and Degrees)  !
 --------------------------                            --------------------------
 ! Name  Definition              Value          Derivative Info.                !
 --------------------------------------------------------------------------------
 ! R1    R(1,2)                  1.5353         estimate D2E/DX2                !
 ! R2    R(1,7)                  1.1043         estimate D2E/DX2                !
 ! R3    R(1,8)                  1.1061         estimate D2E/DX2                !
 ! R4    R(1,9)                  1.1052         estimate D2E/DX2                !
 ! R5    R(2,3)                  1.5332         estimate D2E/DX2                !
 ! R6    R(2,4)                  1.5332         estimate D2E/DX2                !
 ! R7    R(2,5)                  1.5415         estimate D2E/DX2                !
 ! R8    R(3,10)                 1.1048         estimate D2E/DX2                !
 ! R9    R(3,11)                 1.1028         estimate D2E/DX2                !
 ! R10   R(3,12)                 1.1049         estimate D2E/DX2                !
 ! R11   R(4,13)                 1.1045         estimate D2E/DX2                !
 ! R12   R(4,14)                 1.1051         estimate D2E/DX2                !
 ! R13   R(4,15)                 1.1054         estimate D2E/DX2                !
 ! R14   R(5,6)                  1.4047         estimate D2E/DX2                !
 ! R15   R(5,16)                 1.1116         estimate D2E/DX2                !
 ! R16   R(5,17)                 1.1037         estimate D2E/DX2                !
 ! R17   R(6,18)                 0.9658         estimate D2E/DX2                !
 ! A1    A(2,1,7)              110.8707         estimate D2E/DX2                !
 ! A2    A(2,1,8)              111.3164         estimate D2E/DX2                !
 ! A3    A(2,1,9)              111.5583         estimate D2E/DX2                !
 ! A4    A(7,1,8)              107.6155         estimate D2E/DX2                !
 ! A5    A(7,1,9)              106.9061         estimate D2E/DX2                !
 ! A6    A(8,1,9)              108.3799         estimate D2E/DX2                !
 ! A7    A(1,2,3)              109.7255         estimate D2E/DX2                !
 ! A8    A(1,2,4)              109.5401         estimate D2E/DX2                !
 ! A9    A(1,2,5)              109.7716         estimate D2E/DX2                !
 ! A10   A(3,2,4)              110.2001         estimate D2E/DX2                !
 ! A11   A(3,2,5)              109.4679         estimate D2E/DX2                !
 ! A12   A(4,2,5)              108.1127         estimate D2E/DX2                !
 ! A13   A(2,3,10)             111.0303         estimate D2E/DX2                !
 ! A14   A(2,3,11)             110.61           estimate D2E/DX2                !
 ! A15   A(2,3,12)             110.9306         estimate D2E/DX2                !
 ! A16   A(10,3,11)            108.5243         estimate D2E/DX2                !
 ! A17   A(10,3,12)            107.8972         estimate D2E/DX2                !
 ! A18   A(11,3,12)            107.729          estimate D2E/DX2                !
 ! A19   A(2,4,13)             110.8221         estimate D2E/DX2                !
 ! A20   A(2,4,14)             111.1704         estimate D2E/DX2                !
 ! A21   A(2,4,15)             111.4278         estimate D2E/DX2                !
 ! A22   A(13,4,14)            107.6737         estimate D2E/DX2                !
 ! A23   A(13,4,15)            107.7087         estimate D2E/DX2                !
 ! A24   A(14,4,15)            107.8721         estimate D2E/DX2                !
 ! A25   A(2,5,6)              114.4293         estimate D2E/DX2                !
 ! A26   A(2,5,16)             109.0342         estimate D2E/DX2                !
 ! A27   A(2,5,17)             109.1749         estimate D2E/DX2                !
 ! A28   A(6,5,16)             111.0398         estimate D2E/DX2                !
 ! A29   A(6,5,17)             105.7899         estimate D2E/DX2                !
 ! A30   A(16,5,17)            107.0705         estimate D2E/DX2                !
 ! A31   A(5,6,18)             108.9263         estimate D2E/DX2                !
 ! D1    D(7,1,2,3)            -62.9388         estimate D2E/DX2                !
 ! D2    D(7,1,2,4)             58.1587         estimate D2E/DX2                !
 ! D3    D(7,1,2,5)            176.7218         estimate D2E/DX2                !
 ! D4    D(8,1,2,3)            177.2963         estimate D2E/DX2                !
 ! D5    D(8,1,2,4)            -61.6062         estimate D2E/DX2                !
 ! D6    D(8,1,2,5)             56.9569         estimate D2E/DX2                !
 ! D7    D(9,1,2,3)             56.0914         estimate D2E/DX2                !
 ! D8    D(9,1,2,4)            177.1889         estimate D2E/DX2                !
 ! D9    D(9,1,2,5)            -64.2479         estimate D2E/DX2                !
 ! D10   D(1,2,3,10)            56.769          estimate D2E/DX2                !
 ! D11   D(1,2,3,11)           -63.7779         estimate D2E/DX2                !
 ! D12   D(1,2,3,12)           176.7393         estimate D2E/DX2                !
 ! D13   D(4,2,3,10)           -63.9299         estimate D2E/DX2                !
 ! D14   D(4,2,3,11)           175.5231         estimate D2E/DX2                !
 ! D15   D(4,2,3,12)            56.0404         estimate D2E/DX2                !
 ! D16   D(5,2,3,10)           177.2926         estimate D2E/DX2                !
 ! D17   D(5,2,3,11)            56.7457         estimate D2E/DX2                !
 ! D18   D(5,2,3,12)           -62.7371         estimate D2E/DX2                !
 ! D19   D(1,2,4,13)           -61.6937         estimate D2E/DX2                !
 ! D20   D(1,2,4,14)           178.5968         estimate D2E/DX2                !
 ! D21   D(1,2,4,15)            58.2302         estimate D2E/DX2                !
 ! D22   D(3,2,4,13)            59.1164         estimate D2E/DX2                !
 ! D23   D(3,2,4,14)           -60.5931         estimate D2E/DX2                !
 ! D24   D(3,2,4,15)           179.0402         estimate D2E/DX2                !
 ! D25   D(5,2,4,13)           178.7192         estimate D2E/DX2                !
 ! D26   D(5,2,4,14)            59.0097         estimate D2E/DX2                !
 ! D27   D(5,2,4,15)           -61.3569         estimate D2E/DX2                !
 ! D28   D(1,2,5,6)             60.9885         estimate D2E/DX2                !
 ! D29   D(1,2,5,16)           -64.0296         estimate D2E/DX2                !
 ! D30   D(1,2,5,17)           179.3076         estimate D2E/DX2                !
 ! D31   D(3,2,5,6)            -59.5071         estimate D2E/DX2                !
 ! D32   D(3,2,5,16)           175.4748         estimate D2E/DX2                !
 ! D33   D(3,2,5,17)            58.812          estimate D2E/DX2                !
 ! D34   D(4,2,5,6)           -179.5704         estimate D2E/DX2                !
 ! D35   D(4,2,5,16)            55.4115         estimate D2E/DX2                !
 ! D36   D(4,2,5,17)           -61.2513         estimate D2E/DX2                !
 ! D37   D(2,5,6,18)           -69.5332         estimate D2E/DX2                !
 ! D38   D(16,5,6,18)           54.42           estimate D2E/DX2                !
 ! D39   D(17,5,6,18)          170.2451         estimate D2E/DX2                !
 --------------------------------------------------------------------------------
 Number of steps in this run=     97 maximum allowed number of steps=    108.
 GradGradGradGradGradGradGradGradGradGradGradGradGradGradGradGradGradGrad

                    Distance matrix (angstroms):
                    1          2          3          4          5
     1  C    0.000000
     2  C    1.535287   0.000000
     3  C    2.509373   1.533247   0.000000
     4  C    2.506435   1.533152   2.514914   0.000000
     5  C    2.516829   1.541492   2.510467   2.489221   0.000000
     6  O    2.984936   2.478006   2.963808   3.773803   1.404723
     7  H    1.104298   2.187372   2.788656   2.745929   3.487252
     8  H    1.106123   2.194374   3.484599   2.781508   2.753509
     9  H    1.105153   2.196676   2.744154   3.483325   2.816131
    10  H    2.740599   2.188004   1.104848   2.806583   3.484333
    11  H    2.790621   2.181154   1.102810   3.479048   2.731778
    12  H    3.480730   2.186815   1.104939   2.741357   2.786609
    13  H    2.773560   2.185021   2.763923   1.104491   3.467066
    14  H    3.481114   2.189866   2.781396   1.105085   2.732934
    15  H    2.754870   2.193312   3.489018   1.105362   2.756456
    16  H    2.781127   2.174755   3.472029   2.675192   1.111612
    17  H    3.472539   2.170677   2.729075   2.723277   1.103658
    18  H    2.703733   2.730582   3.384519   4.079007   1.945784
                    6          7          8          9         10
     6  O    0.000000
     7  H    4.015265   0.000000
     8  H    3.305747   1.783899   0.000000
     9  H    2.728547   1.775004   1.793259   0.000000
    10  H    3.969548   2.561736   3.779021   3.040699   0.000000
    11  H    2.617643   3.201040   3.791078   2.569689   1.791952
    12  H    3.349084   3.785879   4.347733   3.783872   1.786590
    13  H    4.634740   2.552714   3.163317   3.778910   2.600632
    14  H    4.055580   3.775566   3.792646   4.351290   3.191604
    15  H    4.078708   3.077950   2.570098   3.791740   3.814202
    16  H    2.080900   3.772141   2.557743   3.222447   4.331872
    17  H    2.008739   4.327954   3.772002   3.812855   3.760300
    18  H    0.965792   3.757624   2.878760   2.239493   4.245813
                   11         12         13         14         15
    11  H    0.000000
    12  H    1.783033   0.000000
    13  H    3.796725   3.070004   0.000000
    14  H    3.773496   2.547571   1.783879   0.000000
    15  H    4.343011   3.773322   1.784501   1.786838   0.000000
    16  H    3.771896   3.774605   3.709215   3.005457   2.471095
    17  H    3.042307   2.544552   3.734385   2.500551   3.111466
    18  H    2.977565   4.000274   4.858537   4.575478   4.249514
                   16         17         18
    16  H    0.000000
    17  H    1.781577   0.000000
    18  H    2.300006   2.819294   0.000000
 Framework group  C1[X(C5H12O)]
 Deg. of freedom    48
                         Standard orientation:                         
 ---------------------------------------------------------------------
 Center     Atomic      Atomic             Coordinates (Angstroms)
 Number     Number       Type             X           Y           Z
 ---------------------------------------------------------------------
      1          6           0       -0.414763    1.523910   -0.210448
      2          6           0       -0.405069    0.004353    0.008546
      3          6           0       -0.481203   -0.302773    1.508787
      4          6           0       -1.596091   -0.626643   -0.722115
      5          6           0        0.888569   -0.598219   -0.574211
      6          8           0        2.070059   -0.114979    0.012140
      7          1           0       -1.360539    1.967050    0.148172
      8          1           0       -0.312142    1.776323   -1.282486
      9          1           0        0.402853    2.019324    0.344017
     10          1           0       -1.376032    0.159287    1.963178
     11          1           0        0.412920    0.079314    2.029117
     12          1           0       -0.534158   -1.392038    1.686517
     13          1           0       -2.550881   -0.241643   -0.322051
     14          1           0       -1.600988   -1.725257   -0.602797
     15          1           0       -1.570451   -0.403068   -1.804327
     16          1           0        0.896928   -0.443179   -1.674926
     17          1           0        0.891092   -1.688121   -0.400524
     18          1           0        2.192266    0.808072   -0.244368
 ---------------------------------------------------------------------
 Rotational constants (GHZ):           4.3635456           2.5870974           2.5776119
   108 basis functions,   198 primitive gaussians,   114 cartesian basis functions
    25 alpha electrons       24 beta electrons
       nuclear repulsion energy       267.2260963565 Hartrees.
 NAtoms=   18 NActive=   18 NUniq=   18 SFac= 1.00D+00 NAtFMM=   60 NAOKFM=F Big=F
 Nuclear repulsion after empirical dispersion term =      267.2144994262 Hartrees.
   1 Symmetry operations used in ECPInt.
 ECPInt:  NShTT=    1830 NPrTT=    7374 LenC2=    1828 LenP2D=    6157.
 LDataN:  DoStor=T MaxTD1= 4 Len=   56
 ExpMin= 1.22D-01 ExpMax= 2.27D+03 ExpMxC= 3.41D+02 IAcc=3 IRadAn=         5 AccDes= 0.00D+00
 Harris functional with IExCor= 4639 and IRadAn=       5 diagonalized for initial guess.
 HarFok:  IExCor= 4639 AccDes= 0.00D+00 IRadAn=         5 IDoV= 1 UseB2=F ITyADJ=14
 ICtDFT=  3500011 ScaDFX=  1.000000  1.000000  1.000000  1.000000
 FoFCou: FMM=F IPFlag=           0 FMFlag=      100000 FMFlg1=           0
         NFxFlg=           0 DoJE=T BraDBF=F KetDBF=T FulRan=T
         wScrn=  0.000000 ICntrl=       500 IOpCl=  0 I1Cent=   200000004 NGrid=           0
         NMat0=    1 NMatS0=      1 NMatT0=    0 NMatD0=    1 NMtDS0=    0 NMtDT0=    0
 Petite list used in FoFCou.
 Initial guess <Sx>= 0.0000 <Sy>= 0.0000 <Sz>= 0.5000 <S**2>= 0.7500 S= 0.5000
     Minimum is close to point  3 DX= -1.32D-02 DF= -1.91D-04 DXR=  3.41D-02 DFR=  1.17D-03 which will be used.
     Minimum is close to point  2 DX=  6.07D-02 DF= -1.31D-05 DXR=  9.19D-02 DFR=  8.51D-03 which will be used.
     Accept linear search using points  1 and  2.
     Accept linear search using points  2 and  3.
     Accept linear search using points  1 and  2.
     Accept linear search using points  1 and  2.
     Minimum is close to point  2 DX= -3.50D-02 DF= -4.17D-07 DXR=  3.62D-02 DFR=  1.35D-03 which will be used.
     Minimum is close to point  2 DX=  5.28D-03 DF= -3.80D-11 DXR=  5.25D-03 DFR=  2.76D-05 which will be used.
 SCF Done:  E(UwB97XD) =  -272.307038184     a.u. after   12 cycles
            Convg  =    0.9493D-08                    69 Fock formations.
              S**2 =  0.7542                  -V/T =  2.0098
 <Sx>= 0.0000 <Sy>= 0.0000 <Sz>= 0.5000 <S**2>= 0.7542 S= 0.5021
 <L.S>=  0.00000000000    
 Annihilation of the first spin contaminant:
 S**2 before annihilation     0.7542,   after     0.7500

 **********************************************************************

            Population analysis using the SCF Density.

 **********************************************************************

 Orbital symmetries:
 Alpha Orbitals:
       Occupied  (A) (A) (A) (A) (A) (A) (A) (A) (A) (A) (A) (A)
                 (A) (A) (A) (A) (A) (A) (A) (A) (A) (A) (A) (A)
                 (A)
       Virtual   (A) (A) (A) (A) (A) (A) (A) (A) (A) (A) (A) (A)
                 (A) (A) (A) (A) (A) (A) (A) (A) (A) (A) (A) (A)
                 (A) (A) (A) (A) (A) (A) (A) (A) (A) (A) (A) (A)
                 (A) (A) (A) (A) (A) (A) (A) (A) (A) (A) (A) (A)
                 (A) (A) (A) (A) (A) (A) (A) (A) (A) (A) (A) (A)
                 (A) (A) (A) (A) (A) (A) (A) (A) (A) (A) (A) (A)
                 (A) (A) (A) (A) (A) (A) (A) (A) (A) (A) (A)
 Beta  Orbitals:
       Occupied  (A) (A) (A) (A) (A) (A) (A) (A) (A) (A) (A) (A)
                 (A) (A) (A) (A) (A) (A) (A) (A) (A) (A) (A) (A)
       Virtual   (A) (A) (A) (A) (A) (A) (A) (A) (A) (A) (A) (A)
                 (A) (A) (A) (A) (A) (A) (A) (A) (A) (A) (A) (A)
                 (A) (A) (A) (A) (A) (A) (A) (A) (A) (A) (A) (A)
                 (A) (A) (A) (A) (A) (A) (A) (A) (A) (A) (A) (A)
                 (A) (A) (A) (A) (A) (A) (A) (A) (A) (A) (A) (A)
                 (A) (A) (A) (A) (A) (A) (A) (A) (A) (A) (A) (A)
                 (A) (A) (A) (A) (A) (A) (A) (A) (A) (A) (A) (A)
 The electronic state is 2-A.
 Alpha  occ. eigenvalues --  -19.59630 -10.60123 -10.54801 -10.47364 -10.46760
 Alpha  occ. eigenvalues --  -10.46752  -1.43491  -1.14219  -1.02215  -0.96858
 Alpha  occ. eigenvalues --   -0.96575  -0.89578  -0.84490  -0.80087  -0.78093
 Alpha  occ. eigenvalues --   -0.73239  -0.70904  -0.70539  -0.67388  -0.65472
 Alpha  occ. eigenvalues --   -0.64957  -0.62900  -0.62317  -0.60643  -0.60402
 Alpha virt. eigenvalues --   -0.08145  -0.03270  -0.00734   0.00087   0.01692
 Alpha virt. eigenvalues --    0.03121   0.04296   0.05419   0.05917   0.06655
 Alpha virt. eigenvalues --    0.08341   0.09887   0.10454   0.10812   0.11335
 Alpha virt. eigenvalues --    0.12056   0.12924   0.28942   0.30267   0.31507
 Alpha virt. eigenvalues --    0.32299   0.34731   0.41402   0.42913   0.45856
 Alpha virt. eigenvalues --    0.47434   0.48117   0.51205   0.54602   0.55482
 Alpha virt. eigenvalues --    0.57551   0.58021   0.59037   0.59286   0.62245
 Alpha virt. eigenvalues --    0.62532   0.63499   0.64292   0.64614   0.65018
 Alpha virt. eigenvalues --    0.66595   0.67100   0.67964   0.72544   0.72810
 Alpha virt. eigenvalues --    0.86022   0.86449   0.92376   0.99141   1.02991
 Alpha virt. eigenvalues --    1.04616   1.10677   1.23259   1.30705   1.37778
 Alpha virt. eigenvalues --    1.54846   1.56972   1.61197   1.65021   1.69762
 Alpha virt. eigenvalues --    1.72543   1.82674   1.86614   1.91675   1.92742
 Alpha virt. eigenvalues --    1.93139   1.96225   1.99361   2.05263   2.05790
 Alpha virt. eigenvalues --    2.06305   2.06788   2.09754   2.35797   2.36520
 Alpha virt. eigenvalues --    2.41233   2.47073   2.53643   2.55253   2.61847
 Alpha virt. eigenvalues --    2.77007   2.78419   3.17560
  Beta  occ. eigenvalues --  -19.58360 -10.59902 -10.54486 -10.47360 -10.46748
  Beta  occ. eigenvalues --  -10.46707  -1.40348  -1.12821  -1.00996  -0.96567
  Beta  occ. eigenvalues --   -0.96293  -0.87958  -0.81802  -0.78944  -0.75485
  Beta  occ. eigenvalues --   -0.72394  -0.70369  -0.67530  -0.64894  -0.64425
  Beta  occ. eigenvalues --   -0.63336  -0.62785  -0.60459  -0.60149
  Beta virt. eigenvalues --   -0.38357  -0.07693  -0.02983  -0.00442   0.00419
  Beta virt. eigenvalues --    0.02117   0.03439   0.04384   0.05555   0.06150
  Beta virt. eigenvalues --    0.06925   0.09007   0.10092   0.10720   0.11195
  Beta virt. eigenvalues --    0.11714   0.12756   0.13347   0.29308   0.30442
  Beta virt. eigenvalues --    0.32070   0.32557   0.35060   0.41925   0.43462
  Beta virt. eigenvalues --    0.46546   0.47803   0.48632   0.51823   0.55317
  Beta virt. eigenvalues --    0.56632   0.57872   0.58386   0.59246   0.59522
  Beta virt. eigenvalues --    0.62422   0.62943   0.63788   0.64689   0.64816
  Beta virt. eigenvalues --    0.65246   0.66765   0.67187   0.68140   0.72805
  Beta virt. eigenvalues --    0.72892   0.86514   0.87347   0.94877   1.00163
  Beta virt. eigenvalues --    1.03317   1.04811   1.11229   1.24318   1.31390
  Beta virt. eigenvalues --    1.38858   1.55772   1.57558   1.61368   1.66419
  Beta virt. eigenvalues --    1.70199   1.72976   1.83393   1.87150   1.91825
  Beta virt. eigenvalues --    1.92936   1.93451   1.97015   1.99905   2.05723
  Beta virt. eigenvalues --    2.05837   2.06475   2.07139   2.10113   2.36795
  Beta virt. eigenvalues --    2.39126   2.43197   2.48667   2.54428   2.56208
  Beta virt. eigenvalues --    2.63828   2.80024   2.81220   3.19121
          Condensed to atoms (all electrons):
          Atomic-Atomic Spin Densities.
 Mulliken charges and spin densities:
               1          2
     1  C   -0.320882   0.012658
     2  C   -0.384358   0.173412
     3  C   -0.267066   0.042180
     4  C   -0.288716   0.014721
     5  C    0.016956   0.101902
     6  O   -0.195552   0.524733
     7  H    0.200410   0.016785
     8  H    0.168673   0.003605
     9  H    0.148816  -0.001202
    10  H    0.197280   0.023729
    11  H    0.161130  -0.003514
    12  H    0.171503   0.000205
    13  H    0.200326   0.027364
    14  H    0.171769   0.000774
    15  H    0.167503   0.001858
    16  H    0.240343   0.073770
    17  H    0.212981   0.002763
    18  H    0.398883  -0.015743
 Sum of Mulliken charges =   1.00000   1.00000
 Mulliken charges and spin densities with hydrogens summed into heavy atoms:
               1          2
     1  C    0.197017   0.031846
     2  C   -0.384358   0.173412
     3  C    0.262847   0.062600
     4  C    0.250882   0.044717
     5  C    0.470281   0.178435
     6  O    0.203331   0.508990
 Electronic spatial extent (au):  <R**2>=            629.5172
 Charge=              1.0000 electrons
 Dipole moment (field-independent basis, Debye):
    X=              1.4776    Y=              0.5433    Z=             -1.5114  Tot=              2.1824
                          Isotropic Fermi Contact Couplings
        Atom                 a.u.       MegaHertz       Gauss      10(-4) cm-1
     1  C(13)             -0.00792      -8.89964      -3.17561      -2.96860
     2  C(13)              0.02047      23.01764       8.21327       7.67786
     3  C(13)             -0.00164      -1.84093      -0.65689      -0.61407
     4  C(13)             -0.00688      -7.73699      -2.76075      -2.58078
     5  C(13)              0.00078       0.87404       0.31188       0.29155
     6  O(17)              0.20089    -121.77687     -43.45302     -40.62039
     7  H(1)               0.00758      33.87501      12.08745      11.29949
     8  H(1)               0.00162       7.23177       2.58048       2.41226
     9  H(1)              -0.00028      -1.26230      -0.45042      -0.42106
    10  H(1)               0.01063      47.49802      16.94847      15.84363
    11  H(1)              -0.00068      -3.04274      -1.08573      -1.01495
    12  H(1)               0.00039       1.74852       0.62391       0.58324
    13  H(1)               0.01180      52.72745      18.81446      17.58798
    14  H(1)               0.00043       1.90418       0.67946       0.63516
    15  H(1)               0.00071       3.16781       1.13035       1.05667
    16  H(1)               0.03422     152.96038      54.58007      51.02209
    17  H(1)               0.00117       5.22712       1.86517       1.74358
    18  H(1)              -0.00712     -31.84685     -11.36375     -10.62297
 --------------------------------------------------------
       Center         ----  Spin Dipole Couplings  ----
                      3XX-RR        3YY-RR        3ZZ-RR
 --------------------------------------------------------
     1   Atom       -0.007402      0.018824     -0.011422
     2   Atom        0.185336     -0.117433     -0.067903
     3   Atom       -0.027149     -0.032094      0.059243
     4   Atom        0.042000     -0.021556     -0.020445
     5   Atom        0.074425     -0.095008      0.020584
     6   Atom        0.031948     -0.735208      0.703261
     7   Atom        0.004192      0.001107     -0.005299
     8   Atom       -0.002833      0.004028     -0.001195
     9   Atom       -0.000396      0.007636     -0.007239
    10   Atom        0.007210     -0.005945     -0.001264
    11   Atom        0.003186     -0.010841      0.007655
    12   Atom       -0.004135      0.002224      0.001911
    13   Atom        0.007261     -0.004098     -0.003163
    14   Atom        0.002808      0.002575     -0.005383
    15   Atom        0.003408     -0.006275      0.002867
    16   Atom       -0.014732     -0.015554      0.030286
    17   Atom       -0.011390      0.024126     -0.012735
    18   Atom       -0.049152      0.085545     -0.036393
 --------------------------------------------------------
                        XY            XZ            YZ
 --------------------------------------------------------
     1   Atom       -0.018128     -0.005883      0.012371
     2   Atom       -0.138519     -0.193536      0.077402
     3   Atom       -0.004346     -0.026515      0.021033
     4   Atom       -0.001952      0.001430      0.000241
     5   Atom       -0.105217     -0.184992      0.111236
     6   Atom       -0.565737     -1.380668      0.739125
     7   Atom       -0.004557     -0.001877      0.000289
     8   Atom       -0.003864      0.001291     -0.006427
     9   Atom       -0.003353      0.000063      0.002890
    10   Atom       -0.005681     -0.004728      0.000773
    11   Atom        0.000817     -0.003861      0.002383
    12   Atom        0.002039     -0.004279     -0.008039
    13   Atom       -0.002517     -0.002319      0.002810
    14   Atom        0.006035      0.000990      0.001829
    15   Atom        0.000029      0.005608      0.000551
    16   Atom       -0.002489      0.011698     -0.013000
    17   Atom        0.003574     -0.002231     -0.005240
    18   Atom        0.018031     -0.023234     -0.034178
 --------------------------------------------------------


 ---------------------------------------------------------------------------------
              Anisotropic Spin Dipole Couplings in Principal Axis System
 ---------------------------------------------------------------------------------

       Atom             a.u.   MegaHertz   Gauss  10(-4) cm-1        Axes

              Baa    -0.0168    -2.253    -0.804    -0.752  0.7998  0.5145 -0.3093
     1 C(13)  Bbb    -0.0156    -2.090    -0.746    -0.697  0.4168 -0.1051  0.9029
              Bcc     0.0324     4.343     1.550     1.449 -0.4321  0.8510  0.2985
 
              Baa    -0.1743   -23.396    -8.348    -7.804  0.1752 -0.6170  0.7672
     2 C(13)  Bbb    -0.1701   -22.832    -8.147    -7.616  0.5276  0.7168  0.4560
              Bcc     0.3445    46.227    16.495    15.420  0.8313 -0.3249 -0.4511
 
              Baa    -0.0374    -5.014    -1.789    -1.673 -0.4164  0.8579 -0.3011
     3 C(13)  Bbb    -0.0338    -4.537    -1.619    -1.513  0.8702  0.4719  0.1413
              Bcc     0.0712     9.551     3.408     3.186 -0.2633  0.2032  0.9431
 
              Baa    -0.0217    -2.910    -1.038    -0.971  0.0350  0.9726 -0.2297
     4 C(13)  Bbb    -0.0204    -2.739    -0.977    -0.914 -0.0151  0.2303  0.9730
              Bcc     0.0421     5.648     2.015     1.884  0.9993 -0.0306  0.0227
 
              Baa    -0.1632   -21.902    -7.815    -7.306 -0.1049  0.8005 -0.5901
     5 C(13)  Bbb    -0.1310   -17.573    -6.270    -5.862  0.7107  0.4754  0.5186
              Bcc     0.2942    39.474    14.085    13.167  0.6957 -0.3649 -0.6188
 
              Baa    -1.0601    76.712    27.373    25.588  0.5738 -0.4913  0.6552
     6 O(17)  Bbb    -1.0344    74.852    26.709    24.968  0.5720  0.8130  0.1087
              Bcc     2.0946  -151.564   -54.082   -50.556 -0.5861  0.3124  0.7476
 
              Baa    -0.0057    -3.054    -1.090    -1.019  0.2362  0.1167  0.9647
     7 H(1)   Bbb    -0.0020    -1.045    -0.373    -0.349  0.5333  0.8143 -0.2291
              Bcc     0.0077     4.099     1.463     1.367  0.8123 -0.5686 -0.1301
 
              Baa    -0.0061    -3.237    -1.155    -1.080  0.4453  0.5960  0.6682
     8 H(1)   Bbb    -0.0035    -1.886    -0.673    -0.629  0.8426 -0.0266 -0.5378
              Bcc     0.0096     5.123     1.828     1.709 -0.3028  0.8026 -0.5140
 
              Baa    -0.0078    -4.188    -1.494    -1.397 -0.0997 -0.2034  0.9740
     9 H(1)   Bbb    -0.0014    -0.771    -0.275    -0.257  0.9416  0.2973  0.1584
              Bcc     0.0093     4.959     1.769     1.654 -0.3218  0.9329  0.1619
 
              Baa    -0.0082    -4.380    -1.563    -1.461  0.3842  0.9092  0.1603
    10 H(1)   Bbb    -0.0029    -1.550    -0.553    -0.517  0.2741 -0.2781  0.9206
              Bcc     0.0111     5.930     2.116     1.978  0.8816 -0.3097 -0.3561
 
              Baa    -0.0113    -6.011    -2.145    -2.005 -0.0939  0.9852 -0.1433
    11 H(1)   Bbb     0.0012     0.667     0.238     0.222  0.8704  0.1511  0.4685
              Bcc     0.0100     5.344     1.907     1.783 -0.4832  0.0807  0.8718
 
              Baa    -0.0073    -3.889    -1.388    -1.297  0.6205  0.4244  0.6595
    12 H(1)   Bbb    -0.0041    -2.192    -0.782    -0.731  0.7333 -0.6120 -0.2961
              Bcc     0.0114     6.081     2.170     2.028 -0.2779 -0.6673  0.6910
 
              Baa    -0.0065    -3.465    -1.236    -1.156  0.0359  0.7761 -0.6296
    13 H(1)   Bbb    -0.0020    -1.078    -0.385    -0.359  0.3422  0.5824  0.7374
              Bcc     0.0085     4.542     1.621     1.515  0.9389 -0.2419 -0.2447
 
              Baa    -0.0058    -3.098    -1.106    -1.034  0.0737 -0.2629  0.9620
    14 H(1)   Bbb    -0.0032    -1.705    -0.608    -0.569  0.7080 -0.6656 -0.2362
              Bcc     0.0090     4.803     1.714     1.602  0.7024  0.6985  0.1371
 
              Baa    -0.0063    -3.374    -1.204    -1.125  0.0484  0.9948 -0.0892
    15 H(1)   Bbb    -0.0024    -1.302    -0.465    -0.434 -0.6891  0.0979  0.7180
              Bcc     0.0088     4.676     1.668     1.560  0.7231  0.0267  0.6903
 
              Baa    -0.0192   -10.231    -3.651    -3.413 -0.3136  0.8975  0.3101
    16 H(1)   Bbb    -0.0173    -9.245    -3.299    -3.084  0.9220  0.3659 -0.1266
              Bcc     0.0365    19.476     6.949     6.496  0.2271 -0.2462  0.9422
 
              Baa    -0.0145    -7.753    -2.766    -2.586  0.5267  0.0662  0.8475
    17 H(1)   Bbb    -0.0107    -5.725    -2.043    -1.910  0.8436 -0.1634 -0.5115
              Bcc     0.0253    13.478     4.809     4.496  0.1046  0.9843 -0.1419
 
              Baa    -0.0672   -35.854   -12.794   -11.960  0.7688  0.0519  0.6374
    18 H(1)   Bbb    -0.0310   -16.550    -5.905    -5.521 -0.6195  0.3076  0.7222
              Bcc     0.0982    52.404    18.699    17.480  0.1586  0.9501 -0.2686
 

 ---------------------------------------------------------------------------------

   1 Symmetry operations used in ECPInt.
 ECPInt:  NShTT=    1830 NPrTT=    7374 LenC2=    1828 LenP2D=    6157.
 LDataN:  DoStor=T MaxTD1= 5 Len=  102
 Calling FoFJK, ICntrl=      2127 FMM=F ISym2X=0 I1Cent= 0 IOpClX= 1 NMat=1 NMatS=1 NMatT=0.

 GradGradGradGradGradGradGradGradGradGradGradGradGradGradGradGradGradGrad
 FormGI is forming the generalized inverse of G from B-inverse, IUseBI=4.
 Internal  Forces:  Max     0.041577423 RMS     0.007170439
 Step number   1 out of a maximum of   97
 All quantities printed in internal units (Hartrees-Bohrs-Radians)
 Mixed Optimization -- RFO/linear search
 Second derivative matrix not updated -- first step.
 ITU=  0
     Eigenvalues ---    0.00230   0.00299   0.00326   0.00327   0.01629
     Eigenvalues ---    0.04548   0.04658   0.04764   0.04943   0.05370
     Eigenvalues ---    0.05437   0.05494   0.05496   0.05506   0.05550
     Eigenvalues ---    0.05799   0.11904   0.14132   0.14293   0.14528
     Eigenvalues ---    0.16000   0.16000   0.16000   0.16000   0.16000
     Eigenvalues ---    0.16000   0.16000   0.16000   0.16000   0.16000
     Eigenvalues ---    0.22062   0.28387   0.28941   0.29126   0.29134
     Eigenvalues ---    0.32430   0.33014   0.33096   0.33119   0.33126
     Eigenvalues ---    0.33142   0.33152   0.33190   0.33211   0.33281
     Eigenvalues ---    0.33373   0.44847   0.54246
 Linear search not attempted -- first point.
 Iteration  1 RMS(Cart)=  0.02877167 RMS(Int)=  0.00137374
 Iteration  2 RMS(Cart)=  0.00163716 RMS(Int)=  0.00077623
 Iteration  3 RMS(Cart)=  0.00000191 RMS(Int)=  0.00077623
 Iteration  4 RMS(Cart)=  0.00000001 RMS(Int)=  0.00077623
 Variable       Old X    -DE/DX   Delta X   Delta X   Delta X     New X
                                 (Linear)    (Quad)   (Total)
    R1        2.90127  -0.00026   0.00000  -0.00083  -0.00083   2.90044
    R2        2.08682  -0.00102   0.00000  -0.00291  -0.00291   2.08391
    R3        2.09027  -0.00070   0.00000  -0.00201  -0.00201   2.08826
    R4        2.08844   0.00009   0.00000   0.00026   0.00026   2.08870
    R5        2.89742   0.00247   0.00000   0.00794   0.00794   2.90536
    R6        2.89724  -0.00362   0.00000  -0.01165  -0.01165   2.88559
    R7        2.91300   0.04158   0.00000   0.13719   0.13719   3.05018
    R8        2.08786  -0.00065   0.00000  -0.00184  -0.00184   2.08602
    R9        2.08401  -0.00016   0.00000  -0.00044  -0.00044   2.08357
   R10        2.08803  -0.00079   0.00000  -0.00225  -0.00225   2.08578
   R11        2.08719  -0.00013   0.00000  -0.00036  -0.00036   2.08683
   R12        2.08831  -0.00081   0.00000  -0.00232  -0.00232   2.08599
   R13        2.08883  -0.00105   0.00000  -0.00299  -0.00299   2.08585
   R14        2.65454  -0.03737   0.00000  -0.07992  -0.07992   2.57463
   R15        2.10064   0.00139   0.00000   0.00405   0.00405   2.10469
   R16        2.08561  -0.00179   0.00000  -0.00509  -0.00509   2.08052
   R17        1.82508   0.01824   0.00000   0.03248   0.03248   1.85757
    A1        1.93506  -0.00609   0.00000  -0.04201  -0.04187   1.89319
    A2        1.94284   0.00309   0.00000   0.02061   0.02024   1.96307
    A3        1.94706   0.00306   0.00000   0.02183   0.02149   1.96855
    A4        1.87824   0.00019   0.00000  -0.00783  -0.00774   1.87051
    A5        1.86586   0.00062   0.00000  -0.00284  -0.00266   1.86320
    A6        1.89159  -0.00099   0.00000   0.00924   0.00852   1.90010
    A7        1.91507   0.00269   0.00000   0.04403   0.04268   1.95775
    A8        1.91184   0.00107   0.00000   0.03045   0.02875   1.94058
    A9        1.91588   0.00088   0.00000  -0.00525  -0.00417   1.91171
   A10        1.92335   0.00312   0.00000   0.02974   0.02656   1.94992
   A11        1.91058  -0.00427   0.00000  -0.05031  -0.04986   1.86072
   A12        1.88692  -0.00358   0.00000  -0.05018  -0.04980   1.83712
   A13        1.93784  -0.01044   0.00000  -0.06702  -0.06680   1.87105
   A14        1.93051   0.00438   0.00000   0.02968   0.02922   1.95972
   A15        1.93610   0.00404   0.00000   0.02600   0.02545   1.96155
   A16        1.89411   0.00209   0.00000   0.00501   0.00532   1.89943
   A17        1.88316   0.00174   0.00000  -0.00023  -0.00011   1.88305
   A18        1.88023  -0.00164   0.00000   0.00766   0.00659   1.88681
   A19        1.93421  -0.00889   0.00000  -0.05847  -0.05837   1.87584
   A20        1.94029   0.00297   0.00000   0.02096   0.02052   1.96081
   A21        1.94478   0.00333   0.00000   0.02308   0.02266   1.96745
   A22        1.87926   0.00177   0.00000   0.00135   0.00141   1.88067
   A23        1.87987   0.00166   0.00000   0.00106   0.00118   1.88106
   A24        1.88272  -0.00072   0.00000   0.01251   0.01170   1.89442
   A25        1.99717  -0.00222   0.00000  -0.02211  -0.02370   1.97347
   A26        1.90301  -0.00830   0.00000  -0.06903  -0.07082   1.83218
   A27        1.90546  -0.00006   0.00000   0.01322   0.01373   1.91919
   A28        1.93801   0.00176   0.00000  -0.01950  -0.02312   1.91489
   A29        1.84638   0.00238   0.00000   0.02888   0.02901   1.87539
   A30        1.86873   0.00757   0.00000   0.08071   0.08136   1.95009
   A31        1.90112   0.00985   0.00000   0.05497   0.05497   1.95609
    D1       -1.09849  -0.00347   0.00000  -0.05193  -0.05203  -1.15052
    D2        1.01506   0.00277   0.00000   0.03185   0.03204   1.04710
    D3        3.08438  -0.00043   0.00000  -0.01419  -0.01421   3.07017
    D4        3.09440  -0.00169   0.00000  -0.02767  -0.02758   3.06682
    D5       -1.07523   0.00454   0.00000   0.05612   0.05649  -1.01874
    D6        0.99409   0.00134   0.00000   0.01008   0.01025   1.00433
    D7        0.97898  -0.00471   0.00000  -0.06908  -0.06943   0.90955
    D8        3.09253   0.00152   0.00000   0.01471   0.01465   3.10718
    D9       -1.12134  -0.00168   0.00000  -0.03133  -0.03160  -1.15294
   D10        0.99081   0.00227   0.00000   0.05216   0.05264   1.04345
   D11       -1.11313   0.00364   0.00000   0.07049   0.07138  -1.04175
   D12        3.08468   0.00022   0.00000   0.02470   0.02492   3.10961
   D13       -1.11579  -0.00277   0.00000  -0.03273  -0.03329  -1.14908
   D14        3.06346  -0.00140   0.00000  -0.01440  -0.01455   3.04890
   D15        0.97809  -0.00482   0.00000  -0.06020  -0.06101   0.91708
   D16        3.09434   0.00235   0.00000   0.04165   0.04158   3.13592
   D17        0.99040   0.00372   0.00000   0.05998   0.06032   1.05072
   D18       -1.09497   0.00030   0.00000   0.01419   0.01386  -1.08111
   D19       -1.07676  -0.00228   0.00000  -0.04252  -0.04272  -1.11948
   D20        3.11710  -0.00057   0.00000  -0.01926  -0.01926   3.09784
   D21        1.01631  -0.00394   0.00000  -0.06512  -0.06558   0.95073
   D22        1.03178   0.00371   0.00000   0.05035   0.05070   1.08248
   D23       -1.05755   0.00543   0.00000   0.07361   0.07416  -0.98339
   D24        3.12484   0.00205   0.00000   0.02775   0.02784  -3.13050
   D25        3.11924  -0.00184   0.00000  -0.02397  -0.02406   3.09518
   D26        1.02991  -0.00012   0.00000  -0.00071  -0.00060   1.02931
   D27       -1.07088  -0.00349   0.00000  -0.04657  -0.04692  -1.11780
   D28        1.06445  -0.00217   0.00000  -0.04627  -0.04529   1.01916
   D29       -1.11753   0.00375   0.00000   0.05088   0.04978  -1.06775
   D30        3.12951  -0.00061   0.00000  -0.01441  -0.01419   3.11532
   D31       -1.03859  -0.00335   0.00000  -0.06576  -0.06421  -1.10281
   D32        3.06261   0.00256   0.00000   0.03139   0.03085   3.09347
   D33        1.02646  -0.00179   0.00000  -0.03390  -0.03312   0.99335
   D34       -3.13409  -0.00250   0.00000  -0.04244  -0.04213   3.10697
   D35        0.96711   0.00341   0.00000   0.05470   0.05294   1.02005
   D36       -1.06904  -0.00094   0.00000  -0.01058  -0.01103  -1.08007
   D37       -1.21358   0.00204   0.00000  -0.00266  -0.00307  -1.21665
   D38        0.94981  -0.00938   0.00000  -0.12799  -0.12777   0.82204
   D39        2.97134   0.00179   0.00000  -0.02601  -0.02583   2.94551
         Item               Value     Threshold  Converged?
 Maximum Force            0.041577     0.000015     NO 
 RMS     Force            0.007170     0.000010     NO 
 Maximum Displacement     0.108567     0.000060     NO 
 RMS     Displacement     0.028873     0.000040     NO 
 GradGradGradGradGradGradGradGradGradGradGradGradGradGradGradGradGradGrad

                    Distance matrix (angstroms):
                    1          2          3          4          5
     1  C    0.000000
     2  C    1.534846   0.000000
     3  C    2.549605   1.537449   0.000000
     4  C    2.526171   1.526989   2.536376   0.000000
     5  C    2.572478   1.614088   2.527428   2.496861   0.000000
     6  O    2.974040   2.486976   2.961573   3.732840   1.362434
     7  H    1.102760   2.155078   2.824768   2.750699   3.529508
     8  H    1.105060   2.207651   3.522532   2.800158   2.815029
     9  H    1.105292   2.211710   2.784112   3.505702   2.890944
    10  H    2.755464   2.141536   1.103873   2.792860   3.489065
    11  H    2.832367   2.205678   1.102576   3.505585   2.776081
    12  H    3.521093   2.207871   1.103748   2.767398   2.793189
    13  H    2.768928   2.136367   2.762505   1.104302   3.467760
    14  H    3.502394   2.198160   2.791902   1.103857   2.729886
    15  H    2.771638   2.202799   3.513851   1.103782   2.780207
    16  H    2.753542   2.185143   3.460792   2.641266   1.113757
    17  H    3.524427   2.242930   2.734820   2.743176   1.100963
    18  H    2.718299   2.772569   3.431515   4.073958   1.956822
                    6          7          8          9         10
     6  O    0.000000
     7  H    4.005543   0.000000
     8  H    3.290417   1.776743   0.000000
     9  H    2.760672   1.772128   1.798001   0.000000
    10  H    3.963454   2.577753   3.788374   3.060185   0.000000
    11  H    2.664711   3.234805   3.835405   2.618293   1.794395
    12  H    3.350573   3.818609   4.387700   3.826300   1.784766
    13  H    4.584144   2.534155   3.163040   3.769988   2.562210
    14  H    4.020603   3.778797   3.815216   4.378209   3.168229
    15  H    4.041685   3.074143   2.590345   3.814899   3.799948
    16  H    2.029893   3.732901   2.538750   3.220834   4.292234
    17  H    1.991998   4.364854   3.833527   3.878963   3.753952
    18  H    0.982982   3.781236   2.874165   2.298742   4.288873
                   11         12         13         14         15
    11  H    0.000000
    12  H    1.786157   0.000000
    13  H    3.792015   3.077609   0.000000
    14  H    3.794481   2.566669   1.783654   0.000000
    15  H    4.377565   3.802363   1.783843   1.792137   0.000000
    16  H    3.788043   3.776652   3.666474   2.992989   2.452510
    17  H    3.072694   2.542817   3.743465   2.513432   3.152271
    18  H    3.066030   4.045635   4.845434   4.575788   4.237564
                   16         17         18
    16  H    0.000000
    17  H    1.833201   0.000000
    18  H    2.251827   2.839318   0.000000
 Framework group  C1[X(C5H12O)]
 Deg. of freedom    48
                         Standard orientation:                         
 ---------------------------------------------------------------------
 Center     Atomic      Atomic             Coordinates (Angstroms)
 Number     Number       Type             X           Y           Z
 ---------------------------------------------------------------------
      1          6           0       -0.423771    1.553166    0.111580
      2          6           0       -0.435414    0.020606    0.028653
      3          6           0       -0.489665   -0.635217    1.418150
      4          6           0       -1.562721   -0.474664   -0.874441
      5          6           0        0.925766   -0.492354   -0.670878
      6          8           0        2.048567   -0.095440   -0.009061
      7          1           0       -1.390375    1.888143    0.523338
      8          1           0       -0.308685    2.028985   -0.879132
      9          1           0        0.361280    1.939428    0.786981
     10          1           0       -1.415115   -0.285925    1.908122
     11          1           0        0.372585   -0.356199    2.046121
     12          1           0       -0.530805   -1.736758    1.361797
     13          1           0       -2.517810   -0.184008   -0.402419
     14          1           0       -1.561531   -1.573158   -0.983119
     15          1           0       -1.532815   -0.022346   -1.880846
     16          1           0        0.912184   -0.043888   -1.690263
     17          1           0        0.936906   -1.592578   -0.709665
     18          1           0        2.200470    0.872616   -0.086810
 ---------------------------------------------------------------------
 Rotational constants (GHZ):           4.2634758           2.5959349           2.5729103
   108 basis functions,   198 primitive gaussians,   114 cartesian basis functions
    25 alpha electrons       24 beta electrons
       nuclear repulsion energy       266.5254701815 Hartrees.
 NAtoms=   18 NActive=   18 NUniq=   18 SFac= 1.00D+00 NAtFMM=   60 NAOKFM=F Big=F
 Nuclear repulsion after empirical dispersion term =      266.5138778143 Hartrees.
   1 Symmetry operations used in ECPInt.
 ECPInt:  NShTT=    1830 NPrTT=    7374 LenC2=    1828 LenP2D=    6143.
 LDataN:  DoStor=T MaxTD1= 4 Len=   56
 Initial guess from the checkpoint file:  "11.chk"
 B after Tr=     0.000000   -0.000000    0.000000
         Rot=    0.994335   -0.106009    0.006192   -0.004708 Ang= -12.20 deg.
 Initial guess <Sx>= 0.0000 <Sy>= 0.0000 <Sz>= 0.5000 <S**2>= 0.7544 S= 0.5022
 ExpMin= 1.22D-01 ExpMax= 2.27D+03 ExpMxC= 3.41D+02 IAcc=3 IRadAn=         5 AccDes= 0.00D+00
 Harris functional with IExCor= 4639 and IRadAn=       5 diagonalized for initial guess.
 HarFok:  IExCor= 4639 AccDes= 0.00D+00 IRadAn=         5 IDoV= 1 UseB2=F ITyADJ=14
 ICtDFT=  3500011 ScaDFX=  1.000000  1.000000  1.000000  1.000000
 FoFCou: FMM=F IPFlag=           0 FMFlag=      100000 FMFlg1=           0
         NFxFlg=           0 DoJE=T BraDBF=F KetDBF=T FulRan=T
         wScrn=  0.000000 ICntrl=       500 IOpCl=  0 I1Cent=   200000004 NGrid=           0
         NMat0=    1 NMatS0=      1 NMatT0=    0 NMatD0=    1 NMtDS0=    0 NMtDT0=    0
 Petite list used in FoFCou.
     Accept linear search using points  3 and  4.
     Accept linear search using points  2 and  3.
     Minimum is close to point  3 DX= -2.14D-02 DF= -1.53D-09 DXR=  1.99D-02 DFR=  2.11D-06 which will be used.
     Accept linear search using points  1 and  2.
     Accept linear search using points  1 and  2.
     Minimum is close to point  2 DX= -4.64D-03 DF= -4.26D-09 DXR=  4.67D-03 DFR=  2.18D-05 which will be used.
     Accept linear search using points  1 and  2.
     Minimum is close to point  2 DX= -3.95D-02 DF= -2.30D-07 DXR=  4.11D-02 DFR=  1.69D-03 which will be used.
     Accept linear search using points  1 and  2.
     Minimum is close to point  2 DX= -6.81D-02 DF= -5.55D-07 DXR=  7.31D-02 DFR=  5.37D-03 which will be used.
     Minimum is close to point  2 DX=  7.66D-03 DF= -5.97D-09 DXR=  8.44D-03 DFR=  7.12D-05 which will be used.
     Accept linear search using points  1 and  2.
     Accept linear search using points  1 and  2.
     Minimum is close to point  2 DX= -6.50D-03 DF= -1.96D-08 DXR=  6.54D-03 DFR=  4.30D-05 which will be used.
     Minimum is close to point  2 DX=  5.71D-04 DF=  0.00D+00 DXR=  5.71D-04 DFR=  0.00D+00 which will be used.
 SCF Done:  E(UwB97XD) =  -272.321240976     a.u. after   12 cycles
            Convg  =    0.1637D-06                    50 Fock formations.
              S**2 =  0.7541                  -V/T =  2.0101
 <Sx>= 0.0000 <Sy>= 0.0000 <Sz>= 0.5000 <S**2>= 0.7541 S= 0.5020
 <L.S>=  0.00000000000    
 Annihilation of the first spin contaminant:
 S**2 before annihilation     0.7541,   after     0.7500
   1 Symmetry operations used in ECPInt.
 ECPInt:  NShTT=    1830 NPrTT=    7374 LenC2=    1828 LenP2D=    6143.
 LDataN:  DoStor=T MaxTD1= 5 Len=  102
 Calling FoFJK, ICntrl=      2127 FMM=F ISym2X=0 I1Cent= 0 IOpClX= 1 NMat=1 NMatS=1 NMatT=0.

 GradGradGradGradGradGradGradGradGradGradGradGradGradGradGradGradGradGrad
 Using GEDIIS/GDIIS optimizer.
 FormGI is forming the generalized inverse of G from B-inverse, IUseBI=4.
 Internal  Forces:  Max     0.027581344 RMS     0.004117220
 Step number   2 out of a maximum of   97
 All quantities printed in internal units (Hartrees-Bohrs-Radians)
 Mixed Optimization -- RFO/linear search
 Trust test= 1.29D+00 RLast= 3.86D-01 DXMaxT set to 5.05D-01
 ITU=  1  0
 Use linear search instead of GDIIS.
     Eigenvalues ---    0.00230   0.00299   0.00327   0.00327   0.01585
     Eigenvalues ---    0.03625   0.04924   0.05023   0.05150   0.05223
     Eigenvalues ---    0.05244   0.05501   0.05712   0.05821   0.05839
     Eigenvalues ---    0.06262   0.09579   0.13856   0.14117   0.14638
     Eigenvalues ---    0.15758   0.16000   0.16000   0.16000   0.16000
     Eigenvalues ---    0.16000   0.16000   0.16000   0.16000   0.16990
     Eigenvalues ---    0.21015   0.22349   0.29025   0.29130   0.29980
     Eigenvalues ---    0.32501   0.33013   0.33093   0.33122   0.33124
     Eigenvalues ---    0.33140   0.33171   0.33198   0.33274   0.33302
     Eigenvalues ---    0.33403   0.42552   0.56558
 Quartic linear search produced a step of  0.83861.
 Iteration  1 RMS(Cart)=  0.03533712 RMS(Int)=  0.00431841
 Iteration  2 RMS(Cart)=  0.00521104 RMS(Int)=  0.00193107
 Iteration  3 RMS(Cart)=  0.00002643 RMS(Int)=  0.00193096
 Iteration  4 RMS(Cart)=  0.00000026 RMS(Int)=  0.00193096
 Variable       Old X    -DE/DX   Delta X   Delta X   Delta X     New X
                                 (Linear)    (Quad)   (Total)
    R1        2.90044  -0.00653  -0.00070  -0.03941  -0.04011   2.86033
    R2        2.08391   0.00088  -0.00244   0.00608   0.00364   2.08755
    R3        2.08826  -0.00063  -0.00168  -0.00243  -0.00411   2.08415
    R4        2.08870  -0.00093   0.00022  -0.00507  -0.00485   2.08385
    R5        2.90536  -0.00452   0.00666  -0.03118  -0.02452   2.88084
    R6        2.88559  -0.00191  -0.00977  -0.00603  -0.01580   2.86979
    R7        3.05018   0.02758   0.11505   0.10607   0.22111   3.27130
    R8        2.08602   0.00151  -0.00155   0.00893   0.00738   2.09340
    R9        2.08357  -0.00102  -0.00037  -0.00520  -0.00557   2.07800
   R10        2.08578  -0.00087  -0.00189  -0.00358  -0.00547   2.08032
   R11        2.08683   0.00118  -0.00030   0.00645   0.00615   2.09298
   R12        2.08599  -0.00081  -0.00195  -0.00324  -0.00518   2.08080
   R13        2.08585  -0.00079  -0.00250  -0.00283  -0.00533   2.08052
   R14        2.57463  -0.01806  -0.06702  -0.03531  -0.10233   2.47230
   R15        2.10469  -0.00135   0.00340  -0.00929  -0.00589   2.09881
   R16        2.08052  -0.00128  -0.00427  -0.00441  -0.00868   2.07184
   R17        1.85757  -0.00147   0.02724  -0.01947   0.00778   1.86534
    A1        1.89319  -0.00178  -0.03511  -0.00296  -0.03805   1.85513
    A2        1.96307  -0.00027   0.01697  -0.01142   0.00492   1.96799
    A3        1.96855   0.00018   0.01802  -0.00589   0.01163   1.98018
    A4        1.87051   0.00042  -0.00649   0.00218  -0.00443   1.86608
    A5        1.86320   0.00044  -0.00223   0.00224   0.00016   1.86336
    A6        1.90010   0.00103   0.00714   0.01671   0.02292   1.92302
    A7        1.95775   0.00058   0.03579   0.00263   0.03440   1.99215
    A8        1.94058   0.00114   0.02411   0.02059   0.04068   1.98126
    A9        1.91171  -0.00012  -0.00349  -0.01571  -0.01706   1.89465
   A10        1.94992   0.00148   0.02228   0.01896   0.03441   1.98433
   A11        1.86072  -0.00156  -0.04181  -0.01574  -0.05617   1.80455
   A12        1.83712  -0.00183  -0.04177  -0.01447  -0.05485   1.78227
   A13        1.87105  -0.00219  -0.05602   0.00446  -0.05148   1.81957
   A14        1.95972   0.00073   0.02450  -0.00440   0.01942   1.97914
   A15        1.96155  -0.00056   0.02134  -0.01612   0.00429   1.96584
   A16        1.89943   0.00016   0.00447  -0.00763  -0.00282   1.89662
   A17        1.88305   0.00077  -0.00009   0.00271   0.00241   1.88546
   A18        1.88681   0.00111   0.00552   0.02090   0.02502   1.91184
   A19        1.87584  -0.00193  -0.04895   0.00423  -0.04470   1.83115
   A20        1.96081   0.00040   0.01721  -0.00383   0.01272   1.97353
   A21        1.96745   0.00008   0.01901  -0.00858   0.00976   1.97721
   A22        1.88067   0.00029   0.00118  -0.00225  -0.00103   1.87964
   A23        1.88106   0.00042   0.00099  -0.00114  -0.00014   1.88092
   A24        1.89442   0.00073   0.00981   0.01166   0.02036   1.91478
   A25        1.97347  -0.00243  -0.01988  -0.01556  -0.03639   1.93708
   A26        1.83218  -0.00730  -0.05939  -0.06035  -0.12169   1.71049
   A27        1.91919  -0.00411   0.01151  -0.07820  -0.06699   1.85220
   A28        1.91489   0.00619  -0.01939   0.10810   0.08044   1.99533
   A29        1.87539   0.00313   0.02433   0.02039   0.04071   1.91610
   A30        1.95009   0.00453   0.06823   0.02586   0.08589   2.03599
   A31        1.95609   0.00227   0.04610  -0.00394   0.04216   1.99826
    D1       -1.15052  -0.00190  -0.04364  -0.03260  -0.07649  -1.22701
    D2        1.04710   0.00141   0.02687   0.01076   0.03806   1.08516
    D3        3.07017  -0.00024  -0.01191  -0.00438  -0.01625   3.05392
    D4        3.06682  -0.00111  -0.02313  -0.02649  -0.04975   3.01707
    D5       -1.01874   0.00220   0.04738   0.01686   0.06479  -0.95395
    D6        1.00433   0.00056   0.00859   0.00172   0.01048   1.01482
    D7        0.90955  -0.00241  -0.05822  -0.03530  -0.09413   0.81543
    D8        3.10718   0.00089   0.01228   0.00805   0.02042   3.12760
    D9       -1.15294  -0.00075  -0.02650  -0.00709  -0.03389  -1.18682
   D10        1.04345   0.00156   0.04415   0.03042   0.07522   1.11867
   D11       -1.04175   0.00236   0.05986   0.03951   0.10062  -0.94114
   D12        3.10961   0.00079   0.02090   0.02732   0.04875  -3.12483
   D13       -1.14908  -0.00157  -0.02792  -0.01400  -0.04295  -1.19203
   D14        3.04890  -0.00078  -0.01221  -0.00491  -0.01755   3.03135
   D15        0.91708  -0.00235  -0.05117  -0.01710  -0.06943   0.84765
   D16        3.13592   0.00075   0.03487   0.00261   0.03739  -3.10987
   D17        1.05072   0.00154   0.05059   0.01169   0.06279   1.11351
   D18       -1.08111  -0.00003   0.01162  -0.00049   0.01092  -1.07019
   D19       -1.11948  -0.00124  -0.03583  -0.02489  -0.06143  -1.18092
   D20        3.09784  -0.00060  -0.01615  -0.02260  -0.03919   3.05865
   D21        0.95073  -0.00192  -0.05500  -0.02859  -0.08457   0.86616
   D22        1.08248   0.00155   0.04252   0.00921   0.05255   1.13503
   D23       -0.98339   0.00220   0.06219   0.01149   0.07479  -0.90859
   D24       -3.13050   0.00087   0.02335   0.00551   0.02941  -3.10109
   D25        3.09518  -0.00061  -0.02018  -0.00836  -0.02866   3.06652
   D26        1.02931   0.00004  -0.00050  -0.00607  -0.00641   1.02290
   D27       -1.11780  -0.00129  -0.03935  -0.01206  -0.05180  -1.16960
   D28        1.01916   0.00041  -0.03798   0.03620  -0.00034   1.01882
   D29       -1.06775  -0.00110   0.04174  -0.04818  -0.00717  -1.07492
   D30        3.11532  -0.00011  -0.01190  -0.00313  -0.01560   3.09972
   D31       -1.10281   0.00072  -0.05385   0.05141  -0.00001  -1.10282
   D32        3.09347  -0.00080   0.02587  -0.03298  -0.00684   3.08662
   D33        0.99335   0.00020  -0.02777   0.01207  -0.01527   0.97808
   D34        3.10697   0.00066  -0.03533   0.04424   0.00922   3.11619
   D35        1.02005  -0.00086   0.04440  -0.04014   0.00239   1.02244
   D36       -1.08007   0.00014  -0.00925   0.00491  -0.00603  -1.08610
   D37       -1.21665  -0.00111  -0.00257  -0.10371  -0.10573  -1.32239
   D38        0.82204  -0.00766  -0.10715  -0.11757  -0.22985   0.59219
   D39        2.94551   0.00342  -0.02166  -0.00978  -0.02685   2.91866
         Item               Value     Threshold  Converged?
 Maximum Force            0.027581     0.000015     NO 
 RMS     Force            0.004117     0.000010     NO 
 Maximum Displacement     0.117160     0.000060     NO 
 RMS     Displacement     0.036959     0.000040     NO 
 GradGradGradGradGradGradGradGradGradGradGradGradGradGradGradGradGradGrad

                    Distance matrix (angstroms):
                    1          2          3          4          5
     1  C    0.000000
     2  C    1.513623   0.000000
     3  C    2.550013   1.524474   0.000000
     4  C    2.536089   1.518627   2.547722   0.000000
     5  C    2.637307   1.731096   2.557977   2.531111   0.000000
     6  O    2.983693   2.516058   2.928095   3.696658   1.308284
     7  H    1.104685   2.109383   2.837796   2.754522   3.594733
     8  H    1.102885   2.190648   3.514285   2.796115   2.858592
     9  H    1.102725   2.199049   2.768598   3.510767   2.956339
    10  H    2.757401   2.093514   1.107777   2.788974   3.526345
    11  H    2.818151   2.205569   1.099631   3.514851   2.816591
    12  H    3.512431   2.197183   1.100855   2.764329   2.782821
    13  H    2.782023   2.097343   2.769756   1.107556   3.509833
    14  H    3.504076   2.197600   2.793540   1.101114   2.730778
    15  H    2.770049   2.200055   3.518419   1.100962   2.814242
    16  H    2.715049   2.183028   3.417390   2.563494   1.110640
    17  H    3.539054   2.291912   2.696173   2.720197   1.096372
    18  H    2.803900   2.858173   3.472476   4.095022   1.938222
                    6          7          8          9         10
     6  O    0.000000
     7  H    4.018373   0.000000
     8  H    3.290741   1.773636   0.000000
     9  H    2.800460   1.771720   1.808725   0.000000
    10  H    3.944475   2.591202   3.783435   3.049462   0.000000
    11  H    2.663844   3.230646   3.816801   2.587274   1.793371
    12  H    3.284333   3.824175   4.365897   3.805352   1.787152
    13  H    4.555247   2.541386   3.169993   3.772934   2.551216
    14  H    3.958783   3.778767   3.804075   4.373105   3.155350
    15  H    4.010782   3.058650   2.576803   3.814450   3.788744
    16  H    2.035222   3.680096   2.489761   3.215752   4.236218
    17  H    1.970955   4.368123   3.847178   3.901618   3.708930
    18  H    0.987097   3.879040   2.931091   2.427478   4.357182
                   11         12         13         14         15
    11  H    0.000000
    12  H    1.797453   0.000000
    13  H    3.791706   3.074361   0.000000
    14  H    3.799743   2.555968   1.783398   0.000000
    15  H    4.379406   3.796024   1.784109   1.800619   0.000000
    16  H    3.772900   3.715989   3.593472   2.915987   2.379749
    17  H    3.068834   2.462875   3.712190   2.460994   3.157467
    18  H    3.124783   4.043224   4.890019   4.562879   4.246087
                   16         17         18
    16  H    0.000000
    17  H    1.878306   0.000000
    18  H    2.247895   2.835673   0.000000
 Framework group  C1[X(C5H12O)]
 Deg. of freedom    48
                         Standard orientation:                         
 ---------------------------------------------------------------------
 Center     Atomic      Atomic             Coordinates (Angstroms)
 Number     Number       Type             X           Y           Z
 ---------------------------------------------------------------------
      1          6           0       -0.477741    1.543182   -0.207337
      2          6           0       -0.483540    0.050437    0.043135
      3          6           0       -0.465780   -0.334357    1.518140
      4          6           0       -1.526384   -0.696387   -0.769860
      5          6           0        0.994952   -0.615565   -0.562830
      6          8           0        2.029956   -0.058646    0.011812
      7          1           0       -1.469550    1.914075    0.107437
      8          1           0       -0.364420    1.796229   -1.274802
      9          1           0        0.270369    2.086224    0.393860
     10          1           0       -1.423866    0.056631    1.913576
     11          1           0        0.360493    0.125434    2.079436
     12          1           0       -0.453389   -1.424409    1.671488
     13          1           0       -2.499866   -0.361255   -0.361572
     14          1           0       -1.469495   -1.788956   -0.645322
     15          1           0       -1.506287   -0.443261   -1.841140
     16          1           0        0.861944   -0.341111   -1.630774
     17          1           0        0.968063   -1.685009   -0.322833
     18          1           0        2.237315    0.850717   -0.311331
 ---------------------------------------------------------------------
 Rotational constants (GHZ):           4.2253222           2.5974954           2.5653034
   108 basis functions,   198 primitive gaussians,   114 cartesian basis functions
    25 alpha electrons       24 beta electrons
       nuclear repulsion energy       266.5174419046 Hartrees.
 NAtoms=   18 NActive=   18 NUniq=   18 SFac= 1.00D+00 NAtFMM=   60 NAOKFM=F Big=F
 Nuclear repulsion after empirical dispersion term =      266.5058023812 Hartrees.
   1 Symmetry operations used in ECPInt.
 ECPInt:  NShTT=    1830 NPrTT=    7374 LenC2=    1828 LenP2D=    6144.
 LDataN:  DoStor=T MaxTD1= 4 Len=   56
 Initial guess from the checkpoint file:  "11.chk"
 B after Tr=    -0.000000    0.000000   -0.000000
         Rot=    0.994416    0.104579    0.002005   -0.013972 Ang=  12.12 deg.
 Initial guess <Sx>= 0.0000 <Sy>= 0.0000 <Sz>= 0.5000 <S**2>= 0.7543 S= 0.5021
 ExpMin= 1.22D-01 ExpMax= 2.27D+03 ExpMxC= 3.41D+02 IAcc=3 IRadAn=         5 AccDes= 0.00D+00
 Harris functional with IExCor= 4639 and IRadAn=       5 diagonalized for initial guess.
 HarFok:  IExCor= 4639 AccDes= 0.00D+00 IRadAn=         5 IDoV= 1 UseB2=F ITyADJ=14
 ICtDFT=  3500011 ScaDFX=  1.000000  1.000000  1.000000  1.000000
 FoFCou: FMM=F IPFlag=           0 FMFlag=      100000 FMFlg1=           0
         NFxFlg=           0 DoJE=T BraDBF=F KetDBF=T FulRan=T
         wScrn=  0.000000 ICntrl=       500 IOpCl=  0 I1Cent=   200000004 NGrid=           0
         NMat0=    1 NMatS0=      1 NMatT0=    0 NMatD0=    1 NMtDS0=    0 NMtDT0=    0
 Petite list used in FoFCou.
     Minimum is close to point  4 DX=  3.77D-02 DF= -6.03D-06 DXR=  3.04D-02 DFR=  9.27D-04 which will be used.
     Accept linear search using points  2 and  3.
     Accept linear search using points  1 and  2.
     Minimum is close to point  2 DX= -9.27D-02 DF= -7.24D-06 DXR=  9.20D-02 DFR=  9.90D-03 which will be used.
     Accept linear search using points  1 and  2.
     Accept linear search using points  1 and  2.
     Accept linear search using points  2 and  3.
     Accept linear search using points  1 and  2.
     Accept linear search using points  1 and  2.
     Accept linear search using points  1 and  2.
     Accept linear search using points  1 and  2.
     Minimum is close to point  2 DX= -7.20D-04 DF= -2.05D-10 DXR=  7.21D-04 DFR=  5.20D-07 which will be used.
     Minimum is close to point  2 DX=  1.83D-05 DF=  0.00D+00 DXR=  1.83D-05 DFR=  0.00D+00 which will be used.
 SCF Done:  E(UwB97XD) =  -272.330780051     a.u. after   15 cycles
            Convg  =    0.4822D-07                    59 Fock formations.
              S**2 =  0.7536                  -V/T =  2.0098
 <Sx>= 0.0000 <Sy>= 0.0000 <Sz>= 0.5000 <S**2>= 0.7536 S= 0.5018
 <L.S>=  0.00000000000    
 Annihilation of the first spin contaminant:
 S**2 before annihilation     0.7536,   after     0.7500
   1 Symmetry operations used in ECPInt.
 ECPInt:  NShTT=    1830 NPrTT=    7374 LenC2=    1828 LenP2D=    6144.
 LDataN:  DoStor=T MaxTD1= 5 Len=  102
 Calling FoFJK, ICntrl=      2127 FMM=F ISym2X=0 I1Cent= 0 IOpClX= 1 NMat=1 NMatS=1 NMatT=0.

 GradGradGradGradGradGradGradGradGradGradGradGradGradGradGradGradGradGrad
 Using GEDIIS/GDIIS optimizer.
 FormGI is forming the generalized inverse of G from B-inverse, IUseBI=4.
 Internal  Forces:  Max     0.019281056 RMS     0.003148098
 Step number   3 out of a maximum of   97
 All quantities printed in internal units (Hartrees-Bohrs-Radians)
 Mixed Optimization -- RFO/linear search
 Trust test= 1.11D+00 RLast= 5.15D-01 DXMaxT set to 8.49D-01
 ITU=  1  1  0
 Use linear search instead of GDIIS.
     Eigenvalues ---    0.00230   0.00300   0.00327   0.00328   0.01497
     Eigenvalues ---    0.02901   0.04907   0.05013   0.05064   0.05291
     Eigenvalues ---    0.05699   0.05956   0.06083   0.06146   0.06304
     Eigenvalues ---    0.06682   0.08326   0.13713   0.14051   0.14696
     Eigenvalues ---    0.15537   0.16000   0.16000   0.16000   0.16000
     Eigenvalues ---    0.16000   0.16000   0.16000   0.16213   0.16862
     Eigenvalues ---    0.18485   0.22459   0.29060   0.29142   0.30056
     Eigenvalues ---    0.32495   0.33017   0.33100   0.33122   0.33129
     Eigenvalues ---    0.33146   0.33173   0.33204   0.33288   0.33311
     Eigenvalues ---    0.33428   0.49221   0.57558
 Quartic linear search produced a step of  0.25769.
 Iteration  1 RMS(Cart)=  0.03156415 RMS(Int)=  0.00144532
 Iteration  2 RMS(Cart)=  0.00128897 RMS(Int)=  0.00090957
 Iteration  3 RMS(Cart)=  0.00000318 RMS(Int)=  0.00090957
 Iteration  4 RMS(Cart)=  0.00000000 RMS(Int)=  0.00090957
 Variable       Old X    -DE/DX   Delta X   Delta X   Delta X     New X
                                 (Linear)    (Quad)   (Total)
    R1        2.86033  -0.00085  -0.01033  -0.00311  -0.01344   2.84689
    R2        2.08755   0.00099   0.00094   0.00295   0.00389   2.09144
    R3        2.08415   0.00039  -0.00106   0.00106   0.00000   2.08415
    R4        2.08385  -0.00015  -0.00125  -0.00045  -0.00170   2.08215
    R5        2.88084  -0.00234  -0.00632  -0.00770  -0.01402   2.86682
    R6        2.86979  -0.00022  -0.00407  -0.00312  -0.00720   2.86259
    R7        3.27130   0.01928   0.05698   0.10782   0.16480   3.43610
    R8        2.09340   0.00046   0.00190   0.00120   0.00310   2.09650
    R9        2.07800   0.00022  -0.00143   0.00079  -0.00065   2.07735
   R10        2.08032   0.00037  -0.00141   0.00096  -0.00045   2.07987
   R11        2.09298   0.00018   0.00158   0.00049   0.00207   2.09505
   R12        2.08080   0.00026  -0.00134   0.00054  -0.00079   2.08001
   R13        2.08052   0.00052  -0.00137   0.00137  -0.00000   2.08051
   R14        2.47230   0.01598  -0.02637   0.02788   0.00151   2.47381
   R15        2.09881  -0.00274  -0.00152  -0.00934  -0.01086   2.08795
   R16        2.07184   0.00103  -0.00224   0.00283   0.00060   2.07244
   R17        1.86534  -0.00815   0.00200  -0.01164  -0.00964   1.85570
    A1        1.85513   0.00187  -0.00981   0.00816  -0.00167   1.85346
    A2        1.96799   0.00020   0.00127   0.00459   0.00578   1.97377
    A3        1.98018  -0.00115   0.00300  -0.00575  -0.00282   1.97736
    A4        1.86608  -0.00089  -0.00114  -0.00588  -0.00707   1.85901
    A5        1.86336  -0.00036   0.00004  -0.00158  -0.00154   1.86182
    A6        1.92302   0.00035   0.00591   0.00032   0.00612   1.92914
    A7        1.99215   0.00044   0.00886   0.00981   0.01676   2.00890
    A8        1.98126   0.00085   0.01048   0.01162   0.02034   2.00160
    A9        1.89465  -0.00263  -0.00440  -0.03768  -0.04145   1.85320
   A10        1.98433  -0.00054   0.00887   0.01151   0.01857   2.00290
   A11        1.80455   0.00099  -0.01448  -0.00088  -0.01486   1.78969
   A12        1.78227   0.00073  -0.01413  -0.00163  -0.01514   1.76713
   A13        1.81957   0.00479  -0.01326   0.02592   0.01262   1.83219
   A14        1.97914  -0.00170   0.00500  -0.00951  -0.00457   1.97457
   A15        1.96584  -0.00017   0.00110   0.00300   0.00398   1.96981
   A16        1.89662  -0.00176  -0.00073  -0.01107  -0.01175   1.88486
   A17        1.88546  -0.00194   0.00062  -0.01014  -0.00964   1.87582
   A18        1.91184   0.00079   0.00645   0.00182   0.00813   1.91997
   A19        1.83115   0.00373  -0.01152   0.01961   0.00807   1.83922
   A20        1.97353  -0.00071   0.00328  -0.00295   0.00025   1.97378
   A21        1.97721  -0.00099   0.00252  -0.00460  -0.00216   1.97505
   A22        1.87964  -0.00139  -0.00027  -0.00723  -0.00751   1.87213
   A23        1.88092  -0.00131  -0.00004  -0.00687  -0.00693   1.87399
   A24        1.91478   0.00068   0.00525   0.00217   0.00730   1.92208
   A25        1.93708   0.00076  -0.00938   0.00208  -0.00707   1.93001
   A26        1.71049   0.00081  -0.03136   0.00106  -0.03049   1.67999
   A27        1.85220  -0.00550  -0.01726  -0.05473  -0.07241   1.77979
   A28        1.99533   0.00131   0.02073   0.02397   0.04238   2.03771
   A29        1.91610   0.00230   0.01049   0.01859   0.02628   1.94239
   A30        2.03599  -0.00051   0.02213  -0.00114   0.01534   2.05132
   A31        1.99826  -0.00102   0.01087   0.00289   0.01376   2.01202
    D1       -1.22701  -0.00024  -0.01971  -0.01771  -0.03764  -1.26465
    D2        1.08516   0.00026   0.00981   0.02088   0.03096   1.11612
    D3        3.05392  -0.00001  -0.00419   0.00214  -0.00206   3.05186
    D4        3.01707  -0.00042  -0.01282  -0.01811  -0.03115   2.98592
    D5       -0.95395   0.00007   0.01670   0.02048   0.03745  -0.91650
    D6        1.01482  -0.00020   0.00270   0.00174   0.00443   1.01924
    D7        0.81543  -0.00012  -0.02426  -0.01761  -0.04212   0.77331
    D8        3.12760   0.00037   0.00526   0.02098   0.02648  -3.12911
    D9       -1.18682   0.00011  -0.00873   0.00224  -0.00654  -1.19336
   D10        1.11867   0.00108   0.01938   0.02991   0.04942   1.16809
   D11       -0.94114   0.00109   0.02593   0.03197   0.05812  -0.88302
   D12       -3.12483   0.00154   0.01256   0.03477   0.04750  -3.07733
   D13       -1.19203  -0.00008  -0.01107  -0.00880  -0.02007  -1.21211
   D14        3.03135  -0.00007  -0.00452  -0.00674  -0.01138   3.01997
   D15        0.84765   0.00038  -0.01789  -0.00394  -0.02200   0.82565
   D16       -3.10987  -0.00125   0.00964  -0.01115  -0.00157  -3.11144
   D17        1.11351  -0.00124   0.01618  -0.00909   0.00713   1.12064
   D18       -1.07019  -0.00079   0.00281  -0.00629  -0.00349  -1.07368
   D19       -1.18092  -0.00114  -0.01583  -0.03191  -0.04802  -1.22893
   D20        3.05865  -0.00139  -0.01010  -0.03373  -0.04407   3.01458
   D21        0.86616  -0.00092  -0.02179  -0.03042  -0.05250   0.81366
   D22        1.13503  -0.00018   0.01354   0.00568   0.01946   1.15449
   D23       -0.90859  -0.00043   0.01927   0.00386   0.02340  -0.88519
   D24       -3.10109   0.00004   0.00758   0.00717   0.01497  -3.08611
   D25        3.06652   0.00115  -0.00739   0.00830   0.00094   3.06745
   D26        1.02290   0.00090  -0.00165   0.00648   0.00488   1.02778
   D27       -1.16960   0.00138  -0.01335   0.00980  -0.00355  -1.17314
   D28        1.01882   0.00060  -0.00009   0.00334   0.00317   1.02199
   D29       -1.07492  -0.00160  -0.00185  -0.02528  -0.02645  -1.10137
   D30        3.09972   0.00046  -0.00402  -0.00608  -0.01070   3.08902
   D31       -1.10282   0.00083  -0.00000   0.01072   0.01059  -1.09223
   D32        3.08662  -0.00137  -0.00176  -0.01791  -0.01903   3.06760
   D33        0.97808   0.00069  -0.00393   0.00130  -0.00328   0.97480
   D34        3.11619   0.00077   0.00238  -0.00091   0.00142   3.11760
   D35        1.02244  -0.00143   0.00062  -0.02953  -0.02820   0.99424
   D36       -1.08610   0.00064  -0.00155  -0.01033  -0.01245  -1.09855
   D37       -1.32239  -0.00367  -0.02725  -0.09324  -0.12032  -1.44271
   D38        0.59219  -0.00147  -0.05923  -0.07700  -0.13874   0.45345
   D39        2.91866   0.00121  -0.00692  -0.03873  -0.04330   2.87536
         Item               Value     Threshold  Converged?
 Maximum Force            0.019281     0.000015     NO 
 RMS     Force            0.003148     0.000010     NO 
 Maximum Displacement     0.165233     0.000060     NO 
 RMS     Displacement     0.031729     0.000040     NO 
 GradGradGradGradGradGradGradGradGradGradGradGradGradGradGradGradGradGrad

                    Distance matrix (angstroms):
                    1          2          3          4          5
     1  C    0.000000
     2  C    1.506509   0.000000
     3  C    2.551495   1.517055   0.000000
     4  C    2.543671   1.514820   2.553606   0.000000
     5  C    2.665052   1.818305   2.608771   2.583703   0.000000
     6  O    3.004354   2.587172   2.970627   3.738350   1.309084
     7  H    1.106745   2.103459   2.860477   2.780442   3.642436
     8  H    1.102886   2.188395   3.512853   2.799506   2.864184
     9  H    1.101827   2.190075   2.758269   3.511988   2.961137
    10  H    2.798446   2.098135   1.109420   2.819629   3.596603
    11  H    2.798235   2.195526   1.099288   3.514022   2.846797
    12  H    3.510959   2.193222   1.100620   2.771330   2.816960
    13  H    2.824719   2.101092   2.797034   1.108654   3.578579
    14  H    3.504618   2.194075   2.796849   1.100694   2.763138
    15  H    2.763300   2.195164   3.518497   1.100960   2.847571
    16  H    2.724804   2.228206   3.433318   2.574153   1.104893
    17  H    3.524747   2.310068   2.683694   2.718468   1.096689
    18  H    2.906201   2.984237   3.576235   4.175373   1.943183
                    6          7          8          9         10
     6  O    0.000000
     7  H    4.050074   0.000000
     8  H    3.294630   1.770633   0.000000
     9  H    2.799789   1.771639   1.811842   0.000000
    10  H    3.998899   2.657981   3.824308   3.076302   0.000000
    11  H    2.692654   3.227194   3.794724   2.552688   1.786833
    12  H    3.309819   3.851730   4.359082   3.788197   1.782016
    13  H    4.617660   2.608078   3.205822   3.812494   2.607490
    14  H    3.984761   3.806309   3.797598   4.363507   3.177677
    15  H    4.038010   3.063436   2.565907   3.804216   3.817684
    16  H    2.058309   3.696874   2.485745   3.218271   4.275817
    17  H    1.989721   4.370854   3.827827   3.872362   3.704320
    18  H    0.981997   3.986698   2.997478   2.527581   4.489260
                   11         12         13         14         15
    11  H    0.000000
    12  H    1.802125   0.000000
    13  H    3.815371   3.097359   0.000000
    14  H    3.799509   2.561588   1.779043   0.000000
    15  H    4.368375   3.799573   1.780474   1.804889   0.000000
    16  H    3.779686   3.718278   3.615531   2.906817   2.380845
    17  H    3.056384   2.438667   3.713876   2.446430   3.159233
    18  H    3.217608   4.111519   5.007936   4.612805   4.299861
                   16         17         18
    16  H    0.000000
    17  H    1.882484   0.000000
    18  H    2.267366   2.847101   0.000000
 Framework group  C1[X(C5H12O)]
 Deg. of freedom    48
                         Standard orientation:                         
 ---------------------------------------------------------------------
 Center     Atomic      Atomic             Coordinates (Angstroms)
 Number     Number       Type             X           Y           Z
 ---------------------------------------------------------------------
      1          6           0       -0.473500    1.528693   -0.299247
      2          6           0       -0.527767    0.063929    0.048733
      3          6           0       -0.505189   -0.246067    1.533607
      4          6           0       -1.531678   -0.739704   -0.751901
      5          6           0        1.040827   -0.652353   -0.528056
      6          8           0        2.056663   -0.054973    0.041956
      7          1           0       -1.463896    1.945754   -0.034556
      8          1           0       -0.334192    1.712132   -1.377811
      9          1           0        0.272366    2.088582    0.287465
     10          1           0       -1.466097    0.148246    1.923459
     11          1           0        0.311370    0.259897    2.068084
     12          1           0       -0.481095   -1.325993    1.744658
     13          1           0       -2.526879   -0.408828   -0.392445
     14          1           0       -1.461811   -1.822846   -0.569012
     15          1           0       -1.487571   -0.534360   -1.832642
     16          1           0        0.880339   -0.445145   -1.601414
     17          1           0        0.952205   -1.693124   -0.193888
     18          1           0        2.335796    0.788482   -0.376359
 ---------------------------------------------------------------------
 Rotational constants (GHZ):           4.2025856           2.5304409           2.5055005
   108 basis functions,   198 primitive gaussians,   114 cartesian basis functions
    25 alpha electrons       24 beta electrons
       nuclear repulsion energy       264.7043273700 Hartrees.
[...]
 504697,0.0714077,-0.0519601,0.0390214,0.0273833,0.0881341,-0.0008857,0
 .0239434,0.0170623,0.1163863,0.1125893,-0.0549672,0.0240216,-0.0065768
 ,0.079131,-0.0286949,0.0100766,0.0248592,-0.0330003,0.0219418,-0.08496
 ,-0.0572977,-0.0048255,0.071384,0.0071933,-0.0584249,0.0047847,0.05254
 33,0.074683,0.0534772,-0.0429586,0.0229864,0.0960773,0.04158,0.031194,
 0.0011358,0.0895189,0.0384449,-0.0416662,-0.0722235,-0.0621221,0.06685
 68,0.0194305,-0.0016498,0.0041018,0.0921884,0.1186038,0.0042193,-0.039
 7244,-0.009447,-0.0256668,0.0209819,-0.0073915,-0.0360052,0.0785038,0.
 0978474,0.0364805,0.0406132,-0.0180421,0.0879432,-0.0479889,-0.030744,
 -0.0499144,0.0723924,0.1210963,0.0526084,-0.0105651,-0.005669,-0.01149
 16,0.0108975,-0.0490487,0.0285283,0.0705146,0.1119726,-0.0183461,0.052
 1361,-0.0459938,0.0659856,0.0389667,-0.013027,0.0205815,-0.01554,0.037
 1451,-0.0035463,0.0121752,0.0587073,0.0351397,0.0165743,-0.0283915,0.0
 08649,0.0445652,0.0331388,0.0144318,0.0158423,-0.0284284,0.0850035,-0.
 0032026,0.0718688,-0.0066104,0.0342666,0.5165252,0.0506109,-0.0570093,
 0.1621898,0.3343439,0.003944,-0.098695,0.0413058,0.2975697\Polar=70.50
 88482,-0.7709008,55.8076413,-2.5958803,0.6637318,55.4798801\Quadrupole
 =2.6206142,-0.9727328,-1.6478814,1.5686163,-3.1162838,0.0077538\PG=C01
  [X(C5H12O1)]\NImag=0\\0.55993688,0.03049300,0.48994912,0.02298901,0.0
 0732072,0.60408999,-0.07894790,-0.02820612,-0.00317051,0.31221236,-0.0
 2428121,-0.20661790,0.02492022,0.09288344,0.49115447,-0.00396733,0.027
 84503,-0.09554835,0.08997574,-0.03447076,0.49504809,0.00829284,-0.0024
 8017,-0.00101319,-0.07768524,-0.00510814,-0.01571169,0.56438826,-0.005
 13961,-0.00822916,0.03792162,-0.00384355,-0.10062927,0.03895205,0.0229
 4032,0.60265373,-0.00157630,0.01050819,-0.00504850,-0.02087689,0.03855
 432,-0.20274695,0.03465529,0.00871263,0.48996587,0.00715542,-0.0078600
 2,-0.00205414,-0.12701256,-0.04818298,-0.05415122,0.00875760,-0.001504
 49,-0.00763410,0.48490534,-0.03002222,-0.01760440,-0.01722968,-0.04527
 691,-0.12203617,-0.03308122,0.00333740,0.00786510,0.00181304,-0.015130
 54,0.58653853,0.00093227,-0.00040623,0.00669791,-0.05268266,-0.0341917
 1,-0.13374317,-0.03085406,-0.01308153,-0.01972412,-0.01897300,-0.03189
 431,0.58212854,-0.00319857,0.00903863,0.00130179,0.02313736,-0.0083783
 4,-0.00764563,-0.00231926,0.00010851,0.00828437,-0.01270554,-0.0021010
 2,-0.00307787,0.39814611,0.00883281,-0.01129416,-0.00156635,-0.0114509
 6,-0.00925890,0.00228459,0.00419774,-0.00145504,-0.00185670,-0.0007956
 6,-0.00040129,-0.00109058,0.20975621,0.60016177,0.00396131,-0.00161160
 ,-0.00048767,-0.01003721,0.00139309,-0.00975637,0.00863275,-0.00138870
 ,-0.01085734,-0.00069968,-0.00144597,-0.00101690,0.18416947,-0.1078733
 9,0.60307138,-0.00468870,0.00007896,0.00172203,-0.01328559,-0.00847177
 ,-0.00766604,-0.00519522,0.00275415,0.00098245,-0.00695909,0.00281677,
 0.00305944,-0.29179206,-0.14130493,-0.17456169,0.41511026,0.00011699,-
 0.00124203,-0.00091548,0.00340086,-0.00259738,-0.00165600,-0.00323346,
 0.00179149,0.00056419,-0.00277297,0.00184128,0.00193986,-0.15003461,-0
 .17003271,-0.06203118,0.29230942,0.48296509,-0.00163215,-0.00086596,-0
 .00007011,-0.00079342,0.00134639,-0.00139897,0.00099772,-0.00062318,-0
 .00116111,-0.00197821,0.00168218,0.00127349,-0.12885437,-0.03822141,-0
 .17973081,0.11595177,-0.11317938,0.31264030,-0.23249665,0.09633596,0.0
 6532556,0.00269436,0.00162023,-0.00208743,-0.00087246,0.00024985,0.001
 13828,-0.00226295,0.00007132,0.00035986,-0.00164076,0.00094465,-0.0008
 7001,0.00184739,0.00111262,0.00084160,0.24816518,0.10396288,-0.0944721
 5,-0.03607653,0.02670054,-0.01992550,-0.00846196,-0.00177685,0.0017514
 6,-0.00023298,-0.00172738,0.00229132,0.00115343,-0.00150679,-0.0021847
 2,-0.00049587,0.00094747,0.00160306,0.00079917,-0.10879461,0.10430050,
 0.06437516,-0.03317980,-0.06294897,-0.00514737,0.00173254,-0.00006976,
 0.00162201,-0.00089730,-0.00099400,-0.00053531,0.00025232,0.00040348,-
 0.00034521,-0.00026745,0.00012188,-0.00056801,0.00050817,0.00018542,-0
 .07046319,0.03633569,0.06512517,-0.05135289,-0.01229756,0.02737366,-0.
 00247074,0.00502328,0.00080702,0.00079065,-0.00046319,0.00034239,-0.00
 113227,0.00016576,0.00079438,-0.00002375,0.00054551,-0.00077900,0.0003
 8322,-0.00012543,0.00025481,-0.00154008,-0.00623902,0.02539171,0.04897
 215,-0.01011903,-0.05709461,0.04679064,-0.00333601,-0.00512873,0.03385
 914,-0.00030357,-0.00634824,-0.00116175,0.00138497,0.00060520,0.000249
 22,-0.00022263,-0.00065394,0.00134212,-0.00008196,0.00008505,-0.000251
 21,0.00090720,0.00316615,-0.01385458,0.00746310,0.06272690,0.02828021,
 0.04941901,-0.31125344,0.00023770,0.00063105,-0.00349478,0.00014638,0.
 00102951,0.00124908,-0.00045401,-0.00054170,0.00064577,0.00082632,-0.0
 0043062,-0.00005771,-0.00069913,-0.00030346,-0.00002082,-0.00080105,0.
 00209933,-0.00682325,-0.03143516,-0.05458477,0.32883602,-0.20127376,-0
 .08778432,-0.10929399,-0.00041512,0.00335878,0.00067602,-0.00052509,0.
 00091547,0.00026757,0.00092527,-0.00114816,-0.00033618,-0.00079230,0.0
 0021444,-0.00014069,-0.00008844,0.00081098,0.00056399,-0.01628684,-0.0
 1162872,-0.01402155,0.00543654,0.00395331,0.00390556,0.21216644,-0.083
 86428,-0.09157812,-0.05571764,-0.02574901,-0.01355916,-0.01873425,0.00
 054684,0.00075569,-0.00122813,0.00151961,-0.00534253,0.00271058,-0.001
 96565,-0.00096278,-0.00087028,0.00080683,0.00169881,0.00084898,0.01047
 033,0.00635068,0.00825108,0.00670773,0.00270666,0.00284471,0.09100633,
 0.10066081,-0.11118279,-0.05723167,-0.13130357,0.00674400,-0.00021848,
 0.00350542,0.00128899,0.00021583,0.00009993,-0.00027764,0.00177430,0.0
 0049216,-0.00116756,-0.00050102,-0.00042622,0.00039198,0.00109129,0.00
 042546,0.00767935,0.00459364,0.00514854,-0.02214385,-0.01231068,-0.010
 19723,0.11811942,0.06227302,0.13152318,-0.00019352,0.00095434,-0.00030
 871,0.00038836,-0.00207077,0.00170113,-0.21086988,0.08272609,0.0929445
 5,-0.00241863,0.00038122,0.00049566,-0.00156315,-0.00072336,0.00101701
 ,0.00159259,0.00068483,0.00059965,0.00062413,0.00000845,-0.00021634,0.
 00020743,-0.00029544,0.00001675,-0.00000343,0.00002344,0.00012158,0.22
 579126,0.00234756,-0.00120489,-0.00085005,-0.00731754,0.00183553,0.002
 25549,0.08130942,-0.08102545,-0.04351211,0.00019593,0.00003058,-0.0000
 3873,0.00037768,0.00022956,-0.00017918,-0.00095277,-0.00055144,0.00023
 902,-0.00052380,-0.00070872,0.00122652,-0.00004752,0.00021734,-0.00018
 983,-0.00038388,0.00014801,0.00015425,-0.08928795,0.08409197,-0.001760
 28,-0.00032627,0.00180921,0.02484442,-0.01099218,-0.02046274,0.1001382
 1,-0.04812354,-0.09546745,-0.00159980,0.00123720,0.00213033,-0.0012933
 3,-0.00035398,-0.00216016,0.00103724,0.00084757,0.00090356,0.00009028,
 0.00094938,-0.00058528,-0.00049116,-0.00024385,0.00013539,0.00016712,-
 0.00019140,-0.00006921,-0.10517495,0.04891008,0.10571863,-0.00044393,0
 .00029987,0.00063703,0.00220941,0.00112039,0.00340221,-0.23198485,-0.0
 8662481,-0.10604512,0.00029547,-0.00012309,0.00013775,-0.00095846,0.00
 004429,0.00070165,-0.00012199,0.00012857,0.00111018,0.00010036,0.00012
 212,-0.00023948,0.00018593,0.00003041,0.00011691,0.00024521,0.00027161
 ,-0.00020948,-0.01651064,-0.00965735,-0.01167801,0.24390559,0.00141100
 ,-0.00002768,0.00019229,0.00905170,0.00329773,-0.00071856,-0.08739448,
 -0.09233593,-0.04339620,-0.00030818,0.00030950,0.00178895,-0.00063216,
 0.00013168,-0.00022389,-0.00009120,-0.00027658,0.00031298,0.00000226,-
 0.00004560,0.00026876,-0.00018441,-0.00000811,-0.00016269,-0.00026090,
 -0.00020129,0.00062373,0.01030715,0.00460892,0.00644463,0.09285048,0.0
 9001127,0.00104150,-0.00145491,0.00035955,-0.02724907,-0.01349347,-0.0
 1557635,-0.10147703,-0.04341712,-0.10095451,0.00197463,0.00299601,-0.0
 0516245,-0.00151266,-0.00067844,-0.00153145,0.00062532,0.00061230,0.00
 090105,-0.00000371,-0.00034144,0.00025886,0.00032387,-0.00013232,0.000
 20168,0.00016241,0.00097166,0.00007704,0.01215081,0.00605318,0.0074218
 6,0.10989066,0.04791587,0.11201611,0.00126520,0.00032793,-0.00076033,-
 0.00237718,-0.00029436,0.00423971,-0.04896871,-0.01118834,-0.00451810,
 -0.00107429,0.00079980,0.00026659,-0.00015628,-0.00096001,0.00024003,0
 .00026049,0.00062576,0.00010261,0.00020734,-0.00056759,0.00012164,0.00
 066048,0.00003423,0.00012584,0.00017174,0.00036860,-0.00002012,0.00214
 067,0.02438202,-0.00417267,0.00234049,-0.02428858,0.00506002,0.0455826
 6,-0.00003247,0.00109569,0.00139420,0.00004423,-0.00580544,-0.00022311
 ,-0.01079210,-0.32330901,0.03211873,-0.00024088,0.00068020,-0.00085451
 ,0.00059803,-0.00023446,-0.00053820,-0.00033064,0.00000743,0.00000921,
 0.00004384,0.00015098,-0.00012503,0.00005293,-0.00019032,0.00004205,0.
 00009517,0.00021030,-0.00010057,-0.00208730,-0.00893972,0.00189744,0.0
 0185568,-0.00646841,0.00131386,0.01076496,0.34142351,-0.00007718,-0.00
 049565,-0.00601644,0.00146575,0.03433871,-0.00307593,-0.00291245,0.027
 96010,-0.05191499,0.00109965,0.00026916,0.00080400,-0.00014199,0.00126
 664,-0.00047401,-0.00022533,-0.00026004,0.00010688,-0.00028536,-0.0000
 8969,0.00000771,0.00003869,0.00178047,-0.00010696,0.00008712,-0.000166
 18,-0.00004974,-0.00148907,-0.01425291,0.00213913,0.00208678,-0.014009
 89,0.00206377,-0.00026899,-0.03511738,0.05706586,0.00103445,0.00106605
 ,-0.00024529,-0.02517649,0.00336181,0.00365318,0.00153106,-0.00017510,
 0.00116050,-0.25617583,0.07136618,0.08045456,-0.00072561,-0.00091386,-
 0.00085358,-0.00116795,-0.00001903,-0.00000299,0.00027407,-0.00066258,
 -0.00017098,-0.00001484,0.00020960,-0.00008663,0.00051470,-0.00018966,
 -0.00034480,0.00018929,-0.00019383,-0.00069472,0.00036337,-0.00037597,
 -0.00012057,-0.00011661,-0.00006700,0.00013285,0.27802965,0.00260679,-
 0.00101718,-0.00076805,-0.01489354,0.00284690,0.00555050,0.00081316,-0
 .00004894,-0.00021271,0.06567489,-0.06196404,-0.02447042,0.00131029,-0
 .00016890,0.00070011,-0.00112945,-0.00044129,-0.00079693,-0.00120486,-
 0.00122023,-0.00031520,-0.00040798,0.00027516,-0.00002670,0.00037589,0
 .00007853,-0.00011604,-0.00032719,0.00029315,-0.00029312,0.00001071,-0
 .00016781,0.00026641,0.00011192,0.00000266,0.00006766,-0.07231448,0.06
 522835,0.00123398,-0.00031494,-0.00024468,-0.01684037,0.00585313,0.004
 75367,0.00307933,-0.00111643,-0.00117152,0.07386900,-0.02460284,-0.068
 99345,0.00160896,0.00053895,-0.00004404,-0.00155401,-0.00089771,-0.000
 26501,-0.00047820,-0.00043341,0.00018918,0.00003638,0.00009889,0.00003
 368,0.00012872,0.00023595,-0.00012685,-0.00130486,-0.00003151,-0.00124
 106,0.00015686,-0.00004282,0.00030985,-0.00038426,0.00013481,0.0002193
 3,-0.08160026,0.02801654,0.07237998,-0.00309035,-0.00049974,-0.0033133
 0,-0.00124033,-0.02665280,0.00321453,-0.00090445,0.00058926,0.00145942
 ,-0.04370448,0.01796947,-0.00290445,-0.00087449,-0.00164939,-0.0005894
 8,0.00065742,0.00076811,0.00038272,0.00031377,-0.00017779,-0.00013880,
 0.00002705,0.00029154,-0.00007114,0.00018545,-0.00139830,0.00001307,0.
 00028998,0.00010247,0.00041751,-0.00004586,0.00008768,0.00017542,0.000
 33606,0.00032026,-0.00043111,0.00042568,0.02765991,-0.00378603,0.04934
 375,-0.00236316,0.00030476,-0.00210074,0.00138634,-0.01311313,0.002086
 90,0.00021035,0.00072702,0.00082938,0.01502644,-0.32096015,0.03251031,
 0.00108336,-0.00052875,0.00051484,0.00006436,0.00034284,-0.00025882,0.
 00016296,0.00029845,0.00001366,0.00008555,0.00018850,-0.00002693,0.000
 10975,-0.00062717,0.00016800,-0.00005168,0.00005786,0.00011072,-0.0000
 7206,0.00030352,0.00012085,0.00001789,0.00041767,-0.00058648,-0.001190
 72,-0.00639212,0.00151494,-0.01458832,0.34079441,-0.00302135,-0.000919
 55,-0.00146260,0.00547802,-0.01727908,0.00344211,0.00064374,-0.0009739
 3,0.00027029,-0.00463314,0.03433625,-0.05771399,0.00013944,-0.00023232
 ,0.00020225,-0.00020338,-0.00012584,-0.00021105,-0.00005706,0.00044633
 ,-0.00012560,-0.00024176,-0.00026369,0.00015467,-0.00032226,-0.0008166
 7,0.00069326,-0.00018996,-0.00012339,-0.00004062,-0.00004009,0.0003361
 0,0.00013536,-0.00059793,0.00011873,-0.00057500,0.00002620,-0.01009122
 ,0.00097627,0.00559397,-0.03392690,0.05290795,-0.00057247,0.00128212,0
 .00047790,-0.00069676,0.00681584,-0.02581776,-0.00268256,-0.00293844,-
 0.00074162,-0.04502014,-0.00571730,0.01947889,-0.00057453,-0.00031924,
 -0.00164838,0.00043696,0.00045670,0.00060405,0.00022364,0.00034083,0.0
 0018356,0.00016046,-0.00052579,0.00029306,-0.00009950,0.00024517,0.000
 12994,0.00018386,-0.00021385,-0.00038377,0.00028902,-0.00000400,-0.001
 32570,-0.00006575,-0.00010794,0.00029335,0.00039778,-0.00747928,0.0267
 8497,-0.00099186,0.00054139,-0.00234747,0.04996032,0.00074181,0.000345
 65,-0.00084343,0.00503799,0.00471443,-0.01516570,-0.00314187,-0.001038
 30,-0.00109224,-0.00685144,-0.07055941,0.06672605,0.00007204,-0.000005
 10,0.00005909,-0.00024339,-0.00018861,-0.00023015,-0.00007540,-0.00009
 766,-0.00017548,-0.00067102,-0.00034374,-0.00002770,0.00001894,0.00009
 465,0.00021508,-0.00001894,-0.00007500,0.00046036,-0.00013742,0.000740
 35,-0.00073168,-0.00014499,0.00022406,-0.00025398,0.00015379,0.0019417
 8,-0.00913163,-0.00269324,-0.00236559,0.02908725,0.00793115,0.06619202
 ,0.00055639,0.00079690,0.00082672,0.00253523,0.00446687,-0.01499436,-0
 .00306093,-0.00206022,-0.00000784,0.01633273,0.06466184,-0.30799233,0.
 00117789,0.00040188,-0.00052162,-0.00012807,-0.00021754,0.00043724,-0.
 00013392,-0.00000096,-0.00005629,-0.00014900,-0.00066902,0.00034681,-0
 .00009738,0.00013027,0.00033476,0.00015483,-0.00006489,0.00026276,0.00
 020815,0.00022739,-0.00074598,0.00006968,-0.00006909,0.00021848,-0.001
 13854,0.00253093,-0.00712617,0.00021285,-0.00094249,0.00113147,-0.0159
 6459,-0.06913618,0.32737524,-0.00084202,-0.00035806,0.00063080,-0.0042
 4218,0.00062021,0.00855603,-0.00098427,0.00030304,0.00029668,-0.002382
 02,0.00079636,0.00240975,-0.04712589,-0.00243798,-0.02756658,-0.006218
 07,-0.00379545,-0.03923296,0.00038840,0.00007740,-0.00005725,0.0000596
 8,0.00038825,-0.00011036,0.00010771,0.00012862,-0.00007880,-0.00022461
 ,0.00005317,0.00057876,-0.00002694,0.00001861,0.00004162,0.00001396,0.
 00003664,0.00003329,0.00035175,-0.00052759,-0.00055904,0.00024214,-0.0
 0017461,-0.00017713,-0.00097018,0.00021690,-0.00041316,0.05774528,0.00
 224224,-0.00051180,-0.00176237,0.00178110,0.00024265,-0.00246950,0.000
 35581,-0.00047760,-0.00037875,0.00129802,-0.00073038,-0.00084349,0.000
 02209,-0.07938256,0.07262577,-0.00975446,0.01177935,-0.01566814,-0.000
 64800,-0.00023406,0.00011285,0.00031580,-0.00040891,-0.00002184,-0.000
 19860,-0.00009155,0.00008579,-0.00002283,0.00032115,-0.00025848,-0.000
 05110,-0.00002402,-0.00011350,0.00011412,0.00028786,-0.00019221,-0.000
 11547,0.00019853,0.00019585,-0.00002694,0.00000024,0.00028747,-0.00020
 689,0.00034195,0.00000505,0.00065881,0.06545087,-0.00062802,0.00056656
 ,0.00013182,0.00244318,0.00063796,-0.00622095,0.00113361,-0.00060343,-
 0.00041109,-0.00097111,0.00025412,0.00038240,-0.04761889,0.07342440,-0
 .31455285,-0.00649329,-0.00089540,-0.00579208,-0.00011219,0.00004280,0
 .00032363,0.00011282,-0.00043824,0.00042137,-0.00000599,0.00001565,-0.
 00005381,0.00005185,0.00002296,-0.00032157,-0.00010008,0.00008716,0.00
 016538,-0.00003681,-0.00007417,0.00006609,-0.00009416,-0.00013896,0.00
 024654,0.00010720,-0.00001321,-0.00006654,0.00002119,0.00008732,0.0005
 0108,0.05243951,-0.07123670,0.32439803,-0.00110579,0.00035416,0.000293
 77,-0.00415258,0.00896273,0.00039328,-0.00165355,0.00158779,0.00032940
 ,-0.00179551,0.00180272,0.00072569,-0.04195606,-0.02881469,0.00195776,
 -0.01618397,-0.03365061,0.00847361,-0.00014541,0.00057458,0.00011139,-
 0.00002934,-0.00000900,0.00003870,0.00004957,-0.00004232,0.00005002,0.
 00051606,-0.00025976,0.00008494,0.00025980,-0.00021080,-0.00004937,-0.
 00018901,-0.00017985,0.00055031,0.00035323,-0.00037238,-0.00051481,-0.
 00092034,-0.00030120,-0.00009814,0.00011714,-0.00020194,-0.00012182,0.
 00519535,0.00149942,-0.00058630,0.06034422,0.00106171,-0.00035834,-0.0
 0045708,0.00354827,-0.00721676,0.00033086,-0.00091609,0.00038077,0.000
 75318,-0.00094212,0.00035187,0.00017630,-0.05092577,-0.30876696,0.0950
 5087,-0.00597799,-0.00979758,0.00095223,0.00001163,-0.00032868,-0.0000
 3452,-0.00000736,0.00002753,-0.00007222,-0.00008119,0.00006640,0.00006
 188,-0.00013320,0.00032316,0.00014964,-0.00001512,-0.00015283,-0.00004
 822,0.00010566,0.00045284,-0.00030831,-0.00007657,0.00026319,-0.000169
 45,0.00007257,0.00052318,0.00010818,0.00007090,-0.00004214,-0.00003315
 ,-0.00015054,0.00297838,-0.00159773,0.05504876,0.31961572,0.00041251,-
 0.00021454,-0.00035900,0.00160795,-0.00250741,0.00052329,0.00321464,-0
 .00271610,-0.00126161,0.00103654,-0.00041042,-0.00085070,0.00742295,0.
 09778655,-0.09051067,-0.00359114,-0.02185400,0.00989770,-0.00004325,-0
 .00028224,0.00017099,0.00004068,-0.00023165,0.00024347,-0.00012255,-0.
 00005676,0.00001882,-0.00074023,0.00039879,-0.00033306,-0.00028096,0.0
 0009900,0.00010905,0.00061596,0.00010498,-0.00035612,-0.00010013,0.000
 07867,0.00024794,-0.00040522,-0.00005801,0.00031664,-0.00000083,0.0001
 6595,0.00009943,0.00196265,0.02325450,0.00046228,-0.00604312,-0.093805
 49,0.08053691,0.00052174,-0.00074502,-0.00059211,-0.00293918,-0.000326
 36,0.00042825,0.00088515,-0.00029693,-0.00046877,0.00060422,0.00001222
 ,-0.00028662,-0.01487676,-0.03516557,0.01706633,-0.07458727,-0.1067832
 5,0.04261140,0.00040651,0.00034706,0.00009803,-0.00031967,0.00023083,-
 0.00032995,-0.00031814,0.00111411,0.00088667,-0.00013976,0.00006998,-0
 .00010980,-0.00010197,0.00002179,0.00029187,-0.00003126,0.00002645,0.0
 0004370,-0.00008769,0.00009320,0.00012362,-0.00004914,0.00005337,0.000
 04832,-0.00009541,0.00000700,-0.00004033,-0.00108809,0.00273689,0.0003
 3750,0.00129618,-0.00069355,-0.00498643,0.09092055,0.00200518,-0.00044
 280,-0.00025228,-0.00376083,0.00179662,0.00181650,0.00143570,-0.001028
 31,-0.00078211,0.00121679,-0.00091519,-0.00038319,-0.00659987,-0.01519
 273,0.00497235,-0.13143939,-0.31698677,0.16390501,-0.00068618,-0.00069
 526,0.00014776,0.00008383,0.00017811,0.00032281,0.00062671,-0.00040794
 ,-0.00077833,-0.00006686,0.00034801,-0.00022422,-0.00005318,0.00030529
 ,0.00016096,-0.00020903,-0.00000583,0.00004997,0.00013684,0.00029227,0
 .00015169,-0.00017475,0.00002846,0.00003228,-0.00017136,0.00012066,-0.
 00002760,0.00414624,0.00025988,-0.00014107,-0.00578762,0.00168026,0.00
 024817,0.13929778,0.33066530,0.00006307,0.00056469,0.00082812,0.001465
 51,-0.00072120,-0.00018390,-0.00052334,0.00020973,0.00013585,-0.000351
 19,-0.00007028,0.00023900,-0.01327366,-0.02263074,0.00873230,0.0719198
 7,0.19677265,-0.13812113,-0.00009956,-0.00000469,-0.00033171,-0.000276
 48,0.00002130,-0.00031378,0.00026266,-0.00050059,-0.00009195,0.0001702
 9,-0.00001769,0.00016027,0.00014503,0.00025718,-0.00004882,-0.00008286
 ,-0.00003196,-0.00012206,0.00002537,0.00001851,-0.00014366,0.00006285,
 0.00004398,-0.00003488,-0.00003678,-0.00001292,-0.00008938,0.00124619,
 -0.00362230,0.00032025,-0.00559530,-0.00105697,0.00104463,-0.05512167,
 -0.16921871,0.12802086\\0.00000135,-0.00000144,-0.00000034,0.00000085,
 0.00000127,0.00000016,0.00000073,0.00000308,-0.00000088,-0.00000081,0.
 00000016,0.00000060,-0.00000109,-0.00000261,-0.00000078,0.00000195,0.0
 0000194,0.00000193,0.00000059,0.00000091,-0.00000163,0.00000085,-0.000
 00046,-0.00000126,0.00000072,0.00000001,-0.00000138,-0.00000108,0.0000
 0056,0.00000014,-0.00000050,0.00000085,-0.00000015,-0.00000186,0.00000
 089,0.00000134,-0.00000017,0.00000041,-0.00000084,-0.00000063,0.000000
 10,0.00000106,0.00000020,-0.00000047,-0.00000007,-0.00000031,-0.000001
 36,0.00000062,-0.00000084,-0.00000110,0.00000088,0.00000007,-0.0000027
 3,0.00000061\\\@


 IF AT FIRST YOU DON'T SUCCEED, TRY, TRY AGAIN.
 THEN GIVE UP;
 THERE'S NO USE BEING A DAMN FOOL ABOUT IT.

                                 -- W. C. FIELDS
 Job cpu time:       0 days  0 hours  6 minutes 54.1 seconds.
 Elapsed time:       0 days  0 hours  1 minutes 44.4 seconds.
 File lengths (MBytes):  RWF=     54 Int=      0 D2E=      0 Chk=      3 Scr=      1
 Normal termination of Gaussian 16 at Mon Jul 10 19:28:56 2023.
real 661.97
user 2537.88
sys 11.72
