 Entering Gaussian System, Link 0=g16
 Input=gaussian_test.inp
 Output=gaussian_test.log
 Initial command:
 /sw/restricted/lms/sw/Gaussian/g16_B01/g16/l1.exe "/scratch/user/peterchao1/peterchao1/6097788_1659647563000000666743758/Gau-209692.inp" -scrdir="/scratch/user/peterchao1/peterchao1/6097788_1659647563000000666743758/"
 Entering Link 1 = /sw/restricted/lms/sw/Gaussian/g16_B01/g16/l1.exe PID=    209693.
  
 Copyright (c) 1988-2017, Gaussian, Inc.  All Rights Reserved.
  
 This is part of the Gaussian(R) 16 program.  It is based on
 the Gaussian(R) 09 system (copyright 2009, Gaussian, Inc.),
 the Gaussian(R) 03 system (copyright 2003, Gaussian, Inc.),
 the Gaussian(R) 98 system (copyright 1998, Gaussian, Inc.),
 the Gaussian(R) 94 system (copyright 1995, Gaussian, Inc.),
 the Gaussian 92(TM) system (copyright 1992, Gaussian, Inc.),
 the Gaussian 90(TM) system (copyright 1990, Gaussian, Inc.),
 the Gaussian 88(TM) system (copyright 1988, Gaussian, Inc.),
 the Gaussian 86(TM) system (copyright 1986, Carnegie Mellon
 University), and the Gaussian 82(TM) system (copyright 1983,
 Carnegie Mellon University). Gaussian is a federally registered
 trademark of Gaussian, Inc.
  
 This software contains proprietary and confidential information,
 including trade secrets, belonging to Gaussian, Inc.
  
 This software is provided under written license and may be
 used, copied, transmitted, or stored only in accord with that
 written license.
  
 The following legend is applicable only to US Government
 contracts under FAR:
  
                    RESTRICTED RIGHTS LEGEND
  
 Use, reproduction and disclosure by the US Government is
 subject to restrictions as set forth in subparagraphs (a)
 and (c) of the Commercial Computer Software - Restricted
 Rights clause in FAR 52.227-19.
  
 Gaussian, Inc.
 340 Quinnipiac St., Bldg. 40, Wallingford CT 06492
  
  
 ---------------------------------------------------------------
 Warning -- This program may not be used in any manner that
 competes with the business of Gaussian, Inc. or will provide
 assistance to any competitor of Gaussian, Inc.  The licensee
 of this program is prohibited from giving any competitor of
 Gaussian, Inc. access to this program.  By using this program,
 the user acknowledges that Gaussian, Inc. is engaged in the
 business of creating and licensing software in the field of
 computational chemistry and represents and warrants to the
 licensee that it is not a competitor of Gaussian, Inc. and that
 it will not use this program in any manner prohibited above.
 ---------------------------------------------------------------
  

 Cite this work as:
 Gaussian 16, Revision B.01,
 M. J. Frisch, G. W. Trucks, H. B. Schlegel, G. E. Scuseria, 
 M. A. Robb, J. R. Cheeseman, G. Scalmani, V. Barone, 
 G. A. Petersson, H. Nakatsuji, X. Li, M. Caricato, A. V. Marenich, 
 J. Bloino, B. G. Janesko, R. Gomperts, B. Mennucci, H. P. Hratchian, 
 J. V. Ortiz, A. F. Izmaylov, J. L. Sonnenberg, D. Williams-Young, 
 F. Ding, F. Lipparini, F. Egidi, J. Goings, B. Peng, A. Petrone, 
 T. Henderson, D. Ranasinghe, V. G. Zakrzewski, J. Gao, N. Rega, 
 G. Zheng, W. Liang, M. Hada, M. Ehara, K. Toyota, R. Fukuda, 
 J. Hasegawa, M. Ishida, T. Nakajima, Y. Honda, O. Kitao, H. Nakai, 
 T. Vreven, K. Throssell, J. A. Montgomery, Jr., J. E. Peralta, 
 F. Ogliaro, M. J. Bearpark, J. J. Heyd, E. N. Brothers, K. N. Kudin, 
 V. N. Staroverov, T. A. Keith, R. Kobayashi, J. Normand, 
 K. Raghavachari, A. P. Rendell, J. C. Burant, S. S. Iyengar, 
 J. Tomasi, M. Cossi, J. M. Millam, M. Klene, C. Adamo, R. Cammi, 
 J. W. Ochterski, R. L. Martin, K. Morokuma, O. Farkas, 
 J. B. Foresman, and D. J. Fox, Gaussian, Inc., Wallingford CT, 2016.
 
 ******************************************
 Gaussian 16:  ES64L-G16RevB.01 20-Dec-2017
                 4-Aug-2022 
 ******************************************
 %nprocshared=4
 Will use up to    4 processors via shared memory.
 %mem=8000mb
 ----------------------------------------------------------------------
 #T wB97XD/def2svpp opt=tight freq int(grid=ultrafine) scf=(verytight,q
 c)
 ----------------------------------------------------------------------
 --------------
 Comment gs min
 --------------
 Symbolic Z-matrix:
 Charge =  0 Multiplicity = 1
 O                     2.8782    0.21054   1.32027 
 C                     2.34865  -0.09854   0.03436 
 C                     2.87863   0.87951  -1.02769 
 C                     2.33384   0.46978  -2.41131 
 O                     0.90473   0.50222  -2.42419 
 C                     2.44508   2.32279  -0.70081 
 O                     1.03228   2.44958  -0.54635 
 C                     4.40588   0.83299  -1.05488 
 O                     4.88649  -0.44333  -1.43752 
 F                     4.88306   1.67627  -2.00754 
 H                     2.37066  -0.3112    1.96664 
 H                     1.25571  -0.06525   0.10134 
 H                     2.63123  -1.1305   -0.20211 
 H                     2.66011  -0.53598  -2.69951 
 H                     2.68134   1.16051  -3.18837 
 H                     0.5986   -0.41418  -2.55546 
 H                     2.75072   3.01208  -1.49603 
 H                     2.90849   2.67649   0.22671 
 H                     0.62282   1.96677  -1.29541 
 H                     4.86147   1.11605  -0.1007 
 H                     5.75017  -0.25182  -1.83972 
 

 GradGradGradGradGradGradGradGradGradGradGradGradGradGradGradGradGradGrad
 Initialization pass.
                           ----------------------------
                           !    Initial Parameters    !
                           ! (Angstroms and Degrees)  !
 --------------------------                            --------------------------
 ! Name  Definition              Value          Derivative Info.                !
 --------------------------------------------------------------------------------
 ! R1    R(1,2)                  1.4246         estimate D2E/DX2                !
 ! R2    R(1,11)                 0.9734         estimate D2E/DX2                !
 ! R3    R(2,3)                  1.538          estimate D2E/DX2                !
 ! R4    R(2,12)                 1.0955         estimate D2E/DX2                !
 ! R5    R(2,13)                 1.0958         estimate D2E/DX2                !
 ! R6    R(3,4)                  1.5424         estimate D2E/DX2                !
 ! R7    R(3,6)                  1.542          estimate D2E/DX2                !
 ! R8    R(3,8)                  1.5282         estimate D2E/DX2                !
 ! R9    R(4,5)                  1.4295         estimate D2E/DX2                !
 ! R10   R(4,14)                 1.0959         estimate D2E/DX2                !
 ! R11   R(4,15)                 1.0962         estimate D2E/DX2                !
 ! R12   R(5,16)                 0.9751         estimate D2E/DX2                !
 ! R13   R(6,7)                  1.4269         estimate D2E/DX2                !
 ! R14   R(6,17)                 1.0959         estimate D2E/DX2                !
 ! R15   R(6,18)                 1.0955         estimate D2E/DX2                !
 ! R16   R(7,19)                 0.9807         estimate D2E/DX2                !
 ! R17   R(8,9)                  1.4165         estimate D2E/DX2                !
 ! R18   R(8,10)                 1.3588         estimate D2E/DX2                !
 ! R19   R(8,20)                 1.0946         estimate D2E/DX2                !
 ! R20   R(9,21)                 0.9718         estimate D2E/DX2                !
 ! A1    A(2,1,11)             106.8138         estimate D2E/DX2                !
 ! A2    A(1,2,3)              110.9316         estimate D2E/DX2                !
 ! A3    A(1,2,12)             108.003          estimate D2E/DX2                !
 ! A4    A(1,2,13)             107.6533         estimate D2E/DX2                !
 ! A5    A(3,2,12)             111.5113         estimate D2E/DX2                !
 ! A6    A(3,2,13)             111.1622         estimate D2E/DX2                !
 ! A7    A(12,2,13)            107.4032         estimate D2E/DX2                !
 ! A8    A(2,3,4)              109.1964         estimate D2E/DX2                !
 ! A9    A(2,3,6)              110.6058         estimate D2E/DX2                !
 ! A10   A(2,3,8)              109.7129         estimate D2E/DX2                !
 ! A11   A(4,3,6)              109.845          estimate D2E/DX2                !
 ! A12   A(4,3,8)              109.2043         estimate D2E/DX2                !
 ! A13   A(6,3,8)              108.2548         estimate D2E/DX2                !
 ! A14   A(3,4,5)              110.8028         estimate D2E/DX2                !
 ! A15   A(3,4,14)             111.9952         estimate D2E/DX2                !
 ! A16   A(3,4,15)             110.8871         estimate D2E/DX2                !
 ! A17   A(5,4,14)             108.4259         estimate D2E/DX2                !
 ! A18   A(5,4,15)             107.2307         estimate D2E/DX2                !
 ! A19   A(14,4,15)            107.3061         estimate D2E/DX2                !
 ! A20   A(4,5,16)             107.0828         estimate D2E/DX2                !
 ! A21   A(3,6,7)              112.6126         estimate D2E/DX2                !
 ! A22   A(3,6,17)             110.8837         estimate D2E/DX2                !
 ! A23   A(3,6,18)             111.2679         estimate D2E/DX2                !
 ! A24   A(7,6,17)             107.3865         estimate D2E/DX2                !
 ! A25   A(7,6,18)             107.3674         estimate D2E/DX2                !
 ! A26   A(17,6,18)            107.0571         estimate D2E/DX2                !
 ! A27   A(6,7,19)             106.6762         estimate D2E/DX2                !
 ! A28   A(3,8,9)              111.7974         estimate D2E/DX2                !
 ! A29   A(3,8,10)             110.1535         estimate D2E/DX2                !
 ! A30   A(3,8,20)             113.1149         estimate D2E/DX2                !
 ! A31   A(9,8,10)             104.516          estimate D2E/DX2                !
 ! A32   A(9,8,20)             109.1032         estimate D2E/DX2                !
 ! A33   A(10,8,20)            107.7285         estimate D2E/DX2                !
 ! A34   A(8,9,21)             103.6379         estimate D2E/DX2                !
 ! D1    D(11,1,2,3)           168.3578         estimate D2E/DX2                !
 ! D2    D(11,1,2,12)           45.871          estimate D2E/DX2                !
 ! D3    D(11,1,2,13)          -69.816          estimate D2E/DX2                !
 ! D4    D(1,2,3,4)            177.3922         estimate D2E/DX2                !
 ! D5    D(1,2,3,6)            -61.6143         estimate D2E/DX2                !
 ! D6    D(1,2,3,8)             57.7398         estimate D2E/DX2                !
 ! D7    D(12,2,3,4)           -62.1812         estimate D2E/DX2                !
 ! D8    D(12,2,3,6)            58.8123         estimate D2E/DX2                !
 ! D9    D(12,2,3,8)           178.1664         estimate D2E/DX2                !
 ! D10   D(13,2,3,4)            57.6412         estimate D2E/DX2                !
 ! D11   D(13,2,3,6)           178.6347         estimate D2E/DX2                !
 ! D12   D(13,2,3,8)           -62.0112         estimate D2E/DX2                !
 ! D13   D(2,3,4,5)             60.06           estimate D2E/DX2                !
 ! D14   D(2,3,4,14)           -61.1464         estimate D2E/DX2                !
 ! D15   D(2,3,4,15)           179.0165         estimate D2E/DX2                !
 ! D16   D(6,3,4,5)            -61.3959         estimate D2E/DX2                !
 ! D17   D(6,3,4,14)           177.3977         estimate D2E/DX2                !
 ! D18   D(6,3,4,15)            57.5606         estimate D2E/DX2                !
 ! D19   D(8,3,4,5)           -179.974          estimate D2E/DX2                !
 ! D20   D(8,3,4,14)            58.8196         estimate D2E/DX2                !
 ! D21   D(8,3,4,15)           -61.0175         estimate D2E/DX2                !
 ! D22   D(2,3,6,7)            -55.0687         estimate D2E/DX2                !
 ! D23   D(2,3,6,17)          -175.4252         estimate D2E/DX2                !
 ! D24   D(2,3,6,18)            65.5361         estimate D2E/DX2                !
 ! D25   D(4,3,6,7)             65.5391         estimate D2E/DX2                !
 ! D26   D(4,3,6,17)           -54.8174         estimate D2E/DX2                !
 ! D27   D(4,3,6,18)          -173.8561         estimate D2E/DX2                !
 ! D28   D(8,3,6,7)           -175.2989         estimate D2E/DX2                !
 ! D29   D(8,3,6,17)            64.3446         estimate D2E/DX2                !
 ! D30   D(8,3,6,18)           -54.6942         estimate D2E/DX2                !
 ! D31   D(2,3,8,9)             63.1494         estimate D2E/DX2                !
 ! D32   D(2,3,8,10)           178.8921         estimate D2E/DX2                !
 ! D33   D(2,3,8,20)           -60.4883         estimate D2E/DX2                !
 ! D34   D(4,3,8,9)            -56.4982         estimate D2E/DX2                !
 ! D35   D(4,3,8,10)            59.2445         estimate D2E/DX2                !
 ! D36   D(4,3,8,20)           179.8641         estimate D2E/DX2                !
 ! D37   D(6,3,8,9)           -176.064          estimate D2E/DX2                !
 ! D38   D(6,3,8,10)           -60.3214         estimate D2E/DX2                !
 ! D39   D(6,3,8,20)            60.2983         estimate D2E/DX2                !
 ! D40   D(3,4,5,16)          -114.9543         estimate D2E/DX2                !
 ! D41   D(14,4,5,16)            8.3352         estimate D2E/DX2                !
 ! D42   D(15,4,5,16)          123.905          estimate D2E/DX2                !
 ! D43   D(3,6,7,19)           -45.8797         estimate D2E/DX2                !
 ! D44   D(17,6,7,19)           76.4688         estimate D2E/DX2                !
 ! D45   D(18,6,7,19)         -168.6978         estimate D2E/DX2                !
 ! D46   D(3,8,9,21)           152.7258         estimate D2E/DX2                !
 ! D47   D(10,8,9,21)           33.5922         estimate D2E/DX2                !
 ! D48   D(20,8,9,21)          -81.4037         estimate D2E/DX2                !
 --------------------------------------------------------------------------------
 Number of steps in this run=    112 maximum allowed number of steps=    126.
 GradGradGradGradGradGradGradGradGradGradGradGradGradGradGradGradGradGrad

                    Distance matrix (angstroms):
                    1          2          3          4          5
     1  O    0.000000
     2  C    1.424612   0.000000
     3  C    2.441401   1.537989   0.000000
     4  C    3.779977   2.510878   1.542426   0.000000
     5  O    4.242716   2.913809   2.447211   1.429536   0.000000
     6  C    2.955327   2.532314   1.542035   2.524249   2.942311
     7  O    3.450361   2.926255   2.470995   3.015252   2.708277
     8  C    2.891814   2.507267   1.528200   2.503033   3.773920
     9  O    3.473641   2.953971   2.439133   2.880635   4.209750
    10  F    4.152366   3.707093   2.369108   2.849065   4.168825
    11  H    0.973449   1.944072   3.262183   4.447216   4.699999
    12  H    2.048005   1.095496   2.191153   2.786042   2.612185
    13  H    2.043777   1.095770   2.186991   2.744067   3.253339
    14  H    4.094324   2.786110   2.201442   1.095931   2.057916
    15  H    4.611836   3.475900   2.187789   1.096215   2.042954
    16  H    4.539618   3.141571   3.034181   1.952747   0.975057
    17  H    3.974471   3.489944   2.187135   2.734011   3.250932
    18  H    2.697721   2.837466   2.191700   3.486967   3.971118
    19  H    3.874644   3.002046   2.518429   2.532548   1.870434
    20  H    2.602396   2.794232   2.201571   3.485039   4.629383
    21  H    4.295058   3.886645   3.191401   3.538182   4.938468
                    6          7          8          9         10
     6  C    0.000000
     7  O    1.426863   0.000000
     8  C    2.487892   3.775333   0.000000
     9  O    3.762266   4.900821   1.416472   0.000000
    10  F    2.840647   4.190655   1.358817   2.194912   0.000000
    11  H    3.749497   3.965890   3.818491   4.234993   5.104537
    12  H    2.785818   2.606491   3.473795   3.961515   4.542899
    13  H    3.494076   3.936002   2.780628   2.661698   4.025950
    14  H    3.494797   4.024860   2.761630   2.560854   3.211601
    15  H    2.755843   3.370663   2.762804   3.240442   2.551066
    16  H    3.786848   3.525014   4.278148   4.431325   4.798624
    17  H    1.095861   2.042384   2.771751   4.062609   2.567665
    18  H    1.095512   2.041880   2.698730   4.051595   3.145034
    19  H    1.949598   0.980741   3.956622   4.899761   4.329107
    20  H    2.766820   4.079167   1.094598   2.054113   1.987549
    21  H    4.341584   5.588278   1.897341   0.971794   2.120749
                   11         12         13         14         15
    11  H    0.000000
    12  H    2.186995   0.000000
    13  H    2.332944   1.766039   0.000000
    14  H    4.680520   3.168389   2.567352   0.000000
    15  H    5.369970   3.789076   3.764171   1.765648   0.000000
    16  H    4.858003   2.759009   3.191074   2.070123   2.686639
    17  H    4.814428   3.775792   4.341598   3.747707   2.509410
    18  H    3.498987   3.203832   3.841085   4.352519   3.743336
    19  H    4.345695   2.545696   3.849948   3.519347   2.910474
    20  H    3.537665   3.799710   3.167213   3.785367   3.780033
    21  H    5.090480   4.899254   3.630652   3.220009   3.637479
                   16         17         18         19         20
    16  H    0.000000
    17  H    4.182496   0.000000
    18  H    4.756922   1.762199   0.000000
    19  H    2.693926   2.379260   2.836343   0.000000
    20  H    5.151651   3.161826   2.521171   4.485221   0.000000
    21  H    5.203587   4.446107   4.573869   5.613211   2.384334
                   21
    21  H    0.000000
 Framework group  C1[X(C5H11FO4)]
 Deg. of freedom    57
                         Standard orientation:                         
 ---------------------------------------------------------------------
 Center     Atomic      Atomic             Coordinates (Angstroms)
 Number     Number       Type             X           Y           Z
 ---------------------------------------------------------------------
      1          8           0        0.113837    2.433948   -0.169533
      2          6           0        0.414401    1.214467   -0.841877
      3          6           0        0.018046    0.001545    0.016688
      4          6           0        0.299164   -1.292837   -0.773645
      5          8           0        1.685944   -1.393965   -1.105590
      6          6           0        0.811248   -0.009785    1.339025
      7          8           0        2.222451    0.033319    1.132664
      8          6           0       -1.471159    0.072168    0.352361
      9          8           0       -2.276580   -0.003553   -0.810376
     10          9           0       -1.836415   -1.008519    1.090660
     11          1           0        0.551041    3.146006   -0.668961
     12          1           0        1.485228    1.210293   -1.073016
     13          1           0       -0.126561    1.218320   -1.794797
     14          1           0       -0.283411   -1.342503   -1.700578
     15          1           0        0.042219   -2.177322   -0.179211
     16          1           0        1.752163   -1.345584   -2.077192
     17          1           0        0.592448   -0.914076    1.918072
     18          1           0        0.546506    0.846800    1.968565
     19          1           0        2.423932   -0.618737    0.428333
     20          1           0       -1.742082    0.969268    0.918008
     21          1           0       -3.109167   -0.387129   -0.487805
 ---------------------------------------------------------------------
 Rotational constants (GHZ):           1.4837063           1.0823170           0.9340153
   162 basis functions,   294 primitive gaussians,   172 cartesian basis functions
    41 alpha electrons       41 beta electrons
       nuclear repulsion energy       635.3564109790 Hartrees.
 NAtoms=   21 NActive=   21 NUniq=   21 SFac= 1.00D+00 NAtFMM=   60 NAOKFM=F Big=F
 Nuclear repulsion after empirical dispersion term =      635.3418095865 Hartrees.
   1 Symmetry operations used in ECPInt.
 ECPInt:  NShTT=    3403 NPrTT=   13693 LenC2=    3351 LenP2D=   10456.
 LDataN:  DoStor=T MaxTD1= 4 Len=   56
 ExpMin= 1.22D-01 ExpMax= 2.89D+03 ExpMxC= 4.35D+02 IAcc=3 IRadAn=         5 AccDes= 0.00D+00
 Harris functional with IExCor= 4639 and IRadAn=       5 diagonalized for initial guess.
 HarFok:  IExCor= 4639 AccDes= 0.00D+00 IRadAn=         5 IDoV= 1 UseB2=F ITyADJ=14
 ICtDFT=  3500011 ScaDFX=  1.000000  1.000000  1.000000  1.000000
 FoFCou: FMM=F IPFlag=           0 FMFlag=      100000 FMFlg1=           0
         NFxFlg=           0 DoJE=T BraDBF=F KetDBF=T FulRan=T
         wScrn=  0.000000 ICntrl=       500 IOpCl=  0 I1Cent=   200000004 NGrid=           0
         NMat0=    1 NMatS0=      1 NMatT0=    0 NMatD0=    1 NMtDS0=    0 NMtDT0=    0
 Petite list used in FoFCou.
     Minimum is close to point  3 DX=  5.33D-02 DF= -1.27D-03 DXR=  9.63D-02 DFR=  9.18D-03 which will be used.
     Accept linear search using points  1 and  2.
     Accept linear search using points  2 and  3.
     Minimum is close to point  2 DX=  4.40D-04 DF= -3.98D-12 DXR=  4.39D-04 DFR=  1.93D-07 which will be used.
 SCF Done:  E(RwB97XD) =  -597.193055943     a.u. after    7 cycles
            Convg  =    0.5437D-09                    36 Fock formations.
              S**2 =  0.0000                  -V/T =  2.0076

 **********************************************************************

            Population analysis using the SCF Density.

 **********************************************************************

 Orbital symmetries:
       Occupied  (A) (A) (A) (A) (A) (A) (A) (A) (A) (A) (A) (A)
                 (A) (A) (A) (A) (A) (A) (A) (A) (A) (A) (A) (A)
                 (A) (A) (A) (A) (A) (A) (A) (A) (A) (A) (A) (A)
                 (A) (A) (A) (A) (A)
       Virtual   (A) (A) (A) (A) (A) (A) (A) (A) (A) (A) (A) (A)
                 (A) (A) (A) (A) (A) (A) (A) (A) (A) (A) (A) (A)
                 (A) (A) (A) (A) (A) (A) (A) (A) (A) (A) (A) (A)
                 (A) (A) (A) (A) (A) (A) (A) (A) (A) (A) (A) (A)
                 (A) (A) (A) (A) (A) (A) (A) (A) (A) (A) (A) (A)
                 (A) (A) (A) (A) (A) (A) (A) (A) (A) (A) (A) (A)
                 (A) (A) (A) (A) (A) (A) (A) (A) (A) (A) (A) (A)
                 (A) (A) (A) (A) (A) (A) (A) (A) (A) (A) (A) (A)
                 (A) (A) (A) (A) (A) (A) (A) (A) (A) (A) (A) (A)
                 (A) (A) (A) (A) (A) (A) (A) (A) (A) (A) (A) (A)
                 (A)
 The electronic state is 1-A.
 Alpha  occ. eigenvalues --  -24.81662 -19.27710 -19.26897 -19.25109 -19.22220
 Alpha  occ. eigenvalues --  -10.42286 -10.35092 -10.33988 -10.32684 -10.31773
 Alpha  occ. eigenvalues --   -1.31442  -1.13473  -1.12415  -1.10886  -1.07991
 Alpha  occ. eigenvalues --   -0.90940  -0.78009  -0.76980  -0.75483  -0.66175
 Alpha  occ. eigenvalues --   -0.64828  -0.63240  -0.61642  -0.60390  -0.58902
 Alpha  occ. eigenvalues --   -0.55722  -0.54418  -0.52935  -0.52210  -0.49834
 Alpha  occ. eigenvalues --   -0.48605  -0.47181  -0.46687  -0.45442  -0.44330
 Alpha  occ. eigenvalues --   -0.42020  -0.39211  -0.37804  -0.36765  -0.35267
 Alpha  occ. eigenvalues --   -0.33451
 Alpha virt. eigenvalues --    0.10874   0.12936   0.14637   0.17706   0.18704
 Alpha virt. eigenvalues --    0.19760   0.20606   0.21823   0.22574   0.23290
 Alpha virt. eigenvalues --    0.23996   0.24324   0.28078   0.28796   0.29477
 Alpha virt. eigenvalues --    0.32069   0.33680   0.34698   0.35768   0.39598
 Alpha virt. eigenvalues --    0.51474   0.53641   0.56452   0.57180   0.57782
 Alpha virt. eigenvalues --    0.60932   0.63239   0.63793   0.64685   0.67197
 Alpha virt. eigenvalues --    0.68918   0.70121   0.71357   0.71677   0.73990
 Alpha virt. eigenvalues --    0.75367   0.76680   0.77002   0.77964   0.80082
 Alpha virt. eigenvalues --    0.80445   0.82204   0.82579   0.83597   0.86357
 Alpha virt. eigenvalues --    0.87303   0.97753   0.99587   1.06484   1.07674
 Alpha virt. eigenvalues --    1.10958   1.11735   1.14121   1.15173   1.17408
 Alpha virt. eigenvalues --    1.19776   1.23195   1.23482   1.26063   1.26634
 Alpha virt. eigenvalues --    1.29148   1.34767   1.37726   1.42413   1.46684
 Alpha virt. eigenvalues --    1.49122   1.53826   1.56927   1.62537   1.65481
 Alpha virt. eigenvalues --    1.70428   1.71950   1.76074   1.79128   1.81730
 Alpha virt. eigenvalues --    1.87126   1.87673   1.89674   1.99274   2.00437
 Alpha virt. eigenvalues --    2.04071   2.05373   2.07637   2.08803   2.13170
 Alpha virt. eigenvalues --    2.14296   2.18676   2.21926   2.25643   2.28485
 Alpha virt. eigenvalues --    2.31302   2.47576   2.55514   2.63643   2.68113
 Alpha virt. eigenvalues --    2.68411   2.70630   2.72803   2.74092   2.77691
 Alpha virt. eigenvalues --    2.88742   2.89808   2.94823   2.97144   2.97900
 Alpha virt. eigenvalues --    2.98209   3.03633   3.05438   3.06287   3.08132
 Alpha virt. eigenvalues --    3.12996   3.14879   3.18997   3.21333   3.41063
 Alpha virt. eigenvalues --    3.42803   3.44278   3.46579   3.49434   3.52621
 Alpha virt. eigenvalues --    3.90493
          Condensed to atoms (all electrons):
 Mulliken charges:
               1
     1  O   -0.501256
     2  C    0.063805
     3  C   -0.350403
     4  C    0.022834
     5  O   -0.511247
     6  C    0.094626
     7  O   -0.522252
     8  C    0.350895
     9  O   -0.474473
    10  F   -0.254194
    11  H    0.322802
    12  H    0.099129
    13  H    0.097901
    14  H    0.120775
    15  H    0.123415
    16  H    0.336702
    17  H    0.099250
    18  H    0.116647
    19  H    0.330558
    20  H    0.109587
    21  H    0.324898
 Sum of Mulliken charges =   0.00000
 Mulliken charges with hydrogens summed into heavy atoms:
               1
     1  O   -0.178454
     2  C    0.260835
     3  C   -0.350403
     4  C    0.267025
     5  O   -0.174545
     6  C    0.310523
     7  O   -0.191694
     8  C    0.460482
     9  O   -0.149575
    10  F   -0.254194
 Electronic spatial extent (au):  <R**2>=           1446.4667
 Charge=              0.0000 electrons
 Dipole moment (field-independent basis, Debye):
    X=             -1.3932    Y=             -0.2748    Z=             -3.3092  Tot=              3.6011
   1 Symmetry operations used in ECPInt.
 ECPInt:  NShTT=    3403 NPrTT=   13693 LenC2=    3351 LenP2D=   10456.
 LDataN:  DoStor=T MaxTD1= 5 Len=  102
 Calling FoFJK, ICntrl=      2127 FMM=F ISym2X=0 I1Cent= 0 IOpClX= 0 NMat=1 NMatS=1 NMatT=0.

 GradGradGradGradGradGradGradGradGradGradGradGradGradGradGradGradGradGrad
 FormGI is forming the generalized inverse of G from B-inverse, IUseBI=4.
 Internal  Forces:  Max     0.017848540 RMS     0.005468134
 Step number   1 out of a maximum of  112
 All quantities printed in internal units (Hartrees-Bohrs-Radians)
 Mixed Optimization -- RFO/linear search
 Second derivative matrix not updated -- first step.
 ITU=  0
     Eigenvalues ---    0.00230   0.00230   0.00263   0.00393   0.01301
     Eigenvalues ---    0.01336   0.01366   0.01474   0.04584   0.04672
     Eigenvalues ---    0.04806   0.04845   0.04878   0.04933   0.05239
     Eigenvalues ---    0.05498   0.05509   0.05525   0.06819   0.11637
     Eigenvalues ---    0.11659   0.11818   0.12671   0.13857   0.13871
     Eigenvalues ---    0.13988   0.14265   0.14544   0.16000   0.16000
     Eigenvalues ---    0.16000   0.16000   0.19492   0.21976   0.21984
     Eigenvalues ---    0.22001   0.23154   0.28305   0.28339   0.28698
     Eigenvalues ---    0.29590   0.34104   0.34136   0.34144   0.34154
     Eigenvalues ---    0.34183   0.34185   0.34287   0.41056   0.41443
     Eigenvalues ---    0.41773   0.42996   0.51241   0.52357   0.52678
     Eigenvalues ---    0.53012   0.53187
 Linear search not attempted -- first point.
 Iteration  1 RMS(Cart)=  0.07907297 RMS(Int)=  0.00290866
 Iteration  2 RMS(Cart)=  0.00328576 RMS(Int)=  0.00077490
 Iteration  3 RMS(Cart)=  0.00000519 RMS(Int)=  0.00077489
 Iteration  4 RMS(Cart)=  0.00000000 RMS(Int)=  0.00077489
 Variable       Old X    -DE/DX   Delta X   Delta X   Delta X     New X
                                 (Linear)    (Quad)   (Total)
    R1        2.69213  -0.00517   0.00000  -0.01192  -0.01192   2.68020
    R2        1.83955  -0.00872   0.00000  -0.01608  -0.01608   1.82347
    R3        2.90638  -0.01073   0.00000  -0.03548  -0.03548   2.87090
    R4        2.07019   0.00546   0.00000   0.01528   0.01528   2.08547
    R5        2.07070   0.00874   0.00000   0.02448   0.02448   2.09518
    R6        2.91476  -0.00197   0.00000  -0.00661  -0.00661   2.90815
    R7        2.91402   0.00006   0.00000   0.00021   0.00021   2.91424
    R8        2.88788  -0.00275   0.00000  -0.00885  -0.00885   2.87903
    R9        2.70143   0.00041   0.00000   0.00096   0.00096   2.70239
   R10        2.07101   0.00422   0.00000   0.01182   0.01182   2.08283
   R11        2.07155   0.00418   0.00000   0.01173   0.01173   2.08328
   R12        1.84259  -0.01124   0.00000  -0.02084  -0.02084   1.82175
   R13        2.69638  -0.01316   0.00000  -0.03062  -0.03062   2.66576
   R14        2.07088   0.00785   0.00000   0.02200   0.02200   2.09288
   R15        2.07022   0.00390   0.00000   0.01092   0.01092   2.08114
   R16        1.85333  -0.00848   0.00000  -0.01606  -0.01606   1.83727
   R17        2.67674  -0.01162   0.00000  -0.02610  -0.02610   2.65065
   R18        2.56779   0.01785   0.00000   0.03261   0.03261   2.60040
   R19        2.06849   0.00620   0.00000   0.01730   0.01730   2.08580
   R20        1.83642  -0.00341   0.00000  -0.00624  -0.00624   1.83018
    A1        1.86425   0.00477   0.00000   0.02719   0.02719   1.89144
    A2        1.93612  -0.01250   0.00000  -0.05393  -0.05393   1.88219
    A3        1.88501   0.01042   0.00000   0.06392   0.06158   1.94658
    A4        1.87890   0.00922   0.00000   0.06049   0.05879   1.93770
    A5        1.94624  -0.00572   0.00000  -0.05415  -0.05406   1.89218
    A6        1.94015  -0.00327   0.00000  -0.03552  -0.03527   1.90487
    A7        1.87454   0.00320   0.00000   0.02819   0.02484   1.89938
    A8        1.90584   0.00195   0.00000   0.01363   0.01354   1.91938
    A9        1.93044  -0.00249   0.00000  -0.01590  -0.01610   1.91433
   A10        1.91485  -0.00087   0.00000  -0.01895  -0.01893   1.89592
   A11        1.91716   0.00198   0.00000   0.02602   0.02609   1.94325
   A12        1.90597  -0.00232   0.00000  -0.01430  -0.01438   1.89159
   A13        1.88940   0.00172   0.00000   0.00925   0.00911   1.89851
   A14        1.93387   0.00382   0.00000   0.02061   0.02085   1.95472
   A15        1.95468  -0.00653   0.00000  -0.04172  -0.04250   1.91219
   A16        1.93535  -0.00360   0.00000  -0.03249  -0.03305   1.90230
   A17        1.89239   0.00424   0.00000   0.04724   0.04756   1.93995
   A18        1.87153   0.00007   0.00000   0.00638   0.00658   1.87811
   A19        1.87284   0.00237   0.00000   0.00294   0.00132   1.87417
   A20        1.86895   0.01155   0.00000   0.06581   0.06581   1.93476
   A21        1.96546   0.00199   0.00000   0.00994   0.00951   1.97497
   A22        1.93529  -0.00658   0.00000  -0.03045  -0.03143   1.90386
   A23        1.94199  -0.00218   0.00000  -0.03324  -0.03394   1.90805
   A24        1.87425   0.00736   0.00000   0.07798   0.07815   1.95240
   A25        1.87391  -0.00281   0.00000  -0.03296  -0.03321   1.84070
   A26        1.86850   0.00268   0.00000   0.01247   0.01190   1.88040
   A27        1.86185   0.00235   0.00000   0.01339   0.01339   1.87524
   A28        1.95123  -0.01312   0.00000  -0.04373  -0.04409   1.90715
   A29        1.92254  -0.00203   0.00000  -0.00139  -0.00099   1.92155
   A30        1.97423  -0.00271   0.00000  -0.04677  -0.04745   1.92677
   A31        1.82415   0.01376   0.00000   0.08845   0.08835   1.91250
   A32        1.90421   0.00692   0.00000   0.02663   0.02438   1.92858
   A33        1.88022  -0.00114   0.00000  -0.01152  -0.01318   1.86704
   A34        1.80882   0.00970   0.00000   0.05530   0.05530   1.86412
    D1        2.93840  -0.00092   0.00000  -0.01155  -0.01173   2.92667
    D2        0.80060   0.00716   0.00000   0.04739   0.05037   0.85097
    D3       -1.21852  -0.00662   0.00000  -0.04918  -0.05199  -1.27051
    D4        3.09608  -0.00155   0.00000  -0.02629  -0.02652   3.06956
    D5       -1.07537   0.00059   0.00000   0.00479   0.00443  -1.07094
    D6        1.00775   0.00062   0.00000  -0.00567  -0.00571   1.00204
    D7       -1.08527  -0.00071   0.00000  -0.01848  -0.01829  -1.10356
    D8        1.02647   0.00143   0.00000   0.01259   0.01265   1.03912
    D9        3.10959   0.00146   0.00000   0.00214   0.00251   3.11210
   D10        1.00603  -0.00271   0.00000  -0.04316  -0.04317   0.96286
   D11        3.11776  -0.00056   0.00000  -0.01209  -0.01223   3.10554
   D12       -1.08230  -0.00054   0.00000  -0.02254  -0.02237  -1.10467
   D13        1.04824   0.00181   0.00000   0.05029   0.05035   1.09860
   D14       -1.06721  -0.00180   0.00000   0.00409   0.00481  -1.06239
   D15        3.12443   0.00203   0.00000   0.05061   0.05029  -3.10847
   D16       -1.07156   0.00240   0.00000   0.04489   0.04461  -1.02695
   D17        3.09617  -0.00121   0.00000  -0.00131  -0.00093   3.09524
   D18        1.00462   0.00263   0.00000   0.04522   0.04454   1.04916
   D19       -3.14114   0.00053   0.00000   0.02679   0.02674  -3.11440
   D20        1.02660  -0.00309   0.00000  -0.01941  -0.01880   1.00780
   D21       -1.06496   0.00075   0.00000   0.02711   0.02667  -1.03828
   D22       -0.96113   0.00289   0.00000   0.07457   0.07440  -0.88673
   D23       -3.06175  -0.00328   0.00000  -0.01074  -0.01030  -3.07205
   D24        1.14382  -0.00090   0.00000   0.01529   0.01520   1.15902
   D25        1.14387   0.00500   0.00000   0.09827   0.09787   1.24174
   D26       -0.95674  -0.00116   0.00000   0.01296   0.01317  -0.94357
   D27       -3.03436   0.00122   0.00000   0.03899   0.03867  -2.99569
   D28       -3.05954   0.00437   0.00000   0.10155   0.10143  -2.95811
   D29        1.12303  -0.00179   0.00000   0.01623   0.01673   1.13976
   D30       -0.95459   0.00058   0.00000   0.04227   0.04223  -0.91236
   D31        1.10217  -0.00254   0.00000  -0.02572  -0.02498   1.07719
   D32        3.12226   0.00529   0.00000   0.05622   0.05618  -3.10475
   D33       -1.05572   0.00054   0.00000   0.00869   0.00845  -1.04727
   D34       -0.98608  -0.00299   0.00000  -0.02219  -0.02172  -1.00780
   D35        1.03401   0.00485   0.00000   0.05975   0.05944   1.09345
   D36        3.13922   0.00010   0.00000   0.01223   0.01171  -3.13226
   D37       -3.07290  -0.00504   0.00000  -0.05074  -0.05019  -3.12309
   D38       -1.05281   0.00279   0.00000   0.03119   0.03097  -1.02184
   D39        1.05240  -0.00196   0.00000  -0.01633  -0.01676   1.03564
   D40       -2.00633   0.00115   0.00000   0.02608   0.02574  -1.98060
   D41        0.14548  -0.00169   0.00000   0.01906   0.01928   0.16476
   D42        2.16255   0.00325   0.00000   0.04958   0.04970   2.21225
   D43       -0.80075   0.00011   0.00000  -0.00546  -0.00605  -0.80680
   D44        1.33463  -0.00180   0.00000   0.01653   0.01746   1.35209
   D45       -2.94433   0.00354   0.00000   0.05298   0.05264  -2.89169
   D46        2.66557   0.00407   0.00000   0.09322   0.09325   2.75882
   D47        0.58629   0.00502   0.00000   0.06434   0.06574   0.65203
   D48       -1.42076  -0.00368   0.00000   0.02119   0.01976  -1.40100
         Item               Value     Threshold  Converged?
 Maximum Force            0.017849     0.000015     NO 
 RMS     Force            0.005468     0.000010     NO 
 Maximum Displacement     0.324566     0.000060     NO 
 RMS     Displacement     0.079588     0.000040     NO 
 GradGradGradGradGradGradGradGradGradGradGradGradGradGradGradGradGradGrad

                    Distance matrix (angstroms):
                    1          2          3          4          5
     1  O    0.000000
     2  C    1.418302   0.000000
     3  C    2.374859   1.519216   0.000000
     4  C    3.735981   2.504682   1.538927   0.000000
     5  O    4.276837   2.966605   2.462106   1.430045   0.000000
     6  C    2.858085   2.502895   1.542149   2.544363   2.966085
     7  O    3.306510   2.861528   2.465608   3.097511   2.830699
     8  C    2.786240   2.471396   1.523519   2.483547   3.769480
     9  O    3.334578   2.851115   2.387292   2.816245   4.152853
    10  F    4.038501   3.690435   2.378113   2.868291   4.174588
    11  H    0.964941   1.950740   3.210079   4.438528   4.784682
    12  H    2.092454   1.103585   2.141287   2.748217   2.633512
    13  H    2.090225   1.108722   2.154506   2.694229   3.269357
    14  H    4.020788   2.750134   2.172295   1.102184   2.096970
    15  H    4.530493   3.455519   2.165169   1.102422   2.052841
    16  H    4.594427   3.204724   3.064762   1.988941   0.964027
    17  H    3.875090   3.459114   2.172915   2.731601   3.235318
    18  H    2.563661   2.790026   2.171411   3.488042   4.006109
    19  H    3.732232   2.923613   2.525981   2.657903   2.019420
    20  H    2.430979   2.717044   2.170594   3.457360   4.612984
    21  H    4.138152   3.793413   3.190302   3.530268   4.928738
                    6          7          8          9         10
     6  C    0.000000
     7  O    1.410659   0.000000
     8  C    2.492359   3.759764   0.000000
     9  O    3.730323   4.841273   1.402662   0.000000
    10  F    2.836631   4.200956   1.376072   2.270375   0.000000
    11  H    3.646320   3.808964   3.714653   4.097102   4.994275
    12  H    2.713319   2.493202   3.427276   3.855600   4.504187
    13  H    3.466390   3.887159   2.726955   2.519703   4.000377
    14  H    3.495564   4.087468   2.696344   2.438313   3.214781
    15  H    2.775596   3.494681   2.702237   3.162134   2.515773
    16  H    3.795317   3.581803   4.310352   4.423431   4.854065
    17  H    1.107503   2.092881   2.765637   4.038628   2.540337
    18  H    1.101291   2.007805   2.659243   3.977678   3.085251
    19  H    1.938422   0.972243   3.974835   4.874007   4.401565
    20  H    2.728267   3.986398   1.103755   2.066423   1.999662
    21  H    4.383632   5.603843   1.921199   0.968492   2.285939
                   11         12         13         14         15
    11  H    0.000000
    12  H    2.275743   0.000000
    13  H    2.417456   1.799130   0.000000
    14  H    4.651020   3.131343   2.472502   0.000000
    15  H    5.325649   3.751014   3.700005   1.776549   0.000000
    16  H    4.967612   2.775164   3.239479   2.180389   2.736191
    17  H    4.714205   3.703196   4.300271   3.736823   2.502287
    18  H    3.342309   3.146504   3.797846   4.316212   3.733896
    19  H    4.194191   2.374835   3.788065   3.634790   3.110970
    20  H    3.347394   3.717288   3.101900   3.716132   3.722256
    21  H    4.916375   4.809200   3.471221   3.129395   3.630261
                   16         17         18         19         20
    16  H    0.000000
    17  H    4.164760   0.000000
    18  H    4.774506   1.783993   0.000000
    19  H    2.745573   2.444257   2.806742   0.000000
    20  H    5.164077   3.135867   2.426348   4.426287   0.000000
    21  H    5.229711   4.515597   4.559193   5.672179   2.426148
                   21
    21  H    0.000000
 Framework group  C1[X(C5H11FO4)]
 Deg. of freedom    57
                         Standard orientation:                         
 ---------------------------------------------------------------------
 Center     Atomic      Atomic             Coordinates (Angstroms)
 Number     Number       Type             X           Y           Z
 ---------------------------------------------------------------------
      1          8           0        0.037191    2.331771   -0.364481
      2          6           0        0.382894    1.096039   -0.968664
      3          6           0        0.026087   -0.014127    0.005112
      4          6           0        0.285974   -1.385495   -0.643041
      5          8           0        1.668475   -1.577502   -0.954254
      6          6           0        0.837683    0.154834    1.305493
      7          8           0        2.221182    0.312309    1.079459
      8          6           0       -1.457532    0.087266    0.336330
      9          8           0       -2.206764   -0.089285   -0.836250
     10          9           0       -1.804010   -0.877316    1.254539
     11          1           0        0.432452    3.044201   -0.881513
     12          1           0        1.464036    1.038133   -1.182391
     13          1           0       -0.177202    0.944808   -1.913484
     14          1           0       -0.342776   -1.493978   -1.541770
     15          1           0       -0.010000   -2.178205    0.063602
     16          1           0        1.803007   -1.618972   -1.907947
     17          1           0        0.624253   -0.698102    1.978924
     18          1           0        0.517228    1.075396    1.818051
     19          1           0        2.490257   -0.364825    0.435763
     20          1           0       -1.683167    1.065222    0.795640
     21          1           0       -3.093316   -0.367278   -0.562897
 ---------------------------------------------------------------------
 Rotational constants (GHZ):           1.4881019           1.0994841           0.9535917
   162 basis functions,   294 primitive gaussians,   172 cartesian basis functions
    41 alpha electrons       41 beta electrons
       nuclear repulsion energy       638.1285735333 Hartrees.
 NAtoms=   21 NActive=   21 NUniq=   21 SFac= 1.00D+00 NAtFMM=   60 NAOKFM=F Big=F
 Nuclear repulsion after empirical dispersion term =      638.1138168109 Hartrees.
   1 Symmetry operations used in ECPInt.
 ECPInt:  NShTT=    3403 NPrTT=   13693 LenC2=    3354 LenP2D=   10467.
 LDataN:  DoStor=T MaxTD1= 4 Len=   56
 Initial guess from the checkpoint file:  "/scratch/user/peterchao1/peterchao1/6097788_1659647563000000666743758/Gau-209693.chk"
 B after Tr=    -0.000000    0.000000    0.000000
         Rot=    0.998264    0.058376   -0.003702   -0.006929 Ang=   6.75 deg.
 ExpMin= 1.22D-01 ExpMax= 2.89D+03 ExpMxC= 4.35D+02 IAcc=3 IRadAn=         5 AccDes= 0.00D+00
 Harris functional with IExCor= 4639 and IRadAn=       5 diagonalized for initial guess.
 HarFok:  IExCor= 4639 AccDes= 0.00D+00 IRadAn=         5 IDoV= 1 UseB2=F ITyADJ=14
 ICtDFT=  3500011 ScaDFX=  1.000000  1.000000  1.000000  1.000000
 FoFCou: FMM=F IPFlag=           0 FMFlag=      100000 FMFlg1=           0
         NFxFlg=           0 DoJE=T BraDBF=F KetDBF=T FulRan=T
         wScrn=  0.000000 ICntrl=       500 IOpCl=  0 I1Cent=   200000004 NGrid=           0
         NMat0=    1 NMatS0=      1 NMatT0=    0 NMatD0=    1 NMtDS0=    0 NMtDT0=    0
 Petite list used in FoFCou.
     Accept linear search using points  3 and  4.
     Minimum is close to point  4 DX= -8.97D-02 DF= -1.94D-05 DXR=  8.08D-02 DFR=  1.97D-03 which will be used.
     Minimum is close to point  2 DX=  1.86D-02 DF= -2.97D-07 DXR=  1.82D-02 DFR=  3.33D-04 which will be used.
     Accept linear search using points  1 and  2.
     Minimum is close to point  2 DX= -5.85D-02 DF= -1.63D-06 DXR=  6.96D-02 DFR=  3.98D-03 which will be used.
     Accept linear search using points  1 and  2.
     Minimum is close to point  2 DX= -4.61D-02 DF= -4.84D-07 DXR=  5.40D-02 DFR=  2.38D-03 which will be used.
     Minimum is close to point  2 DX=  6.15D-02 DF= -5.36D-07 DXR=  7.14D-02 DFR=  5.12D-03 which will be used.
     Accept linear search using points  1 and  2.
     Minimum is close to point  2 DX= -2.92D-04 DF= -5.91D-12 DXR=  2.92D-04 DFR=  8.59D-08 which will be used.
 SCF Done:  E(RwB97XD) =  -597.199773809     a.u. after   10 cycles
            Convg  =    0.9766D-09                    38 Fock formations.
              S**2 =  0.0000                  -V/T =  2.0076
   1 Symmetry operations used in ECPInt.
 ECPInt:  NShTT=    3403 NPrTT=   13693 LenC2=    3354 LenP2D=   10467.
 LDataN:  DoStor=T MaxTD1= 5 Len=  102
 Calling FoFJK, ICntrl=      2127 FMM=F ISym2X=0 I1Cent= 0 IOpClX= 0 NMat=1 NMatS=1 NMatT=0.

 GradGradGradGradGradGradGradGradGradGradGradGradGradGradGradGradGradGrad
 Using GEDIIS/GDIIS optimizer.
 FormGI is forming the generalized inverse of G from B-inverse, IUseBI=4.
 Internal  Forces:  Max     0.011144991 RMS     0.002496213
 Step number   2 out of a maximum of  112
 All quantities printed in internal units (Hartrees-Bohrs-Radians)
 Mixed Optimization -- RFO/linear search
 Trust test= 7.59D-01 RLast= 3.76D-01 DXMaxT set to 5.05D-01
 ITU=  1  0
 Use linear search instead of GDIIS.
     Eigenvalues ---    0.00228   0.00244   0.00264   0.00393   0.01293
     Eigenvalues ---    0.01346   0.01366   0.01431   0.04423   0.04744
     Eigenvalues ---    0.04791   0.05033   0.05126   0.05331   0.05756
     Eigenvalues ---    0.05801   0.05895   0.06011   0.07054   0.10991
     Eigenvalues ---    0.11314   0.11611   0.12211   0.13570   0.13851
     Eigenvalues ---    0.14039   0.14344   0.14773   0.15422   0.16000
     Eigenvalues ---    0.16000   0.16354   0.19716   0.21907   0.22054
     Eigenvalues ---    0.22692   0.24775   0.28250   0.28339   0.29281
     Eigenvalues ---    0.31327   0.33451   0.34109   0.34137   0.34161
     Eigenvalues ---    0.34177   0.34184   0.34279   0.40248   0.41437
     Eigenvalues ---    0.42018   0.42858   0.51287   0.52231   0.52675
     Eigenvalues ---    0.53000   0.53023
 Quartic linear search produced a step of -0.11300.
 Iteration  1 RMS(Cart)=  0.07513838 RMS(Int)=  0.00257556
 Iteration  2 RMS(Cart)=  0.00321094 RMS(Int)=  0.00010641
 Iteration  3 RMS(Cart)=  0.00000418 RMS(Int)=  0.00010635
 Iteration  4 RMS(Cart)=  0.00000000 RMS(Int)=  0.00010635
 Variable       Old X    -DE/DX   Delta X   Delta X   Delta X     New X
                                 (Linear)    (Quad)   (Total)
    R1        2.68020  -0.00634   0.00135  -0.01765  -0.01631   2.66390
    R2        1.82347  -0.00016   0.00182  -0.00619  -0.00437   1.81911
    R3        2.87090   0.00772   0.00401   0.01035   0.01435   2.88526
    R4        2.08547   0.00032  -0.00173   0.00645   0.00472   2.09020
    R5        2.09518  -0.00020  -0.00277   0.00850   0.00574   2.10092
    R6        2.90815  -0.00239   0.00075  -0.00979  -0.00905   2.89910
    R7        2.91424   0.00040  -0.00002   0.00131   0.00128   2.91552
    R8        2.87903   0.00528   0.00100   0.01227   0.01327   2.89231
    R9        2.70239  -0.00692  -0.00011  -0.01438  -0.01449   2.68790
   R10        2.08283   0.00018  -0.00134   0.00482   0.00348   2.08631
   R11        2.08328   0.00022  -0.00133   0.00488   0.00355   2.08683
   R12        1.82175  -0.00087   0.00236  -0.00912  -0.00677   1.81498
   R13        2.66576  -0.00671   0.00346  -0.02541  -0.02195   2.64381
   R14        2.09288   0.00061  -0.00249   0.00966   0.00718   2.10006
   R15        2.08114   0.00013  -0.00123   0.00435   0.00311   2.08425
   R16        1.83727   0.00011   0.00181  -0.00572  -0.00390   1.83337
   R17        2.65065  -0.01114   0.00295  -0.03226  -0.02931   2.62134
   R18        2.60040   0.00115  -0.00368   0.01388   0.01020   2.61059
   R19        2.08580  -0.00019  -0.00196   0.00588   0.00392   2.08972
   R20        1.83018   0.00004   0.00071  -0.00222  -0.00152   1.82867
    A1        1.89144   0.00218  -0.00307   0.02178   0.01871   1.91015
    A2        1.88219   0.00468   0.00609  -0.00106   0.00505   1.88724
    A3        1.94658  -0.00197  -0.00696   0.01192   0.00525   1.95183
    A4        1.93770  -0.00188  -0.00664   0.01390   0.00746   1.94516
    A5        1.89218  -0.00073   0.00611  -0.02183  -0.01577   1.87641
    A6        1.90487  -0.00036   0.00399  -0.01103  -0.00712   1.89775
    A7        1.89938   0.00032  -0.00281   0.00657   0.00402   1.90341
    A8        1.91938   0.00000  -0.00153   0.00064  -0.00108   1.91829
    A9        1.91433   0.00146   0.00182  -0.00192  -0.00026   1.91407
   A10        1.89592  -0.00079   0.00214   0.00265   0.00474   1.90066
   A11        1.94325  -0.00338  -0.00295  -0.02449  -0.02749   1.91576
   A12        1.89159   0.00212   0.00163   0.01215   0.01386   1.90545
   A13        1.89851   0.00065  -0.00103   0.01187   0.01095   1.90946
   A14        1.95472  -0.00613  -0.00236  -0.01924  -0.02167   1.93305
   A15        1.91219   0.00144   0.00480  -0.00911  -0.00415   1.90804
   A16        1.90230   0.00157   0.00373  -0.00678  -0.00306   1.89924
   A17        1.93995   0.00227  -0.00537   0.02581   0.02035   1.96030
   A18        1.87811   0.00134  -0.00074   0.00158   0.00063   1.87875
   A19        1.87417  -0.00027  -0.00015   0.00855   0.00853   1.88269
   A20        1.93476  -0.00240  -0.00744   0.01135   0.00391   1.93867
   A21        1.97497  -0.00349  -0.00107  -0.01149  -0.01260   1.96238
   A22        1.90386   0.00116   0.00355  -0.01678  -0.01324   1.89061
   A23        1.90805  -0.00042   0.00384  -0.00820  -0.00424   1.90381
   A24        1.95240  -0.00071  -0.00883   0.00832  -0.00078   1.95161
   A25        1.84070   0.00376   0.00375   0.02211   0.02590   1.86660
   A26        1.88040  -0.00012  -0.00134   0.00794   0.00658   1.88698
   A27        1.87524  -0.00173  -0.00151  -0.00436  -0.00588   1.86937
   A28        1.90715   0.00373   0.00498  -0.00252   0.00250   1.90964
   A29        1.92155   0.00173   0.00011   0.00361   0.00367   1.92522
   A30        1.92677  -0.00056   0.00536  -0.01225  -0.00684   1.91994
   A31        1.91250  -0.00454  -0.00998   0.00665  -0.00331   1.90918
   A32        1.92858  -0.00018  -0.00275   0.01649   0.01401   1.94259
   A33        1.86704  -0.00033   0.00149  -0.01189  -0.01022   1.85682
   A34        1.86412   0.00383  -0.00625   0.04099   0.03474   1.89886
    D1        2.92667  -0.00021   0.00133  -0.00901  -0.00767   2.91899
    D2        0.85097  -0.00110  -0.00569   0.01140   0.00539   0.85636
    D3       -1.27051   0.00116   0.00587  -0.01499  -0.00880  -1.27931
    D4        3.06956   0.00182   0.00300   0.00176   0.00482   3.07438
    D5       -1.07094  -0.00144  -0.00050  -0.02975  -0.03025  -1.10120
    D6        1.00204  -0.00028   0.00065  -0.01492  -0.01426   0.98777
    D7       -1.10356   0.00175   0.00207   0.00292   0.00496  -1.09859
    D8        1.03912  -0.00151  -0.00143  -0.02859  -0.03010   1.00902
    D9        3.11210  -0.00035  -0.00028  -0.01376  -0.01411   3.09799
   D10        0.96286   0.00152   0.00488  -0.00799  -0.00304   0.95982
   D11        3.10554  -0.00174   0.00138  -0.03950  -0.03811   3.06743
   D12       -1.10467  -0.00058   0.00253  -0.02466  -0.02212  -1.12678
   D13        1.09860   0.00050  -0.00569   0.07941   0.07374   1.17234
   D14       -1.06239   0.00081  -0.00054   0.06628   0.06567  -0.99673
   D15       -3.10847  -0.00059  -0.00568   0.06509   0.05952  -3.04895
   D16       -1.02695   0.00091  -0.00504   0.09780   0.09270  -0.93426
   D17        3.09524   0.00123   0.00011   0.08467   0.08463  -3.10332
   D18        1.04916  -0.00017  -0.00503   0.08348   0.07848   1.12764
   D19       -3.11440   0.00080  -0.00302   0.09022   0.08723  -3.02717
   D20        1.00780   0.00112   0.00212   0.07708   0.07915   1.08695
   D21       -1.03828  -0.00028  -0.00301   0.07589   0.07301  -0.96527
   D22       -0.88673  -0.00183  -0.00841  -0.08717  -0.09554  -0.98227
   D23       -3.07205   0.00073   0.00116  -0.07684  -0.07582   3.13532
   D24        1.15902   0.00045  -0.00172  -0.07203  -0.07378   1.08524
   D25        1.24174  -0.00308  -0.01106  -0.10398  -0.11487   1.12688
   D26       -0.94357  -0.00051  -0.00149  -0.09364  -0.09515  -1.03872
   D27       -2.99569  -0.00080  -0.00437  -0.08884  -0.09311  -3.08880
   D28       -2.95811  -0.00210  -0.01146  -0.09632  -0.10773  -3.06584
   D29        1.13976   0.00046  -0.00189  -0.08598  -0.08801   1.05175
   D30       -0.91236   0.00018  -0.00477  -0.08117  -0.08597  -0.99833
   D31        1.07719   0.00110   0.00282   0.01088   0.01362   1.09081
   D32       -3.10475  -0.00107  -0.00635   0.01973   0.01339  -3.09135
   D33       -1.04727  -0.00075  -0.00095  -0.00015  -0.00106  -1.04833
   D34       -1.00780   0.00033   0.00245   0.00162   0.00404  -1.00376
   D35        1.09345  -0.00184  -0.00672   0.01047   0.00381   1.09726
   D36       -3.13226  -0.00152  -0.00132  -0.00941  -0.01064   3.14029
   D37       -3.12309   0.00277   0.00567   0.01697   0.02253  -3.10055
   D38       -1.02184   0.00060  -0.00350   0.02582   0.02231  -0.99953
   D39        1.03564   0.00092   0.00189   0.00594   0.00786   1.04350
   D40       -1.98060   0.00070  -0.00291   0.04387   0.04110  -1.93949
   D41        0.16476  -0.00020  -0.00218   0.03704   0.03469   0.19945
   D42        2.21225   0.00155  -0.00562   0.06269   0.05710   2.26935
   D43       -0.80680  -0.00048   0.00068  -0.03743  -0.03672  -0.84352
   D44        1.35209  -0.00217  -0.00197  -0.06208  -0.06422   1.28788
   D45       -2.89169  -0.00045  -0.00595  -0.03529  -0.04110  -2.93279
   D46        2.75882   0.00220  -0.01054   0.13171   0.12114   2.87996
   D47        0.65203   0.00056  -0.00743   0.12473   0.11714   0.76917
   D48       -1.40100   0.00383  -0.00223   0.12538   0.12334  -1.27767
         Item               Value     Threshold  Converged?
 Maximum Force            0.011145     0.000015     NO 
 RMS     Force            0.002496     0.000010     NO 
 Maximum Displacement     0.380623     0.000060     NO 
 RMS     Displacement     0.074673     0.000040     NO 
 GradGradGradGradGradGradGradGradGradGradGradGradGradGradGradGradGradGrad

                    Distance matrix (angstroms):
                    1          2          3          4          5
     1  O    0.000000
     2  C    1.409673   0.000000
     3  C    2.378635   1.526812   0.000000
     4  C    3.731126   2.506011   1.534139   0.000000
     5  O    4.268006   2.982008   2.433793   1.422376   0.000000
     6  C    2.884087   2.509410   1.542828   2.516884   2.852121
     7  O    3.411644   2.895958   2.446467   2.981596   2.599092
     8  C    2.795226   2.487488   1.530542   2.497711   3.759725
     9  O    3.339565   2.869491   2.382893   2.828839   4.180777
    10  F    4.051643   3.711623   2.391364   2.895771   4.151868
    11  H    0.962629   1.953782   3.218964   4.441939   4.796343
    12  H    2.090525   1.106084   2.137948   2.735574   2.638250
    13  H    2.090307   1.111759   2.158117   2.690175   3.309826
    14  H    3.991846   2.715758   2.166412   1.104028   2.105859
    15  H    4.526348   3.457049   2.160102   1.104301   2.048127
    16  H    4.545633   3.177525   3.021701   1.981972   0.960446
    17  H    3.874796   3.464493   2.166423   2.732194   3.164611
    18  H    2.551561   2.756424   2.170094   3.470357   3.884770
    19  H    3.874661   3.015042   2.510541   2.510822   1.767682
    20  H    2.440798   2.728473   2.173341   3.465841   4.589732
    21  H    4.103440   3.800359   3.217395   3.611394   5.011569
                    6          7          8          9         10
     6  C    0.000000
     7  O    1.399042   0.000000
     8  C    2.508369   3.763334   0.000000
     9  O    3.728887   4.823657   1.387152   0.000000
    10  F    2.849677   4.175600   1.381467   2.259412   0.000000
    11  H    3.666299   3.924793   3.726722   4.115425   5.008031
    12  H    2.692537   2.500385   3.436448   3.874677   4.514705
    13  H    3.470604   3.895578   2.749205   2.554366   4.027944
    14  H    3.475456   3.965885   2.746699   2.500506   3.301263
    15  H    2.778010   3.408161   2.681225   3.113149   2.509749
    16  H    3.657452   3.303324   4.317930   4.491758   4.864025
    17  H    1.111301   2.085198   2.729357   3.991449   2.492825
    18  H    1.102938   2.018272   2.712442   4.007855   3.156077
    19  H    1.922783   0.970179   3.949642   4.832964   4.320325
    20  H    2.745685   4.026103   1.105832   2.064364   1.998337
    21  H    4.417168   5.615542   1.930191   0.967688   2.340291
                   11         12         13         14         15
    11  H    0.000000
    12  H    2.289694   0.000000
    13  H    2.433138   1.806226   0.000000
    14  H    4.622680   3.071888   2.425842   0.000000
    15  H    5.329557   3.753258   3.681080   1.785107   0.000000
    16  H    4.932338   2.704664   3.260458   2.198863   2.746663
    17  H    4.715904   3.706197   4.300038   3.749831   2.529613
    18  H    3.305582   3.067041   3.782323   4.309317   3.757427
    19  H    4.372331   2.492636   3.836959   3.482417   2.962990
    20  H    3.355106   3.721115   3.128725   3.756686   3.705242
    21  H    4.883239   4.826378   3.484725   3.269846   3.669490
                   16         17         18         19         20
    16  H    0.000000
    17  H    4.086231   0.000000
    18  H    4.618226   1.792677   0.000000
    19  H    2.471905   2.406131   2.812612   0.000000
    20  H    5.150253   3.086955   2.483256   4.443134   0.000000
    21  H    5.356835   4.515138   4.615153   5.658031   2.401696
                   21
    21  H    0.000000
 Framework group  C1[X(C5H11FO4)]
 Deg. of freedom    57
                         Standard orientation:                         
 ---------------------------------------------------------------------
 Center     Atomic      Atomic             Coordinates (Angstroms)
 Number     Number       Type             X           Y           Z
 ---------------------------------------------------------------------
      1          8           0       -0.125122    2.374426   -0.147720
      2          6           0        0.304850    1.237659   -0.861909
      3          6           0        0.018339    0.004182   -0.008912
      4          6           0        0.382988   -1.266046   -0.788100
      5          8           0        1.788298   -1.345872   -0.992755
      6          6           0        0.841628    0.071314    1.294163
      7          8           0        2.213676    0.200037    1.052849
      8          6           0       -1.473209   -0.026589    0.332988
      9          8           0       -2.211870   -0.140530   -0.835596
     10          9           0       -1.753718   -1.097702    1.159113
     11          1           0        0.221687    3.167545   -0.568839
     12          1           0        1.393323    1.261853   -1.057007
     13          1           0       -0.235033    1.136585   -1.828510
     14          1           0       -0.180729   -1.286927   -1.737133
     15          1           0        0.080558   -2.147002   -0.194859
     16          1           0        2.009707   -1.226341   -1.919657
     17          1           0        0.611668   -0.831738    1.899644
     18          1           0        0.531959    0.958937    1.870967
     19          1           0        2.451141   -0.468990    0.391592
     20          1           0       -1.750947    0.883329    0.896703
     21          1           0       -3.117315   -0.395532   -0.608519
 ---------------------------------------------------------------------
 Rotational constants (GHZ):           1.5197585           1.1035349           0.9465409
   162 basis functions,   294 primitive gaussians,   172 cartesian basis functions
    41 alpha electrons       41 beta electrons
       nuclear repulsion energy       639.9773371654 Hartrees.
 NAtoms=   21 NActive=   21 NUniq=   21 SFac= 1.00D+00 NAtFMM=   60 NAOKFM=F Big=F
 Nuclear repulsion after empirical dispersion term =      639.9625764136 Hartrees.
   1 Symmetry operations used in ECPInt.
 ECPInt:  NShTT=    3403 NPrTT=   13693 LenC2=    3355 LenP2D=   10471.
 LDataN:  DoStor=T MaxTD1= 4 Len=   56
 Initial guess from the checkpoint file:  "/scratch/user/peterchao1/peterchao1/6097788_1659647563000000666743758/Gau-209693.chk"
 B after Tr=     0.000000    0.000000   -0.000000
         Rot=    0.998354   -0.050574    0.001855   -0.026973 Ang=  -6.58 deg.
 ExpMin= 1.22D-01 ExpMax= 2.89D+03 ExpMxC= 4.35D+02 IAcc=3 IRadAn=         5 AccDes= 0.00D+00
 Harris functional with IExCor= 4639 and IRadAn=       5 diagonalized for initial guess.
 HarFok:  IExCor= 4639 AccDes= 0.00D+00 IRadAn=         5 IDoV= 1 UseB2=F ITyADJ=14
 ICtDFT=  3500011 ScaDFX=  1.000000  1.000000  1.000000  1.000000
 FoFCou: FMM=F IPFlag=           0 FMFlag=      100000 FMFlg1=           0
         NFxFlg=           0 DoJE=T BraDBF=F KetDBF=T FulRan=T
         wScrn=  0.000000 ICntrl=       500 IOpCl=  0 I1Cent=   200000004 NGrid=           0
         NMat0=    1 NMatS0=      1 NMatT0=    0 NMatD0=    1 NMtDS0=    0 NMtDT0=    0
 Petite list used in FoFCou.
     Minimum is close to point  4 DX=  7.54D-02 DF= -3.29D-05 DXR=  5.91D-02 DFR=  3.51D-03 which will be used.
     Accept linear search using points  2 and  3.
     Accept linear search using points  1 and  2.
     Minimum is close to point  2 DX= -7.38D-02 DF= -4.76D-06 DXR=  7.19D-02 DFR=  6.07D-03 which will be used.
     Accept linear search using points  1 and  2.
     Accept linear search using points  1 and  2.
     Minimum is close to point  2 DX=  5.43D-05 DF= -2.27D-13 DXR=  5.43D-05 DFR=  2.62D-09 which will be used.
 SCF Done:  E(RwB97XD) =  -597.200845171     a.u. after    9 cycles
            Convg  =    0.2660D-08                    38 Fock formations.
              S**2 =  0.0000                  -V/T =  2.0075
   1 Symmetry operations used in ECPInt.
 ECPInt:  NShTT=    3403 NPrTT=   13693 LenC2=    3355 LenP2D=   10471.
 LDataN:  DoStor=T MaxTD1= 5 Len=  102
 Calling FoFJK, ICntrl=      2127 FMM=F ISym2X=0 I1Cent= 0 IOpClX= 0 NMat=1 NMatS=1 NMatT=0.

 GradGradGradGradGradGradGradGradGradGradGradGradGradGradGradGradGradGrad
 Using GEDIIS/GDIIS optimizer.
 FormGI is forming the generalized inverse of G from B-inverse, IUseBI=4.
 Internal  Forces:  Max     0.015463518 RMS     0.003215827
 Step number   3 out of a maximum of  112
 All quantities printed in internal units (Hartrees-Bohrs-Radians)
 Mixed Optimization -- RFO/linear search
 Trust test= 4.48D-01 RLast= 4.51D-01 DXMaxT set to 5.05D-01
 ITU=  0  1  0
 Use linear search instead of GDIIS.
     Eigenvalues ---    0.00232   0.00263   0.00391   0.00424   0.00926
     Eigenvalues ---    0.01318   0.01366   0.01373   0.04733   0.04804
     Eigenvalues ---    0.04876   0.04945   0.05316   0.05623   0.05651
     Eigenvalues ---    0.05872   0.06100   0.06602   0.06937   0.11171
     Eigenvalues ---    0.11305   0.11517   0.12266   0.13565   0.13831
     Eigenvalues ---    0.13999   0.14400   0.14907   0.15609   0.16000
     Eigenvalues ---    0.16019   0.16275   0.19422   0.22014   0.22099
     Eigenvalues ---    0.23388   0.26914   0.27130   0.28392   0.29306
     Eigenvalues ---    0.33341   0.34102   0.34137   0.34152   0.34175
     Eigenvalues ---    0.34183   0.34276   0.36034   0.40929   0.41507
     Eigenvalues ---    0.42198   0.45713   0.51190   0.52397   0.52619
     Eigenvalues ---    0.53017   0.53272
 Quartic linear search produced a step of -0.31958.
 Iteration  1 RMS(Cart)=  0.05214163 RMS(Int)=  0.00262368
 Iteration  2 RMS(Cart)=  0.00279587 RMS(Int)=  0.00006923
 Iteration  3 RMS(Cart)=  0.00001493 RMS(Int)=  0.00006855
 Iteration  4 RMS(Cart)=  0.00000000 RMS(Int)=  0.00006855
 Variable       Old X    -DE/DX   Delta X   Delta X   Delta X     New X
                                 (Linear)    (Quad)   (Total)
    R1        2.66390  -0.00256   0.00521  -0.02326  -0.01805   2.64585
    R2        1.81911   0.00188   0.00140  -0.00052   0.00088   1.81998
    R3        2.88526   0.00376  -0.00459   0.03393   0.02935   2.91460
    R4        2.09020  -0.00064  -0.00151   0.00221   0.00070   2.09090
    R5        2.10092  -0.00170  -0.00183  -0.00011  -0.00194   2.09898
    R6        2.89910   0.00910   0.00289   0.00926   0.01215   2.91126
    R7        2.91552   0.00814  -0.00041   0.01956   0.01916   2.93468
    R8        2.89231  -0.00055  -0.00424   0.01814   0.01390   2.90621
    R9        2.68790  -0.00118   0.00463  -0.02125  -0.01662   2.67128
   R10        2.08631  -0.00066  -0.00111   0.00119   0.00008   2.08639
   R11        2.08683  -0.00124  -0.00113   0.00023  -0.00091   2.08592
   R12        1.81498   0.00316   0.00216  -0.00125   0.00091   1.81589
   R13        2.64381  -0.00010   0.00702  -0.02354  -0.01653   2.62728
   R14        2.10006  -0.00115  -0.00229   0.00327   0.00097   2.10103
   R15        2.08425  -0.00071  -0.00099   0.00078  -0.00021   2.08404
   R16        1.83337   0.00113   0.00125  -0.00076   0.00049   1.83386
   R17        2.62134  -0.00468   0.00937  -0.04085  -0.03148   2.58986
   R18        2.61059  -0.00035  -0.00326   0.00696   0.00370   2.61429
   R19        2.08972  -0.00108  -0.00125  -0.00003  -0.00128   2.08844
   R20        1.82867   0.00019   0.00049  -0.00061  -0.00013   1.82854
    A1        1.91015  -0.00048  -0.00598   0.01788   0.01190   1.92205
    A2        1.88724   0.00382  -0.00161   0.02838   0.02673   1.91397
    A3        1.95183  -0.00217  -0.00168  -0.01447  -0.01621   1.93562
    A4        1.94516  -0.00211  -0.00238  -0.00878  -0.01140   1.93376
    A5        1.87641   0.00015   0.00504  -0.00704  -0.00190   1.87451
    A6        1.89775   0.00056   0.00228   0.00389   0.00617   1.90392
    A7        1.90341  -0.00007  -0.00129  -0.00122  -0.00257   1.90084
    A8        1.91829  -0.00093   0.00035   0.00122   0.00155   1.91984
    A9        1.91407  -0.00180   0.00008   0.00484   0.00493   1.91900
   A10        1.90066   0.00280  -0.00151   0.00433   0.00285   1.90351
   A11        1.91576   0.00697   0.00878   0.00538   0.01408   1.92984
   A12        1.90545  -0.00406  -0.00443  -0.00632  -0.01073   1.89473
   A13        1.90946  -0.00304  -0.00350  -0.00958  -0.01306   1.89641
   A14        1.93305   0.01546   0.00693   0.01388   0.02079   1.95384
   A15        1.90804  -0.00187   0.00132  -0.00193  -0.00054   1.90750
   A16        1.89924  -0.00253   0.00098   0.00338   0.00430   1.90355
   A17        1.96030  -0.00823  -0.00650  -0.01568  -0.02216   1.93814
   A18        1.87875  -0.00384  -0.00020  -0.00088  -0.00120   1.87755
   A19        1.88269   0.00068  -0.00272   0.00145  -0.00131   1.88139
   A20        1.93867  -0.00075  -0.00125  -0.00997  -0.01122   1.92745
   A21        1.96238   0.01106   0.00403   0.01602   0.02007   1.98244
   A22        1.89061  -0.00203   0.00423  -0.00848  -0.00426   1.88635
   A23        1.90381  -0.00284   0.00135  -0.01486  -0.01362   1.89019
   A24        1.95161  -0.00218   0.00025  -0.00621  -0.00588   1.94574
   A25        1.86660  -0.00480  -0.00828   0.01715   0.00892   1.87553
   A26        1.88698   0.00039  -0.00210  -0.00445  -0.00661   1.88036
   A27        1.86937   0.00127   0.00188  -0.00539  -0.00351   1.86586
   A28        1.90964   0.00082  -0.00080   0.01289   0.01193   1.92157
   A29        1.92522   0.00047  -0.00117   0.00402   0.00288   1.92810
   A30        1.91994   0.00057   0.00219   0.00656   0.00852   1.92845
   A31        1.90918  -0.00213   0.00106  -0.03222  -0.03111   1.87807
   A32        1.94259   0.00028  -0.00448   0.01929   0.01456   1.95715
   A33        1.85682  -0.00006   0.00327  -0.01146  -0.00816   1.84867
   A34        1.89886  -0.00107  -0.01110   0.03158   0.02048   1.91934
    D1        2.91899  -0.00021   0.00245  -0.01062  -0.00818   2.91081
    D2        0.85636  -0.00153  -0.00172  -0.01138  -0.01293   0.84344
    D3       -1.27931   0.00165   0.00281   0.00696   0.00961  -1.26970
    D4        3.07438  -0.00345  -0.00154  -0.01957  -0.02105   3.05332
    D5       -1.10120   0.00344   0.00967  -0.00908   0.00063  -1.10057
    D6        0.98777   0.00036   0.00456  -0.01522  -0.01062   0.97715
    D7       -1.09859  -0.00381  -0.00159  -0.02486  -0.02641  -1.12500
    D8        1.00902   0.00308   0.00962  -0.01437  -0.00473   1.00429
    D9        3.09799   0.00000   0.00451  -0.02052  -0.01598   3.08201
   D10        0.95982  -0.00350   0.00097  -0.02810  -0.02719   0.93263
   D11        3.06743   0.00339   0.01218  -0.01761  -0.00551   3.06192
   D12       -1.12678   0.00031   0.00707  -0.02376  -0.01676  -1.14355
   D13        1.17234  -0.00148  -0.02357   0.02621   0.00261   1.17495
   D14       -0.99673  -0.00029  -0.02099   0.03797   0.01699  -0.97974
   D15       -3.04895   0.00140  -0.01902   0.03539   0.01640  -3.03255
   D16       -0.93426  -0.00309  -0.02962   0.01603  -0.01363  -0.94789
   D17       -3.10332  -0.00190  -0.02704   0.02779   0.00074  -3.10258
   D18        1.12764  -0.00021  -0.02508   0.02521   0.00015   1.12779
   D19       -3.02717  -0.00111  -0.02788   0.02837   0.00048  -3.02669
   D20        1.08695   0.00008  -0.02530   0.04014   0.01485   1.10180
   D21       -0.96527   0.00177  -0.02333   0.03755   0.01426  -0.95101
   D22       -0.98227   0.00241   0.03053   0.03890   0.06942  -0.91285
   D23        3.13532  -0.00085   0.02423   0.04209   0.06635  -3.08152
   D24        1.08524   0.00139   0.02358   0.06039   0.08389   1.16913
   D25        1.12688   0.00452   0.03671   0.04686   0.08361   1.21049
   D26       -1.03872   0.00125   0.03041   0.05005   0.08054  -0.95818
   D27       -3.08880   0.00350   0.02976   0.06835   0.09808  -2.99072
   D28       -3.06584   0.00192   0.03443   0.03650   0.07093  -2.99491
   D29        1.05175  -0.00134   0.02813   0.03969   0.06786   1.11960
   D30       -0.99833   0.00091   0.02748   0.05799   0.08540  -0.91293
   D31        1.09081   0.00122  -0.00435   0.03411   0.02981   1.12062
   D32       -3.09135  -0.00060  -0.00428   0.00498   0.00069  -3.09067
   D33       -1.04833  -0.00005   0.00034  -0.00269  -0.00242  -1.05075
   D34       -1.00376   0.00310  -0.00129   0.03380   0.03262  -0.97114
   D35        1.09726   0.00127  -0.00122   0.00467   0.00350   1.10076
   D36        3.14029   0.00183   0.00340  -0.00300   0.00039   3.14068
   D37       -3.10055  -0.00109  -0.00720   0.03690   0.02972  -3.07083
   D38       -0.99953  -0.00292  -0.00713   0.00777   0.00060  -0.99893
   D39        1.04350  -0.00236  -0.00251   0.00010  -0.00251   1.04099
   D40       -1.93949   0.00068  -0.01314   0.07610   0.06301  -1.87648
   D41        0.19945   0.00368  -0.01109   0.07256   0.06140   0.26085
   D42        2.26935  -0.00276  -0.01825   0.06459   0.04636   2.31572
   D43       -0.84352  -0.00126   0.01174  -0.05874  -0.04691  -0.89044
   D44        1.28788   0.00257   0.02052  -0.06269  -0.04214   1.24574
   D45       -2.93279  -0.00114   0.01313  -0.06099  -0.04798  -2.98077
   D46        2.87996   0.00147  -0.03871   0.20039   0.16157   3.04153
   D47        0.76917   0.00170  -0.03743   0.20748   0.17004   0.93921
   D48       -1.27767   0.00293  -0.03942   0.23003   0.19073  -1.08694
         Item               Value     Threshold  Converged?
 Maximum Force            0.015464     0.000015     NO 
 RMS     Force            0.003216     0.000010     NO 
 Maximum Displacement     0.209193     0.000060     NO 
 RMS     Displacement     0.051753     0.000040     NO 
 GradGradGradGradGradGradGradGradGradGradGradGradGradGradGradGradGradGrad

                    Distance matrix (angstroms):
                    1          2          3          4          5
     1  O    0.000000
     2  C    1.400121   0.000000
     3  C    2.406738   1.542341   0.000000
     4  C    3.753668   2.525355   1.540570   0.000000
     5  O    4.309298   3.015854   2.449369   1.413581   0.000000
     6  C    2.931515   2.534765   1.552964   2.542909   2.905986
     7  O    3.390752   2.900357   2.464223   3.071400   2.756148
     8  C    2.834795   2.508655   1.537900   2.499345   3.766678
     9  O    3.384857   2.908921   2.385772   2.813143   4.167781
    10  F    4.099488   3.735866   2.401510   2.899789   4.154379
    11  H    0.963094   1.953415   3.247920   4.464992   4.838684
    12  H    2.071238   1.106455   2.150300   2.766406   2.694772
    13  H    2.073252   1.110731   2.175524   2.702539   3.318212
    14  H    3.994834   2.724309   2.171683   1.104069   2.082830
    15  H    4.557657   3.477539   2.168571   1.103820   2.039352
    16  H    4.527647   3.161370   3.005344   1.967257   0.960927
    17  H    3.944735   3.486417   2.172446   2.719312   3.149710
    18  H    2.643974   2.809683   2.168743   3.481252   3.955472
    19  H    3.858921   3.027381   2.546946   2.634704   1.953746
    20  H    2.499493   2.755844   2.185521   3.472937   4.611542
    21  H    4.077183   3.804836   3.239919   3.666827   5.057350
                    6          7          8          9         10
     6  C    0.000000
     7  O    1.390296   0.000000
     8  C    2.510938   3.766443   0.000000
     9  O    3.725240   4.837666   1.370494   0.000000
    10  F    2.850185   4.191050   1.383424   2.222396   0.000000
    11  H    3.713188   3.899735   3.769629   4.174663   5.056926
    12  H    2.714103   2.510800   3.454660   3.914607   4.536170
    13  H    3.495548   3.910743   2.783495   2.623581   4.063328
    14  H    3.497890   4.044075   2.751965   2.496749   3.313887
    15  H    2.808704   3.512024   2.676204   3.069848   2.507779
    16  H    3.682468   3.423708   4.299356   4.462685   4.854307
    17  H    1.111816   2.073938   2.758461   3.989892   2.524577
    18  H    1.102826   2.017228   2.659252   3.961852   3.077170
    19  H    1.912946   0.970436   3.988960   4.888676   4.373895
    20  H    2.749734   4.005223   1.105155   2.059389   1.993491
    21  H    4.429339   5.640960   1.928823   0.967620   2.375209
                   11         12         13         14         15
    11  H    0.000000
    12  H    2.272484   0.000000
    13  H    2.420391   1.804036   0.000000
    14  H    4.626453   3.094281   2.430297   0.000000
    15  H    5.359924   3.784995   3.693978   1.783901   0.000000
    16  H    4.913442   2.714866   3.218529   2.164074   2.745761
    17  H    4.779674   3.709174   4.320838   3.744949   2.526695
    18  H    3.414416   3.138331   3.824780   4.314417   3.750579
    19  H    4.343216   2.490698   3.868339   3.599379   3.104506
    20  H    3.418579   3.742973   3.168587   3.763019   3.704909
    21  H    4.860976   4.844206   3.512802   3.339345   3.728580
                   16         17         18         19         20
    16  H    0.000000
    17  H    4.059236   0.000000
    18  H    4.663622   1.788696   0.000000
    19  H    2.615939   2.375690   2.812611   0.000000
    20  H    5.140000   3.133030   2.430310   4.456628   0.000000
    21  H    5.381519   4.566540   4.541508   5.747161   2.343556
                   21
    21  H    0.000000
 Framework group  C1[X(C5H11FO4)]
 Deg. of freedom    57
                         Standard orientation:                         
 ---------------------------------------------------------------------
 Center     Atomic      Atomic             Coordinates (Angstroms)
 Number     Number       Type             X           Y           Z
 ---------------------------------------------------------------------
      1          8           0       -0.010984    2.394715   -0.223623
      2          6           0        0.367605    1.221438   -0.887272
      3          6           0        0.027923   -0.002410   -0.012270
      4          6           0        0.324030   -1.301493   -0.785613
      5          8           0        1.708099   -1.477200   -1.012974
      6          6           0        0.845982    0.045892    1.306874
      7          8           0        2.212398    0.208529    1.108429
      8          6           0       -1.469657    0.029337    0.336128
      9          8           0       -2.220956   -0.102937   -0.802427
     10          9           0       -1.793523   -1.021503    1.175598
     11          1           0        0.377385    3.161365   -0.658325
     12          1           0        1.458868    1.205431   -1.069298
     13          1           0       -0.160953    1.130450   -1.859934
     14          1           0       -0.236437   -1.295554   -1.736828
     15          1           0       -0.028200   -2.162800   -0.191893
     16          1           0        1.918033   -1.325280   -1.938301
     17          1           0        0.625515   -0.878690    1.883656
     18          1           0        0.493442    0.905033    1.901701
     19          1           0        2.486405   -0.465154    0.465919
     20          1           0       -1.717647    0.950543    0.894023
     21          1           0       -3.158453   -0.173261   -0.573423
 ---------------------------------------------------------------------
 Rotational constants (GHZ):           1.4788164           1.0966223           0.9400536
   162 basis functions,   294 primitive gaussians,   172 cartesian basis functions
    41 alpha electrons       41 beta electrons
       nuclear repulsion energy       637.0253777995 Hartrees.
 NAtoms=   21 NActive=   21 NUniq=   21 SFac= 1.00D+00 NAtFMM=   60 NAOKFM=F Big=F
 Nuclear repulsion after empirical dispersion term =      637.0105944226 Hartrees.
   1 Symmetry operations used in ECPInt.
 ECPInt:  NShTT=    3403 NPrTT=   13693 LenC2=    3355 LenP2D=   10462.
 LDataN:  DoStor=T MaxTD1= 4 Len=   56
 Initial guess from the checkpoint file:  "/scratch/user/peterchao1/peterchao1/6097788_1659647563000000666743758/Gau-209693.chk"
 B after Tr=    -0.000000    0.000000    0.000000
         Rot=    0.999776    0.009745   -0.000440    0.018775 Ang=   2.42 deg.
 ExpMin= 1.22D-01 ExpMax= 2.89D+03 ExpMxC= 4.35D+02 IAcc=3 IRadAn=         5 AccDes= 0.00D+00
 Harris functional with IExCor= 4639 and IRadAn=       5 diagonalized for initial guess.
 HarFok:  IExCor= 4639 AccDes= 0.00D+00 IRadAn=         5 IDoV= 1 UseB2=F ITyADJ=14
 ICtDFT=  3500011 ScaDFX=  1.000000  1.000000  1.000000  1.000000
 FoFCou: FMM=F IPFlag=           0 FMFlag=      100000 FMFlg1=           0
         NFxFlg=           0 DoJE=T BraDBF=F KetDBF=T FulRan=T
         wScrn=  0.000000 ICntrl=       500 IOpCl=  0 I1Cent=   200000004 NGrid=           0
         NMat0=    1 NMatS0=      1 NMatT0=    0 NMatD0=    1 NMtDS0=    0 NMtDT0=    0
 Petite list used in FoFCou.
     Minimum is close to point  4 DX=  2.59D-02 DF= -2.82D-06 DXR=  2.11D-02 DFR=  4.47D-04 which will be used.
     Accept linear search using points  1 and  2.
     Minimum is close to point  2 DX= -3.04D-02 DF= -5.08D-07 DXR=  3.13D-02 DFR=  9.83D-04 which will be used.
     Accept linear search using points  1 and  2.
     Accept linear search using points  1 and  2.
     Minimum is close to point  2 DX=  6.24D-05 DF= -3.41D-13 DXR=  6.24D-05 DFR=  5.08D-09 which will be used.
 SCF Done:  E(RwB97XD) =  -597.202576635     a.u. after    9 cycles
            Convg  =    0.1317D-08                    39 Fock formations.
              S**2 =  0.0000                  -V/T =  2.0075
   1 Symmetry operations used in ECPInt.
 ECPInt:  NShTT=    3403 NPrTT=   13693 LenC2=    3355 LenP2D=   10462.
 LDataN:  DoStor=T MaxTD1= 5 Len=  102
 Calling FoFJK, ICntrl=      2127 FMM=F ISym2X=0 I1Cent= 0 IOpClX= 0 NMat=1 NMatS=1 NMatT=0.

 GradGradGradGradGradGradGradGradGradGradGradGradGradGradGradGradGradGrad
 Using GEDIIS/GDIIS optimizer.
 FormGI is forming the generalized inverse of G from B-inverse, IUseBI=4.
 Internal  Forces:  Max     0.007361744 RMS     0.001889404
 Step number   4 out of a maximum of  112
 All quantities printed in internal units (Hartrees-Bohrs-Radians)
 Mixed Optimization -- RFO/linear search
 Trust test= 6.57D-01 RLast= 4.24D-01 DXMaxT set to 8.49D-01
 ITU=  1  0  1  0
 Use linear search instead of GDIIS.
     Eigenvalues ---    0.00235   0.00265   0.00391   0.00486   0.00799
[...]
 96199,-0.00063274,0.00027214,-0.00477342,0.00174340,0.00120148,0.00259
 361,-0.00108461,-0.03465337,-0.11368424,0.07190138,-0.00506690,-0.0725
 7356,0.02833965,0.05637842,0.19379881,0.00126868,0.00030209,-0.0003483
 8,0.00146389,-0.00110016,0.00068317,0.00799316,0.01213400,-0.00587932,
 -0.00037386,0.00081756,-0.00431176,0.00020373,-0.00101010,0.00218654,-
 0.00010237,0.00278642,-0.00077873,0.00011411,-0.00117621,0.00078859,0.
 03840063,0.05646329,-0.16590679,-0.00644219,0.01746494,0.01976898,-0.0
 6309083,-0.12090074,0.18210462,-0.14733946,-0.13553334,0.18985961,0.00
 718112,0.01031857,-0.02193920,-0.00171518,-0.00086911,-0.00401444,0.00
 098915,0.00065443,-0.00079284,-0.00022600,0.00009492,0.00032570,0.0005
 1818,-0.00030697,-0.00026321,-0.00035292,-0.00022240,0.00047979,-0.000
 65706,-0.00084201,-0.00073342,-0.00006115,0.00050576,0.00012679,0.0000
 2851,0.00002902,0.00053147,0.14054754,-0.12822114,-0.12116956,0.179519
 02,0.00361451,0.00281136,-0.01185132,0.00007492,-0.00071060,0.00041849
 ,-0.00049306,0.00008672,-0.00009881,0.00026200,-0.00015070,-0.00026407
 ,-0.00078021,0.00034030,0.00051588,0.00048048,0.00022083,-0.00046988,-
 0.00019936,0.00013583,-0.00033175,0.00010474,-0.00016800,0.00024247,0.
 00003138,-0.00019117,0.00015126,0.12568645,0.11805202,0.14516561,0.147
 92662,-0.28614981,0.01982426,0.01998873,-0.02962105,-0.00406698,-0.003
 65662,-0.00500359,0.00115747,0.00158710,-0.00096548,-0.00013958,-0.000
 09978,0.00045243,-0.00009605,-0.00028471,0.00017315,0.00008788,-0.0004
 3063,0.00015093,-0.00034536,-0.00024533,-0.00020498,-0.00017318,-0.000
 01632,0.00040784,-0.00033025,-0.00031130,0.00055173,-0.16191831,-0.165
 75737,0.31752292,-0.01408099,-0.00124530,-0.01139744,-0.29770392,0.024
 32664,0.02794231,-0.01025214,-0.00051469,0.00315022,-0.00218738,-0.000
 59912,-0.00019162,0.00111996,0.00025434,-0.00205911,-0.00282970,0.0010
 7371,0.00070119,0.00171907,0.00362865,-0.00111549,0.00126625,-0.000702
 19,0.00087224,-0.00017853,0.00004169,0.00020489,-0.00079981,-0.0005697
 2,0.00058685,0.00088122,-0.00103023,0.00000438,0.32608078,-0.01270668,
 0.00335840,-0.00223088,0.03140679,-0.05665152,-0.00500447,-0.02327932,
 0.00242129,0.00290169,-0.00021028,0.00037458,-0.00065869,0.00058719,-0
 .00024579,-0.00025048,-0.00250511,0.00013691,-0.00023597,0.00146838,-0
 .00071652,-0.00051472,0.00190840,-0.00343882,0.00252112,0.00034876,0.0
 0100315,-0.00019242,-0.00197062,-0.00074366,0.00073931,0.00099432,0.00
 030230,0.00095312,-0.02575618,0.05409798,-0.04260827,-0.00088291,-0.01
 060146,0.03522397,-0.00384379,-0.05608480,0.02292019,-0.00258337,-0.00
 033202,0.00155365,-0.00031806,0.00052036,-0.00157278,-0.00021863,-0.00
 022531,0.00055490,-0.00084048,0.00038122,-0.00080529,-0.00033810,-0.00
 000591,-0.00165944,0.00242290,-0.00308573,0.00044237,0.00000423,-0.000
 07127,0.00197440,0.00099663,-0.00077717,-0.00148990,-0.00063956,0.0028
 2002,-0.02135289,0.00439825,0.06808131,0.00557830,-0.01983718,-0.01251
 263,-0.07291278,0.06356331,0.01836190,0.00334921,-0.01183264,-0.001711
 48,0.00037416,0.00062729,-0.00050344,-0.00000023,-0.00032964,-0.000361
 22,-0.00229953,-0.00083442,0.00199903,0.00105545,0.00186545,-0.0006487
 1,0.00054077,-0.00171884,-0.00048648,-0.00112448,0.00007126,0.00040594
 ,0.00013541,0.00053963,-0.00009200,-0.00028407,0.00006005,0.00072622,-
 0.00438137,0.02849221,0.00766911,0.06976673,-0.00460355,0.00020672,-0.
 01118780,0.05851719,-0.26479776,-0.05638210,0.00606572,-0.02106998,-0.
 00450090,-0.00009019,-0.00005412,-0.00178779,0.00025898,0.00046458,0.0
 0063514,-0.00292668,-0.00099551,0.00366301,0.00035971,0.00049809,0.000
 09959,0.00228349,-0.00289160,-0.00086442,0.00072090,0.00213171,-0.0003
 5219,-0.00034302,0.00067021,0.00004425,-0.00069979,-0.00025143,0.00010
 472,0.00076713,-0.00029065,0.00081007,-0.06071798,0.28647912,-0.002970
 65,-0.03309558,-0.02455699,0.01733183,-0.05643590,-0.06547939,-0.00574
 734,0.02072218,0.00561675,-0.00048718,0.00170211,0.00134808,0.00011616
 ,-0.00022805,-0.00000135,0.00269055,0.00243249,-0.00383385,-0.00022450
 ,-0.00058201,0.00019862,-0.00072524,0.00004349,0.00011695,0.00073025,0
 .00042314,-0.00023100,0.00000163,-0.00023825,0.00009225,-0.00014539,-0
 .00160477,0.00059886,0.00219178,-0.00324458,0.00182145,-0.01297424,0.0
 6926441,0.08430816,-0.00012614,-0.00010288,-0.00022985,-0.00002345,0.0
 0008223,0.00040103,0.00575950,-0.00931791,-0.00142791,-0.07073765,0.06
 310415,0.02038933,-0.02992590,0.03452395,0.00706000,-0.00193003,-0.000
 10078,-0.00247027,0.00093329,0.00047182,0.00067311,0.00104506,-0.00137
 854,0.00023666,-0.00232794,0.00043217,-0.00065838,-0.00030212,0.000481
 83,-0.00004053,-0.00002422,0.00002682,0.00002256,0.00004194,0.00006883
 ,-0.00015516,0.00021529,0.00005641,0.00004958,0.08968331,-0.00018523,0
 .00032927,0.00014597,-0.00007900,0.00028283,0.00098038,0.00147771,-0.0
 0776341,-0.00126673,0.06886436,-0.27950743,-0.05641547,0.00177443,0.00
 744148,0.00072169,-0.00184830,0.00056027,-0.00216053,0.00060304,0.0001
 4173,0.00005667,0.00149311,-0.00221389,-0.00120195,0.00121556,0.000967
 38,0.00142973,-0.00044263,0.00055019,-0.00006144,0.00002501,0.00001610
 ,0.00000174,-0.00012506,-0.00003723,0.00006731,0.00012857,0.00064078,-
 0.00029897,-0.07924361,0.29108718,-0.00006816,0.00064628,0.00065861,0.
 00034374,-0.00246569,0.00071918,0.00792382,-0.02854213,-0.00685877,0.0
 1888003,-0.05583762,-0.06904899,-0.00097490,0.00407033,0.00360800,-0.0
 0410020,0.00052095,-0.00531502,0.00084341,0.00064141,0.00064167,0.0014
 6690,-0.00155888,-0.00000167,-0.00046800,0.00072905,0.00013943,-0.0000
 5029,0.00021809,0.00004890,0.00005789,0.00001071,-0.00000074,0.0000662
 5,0.00014842,-0.00001528,0.00006359,0.00104314,-0.00078929,-0.01798819
 ,0.06330150,0.06878924,0.00039040,0.00034585,-0.00103372,-0.00113588,-
 0.00110156,-0.00156563,0.00535598,0.00673173,-0.00682992,-0.07553931,-
 0.05135383,0.05905434,-0.02743694,-0.02786298,0.02230471,-0.00006571,0
 .00012047,0.00039931,0.00031446,0.00017672,0.00014010,0.00090509,0.001
 66430,-0.00128962,-0.00015600,-0.00040995,0.00023012,-0.00212029,-0.00
 130094,0.00011592,-0.00018139,-0.00000520,-0.00022687,0.00017024,-0.00
 006871,-0.00004655,-0.00008032,-0.00023207,0.00013635,0.00561962,0.005
 49404,-0.00716528,0.10111179,0.00009975,0.00055837,-0.00042625,-0.0010
 3665,-0.00114564,-0.00094976,0.00366795,0.00599872,-0.00766540,-0.0603
 7130,-0.17137323,0.12293619,-0.00013660,0.00499459,-0.00334561,0.00056
 009,0.00145625,-0.00120732,-0.00013398,-0.00014829,0.00010528,-0.00042
 806,0.00010969,0.00154074,0.00032654,0.00009149,-0.00046674,-0.0010691
 9,-0.00035583,-0.00113755,-0.00008127,0.00012756,-0.00017387,0.0000367
 2,-0.00005339,0.00007017,0.00001249,0.00046475,-0.00013276,-0.00995786
 ,-0.01479285,0.01939050,0.06711085,0.17245601,0.00069528,0.00104251,-0
 .00218232,-0.00348120,-0.00386260,-0.00226797,0.00848335,0.01961657,-0
 .02250237,0.06623834,0.12112105,-0.17971274,-0.00178773,-0.00381100,0.
 00631967,0.00060437,0.00238806,0.00086887,-0.00011227,-0.00061402,0.00
 031514,0.00184659,0.00265038,-0.00230705,-0.00026330,-0.00043265,0.000
 28605,-0.00001196,-0.00146699,0.00251161,-0.00034902,-0.00001907,-0.00
 040325,0.00013231,-0.00002687,0.00017114,-0.00010275,0.00003912,0.0001
 3788,-0.00371834,-0.00616467,0.00746610,-0.06644341,-0.12816787,0.1903
 6686,0.00055752,0.00028058,0.00083008,-0.00078528,-0.00032432,-0.00119
 813,-0.00034601,-0.00060205,0.00006921,-0.02148394,-0.03814856,0.01994
 219,-0.11273373,-0.12206311,0.06084449,0.00004656,-0.00029853,0.000001
 11,-0.00048774,0.00057174,0.00095687,-0.00055419,-0.00041591,0.0006343
 8,0.00035110,0.00007567,-0.00004226,0.00020924,0.00036660,-0.00059331,
 0.00006230,0.00002748,-0.00017244,0.00063148,-0.00005218,-0.00061954,-
 0.00022183,0.00030525,-0.00000169,0.00197046,0.00076853,0.00090597,-0.
 00709171,0.00129377,-0.00155863,0.13844916,0.00054483,-0.00044626,0.00
 025767,-0.00130327,0.00106966,0.00000574,0.00061808,-0.00084231,0.0001
 3204,0.00703672,0.00329660,-0.00103371,-0.16902594,-0.35218785,0.17176
 170,-0.00086337,-0.00029999,0.00036359,0.00103119,0.00106288,-0.000629
 58,-0.00048414,0.00038971,0.00033841,0.00022780,-0.00037499,-0.0001180
 4,0.00022078,0.00000670,-0.00005747,-0.00007992,0.00012930,-0.00004910
 ,0.00046851,0.00042038,-0.00025484,0.00040367,-0.00054080,-0.00013620,
 0.00199014,0.00183940,-0.00071800,0.00144920,0.00192936,-0.00107934,0.
 15844033,0.34751637,0.00141935,0.00007534,0.00088851,-0.00276632,0.000
 23328,-0.00032135,-0.00168564,-0.00130068,0.00075852,-0.00308132,-0.00
 208539,-0.00108274,0.08329817,0.17390893,-0.08896050,-0.00077204,-0.00
 020966,0.00009982,0.00078104,0.00077257,-0.00136211,-0.00068415,0.0004
 0816,-0.00022930,0.00018444,-0.00021086,-0.00036803,0.00045264,0.00016
 878,-0.00027062,-0.00012971,0.00015523,-0.00026640,0.00045698,-0.00027
 714,-0.00227044,0.00007780,0.00004183,0.00007636,-0.00048821,0.0004169
 2,0.00035307,0.00212699,-0.00034698,0.00076347,-0.07847568,-0.16986525
 ,0.09053295,0.00018546,0.00029845,0.00024622,-0.00099615,0.00212990,0.
 00039586,0.00498374,0.00446321,-0.00590348,-0.00056765,-0.00044340,-0.
 00002368,0.00067863,-0.00046368,-0.00078768,-0.06550951,-0.04139975,0.
 04054758,-0.03001672,-0.02181511,0.02925693,0.00041616,0.00056583,-0.0
 0109635,0.00028369,-0.00042786,0.00011010,-0.00242178,0.00062583,0.001
 14098,-0.00008790,0.00008748,0.00007717,0.00010202,0.00039520,0.000046
 86,0.00030355,0.00049847,-0.00049581,0.00008074,0.00005653,-0.00006542
 ,0.00016311,-0.00010944,0.00006914,-0.00007265,0.00022625,0.00017201,0
 .08559710,0.00016296,0.00082319,0.00017764,0.00275385,-0.00488652,-0.0
 0373412,-0.00599642,-0.02151550,0.02239919,-0.00025237,0.00107428,0.00
 254072,-0.00026560,0.00006889,-0.00063130,-0.04093145,-0.15352559,0.11
 314480,-0.00170229,0.00792931,-0.00463568,-0.00220804,-0.00303976,0.00
 252989,0.00045564,0.00053841,-0.00045537,-0.00005998,0.00256404,-0.001
 55552,0.00004669,-0.00000983,-0.00013103,-0.00016080,0.00047128,-0.000
 14077,-0.00066174,-0.00125703,0.00136773,0.00034870,0.00047173,-0.0000
 8519,-0.00010193,-0.00026133,-0.00149993,0.00011409,0.00010585,0.00018
 754,0.04595121,0.16334595,-0.00006145,0.00116786,0.00027836,0.00065719
 ,-0.00203647,-0.00106051,-0.00172508,-0.00710995,0.00472143,-0.0003352
 5,-0.00105324,0.00110096,-0.00019606,0.00035577,0.00024190,0.04180584,
 0.11599171,-0.18717535,0.00956460,0.00019204,0.00431424,0.00042217,0.0
 0179176,-0.00079313,-0.00025888,-0.00022878,0.00015761,0.00127560,-0.0
 0196928,0.00037471,0.00009638,-0.00012190,0.00009760,-0.00015944,-0.00
 009232,-0.00002888,-0.00025991,-0.00031391,0.00052723,-0.00001360,0.00
 008046,0.00014407,0.00010852,-0.00002351,0.00001806,-0.00000596,-0.000
 10010,-0.00010532,-0.05747738,-0.12318095,0.19347714,0.00001121,0.0010
 1047,0.00010889,-0.00013322,-0.00045665,-0.00092463,0.00463939,0.00144
 154,0.00822762,-0.00099159,0.00211639,0.00044221,0.00079264,-0.0008678
 9,-0.00085526,-0.08883633,-0.02837908,-0.08529869,-0.03082240,-0.01238
 141,-0.03334578,0.00058724,0.00090643,0.00168682,0.00004501,-0.0002127
 3,-0.00015065,0.00004360,-0.00019987,-0.00033030,-0.00002028,-0.000172
 03,0.00002002,0.00006671,0.00022225,-0.00004987,-0.00001938,0.00002597
 ,0.00015777,0.00043652,0.00045293,0.00043579,-0.00002222,0.00004033,-0
 .00028859,-0.00003544,0.00015827,0.00013043,0.00565292,0.00293501,0.00
 644911,0.11568713,0.00026739,0.00056744,0.00118237,-0.00095668,0.00032
 650,-0.00227822,-0.01134019,-0.00877992,-0.02770999,0.00361508,-0.0056
 4791,0.00055302,-0.00062071,0.00051528,0.00062647,-0.03096433,-0.07294
 110,-0.06259822,0.00031185,0.00295172,0.00174011,-0.00160197,0.0003403
 3,-0.00141027,-0.00010697,0.00026625,0.00071977,0.00015914,0.00008567,
 0.00011429,0.00014975,0.00023287,0.00032450,0.00009544,-0.00006445,0.0
 0023672,0.00017849,0.00020613,0.00013391,-0.00064394,-0.00061138,-0.00
 180373,0.00012871,0.00004584,-0.00003542,0.00010299,0.00008584,-0.0000
 9410,0.00883637,0.00748801,0.01796205,0.03082676,0.07412874,0.00020331
 ,0.00177453,-0.00012264,-0.00002460,0.00015277,-0.00084819,-0.00179979
 ,-0.00180962,-0.00518694,0.00112324,-0.00169461,0.00041983,-0.00027124
 ,0.00026167,0.00012811,-0.09738712,-0.06628493,-0.25945428,0.00248774,
 0.00226775,0.01094910,-0.00114715,-0.00091547,-0.00045172,0.00019647,0
 .00043298,0.00057895,0.00053897,0.00030459,0.00019825,0.00002427,0.000
 10316,0.00008535,0.00006790,0.00001467,-0.00003677,-0.00004199,-0.0000
 8304,0.00005711,-0.00046921,-0.00021747,-0.00035212,-0.00003117,0.0000
 7091,0.00043995,0.00007823,0.00000530,-0.00000537,-0.00848085,-0.00682
 382,-0.01635195,0.10174974,0.07204813,0.26807660,0.00018089,-0.0001770
 8,0.00046967,0.00007037,0.00056687,-0.00064693,0.00134751,0.00084979,-
 0.00084679,-0.00175208,0.00391950,0.00271741,-0.00513790,-0.00351975,-
 0.00209061,-0.03095368,-0.01683749,-0.03982542,-0.11713329,-0.05547979
 ,-0.11767011,-0.00103874,-0.00066440,-0.00002816,0.00074726,-0.0004033
 3,-0.00000212,0.00038635,0.00003352,-0.00006903,0.00004886,0.00006616,
 -0.00006324,0.00001812,0.00052846,-0.00019129,0.00005875,-0.00018661,0
 .00011819,-0.00041874,-0.00032353,-0.00014201,-0.00021182,-0.00001330,
 0.00012774,0.00143526,-0.00119900,-0.00083229,0.00122163,-0.00069767,-
 0.00001837,-0.00669441,0.00033105,0.00240137,0.15756308,-0.00081496,-0
 .00047429,-0.00145420,0.00134984,-0.00002805,0.00109481,0.00053990,0.0
 0140767,0.00139273,0.00898603,0.00048418,-0.00071825,-0.00609204,-0.00
 104245,0.00390934,-0.00060961,0.00289055,0.00247369,-0.07629628,-0.078
 04712,-0.14707761,0.00067377,0.00068011,-0.00075593,-0.00018625,-0.000
 28214,-0.00020984,-0.00025412,-0.00089152,0.00037170,-0.00002821,0.000
 04505,0.00013675,-0.00019589,-0.00057830,0.00082667,-0.00026378,-0.000
 15911,0.00003643,-0.00129617,0.00008722,-0.00022251,-0.00066125,-0.000
 12436,0.00033850,-0.00053756,-0.00317957,-0.00185632,0.00065505,-0.000
 27216,-0.00141657,0.00229952,0.00078958,0.00064201,0.07319403,0.078799
 55,0.00056435,-0.00019442,0.00001642,-0.00106440,0.00000013,-0.0002839
 4,0.00170814,-0.00084192,0.00086199,0.00711769,0.00057271,0.00153300,-
 0.00291919,0.00028231,-0.00521075,0.00121471,0.00332150,0.00581988,-0.
 16443594,-0.14772582,-0.33513831,-0.00082884,-0.00039994,-0.00015368,0
 .00057952,-0.00038486,-0.00041399,0.00023120,-0.00005005,-0.00042682,-
 0.00015843,0.00013284,-0.00014788,0.00008382,0.00120847,-0.00025170,0.
 00036112,-0.00033366,0.00006934,-0.00120775,0.00010108,-0.00047996,-0.
 00017606,-0.00009677,-0.00033621,-0.00168797,0.00115935,0.00172084,0.0
 0229022,0.00064265,0.00004962,0.00202689,0.00009201,0.00165823,0.15658
 360,0.14261095,0.33118338,0.00091068,0.00014584,0.00080691,-0.00042658
 ,0.00021564,-0.00262968,-0.01207396,-0.00839734,-0.02800243,-0.0036664
 5,0.00108204,0.00434623,-0.00273600,-0.00046008,-0.00203811,0.00036207
 ,-0.00194090,-0.00151437,0.00035146,0.00041652,0.00070104,-0.10623148,
 -0.02627682,-0.09937393,0.00939803,0.01058594,0.01297666,0.00879388,-0
 .00294875,0.01840104,0.00063456,0.00033043,0.00032869,0.00018671,0.000
 13511,0.00026760,0.00000466,0.00001396,0.00028764,0.00008082,-0.000145
 27,-0.00006838,0.00009817,0.00014775,-0.00000145,0.00012860,0.00017374
 ,-0.00013959,0.00002432,0.00015993,0.00011426,-0.00038869,0.00116310,0
 .00071064,0.00026242,-0.00050511,-0.00032293,0.10193399,0.00040403,0.0
 0013177,0.00020872,-0.00044283,-0.00024007,-0.00114609,0.00022088,0.00
 350492,-0.00066787,0.00048595,-0.00007046,-0.00002833,-0.00016235,0.00
 008400,0.00023087,0.00069870,0.00056292,0.00105007,-0.00017416,-0.0000
 4216,-0.00001085,-0.02481072,-0.06772671,-0.06380555,-0.00430882,-0.02
 495977,-0.03642837,0.00273675,-0.00103299,0.03500671,0.00028434,0.0000
 6544,0.00018809,0.00021694,0.00014560,0.00013761,0.00011906,0.00016858
 ,0.00008911,0.00024746,0.00020629,0.00009963,-0.00016769,-0.00004690,-
 0.00013397,0.00001033,-0.00003081,-0.00010951,-0.00012930,-0.00000110,
 0.00001889,0.00024399,-0.00000810,-0.00020619,0.00002376,-0.00003741,0
 .00000446,0.02677051,0.08891560,0.00198800,0.00123755,-0.00136516,-0.0
 0101207,0.00004998,-0.00068683,-0.00136382,-0.00116443,0.00269238,0.00
 088775,-0.00008454,0.00014029,0.00002281,0.00011321,0.00029268,0.00030
 910,-0.00008069,0.00017177,0.00015891,0.00015489,0.00024421,-0.0913176
 4,-0.06581453,-0.24866132,-0.00111380,-0.00897917,-0.00161730,-0.00234
 327,0.01032208,-0.02940714,0.00035129,0.00001845,-0.00002547,-0.000067
 80,-0.00014022,0.00009108,-0.00002760,0.00005625,-0.00005358,0.0000433
 7,0.00012012,-0.00002170,0.00018646,-0.00008299,0.00014935,0.00000860,
 0.00000493,0.00001684,0.00006448,-0.00017358,0.00005696,-0.00020012,0.
 00021611,0.00029212,0.00008308,-0.00006409,-0.00003047,0.09340566,0.06
 457190,0.27767282,0.00032145,-0.00005052,-0.00012056,0.00006791,0.0001
 8971,-0.00033057,0.00098474,0.00342060,0.00157582,0.00028395,-0.000038
 06,-0.00000362,0.00034468,0.00001548,0.00015392,-0.00062423,-0.0007367
 1,-0.00016902,-0.00007067,0.00024213,0.00001538,-0.01666234,0.00054238
 ,-0.00409810,-0.48514574,0.04226432,-0.06999846,0.00062068,-0.00301724
 ,0.00091399,0.00005820,0.00004834,0.00011799,0.00012935,-0.00000683,-0
 .00010208,-0.00005828,-0.00007328,-0.00003969,-0.00005035,0.00003879,0
 .00010345,-0.00008727,0.00004141,-0.00007848,-0.00002916,-0.00003386,-
 0.00004491,-0.00002072,0.00011021,0.00001772,0.00000160,0.00006867,0.0
 0007123,0.00000017,0.00004308,0.00004024,0.00235279,-0.00226680,-0.000
 06339,0.49758324,0.00008820,-0.00017746,0.00043389,-0.00031960,-0.0000
 8713,-0.00023917,0.00024535,-0.00544394,-0.00257104,-0.00019735,-0.000
 36542,-0.00029356,-0.00062661,0.00015535,-0.00001252,0.00120251,0.0008
 3507,0.00003599,0.00015162,-0.00041380,-0.00005544,0.05014667,-0.00714
 869,0.00447728,-0.00701387,-0.04079334,-0.01446882,-0.00252047,0.00092
 374,0.00060336,-0.00012623,0.00008560,-0.00005531,-0.00001059,0.000088
 45,0.00008996,0.00013474,0.00037730,-0.00021791,0.00020717,0.00030431,
 0.00041375,0.00004426,0.00006919,0.00011821,0.00008484,0.00005052,-0.0
 0001265,-0.00000123,-0.00011211,0.00008645,-0.00001019,0.00002268,-0.0
 0004330,-0.00001119,-0.00006743,-0.00010103,-0.00066622,0.00041135,-0.
 00028124,-0.04080181,0.05128574,-0.00072984,0.00032874,-0.00034015,0.0
 0015340,-0.00040759,0.00084766,0.00085148,-0.00406596,0.00052377,-0.00
 025298,-0.00062787,-0.00012505,-0.00011045,0.00035261,-0.00005356,0.00
 079651,0.00039211,0.00056665,0.00042654,-0.00031595,-0.00019478,0.0151
 9614,-0.00130062,0.00285858,-0.08999287,-0.00738387,-0.02600137,-0.000
 07134,-0.00033991,-0.00120262,0.00008068,-0.00010901,-0.00007220,-0.00
 011734,-0.00001629,-0.00009983,0.00005774,0.00000429,-0.00002359,-0.00
 000824,0.00036366,0.00031528,0.00000540,0.00010961,-0.00010223,0.00008
 448,0.00001292,0.00003181,-0.00008691,0.00005710,-0.00004475,0.0000086
 0,-0.00001950,-0.00007362,-0.00007468,-0.00005826,-0.00003899,0.001744
 53,0.00093067,0.00004847,0.07203913,0.01209310,0.02318053\\-0.00000091
 ,0.00000010,-0.00000037,0.00000022,0.00000036,0.00000029,0.00000050,-0
 .00000067,0.00000013,-0.00000008,0.00000006,0.00000025,0.00000058,0.00
 000010,-0.00000080,-0.00000042,0.00000011,-0.00000017,0.00000013,0.000
 00011,-0.00000001,0.00000043,0.00000116,-0.00000064,-0.00000028,-0.000
 00030,0.00000046,-0.00000021,-0.00000064,0.00000136,-0.00000062,-0.000
 00037,-0.00000007,-0.00000036,-0.00000010,-0.00000066,-0.00000019,-0.0
 0000016,-0.00000014,0.00000052,0.00000010,-0.00000028,0.00000063,0.000
 00003,-0.00000003,0.00000024,0.,-0.00000055,0.00000020,0.00000004,0.00
 000019,-0.00000042,0.00000009,0.00000011,0.00000019,-0.00000008,-0.000
 00058,-0.00000032,-0.00000010,0.00000077,0.00000019,0.00000015,0.00000
 074\\\@


 THE LENGTH OF A MEETING IS PROPORTIONAL TO THE
 SQUARE OF THE PARTICIPANTS.
 Job cpu time:       0 days  0 hours 10 minutes 35.6 seconds.
 Elapsed time:       0 days  0 hours  2 minutes 40.0 seconds.
 File lengths (MBytes):  RWF=     76 Int=      0 D2E=      0 Chk=      3 Scr=      1
 Normal termination of Gaussian 16 at Thu Aug  4 16:31:55 2022.
real 1151.51
user 4335.79
sys 23.84
