 Entering Gaussian System, Link 0=g16
 Input=gaussian_test.inp
 Output=gaussian_test.log
 Initial command:
 /sw/restricted/lms/sw/Gaussian/g16_B01/g16/l1.exe "/scratch/user/peterchao1/peterchao1/7003902_1675700093000000591977871/Gau-243347.inp" -scrdir="/scratch/user/peterchao1/peterchao1/7003902_1675700093000000591977871/"
 Entering Link 1 = /sw/restricted/lms/sw/Gaussian/g16_B01/g16/l1.exe PID=    243357.
  
 Copyright (c) 1988-2017, Gaussian, Inc.  All Rights Reserved.
  
 This is part of the Gaussian(R) 16 program.  It is based on
 the Gaussian(R) 09 system (copyright 2009, Gaussian, Inc.),
 the Gaussian(R) 03 system (copyright 2003, Gaussian, Inc.),
 the Gaussian(R) 98 system (copyright 1998, Gaussian, Inc.),
 the Gaussian(R) 94 system (copyright 1995, Gaussian, Inc.),
 the Gaussian 92(TM) system (copyright 1992, Gaussian, Inc.),
 the Gaussian 90(TM) system (copyright 1990, Gaussian, Inc.),
 the Gaussian 88(TM) system (copyright 1988, Gaussian, Inc.),
 the Gaussian 86(TM) system (copyright 1986, Carnegie Mellon
 University), and the Gaussian 82(TM) system (copyright 1983,
 Carnegie Mellon University). Gaussian is a federally registered
 trademark of Gaussian, Inc.
  
 This software contains proprietary and confidential information,
 including trade secrets, belonging to Gaussian, Inc.
  
 This software is provided under written license and may be
 used, copied, transmitted, or stored only in accord with that
 written license.
  
 The following legend is applicable only to US Government
 contracts under FAR:
  
                    RESTRICTED RIGHTS LEGEND
  
 Use, reproduction and disclosure by the US Government is
 subject to restrictions as set forth in subparagraphs (a)
 and (c) of the Commercial Computer Software - Restricted
 Rights clause in FAR 52.227-19.
  
 Gaussian, Inc.
 340 Quinnipiac St., Bldg. 40, Wallingford CT 06492
  
  
 ---------------------------------------------------------------
 Warning -- This program may not be used in any manner that
 competes with the business of Gaussian, Inc. or will provide
 assistance to any competitor of Gaussian, Inc.  The licensee
 of this program is prohibited from giving any competitor of
 Gaussian, Inc. access to this program.  By using this program,
 the user acknowledges that Gaussian, Inc. is engaged in the
 business of creating and licensing software in the field of
 computational chemistry and represents and warrants to the
 licensee that it is not a competitor of Gaussian, Inc. and that
 it will not use this program in any manner prohibited above.
 ---------------------------------------------------------------
  

 Cite this work as:
 Gaussian 16, Revision B.01,
 M. J. Frisch, G. W. Trucks, H. B. Schlegel, G. E. Scuseria, 
 M. A. Robb, J. R. Cheeseman, G. Scalmani, V. Barone, 
 G. A. Petersson, H. Nakatsuji, X. Li, M. Caricato, A. V. Marenich, 
 J. Bloino, B. G. Janesko, R. Gomperts, B. Mennucci, H. P. Hratchian, 
 J. V. Ortiz, A. F. Izmaylov, J. L. Sonnenberg, D. Williams-Young, 
 F. Ding, F. Lipparini, F. Egidi, J. Goings, B. Peng, A. Petrone, 
 T. Henderson, D. Ranasinghe, V. G. Zakrzewski, J. Gao, N. Rega, 
 G. Zheng, W. Liang, M. Hada, M. Ehara, K. Toyota, R. Fukuda, 
 J. Hasegawa, M. Ishida, T. Nakajima, Y. Honda, O. Kitao, H. Nakai, 
 T. Vreven, K. Throssell, J. A. Montgomery, Jr., J. E. Peralta, 
 F. Ogliaro, M. J. Bearpark, J. J. Heyd, E. N. Brothers, K. N. Kudin, 
 V. N. Staroverov, T. A. Keith, R. Kobayashi, J. Normand, 
 K. Raghavachari, A. P. Rendell, J. C. Burant, S. S. Iyengar, 
 J. Tomasi, M. Cossi, J. M. Millam, M. Klene, C. Adamo, R. Cammi, 
 J. W. Ochterski, R. L. Martin, K. Morokuma, O. Farkas, 
 J. B. Foresman, and D. J. Fox, Gaussian, Inc., Wallingford CT, 2016.
 
 ******************************************
 Gaussian 16:  ES64L-G16RevB.01 20-Dec-2017
                 6-Feb-2023 
 ******************************************
 %chk=7.chk
 %nprocshared=4
 Will use up to    4 processors via shared memory.
 %mem=8000mb
 ----------------------------------------------------------------------
 #T wB97XD/def2svpp opt=tight freq int(grid=ultrafine) scf=(verytight,q
 c) Volume=tight
 ----------------------------------------------------------------------
 -------
 Monomer
 -------
 Symbolic Z-matrix:
 Charge =  0 Multiplicity = 1
 C                    -0.76071  0.        0. 
 C                     0.76071   0.        0. 
 H                    -1.14362  -1.01156  -0.11544 
 H                    -1.14361   0.60575  -0.81832 
 H                    -1.14361   0.40583   0.93376 
 H                     1.14361  -0.40583  -0.93375 
 H                     1.14361  -0.60576   0.81833 
 H                     1.14363   1.01156   0.11541 
 

 GradGradGradGradGradGradGradGradGradGradGradGradGradGradGradGradGradGrad
 Initialization pass.
                           ----------------------------
                           !    Initial Parameters    !
                           ! (Angstroms and Degrees)  !
 --------------------------                            --------------------------
 ! Name  Definition              Value          Derivative Info.                !
 --------------------------------------------------------------------------------
 ! R1    R(1,2)                  1.5214         estimate D2E/DX2                !
 ! R2    R(1,3)                  1.0877         estimate D2E/DX2                !
 ! R3    R(1,4)                  1.0877         estimate D2E/DX2                !
 ! R4    R(1,5)                  1.0878         estimate D2E/DX2                !
 ! R5    R(2,6)                  1.0877         estimate D2E/DX2                !
 ! R6    R(2,7)                  1.0878         estimate D2E/DX2                !
 ! R7    R(2,8)                  1.0877         estimate D2E/DX2                !
 ! A1    A(2,1,3)              110.6113         estimate D2E/DX2                !
 ! A2    A(2,1,4)              110.6103         estimate D2E/DX2                !
 ! A3    A(2,1,5)              110.6099         estimate D2E/DX2                !
 ! A4    A(3,1,4)              108.3084         estimate D2E/DX2                !
 ! A5    A(3,1,5)              108.3089         estimate D2E/DX2                !
 ! A6    A(4,1,5)              108.3075         estimate D2E/DX2                !
 ! A7    A(1,2,6)              110.6102         estimate D2E/DX2                !
 ! A8    A(1,2,7)              110.6099         estimate D2E/DX2                !
 ! A9    A(1,2,8)              110.6114         estimate D2E/DX2                !
 ! A10   A(6,2,7)              108.3076         estimate D2E/DX2                !
 ! A11   A(6,2,8)              108.3081         estimate D2E/DX2                !
 ! A12   A(7,2,8)              108.3093         estimate D2E/DX2                !
 ! D1    D(3,1,2,6)             59.9985         estimate D2E/DX2                !
 ! D2    D(3,1,2,7)            -60.0            estimate D2E/DX2                !
 ! D3    D(3,1,2,8)            179.9986         estimate D2E/DX2                !
 ! D4    D(4,1,2,6)            -60.002          estimate D2E/DX2                !
 ! D5    D(4,1,2,7)            179.9994         estimate D2E/DX2                !
 ! D6    D(4,1,2,8)             59.998          estimate D2E/DX2                !
 ! D7    D(5,1,2,6)            179.9995         estimate D2E/DX2                !
 ! D8    D(5,1,2,7)             60.0009         estimate D2E/DX2                !
 ! D9    D(5,1,2,8)            -60.0005         estimate D2E/DX2                !
 --------------------------------------------------------------------------------
 Number of steps in this run=     38 maximum allowed number of steps=    100.
 GradGradGradGradGradGradGradGradGradGradGradGradGradGradGradGradGradGrad

                    Distance matrix (angstroms):
                    1          2          3          4          5
     1  C    0.000000
     2  C    1.521423   0.000000
     3  H    1.087747   2.159415   0.000000
     4  H    1.087745   2.159401   1.763446   0.000000
     5  H    1.087761   2.159408   1.763464   1.763447   0.000000
     6  H    2.159403   1.087749   2.503593   2.503599   3.062313
     7  H    2.159407   1.087759   2.503603   3.062309   2.503595
     8  H    2.159415   1.087745   3.062320   2.503590   2.503607
                    6          7          8
     6  H    0.000000
     7  H    1.763449   0.000000
     8  H    1.763443   1.763465   0.000000
 This structure is nearly, but not quite of a higher symmetry.
 Consider Symm=Loose if the higher symmetry is desired.
 Framework group  C1[X(C2H6)]
 Deg. of freedom    18
                         Standard orientation:                         
 ---------------------------------------------------------------------
 Center     Atomic      Atomic             Coordinates (Angstroms)
 Number     Number       Type             X           Y           Z
 ---------------------------------------------------------------------
      1          6           0       -0.000002   -0.000003    0.760711
      2          6           0        0.000001    0.000003   -0.760711
      3          1           0       -0.115420   -1.011562    1.143623
      4          1           0       -0.818326    0.605740    1.143609
      5          1           0        0.933754    0.405844    1.143610
      6          1           0       -0.933739   -0.405847   -1.143611
      7          1           0        0.818344   -0.605741   -1.143607
      8          1           0        0.115394    1.011563   -1.143624
 ---------------------------------------------------------------------
 Rotational constants (GHZ):          80.6258959          20.2711349          20.2711089
    40 basis functions,    74 primitive gaussians,    42 cartesian basis functions
     9 alpha electrons        9 beta electrons
       nuclear repulsion energy        42.4440974538 Hartrees.
 NAtoms=    8 NActive=    8 NUniq=    8 SFac= 1.00D+00 NAtFMM=   60 NAOKFM=F Big=F
 Nuclear repulsion after empirical dispersion term =       42.4422166289 Hartrees.
   1 Symmetry operations used in ECPInt.
 ECPInt:  NShTT=     300 NPrTT=    1220 LenC2=     301 LenP2D=    1136.
 LDataN:  DoStor=T MaxTD1= 4 Len=   56
 ExpMin= 1.22D-01 ExpMax= 1.24D+03 ExpMxC= 1.86D+02 IAcc=3 IRadAn=         5 AccDes= 0.00D+00
 Harris functional with IExCor= 4639 and IRadAn=       5 diagonalized for initial guess.
 HarFok:  IExCor= 4639 AccDes= 0.00D+00 IRadAn=         5 IDoV= 1 UseB2=F ITyADJ=14
 ICtDFT=  3500011 ScaDFX=  1.000000  1.000000  1.000000  1.000000
 FoFCou: FMM=F IPFlag=           0 FMFlag=      100000 FMFlg1=           0
         NFxFlg=           0 DoJE=T BraDBF=F KetDBF=T FulRan=T
         wScrn=  0.000000 ICntrl=       500 IOpCl=  0 I1Cent=   200000004 NGrid=           0
         NMat0=    1 NMatS0=      1 NMatT0=    0 NMatD0=    1 NMtDS0=    0 NMtDT0=    0
 Petite list used in FoFCou.
     Minimum is close to point  3 DX=  8.47D-02 DF= -1.30D-05 DXR=  9.57D-02 DFR=  9.23D-03 which will be used.
     Minimum is close to point  2 DX=  6.87D-02 DF= -9.81D-07 DXR=  8.93D-02 DFR=  8.05D-03 which will be used.
     Minimum is close to point  2 DX=  6.97D-04 DF= -9.90D-12 DXR=  6.97D-04 DFR=  4.86D-07 which will be used.
 SCF Done:  E(RwB97XD) =  -79.7308951314     a.u. after    6 cycles
            Convg  =    0.1321D-08                    25 Fock formations.
              S**2 =  0.0000                  -V/T =  2.0107

 **********************************************************************

            Population analysis using the SCF Density.

 **********************************************************************

 Orbital symmetries:
       Occupied  (A) (A) (A) (A) (A) (A) (A) (A) (A)
       Virtual   (A) (A) (A) (A) (A) (A) (A) (A) (A) (A) (A) (A)
                 (A) (A) (A) (A) (A) (A) (A) (A) (A) (A) (A) (A)
                 (A) (A) (A) (A) (A) (A) (A)
 The electronic state is 1-A.
 Alpha  occ. eigenvalues --  -10.27399 -10.27392  -0.84593  -0.70219  -0.52426
 Alpha  occ. eigenvalues --   -0.52426  -0.44858  -0.42564  -0.42563
 Alpha virt. eigenvalues --    0.14934   0.19965   0.21161   0.21161   0.24336
 Alpha virt. eigenvalues --    0.24336   0.31618   0.51344   0.51344   0.51534
 Alpha virt. eigenvalues --    0.62278   0.62279   0.73222   0.76948   0.80658
 Alpha virt. eigenvalues --    0.82202   0.82202   0.82406   0.82406   0.87402
 Alpha virt. eigenvalues --    1.07655   1.58864   1.58865   1.98290   2.03882
 Alpha virt. eigenvalues --    2.03884   2.26226   2.26227   2.35274   2.35276
 Alpha virt. eigenvalues --    2.64165
          Condensed to atoms (all electrons):
 Mulliken charges:
               1
     1  C   -0.347365
     2  C   -0.347365
     3  H    0.115789
     4  H    0.115789
     5  H    0.115787
     6  H    0.115786
     7  H    0.115790
     8  H    0.115789
 Sum of Mulliken charges =   0.00000
 Mulliken charges with hydrogens summed into heavy atoms:
               1
     1  C   -0.000000
     2  C    0.000000
 Electronic spatial extent (au):  <R**2>=            108.3353
 Charge=              0.0000 electrons
 Dipole moment (field-independent basis, Debye):
    X=             -0.0000    Y=              0.0000    Z=              0.0000  Tot=              0.0000
 Evaluate density.
 Using the total density.
 Monte-Carlo method of calculating molar volume:
 based on  0.001 e/bohr**3 density envelope.
 Number of points per bohr**3 =  100 CutOff= 1.00D-04
 Using the SCF density.
 There are      1392 points.  Will hold      1392 in memory.
 LenV=  1048510245 MDV=  1048576000.
 Box volume = 2697.755 fraction occupied=0.159
 Integrated density= 1.5780514607198580D+01 error=-2.2194853928014204D+00
 Molar volume =  428.307 bohr**3/mol ( 38.222 cm**3/mol)
 Recommended a0 for SCRF calculation =  3.22 angstrom (  6.09 bohr)
   1 Symmetry operations used in ECPInt.
 ECPInt:  NShTT=     300 NPrTT=    1220 LenC2=     301 LenP2D=    1136.
 LDataN:  DoStor=T MaxTD1= 5 Len=  102
 Calling FoFJK, ICntrl=      2127 FMM=F ISym2X=0 I1Cent= 0 IOpClX= 0 NMat=1 NMatS=1 NMatT=0.

 GradGradGradGradGradGradGradGradGradGradGradGradGradGradGradGradGradGrad
 FormGI is forming the generalized inverse of G from B-inverse, IUseBI=4.
 Internal  Forces:  Max     0.010709714 RMS     0.005217677
 Step number   1 out of a maximum of   38
 All quantities printed in internal units (Hartrees-Bohrs-Radians)
 Mixed Optimization -- RFO/linear search
 Second derivative matrix not updated -- first step.
 ITU=  0
     Eigenvalues ---    0.00483   0.05672   0.05672   0.05672   0.05672
     Eigenvalues ---    0.16000   0.16000   0.16000   0.16000   0.16000
     Eigenvalues ---    0.16000   0.30230   0.35073   0.35073   0.35074
     Eigenvalues ---    0.35074   0.35074   0.35075
 Linear search not attempted -- first point.
 Iteration  1 RMS(Cart)=  0.02161636 RMS(Int)=  0.00009693
 Iteration  2 RMS(Cart)=  0.00012234 RMS(Int)=  0.00004029
 Iteration  3 RMS(Cart)=  0.00000001 RMS(Int)=  0.00004029
 Variable       Old X    -DE/DX   Delta X   Delta X   Delta X     New X
                                 (Linear)    (Quad)   (Total)
    R1        2.87507   0.00575   0.00000   0.01888   0.01888   2.89395
    R2        2.05554   0.01071   0.00000   0.03033   0.03033   2.08588
    R3        2.05554   0.01070   0.00000   0.03032   0.03032   2.08586
    R4        2.05557   0.01070   0.00000   0.03030   0.03030   2.08587
    R5        2.05555   0.01071   0.00000   0.03032   0.03032   2.08587
    R6        2.05557   0.01069   0.00000   0.03029   0.03029   2.08586
    R7        2.05554   0.01071   0.00000   0.03033   0.03033   2.08588
    A1        1.93053   0.00183   0.00000   0.01127   0.01121   1.94174
    A2        1.93051   0.00183   0.00000   0.01127   0.01121   1.94172
    A3        1.93051   0.00183   0.00000   0.01128   0.01122   1.94173
    A4        1.89034  -0.00190   0.00000  -0.01174  -0.01180   1.87854
    A5        1.89035  -0.00191   0.00000  -0.01176  -0.01182   1.87853
    A6        1.89032  -0.00190   0.00000  -0.01172  -0.01178   1.87855
    A7        1.93051   0.00183   0.00000   0.01128   0.01122   1.94173
    A8        1.93051   0.00183   0.00000   0.01128   0.01121   1.94172
    A9        1.93053   0.00183   0.00000   0.01127   0.01121   1.94174
   A10        1.89032  -0.00190   0.00000  -0.01172  -0.01178   1.87855
   A11        1.89033  -0.00191   0.00000  -0.01175  -0.01181   1.87853
   A12        1.89035  -0.00191   0.00000  -0.01175  -0.01181   1.87854
    D1        1.04717   0.00000   0.00000   0.00003   0.00003   1.04720
    D2       -1.04720  -0.00000   0.00000  -0.00000  -0.00000  -1.04720
    D3        3.14157   0.00000   0.00000   0.00002   0.00002   3.14158
    D4       -1.04723   0.00000   0.00000   0.00003   0.00003  -1.04720
    D5        3.14158  -0.00000   0.00000   0.00000   0.00000   3.14158
    D6        1.04716   0.00000   0.00000   0.00002   0.00002   1.04718
    D7        3.14158  -0.00000   0.00000   0.00000   0.00000   3.14158
    D8        1.04721  -0.00000   0.00000  -0.00003  -0.00003   1.04719
    D9       -1.04721  -0.00000   0.00000  -0.00001  -0.00001  -1.04722
         Item               Value     Threshold  Converged?
 Maximum Force            0.010710     0.000015     NO 
 RMS     Force            0.005218     0.000010     NO 
 Maximum Displacement     0.041966     0.000060     NO 
 RMS     Displacement     0.021666     0.000040     NO 
 GradGradGradGradGradGradGradGradGradGradGradGradGradGradGradGradGradGrad

                    Distance matrix (angstroms):
                    1          2          3          4          5
     1  C    0.000000
     2  C    1.531414   0.000000
     3  H    1.103798   2.188400   0.000000
     4  H    1.103789   2.188380   1.781805   0.000000
     5  H    1.103795   2.188389   1.781799   1.781805   0.000000
     6  H    2.188390   1.103795   2.548495   2.548477   3.109597
     7  H    2.188379   1.103788   2.548484   3.109579   2.548467
     8  H    2.188400   1.103798   3.109614   2.548480   2.548500
                    6          7          8
     6  H    0.000000
     7  H    1.781805   0.000000
     8  H    1.781799   1.781806   0.000000
 Framework group  C1[X(C2H6)]
 Deg. of freedom    18
                         Standard orientation:                         
 ---------------------------------------------------------------------
 Center     Atomic      Atomic             Coordinates (Angstroms)
 Number     Number       Type             X           Y           Z
 ---------------------------------------------------------------------
      1          6           0        0.765707    0.000004   -0.000001
      2          6           0       -0.765707   -0.000004    0.000001
      3          1           0        1.165830   -0.547577    0.870876
      4          1           0        1.165800    1.027998    0.038773
      5          1           0        1.165814   -0.480415   -0.909657
      6          1           0       -1.165816    0.480406    0.909662
      7          1           0       -1.165798   -1.027998   -0.038783
      8          1           0       -1.165830    0.547585   -0.870871
 ---------------------------------------------------------------------
 Rotational constants (GHZ):          78.9737234          19.8268930          19.8268709
    40 basis functions,    74 primitive gaussians,    42 cartesian basis functions
     9 alpha electrons        9 beta electrons
       nuclear repulsion energy        41.9422723678 Hartrees.
 NAtoms=    8 NActive=    8 NUniq=    8 SFac= 1.00D+00 NAtFMM=   60 NAOKFM=F Big=F
 Nuclear repulsion after empirical dispersion term =       41.9403984620 Hartrees.
   1 Symmetry operations used in ECPInt.
 ECPInt:  NShTT=     300 NPrTT=    1220 LenC2=     301 LenP2D=    1136.
 LDataN:  DoStor=T MaxTD1= 4 Len=   56
 Initial guess from the checkpoint file:  "7.chk"
 B after Tr=    -0.000000   -0.000000   -0.000000
         Rot=    0.637343    0.306260   -0.637342    0.306258 Ang= 100.81 deg.
 ExpMin= 1.22D-01 ExpMax= 1.24D+03 ExpMxC= 1.86D+02 IAcc=3 IRadAn=         5 AccDes= 0.00D+00
 Harris functional with IExCor= 4639 and IRadAn=       5 diagonalized for initial guess.
 HarFok:  IExCor= 4639 AccDes= 0.00D+00 IRadAn=         5 IDoV= 1 UseB2=F ITyADJ=14
 ICtDFT=  3500011 ScaDFX=  1.000000  1.000000  1.000000  1.000000
 FoFCou: FMM=F IPFlag=           0 FMFlag=      100000 FMFlg1=           0
         NFxFlg=           0 DoJE=T BraDBF=F KetDBF=T FulRan=T
         wScrn=  0.000000 ICntrl=       500 IOpCl=  0 I1Cent=   200000004 NGrid=           0
         NMat0=    1 NMatS0=      1 NMatT0=    0 NMatD0=    1 NMtDS0=    0 NMtDT0=    0
 Petite list used in FoFCou.
     Minimum is close to point  2 DX=  3.91D-04 DF= -4.97D-12 DXR=  3.90D-04 DFR=  1.53D-07 which will be used.
 SCF Done:  E(RwB97XD) =  -79.7320083274     a.u. after    4 cycles
            Convg  =    0.2447D-09                    20 Fock formations.
              S**2 =  0.0000                  -V/T =  2.0126
   1 Symmetry operations used in ECPInt.
 ECPInt:  NShTT=     300 NPrTT=    1220 LenC2=     301 LenP2D=    1136.
 LDataN:  DoStor=T MaxTD1= 5 Len=  102
 Calling FoFJK, ICntrl=      2127 FMM=F ISym2X=0 I1Cent= 0 IOpClX= 0 NMat=1 NMatS=1 NMatT=0.

 GradGradGradGradGradGradGradGradGradGradGradGradGradGradGradGradGradGrad
 Using GEDIIS/GDIIS optimizer.
 FormGI is forming the generalized inverse of G from B-inverse, IUseBI=4.
 Internal  Forces:  Max     0.003023471 RMS     0.000576003
 Step number   2 out of a maximum of   38
 All quantities printed in internal units (Hartrees-Bohrs-Radians)
 Mixed Optimization -- En-DIIS/RFO-DIIS
 Trust test= 9.55D-01 RLast= 8.64D-02 DXMaxT set to 3.00D-01
 ITU=  1  0
 Use linear search instead of GDIIS.
     Eigenvalues ---    0.00483   0.05555   0.05555   0.05555   0.05555
     Eigenvalues ---    0.15759   0.16000   0.16000   0.16000   0.16000
     Eigenvalues ---    0.16000   0.29930   0.35073   0.35073   0.35074
     Eigenvalues ---    0.35074   0.35074   0.37052
 Quartic linear search produced a step of -0.02298.
 Iteration  1 RMS(Cart)=  0.00198534 RMS(Int)=  0.00000079
 Iteration  2 RMS(Cart)=  0.00000036 RMS(Int)=  0.00000074
 Variable       Old X    -DE/DX   Delta X   Delta X   Delta X     New X
                                 (Linear)    (Quad)   (Total)
    R1        2.89395  -0.00302  -0.00043  -0.00912  -0.00955   2.88440
    R2        2.08588  -0.00005  -0.00070   0.00090   0.00020   2.08607
    R3        2.08586  -0.00005  -0.00070   0.00091   0.00022   2.08608
    R4        2.08587  -0.00005  -0.00070   0.00090   0.00020   2.08607
    R5        2.08587  -0.00005  -0.00070   0.00090   0.00020   2.08607
    R6        2.08586  -0.00005  -0.00070   0.00091   0.00022   2.08608
    R7        2.08588  -0.00005  -0.00070   0.00090   0.00020   2.08607
    A1        1.94174   0.00010  -0.00026   0.00098   0.00073   1.94247
    A2        1.94172   0.00010  -0.00026   0.00100   0.00074   1.94247
    A3        1.94173   0.00010  -0.00026   0.00101   0.00075   1.94247
    A4        1.87854  -0.00011   0.00027  -0.00106  -0.00079   1.87775
    A5        1.87853  -0.00011   0.00027  -0.00104  -0.00077   1.87776
    A6        1.87855  -0.00011   0.00027  -0.00107  -0.00080   1.87775
    A7        1.94173   0.00010  -0.00026   0.00100   0.00075   1.94247
    A8        1.94172   0.00010  -0.00026   0.00100   0.00075   1.94246
    A9        1.94174   0.00010  -0.00026   0.00098   0.00073   1.94247
   A10        1.87855  -0.00011   0.00027  -0.00107  -0.00080   1.87775
   A11        1.87853  -0.00011   0.00027  -0.00104  -0.00077   1.87776
   A12        1.87854  -0.00011   0.00027  -0.00107  -0.00079   1.87775
    D1        1.04720  -0.00000  -0.00000  -0.00001  -0.00001   1.04718
    D2       -1.04720  -0.00000   0.00000  -0.00001  -0.00001  -1.04721
    D3        3.14158   0.00000  -0.00000   0.00000   0.00000   3.14159
    D4       -1.04720  -0.00000  -0.00000  -0.00000  -0.00000  -1.04721
    D5        3.14158   0.00000  -0.00000   0.00000   0.00000   3.14159
    D6        1.04718   0.00000  -0.00000   0.00002   0.00002   1.04720
    D7        3.14158   0.00000  -0.00000   0.00000   0.00000   3.14159
    D8        1.04719   0.00000   0.00000   0.00001   0.00001   1.04720
    D9       -1.04722   0.00000   0.00000   0.00002   0.00002  -1.04719
         Item               Value     Threshold  Converged?
 Maximum Force            0.003023     0.000015     NO 
 RMS     Force            0.000576     0.000010     NO 
 Maximum Displacement     0.004777     0.000060     NO 
 RMS     Displacement     0.001986     0.000040     NO 
 GradGradGradGradGradGradGradGradGradGradGradGradGradGradGradGradGradGrad

                    Distance matrix (angstroms):
                    1          2          3          4          5
     1  C    0.000000
     2  C    1.526358   0.000000
     3  H    1.103903   2.184541   0.000000
     4  H    1.103904   2.184541   1.781466   0.000000
     5  H    1.103902   2.184547   1.781469   1.781464   0.000000
     6  H    2.184547   1.103902   2.545242   2.545250   3.106754
     7  H    2.184541   1.103903   2.545243   3.106747   2.545246
     8  H    2.184541   1.103903   3.106747   2.545240   2.545246
                    6          7          8
     6  H    0.000000
     7  H    1.781464   0.000000
     8  H    1.781469   1.781466   0.000000
 Framework group  C1[X(C2H6)]
 Deg. of freedom    18
                         Standard orientation:                         
 ---------------------------------------------------------------------
 Center     Atomic      Atomic             Coordinates (Angstroms)
 Number     Number       Type             X           Y           Z
 ---------------------------------------------------------------------
      1          6           0        0.763179   -0.000000   -0.000001
      2          6           0       -0.763179    0.000000    0.000001
      3          1           0        1.164083   -0.989792   -0.279627
      4          1           0        1.164086    0.252727    0.996998
      5          1           0        1.164093    0.737061   -0.717363
      6          1           0       -1.164093   -0.737064    0.717359
      7          1           0       -1.164085   -0.252722   -0.996999
      8          1           0       -1.164083    0.989790    0.279632
 ---------------------------------------------------------------------
 Rotational constants (GHZ):          79.0035942          19.9193458          19.9193275
    40 basis functions,    74 primitive gaussians,    42 cartesian basis functions
     9 alpha electrons        9 beta electrons
       nuclear repulsion energy        41.9994898521 Hartrees.
 NAtoms=    8 NActive=    8 NUniq=    8 SFac= 1.00D+00 NAtFMM=   60 NAOKFM=F Big=F
 Nuclear repulsion after empirical dispersion term =       41.9976162374 Hartrees.
   1 Symmetry operations used in ECPInt.
 ECPInt:  NShTT=     300 NPrTT=    1220 LenC2=     301 LenP2D=    1136.
 LDataN:  DoStor=T MaxTD1= 4 Len=   56
 Initial guess from the checkpoint file:  "7.chk"
 B after Tr=     0.000000   -0.000000    0.000000
         Rot=    0.800651   -0.599132    0.000000    0.000003 Ang= -73.62 deg.
     Accept linear search using points  1 and  2.
     Minimum is close to point  2 DX= -3.10D-05 DF=  0.00D+00 DXR=  3.10D-05 DFR=  0.00D+00 which will be used.
 SCF Done:  E(RwB97XD) =  -79.7320259337     a.u. after    3 cycles
            Convg  =    0.9834D-10                    15 Fock formations.
              S**2 =  0.0000                  -V/T =  2.0125
   1 Symmetry operations used in ECPInt.
 ECPInt:  NShTT=     300 NPrTT=    1220 LenC2=     301 LenP2D=    1136.
 LDataN:  DoStor=T MaxTD1= 5 Len=  102
 Calling FoFJK, ICntrl=      2127 FMM=F ISym2X=0 I1Cent= 0 IOpClX= 0 NMat=1 NMatS=1 NMatT=0.

 GradGradGradGradGradGradGradGradGradGradGradGradGradGradGradGradGradGrad
 Using GEDIIS/GDIIS optimizer.
 FormGI is forming the generalized inverse of G from B-inverse, IUseBI=4.
 Internal  Forces:  Max     0.000294117 RMS     0.000114861
 Step number   3 out of a maximum of   38
 All quantities printed in internal units (Hartrees-Bohrs-Radians)
 Mixed Optimization -- En-DIIS/RFO-DIIS
 Swapping is turned off.
 Trust test= 1.18D+00 RLast= 9.93D-03 DXMaxT set to 3.00D-01
 ITU=  1  1  0
     Eigenvalues ---    0.00483   0.05548   0.05548   0.05548   0.05548
     Eigenvalues ---    0.13294   0.16000   0.16000   0.16000   0.16000
     Eigenvalues ---    0.16000   0.31849   0.35073   0.35073   0.35074
     Eigenvalues ---    0.35074   0.35074   0.35501
 En-DIIS/RFO-DIIS/Sim-DIIS IScMMF=       -3 using points:     3    2
 RFO step:  Lambda=-2.51416377D-06.
 DidBck=F Rises=F RFO-DIIS coefs:    1.26606   -0.26606
 Iteration  1 RMS(Cart)=  0.00075406 RMS(Int)=  0.00000075
 Iteration  2 RMS(Cart)=  0.00000075 RMS(Int)=  0.00000041
 Variable       Old X    -DE/DX   Delta X   Delta X   Delta X     New X
                                 (Linear)    (Quad)   (Total)
    R1        2.88440  -0.00029  -0.00254   0.00086  -0.00169   2.88271
    R2        2.08607  -0.00007   0.00005  -0.00020  -0.00015   2.08592
    R3        2.08608  -0.00007   0.00006  -0.00021  -0.00015   2.08593
    R4        2.08607  -0.00007   0.00005  -0.00021  -0.00016   2.08592
    R5        2.08607  -0.00007   0.00005  -0.00021  -0.00016   2.08592
    R6        2.08608  -0.00007   0.00006  -0.00020  -0.00015   2.08593
    R7        2.08607  -0.00007   0.00005  -0.00020  -0.00015   2.08592
    A1        1.94247   0.00014   0.00019   0.00089   0.00109   1.94355
    A2        1.94247   0.00014   0.00020   0.00090   0.00110   1.94356
    A3        1.94247   0.00014   0.00020   0.00088   0.00108   1.94355
    A4        1.87775  -0.00015  -0.00021  -0.00093  -0.00115   1.87660
    A5        1.87776  -0.00015  -0.00020  -0.00097  -0.00117   1.87658
    A6        1.87775  -0.00015  -0.00021  -0.00095  -0.00116   1.87659
    A7        1.94247   0.00014   0.00020   0.00088   0.00108   1.94355
    A8        1.94246   0.00014   0.00020   0.00090   0.00110   1.94356
    A9        1.94247   0.00014   0.00019   0.00089   0.00109   1.94355
   A10        1.87775  -0.00015  -0.00021  -0.00095  -0.00116   1.87659
   A11        1.87776  -0.00015  -0.00020  -0.00097  -0.00117   1.87658
   A12        1.87775  -0.00015  -0.00021  -0.00093  -0.00115   1.87660
    D1        1.04718   0.00000  -0.00000   0.00003   0.00003   1.04721
    D2       -1.04721   0.00000  -0.00000   0.00003   0.00003  -1.04718
    D3        3.14159   0.00000   0.00000   0.00000   0.00000   3.14159
    D4       -1.04721   0.00000  -0.00000   0.00001   0.00001  -1.04720
    D5        3.14159   0.00000   0.00000   0.00000   0.00000   3.14159
    D6        1.04720  -0.00000   0.00000  -0.00003  -0.00002   1.04718
    D7        3.14159   0.00000   0.00000   0.00000   0.00000   3.14159
    D8        1.04720  -0.00000   0.00000  -0.00000   0.00000   1.04720
    D9       -1.04719  -0.00000   0.00001  -0.00003  -0.00002  -1.04722
         Item               Value     Threshold  Converged?
 Maximum Force            0.000294     0.000015     NO 
 RMS     Force            0.000115     0.000010     NO 
 Maximum Displacement     0.001224     0.000060     NO 
 RMS     Displacement     0.000754     0.000040     NO 
 GradGradGradGradGradGradGradGradGradGradGradGradGradGradGradGradGradGrad

                    Distance matrix (angstroms):
                    1          2          3          4          5
     1  C    0.000000
     2  C    1.525466   0.000000
     3  H    1.103823   2.184473   0.000000
     4  H    1.103826   2.184484   1.780591   0.000000
     5  H    1.103819   2.184472   1.780571   1.780577   0.000000
     6  H    2.184472   1.103819   2.546213   2.546221   3.107028
     7  H    2.184484   1.103826   2.546214   3.107050   2.546220
     8  H    2.184473   1.103823   3.107033   2.546212   2.546215
                    6          7          8
     6  H    0.000000
     7  H    1.780577   0.000000
     8  H    1.780571   1.780591   0.000000
 Framework group  C1[X(C2H6)]
 Deg. of freedom    18
                         Standard orientation:                         
 ---------------------------------------------------------------------
 Center     Atomic      Atomic             Coordinates (Angstroms)
 Number     Number       Type             X           Y           Z
 ---------------------------------------------------------------------
      1          6           0        0.762733    0.000000    0.000001
      2          6           0       -0.762733   -0.000000   -0.000001
      3          1           0        1.164725   -0.800076    0.645528
      4          1           0        1.164739    0.959085    0.370106
      5          1           0        1.164729   -0.159021   -1.015640
      6          1           0       -1.164729    0.159019    1.015640
      7          1           0       -1.164739   -0.959085   -0.370108
      8          1           0       -1.164725    0.800077   -0.645527
 ---------------------------------------------------------------------
 Rotational constants (GHZ):          79.0822966          19.9275757          19.9275080
    40 basis functions,    74 primitive gaussians,    42 cartesian basis functions
     9 alpha electrons        9 beta electrons
       nuclear repulsion energy        42.0086753306 Hartrees.
 NAtoms=    8 NActive=    8 NUniq=    8 SFac= 1.00D+00 NAtFMM=   60 NAOKFM=F Big=F
 Nuclear repulsion after empirical dispersion term =       42.0068039794 Hartrees.
   1 Symmetry operations used in ECPInt.
 ECPInt:  NShTT=     300 NPrTT=    1220 LenC2=     301 LenP2D=    1136.
 LDataN:  DoStor=T MaxTD1= 4 Len=   56
 Initial guess from the checkpoint file:  "7.chk"
 B after Tr=    -0.000000    0.000000    0.000000
         Rot=    0.888320    0.459225   -0.000002    0.000001 Ang=  54.67 deg.
     Minimum is close to point  2 DX=  3.61D-07 DF=  0.00D+00 DXR=  3.61D-07 DFR=  0.00D+00 which will be used.
 SCF Done:  E(RwB97XD) =  -79.7320280127     a.u. after    2 cycles
            Convg  =    0.2345D-07                     9 Fock formations.
              S**2 =  0.0000                  -V/T =  2.0124
   1 Symmetry operations used in ECPInt.
 ECPInt:  NShTT=     300 NPrTT=    1220 LenC2=     301 LenP2D=    1136.
 LDataN:  DoStor=T MaxTD1= 5 Len=  102
 Calling FoFJK, ICntrl=      2127 FMM=F ISym2X=0 I1Cent= 0 IOpClX= 0 NMat=1 NMatS=1 NMatT=0.

 GradGradGradGradGradGradGradGradGradGradGradGradGradGradGradGradGradGrad
 Using GEDIIS/GDIIS optimizer.
 FormGI is forming the generalized inverse of G from B-inverse, IUseBI=4.
 Internal  Forces:  Max     0.000017760 RMS     0.000008601
 Step number   4 out of a maximum of   38
 All quantities printed in internal units (Hartrees-Bohrs-Radians)
 Mixed Optimization -- En-DIIS/RFO-DIIS
 Swapping is turned off.
 Trust test= 1.65D+00 RLast= 4.26D-03 DXMaxT set to 3.00D-01
 ITU=  1  1  1  0
     Eigenvalues ---    0.00483   0.05536   0.05536   0.05537   0.05537
     Eigenvalues ---    0.12439   0.16000   0.16000   0.16000   0.16000
     Eigenvalues ---    0.16001   0.32450   0.35073   0.35073   0.35074
     Eigenvalues ---    0.35074   0.35075   0.36066
 En-DIIS/RFO-DIIS/Sim-DIIS IScMMF=       -3 using points:     4    3    2
 RFO step:  Lambda=-9.22318846D-09.
 DidBck=F Rises=F RFO-DIIS coefs:    1.07589   -0.08900    0.01311
 Iteration  1 RMS(Cart)=  0.00007859 RMS(Int)=  0.00000002
 Iteration  2 RMS(Cart)=  0.00000000 RMS(Int)=  0.00000002
 Variable       Old X    -DE/DX   Delta X   Delta X   Delta X     New X
                                 (Linear)    (Quad)   (Total)
    R1        2.88271   0.00002  -0.00000   0.00001   0.00001   2.88272
    R2        2.08592   0.00001  -0.00001   0.00003   0.00002   2.08594
    R3        2.08593   0.00000  -0.00001   0.00002   0.00000   2.08593
    R4        2.08592   0.00001  -0.00001   0.00004   0.00003   2.08594
    R5        2.08592   0.00001  -0.00001   0.00004   0.00003   2.08594
    R6        2.08593   0.00000  -0.00001   0.00002   0.00000   2.08593
    R7        2.08592   0.00001  -0.00001   0.00003   0.00002   2.08594
    A1        1.94355   0.00001   0.00007   0.00001   0.00008   1.94363
    A2        1.94356   0.00001   0.00007  -0.00002   0.00005   1.94361
    A3        1.94355   0.00001   0.00007   0.00002   0.00010   1.94365
    A4        1.87660  -0.00001  -0.00008  -0.00003  -0.00011   1.87650
    A5        1.87658  -0.00001  -0.00008   0.00002  -0.00006   1.87653
    A6        1.87659  -0.00001  -0.00008  -0.00000  -0.00008   1.87651
    A7        1.94355   0.00001   0.00007   0.00003   0.00010   1.94365
    A8        1.94356   0.00001   0.00007  -0.00002   0.00005   1.94361
    A9        1.94355   0.00001   0.00007   0.00001   0.00008   1.94363
   A10        1.87659  -0.00001  -0.00008  -0.00000  -0.00008   1.87651
   A11        1.87658  -0.00001  -0.00008   0.00002  -0.00006   1.87653
   A12        1.87660  -0.00001  -0.00008  -0.00003  -0.00011   1.87650
    D1        1.04721  -0.00000   0.00000  -0.00005  -0.00005   1.04716
    D2       -1.04718  -0.00000   0.00000  -0.00005  -0.00004  -1.04723
    D3        3.14159   0.00000   0.00000   0.00000   0.00000   3.14159
    D4       -1.04720  -0.00000   0.00000  -0.00000  -0.00000  -1.04720
    D5        3.14159   0.00000   0.00000   0.00000   0.00000   3.14159
    D6        1.04718   0.00000  -0.00000   0.00005   0.00005   1.04722
    D7        3.14159   0.00000   0.00000   0.00000   0.00000   3.14159
    D8        1.04720   0.00000  -0.00000   0.00000   0.00000   1.04720
    D9       -1.04722   0.00000  -0.00000   0.00005   0.00005  -1.04717
         Item               Value     Threshold  Converged?
 Maximum Force            0.000018     0.000015     NO 
 RMS     Force            0.000009     0.000010     YES
 Maximum Displacement     0.000176     0.000060     NO 
 RMS     Displacement     0.000079     0.000040     NO 
 GradGradGradGradGradGradGradGradGradGradGradGradGradGradGradGradGradGrad

                    Distance matrix (angstroms):
                    1          2          3          4          5
     1  C    0.000000
     2  C    1.525471   0.000000
     3  H    1.103834   2.184545   0.000000
     4  H    1.103828   2.184527   1.780532   0.000000
     5  H    1.103833   2.184557   1.780554   1.780537   0.000000
     6  H    2.184557   1.103833   2.546368   2.546363   3.107155
     7  H    2.184527   1.103828   2.546356   3.107110   2.546362
     8  H    2.184545   1.103834   3.107139   2.546356   2.546368
                    6          7          8
     6  H    0.000000
     7  H    1.780537   0.000000
     8  H    1.780554   1.780532   0.000000
 Framework group  C1[X(C2H6)]
 Deg. of freedom    18
                         Standard orientation:                         
 ---------------------------------------------------------------------
 Center     Atomic      Atomic             Coordinates (Angstroms)
 Number     Number       Type             X           Y           Z
 ---------------------------------------------------------------------
      1          6           0        0.762735    0.000001   -0.000001
      2          6           0       -0.762735   -0.000001    0.000001
      3          1           0        1.164817   -0.830246   -0.606194
      4          1           0        1.164797   -0.109881    1.022108
      5          1           0        1.164833    0.940109   -0.415887
      6          1           0       -1.164833   -0.940109    0.415886
      7          1           0       -1.164797    0.109882   -1.022108
      8          1           0       -1.164817    0.830245    0.606194
 ---------------------------------------------------------------------
 Rotational constants (GHZ):          79.0857506          19.9266752          19.9265988
    40 basis functions,    74 primitive gaussians,    42 cartesian basis functions
     9 alpha electrons        9 beta electrons
       nuclear repulsion energy        42.0081757742 Hartrees.
 NAtoms=    8 NActive=    8 NUniq=    8 SFac= 1.00D+00 NAtFMM=   60 NAOKFM=F Big=F
 Nuclear repulsion after empirical dispersion term =       42.0063045820 Hartrees.
   1 Symmetry operations used in ECPInt.
 ECPInt:  NShTT=     300 NPrTT=    1220 LenC2=     301 LenP2D=    1136.
 LDataN:  DoStor=T MaxTD1= 4 Len=   56
 Initial guess from the checkpoint file:  "7.chk"
 B after Tr=     0.000000   -0.000000   -0.000000
         Rot=    0.793173   -0.608996    0.000004   -0.000001 Ang= -75.03 deg.
 SCF Done:  E(RwB97XD) =  -79.7320278290     a.u. after    2 cycles
            Convg  =    0.1822D-08                     8 Fock formations.
              S**2 =  0.0000                  -V/T =  2.0124
   1 Symmetry operations used in ECPInt.
 ECPInt:  NShTT=     300 NPrTT=    1220 LenC2=     301 LenP2D=    1136.
 LDataN:  DoStor=T MaxTD1= 5 Len=  102
 Calling FoFJK, ICntrl=      2127 FMM=F ISym2X=0 I1Cent= 0 IOpClX= 0 NMat=1 NMatS=1 NMatT=0.

 GradGradGradGradGradGradGradGradGradGradGradGradGradGradGradGradGradGrad
 Using GEDIIS/GDIIS optimizer.
 FormGI is forming the generalized inverse of G from B-inverse, IUseBI=4.
 Internal  Forces:  Max     0.000004043 RMS     0.000001518
 Step number   5 out of a maximum of   38
 All quantities printed in internal units (Hartrees-Bohrs-Radians)
 Mixed Optimization -- En-DIIS/RFO-DIIS
 Swapping is turned off.
 Trust test=-3.02D+01 RLast= 3.04D-04 DXMaxT set to 1.50D-01
 ITU= -1  1  1  1  0
     Eigenvalues ---    0.00483   0.05536   0.05536   0.05536   0.05827
     Eigenvalues ---    0.11306   0.16000   0.16000   0.16000   0.16000
     Eigenvalues ---    0.17051   0.31668   0.35055   0.35073   0.35074
     Eigenvalues ---    0.35074   0.35296   0.36060
 En-DIIS/RFO-DIIS/Sim-DIIS IScMMF=       -3 using points:     5    4    3    2
 RFO step:  Lambda=-3.47895492D-10.
 DIIS inversion failure, remove point   4.
 DIIS inversion failure, remove point   3.
 RFO-DIIS uses    2 points instead of    4
 DidBck=F Rises=F RFO-DIIS coefs:    0.96911    0.03089    0.00000    0.00000
 Iteration  1 RMS(Cart)=  0.00001266 RMS(Int)=  0.00000000
 Iteration  2 RMS(Cart)=  0.00000000 RMS(Int)=  0.00000000
 Variable       Old X    -DE/DX   Delta X   Delta X   Delta X     New X
                                 (Linear)    (Quad)   (Total)
    R1        2.88272  -0.00000  -0.00000  -0.00000  -0.00000   2.88272
    R2        2.08594   0.00000  -0.00000   0.00000   0.00000   2.08595
    R3        2.08593   0.00000  -0.00000   0.00000   0.00000   2.08594
    R4        2.08594  -0.00000  -0.00000  -0.00000  -0.00000   2.08594
    R5        2.08594  -0.00000  -0.00000  -0.00000  -0.00000   2.08594
    R6        2.08593   0.00000  -0.00000   0.00000   0.00000   2.08594
    R7        2.08594   0.00000  -0.00000   0.00000   0.00000   2.08595
    A1        1.94363  -0.00000  -0.00000  -0.00000  -0.00000   1.94363
    A2        1.94361   0.00000  -0.00000   0.00003   0.00003   1.94365
    A3        1.94365  -0.00000  -0.00000  -0.00001  -0.00002   1.94364
    A4        1.87650  -0.00000   0.00000  -0.00000   0.00000   1.87650
    A5        1.87653   0.00000   0.00000  -0.00001  -0.00001   1.87652
    A6        1.87651  -0.00000   0.00000  -0.00001  -0.00001   1.87650
    A7        1.94365  -0.00000  -0.00000  -0.00001  -0.00002   1.94364
    A8        1.94361   0.00000  -0.00000   0.00003   0.00003   1.94365
    A9        1.94363  -0.00000  -0.00000  -0.00000  -0.00000   1.94363
   A10        1.87651  -0.00000   0.00000  -0.00001  -0.00001   1.87650
   A11        1.87653   0.00000   0.00000  -0.00001  -0.00001   1.87652
   A12        1.87650  -0.00000   0.00000  -0.00000   0.00000   1.87650
    D1        1.04716   0.00000   0.00000   0.00002   0.00002   1.04719
    D2       -1.04723   0.00000   0.00000   0.00002   0.00002  -1.04720
    D3        3.14159   0.00000  -0.00000   0.00000   0.00000   3.14159
    D4       -1.04720   0.00000   0.00000   0.00000   0.00000  -1.04720
    D5        3.14159   0.00000  -0.00000   0.00000   0.00000   3.14159
    D6        1.04722  -0.00000  -0.00000  -0.00002  -0.00002   1.04720
    D7        3.14159   0.00000  -0.00000   0.00000   0.00000   3.14159
    D8        1.04720  -0.00000  -0.00000  -0.00000  -0.00000   1.04720
    D9       -1.04717  -0.00000  -0.00000  -0.00002  -0.00002  -1.04719
         Item               Value     Threshold  Converged?
 Maximum Force            0.000004     0.000015     YES
 RMS     Force            0.000002     0.000010     YES
 Maximum Displacement     0.000036     0.000060     YES
 RMS     Displacement     0.000013     0.000040     YES
 Optimization completed.
    -- Stationary point found.
                           ----------------------------
                           !   Optimized Parameters   !
                           ! (Angstroms and Degrees)  !
 --------------------------                            --------------------------
 ! Name  Definition              Value          Derivative Info.                !
 --------------------------------------------------------------------------------
 ! R1    R(1,2)                  1.5255         -DE/DX =    0.0                 !
 ! R2    R(1,3)                  1.1038         -DE/DX =    0.0                 !
 ! R3    R(1,4)                  1.1038         -DE/DX =    0.0                 !
 ! R4    R(1,5)                  1.1038         -DE/DX =    0.0                 !
 ! R5    R(2,6)                  1.1038         -DE/DX =    0.0                 !
 ! R6    R(2,7)                  1.1038         -DE/DX =    0.0                 !
 ! R7    R(2,8)                  1.1038         -DE/DX =    0.0                 !
 ! A1    A(2,1,3)              111.362          -DE/DX =    0.0                 !
 ! A2    A(2,1,4)              111.3609         -DE/DX =    0.0                 !
 ! A3    A(2,1,5)              111.363          -DE/DX =    0.0                 !
 ! A4    A(3,1,4)              107.5154         -DE/DX =    0.0                 !
 ! A5    A(3,1,5)              107.517          -DE/DX =    0.0                 !
 ! A6    A(4,1,5)              107.5159         -DE/DX =    0.0                 !
 ! A7    A(1,2,6)              111.363          -DE/DX =    0.0                 !
 ! A8    A(1,2,7)              111.3609         -DE/DX =    0.0                 !
 ! A9    A(1,2,8)              111.362          -DE/DX =    0.0                 !
 ! A10   A(6,2,7)              107.5159         -DE/DX =    0.0                 !
 ! A11   A(6,2,8)              107.517          -DE/DX =    0.0                 !
 ! A12   A(7,2,8)              107.5154         -DE/DX =    0.0                 !
 ! D1    D(3,1,2,6)             59.9981         -DE/DX =    0.0                 !
 ! D2    D(3,1,2,7)            -60.0016         -DE/DX =    0.0                 !
 ! D3    D(3,1,2,8)            180.0            -DE/DX =    0.0                 !
 ! D4    D(4,1,2,6)            -60.0003         -DE/DX =    0.0                 !
 ! D5    D(4,1,2,7)            180.0            -DE/DX =    0.0                 !
 ! D6    D(4,1,2,8)             60.0015         -DE/DX =    0.0                 !
 ! D7    D(5,1,2,6)            180.0            -DE/DX =    0.0                 !
 ! D8    D(5,1,2,7)             60.0002         -DE/DX =    0.0                 !
 ! D9    D(5,1,2,8)            -59.9982         -DE/DX =    0.0                 !
 --------------------------------------------------------------------------------
 GradGradGradGradGradGradGradGradGradGradGradGradGradGradGradGradGradGrad

                    Distance matrix (angstroms):
                    1          2          3          4          5
     1  C    0.000000
     2  C    1.525471   0.000000
     3  H    1.103834   2.184545   0.000000
     4  H    1.103828   2.184527   1.780532   0.000000
     5  H    1.103833   2.184557   1.780554   1.780537   0.000000
     6  H    2.184557   1.103833   2.546368   2.546363   3.107155
     7  H    2.184527   1.103828   2.546356   3.107110   2.546362
     8  H    2.184545   1.103834   3.107139   2.546356   2.546368
                    6          7          8
     6  H    0.000000
     7  H    1.780537   0.000000
     8  H    1.780554   1.780532   0.000000
 Framework group  C1[X(C2H6)]
 Deg. of freedom    18
                         Standard orientation:                         
 ---------------------------------------------------------------------
 Center     Atomic      Atomic             Coordinates (Angstroms)
 Number     Number       Type             X           Y           Z
 ---------------------------------------------------------------------
      1          6           0        0.762735    0.000001   -0.000001
      2          6           0       -0.762735   -0.000001    0.000001
      3          1           0        1.164817   -0.830246   -0.606194
      4          1           0        1.164797   -0.109881    1.022108
      5          1           0        1.164833    0.940109   -0.415887
      6          1           0       -1.164833   -0.940109    0.415886
      7          1           0       -1.164797    0.109882   -1.022108
      8          1           0       -1.164817    0.830245    0.606194
 ---------------------------------------------------------------------
 Rotational constants (GHZ):          79.0857506          19.9266752          19.9265988

 **********************************************************************

            Population analysis using the SCF Density.

 **********************************************************************

 Orbital symmetries:
       Occupied  (A) (A) (A) (A) (A) (A) (A) (A) (A)
       Virtual   (A) (A) (A) (A) (A) (A) (A) (A) (A) (A) (A) (A)
                 (A) (A) (A) (A) (A) (A) (A) (A) (A) (A) (A) (A)
                 (A) (A) (A) (A) (A) (A) (A)
 The electronic state is 1-A.
 Alpha  occ. eigenvalues --  -10.28032 -10.28026  -0.84185  -0.69974  -0.51949
 Alpha  occ. eigenvalues --   -0.51948  -0.45173  -0.42266  -0.42266
 Alpha virt. eigenvalues --    0.14766   0.19493   0.20702   0.20702   0.24108
 Alpha virt. eigenvalues --    0.24108   0.31509   0.50708   0.50708   0.51771
 Alpha virt. eigenvalues --    0.63178   0.63180   0.72170   0.76293   0.79956
 Alpha virt. eigenvalues --    0.80630   0.80630   0.81563   0.81564   0.85939
 Alpha virt. eigenvalues --    1.06988   1.59305   1.59307   1.97186   2.02399
 Alpha virt. eigenvalues --    2.02401   2.24184   2.24186   2.35062   2.35063
 Alpha virt. eigenvalues --    2.63459
          Condensed to atoms (all electrons):
 Mulliken charges:
               1
     1  C   -0.357275
     2  C   -0.357275
     3  H    0.119094
     4  H    0.119089
     5  H    0.119092
     6  H    0.119092
     7  H    0.119089
     8  H    0.119094
 Sum of Mulliken charges =  -0.00000
 Mulliken charges with hydrogens summed into heavy atoms:
               1
     1  C    0.000000
     2  C   -0.000000
 Electronic spatial extent (au):  <R**2>=            110.0687
 Charge=             -0.0000 electrons
 Dipole moment (field-independent basis, Debye):
    X=             -0.0000    Y=             -0.0000    Z=              0.0000  Tot=              0.0000
 Evaluate density.
 Using the total density.
 Monte-Carlo method of calculating molar volume:
 based on  0.001 e/bohr**3 density envelope.
 Number of points per bohr**3 =  100 CutOff= 1.00D-04
 Using the SCF density.
 There are      1392 points.  Will hold      1392 in memory.
 LenV=  1048510245 MDV=  1048576000.
 Box volume = 2699.051 fraction occupied=0.144
 Integrated density= 1.2463527894699077D+01 error=-5.5364721053009234D+00
 Molar volume =  387.795 bohr**3/mol ( 34.606 cm**3/mol)
 Recommended a0 for SCRF calculation =  3.13 angstrom (  5.92 bohr)
 1\1\GINC-C007\FOpt\RwB97XD\def2SVPP\C2H6\PETERCHAO1\06-Feb-2023\0\\#T 
 wB97XD/def2svpp opt=tight freq int(grid=ultrafine) scf=(verytight,qc) 
 Volume=tight\\Monomer\\0,1\C,-0.7627354979,0.0000041203,0.0000116888\C
 ,0.7627354353,-0.0000048968,-0.0000099141\H,-1.1648249703,-1.02136111,
 -0.1165470589\H,-1.1648038585,0.6116163913,-0.8262493317\H,-1.16481919
 8,0.4097700332,0.9428093506\H,1.164819113,-0.4097715661,-0.9428072548\
 H,1.1648038252,-0.611616497,0.8262515901\H,1.1648249019,1.0213604302,0
 .1165480102\\Version=ES64L-G16RevB.01\State=1-A\HF=-79.7320278\RMSD=7.
 714e-11\RMSF=2.060e-06\Dipole=0.,0.,0.\Quadrupole=-0.3495382,0.1747787
 ,0.1747594,0.0000238,-0.0000226,0.0000541\PG=C01 [X(C2H6)]\\@


 ASKING DUMB QUESTIONS IS EASIER THAN CORECTING DUMB MISTAKES.
 File lengths (MBytes):  RWF=      6 Int=      0 D2E=      0 Chk=      1 Scr=      1
 Normal termination of Gaussian 16 at Mon Feb  6 10:15:55 2023.
 Link1:  Proceeding to internal job step number  2.
 ---------------------------------------------------------------------
 #T Geom=AllCheck Guess=TCheck SCRF=Check GenChk RwB97XD/def2SVPP Freq
 ---------------------------------------------------------------------
 Structure from the checkpoint file:  "7.chk"
 -------
 Monomer
 -------
 Charge =  0 Multiplicity = 1
 Redundant internal coordinates found in file.  (old form).
 C,0,-0.7627354979,0.0000041203,0.0000116888
 C,0,0.7627354353,-0.0000048968,-0.0000099141
 H,0,-1.1648249703,-1.02136111,-0.1165470589
 H,0,-1.1648038585,0.6116163913,-0.8262493317
 H,0,-1.164819198,0.4097700332,0.9428093506
 H,0,1.164819113,-0.4097715661,-0.9428072548
 H,0,1.1648038252,-0.611616497,0.8262515901
 H,0,1.1648249019,1.0213604302,0.1165480102
 Recover connectivity data from disk.

 GradGradGradGradGradGradGradGradGradGradGradGradGradGradGradGradGradGrad
 Initialization pass.
                           ----------------------------
                           !    Initial Parameters    !
                           ! (Angstroms and Degrees)  !
 --------------------------                            --------------------------
 ! Name  Definition              Value          Derivative Info.                !
 --------------------------------------------------------------------------------
 ! R1    R(1,2)                  1.5255         calculate D2E/DX2 analytically  !
 ! R2    R(1,3)                  1.1038         calculate D2E/DX2 analytically  !
 ! R3    R(1,4)                  1.1038         calculate D2E/DX2 analytically  !
 ! R4    R(1,5)                  1.1038         calculate D2E/DX2 analytically  !
 ! R5    R(2,6)                  1.1038         calculate D2E/DX2 analytically  !
 ! R6    R(2,7)                  1.1038         calculate D2E/DX2 analytically  !
 ! R7    R(2,8)                  1.1038         calculate D2E/DX2 analytically  !
 ! A1    A(2,1,3)              111.362          calculate D2E/DX2 analytically  !
 ! A2    A(2,1,4)              111.3609         calculate D2E/DX2 analytically  !
 ! A3    A(2,1,5)              111.363          calculate D2E/DX2 analytically  !
 ! A4    A(3,1,4)              107.5154         calculate D2E/DX2 analytically  !
 ! A5    A(3,1,5)              107.517          calculate D2E/DX2 analytically  !
 ! A6    A(4,1,5)              107.5159         calculate D2E/DX2 analytically  !
 ! A7    A(1,2,6)              111.363          calculate D2E/DX2 analytically  !
 ! A8    A(1,2,7)              111.3609         calculate D2E/DX2 analytically  !
 ! A9    A(1,2,8)              111.362          calculate D2E/DX2 analytically  !
 ! A10   A(6,2,7)              107.5159         calculate D2E/DX2 analytically  !
 ! A11   A(6,2,8)              107.517          calculate D2E/DX2 analytically  !
 ! A12   A(7,2,8)              107.5154         calculate D2E/DX2 analytically  !
 ! D1    D(3,1,2,6)             59.9981         calculate D2E/DX2 analytically  !
 ! D2    D(3,1,2,7)            -60.0016         calculate D2E/DX2 analytically  !
 ! D3    D(3,1,2,8)            180.0            calculate D2E/DX2 analytically  !
 ! D4    D(4,1,2,6)            -60.0003         calculate D2E/DX2 analytically  !
 ! D5    D(4,1,2,7)            180.0            calculate D2E/DX2 analytically  !
 ! D6    D(4,1,2,8)             60.0015         calculate D2E/DX2 analytically  !
 ! D7    D(5,1,2,6)            180.0            calculate D2E/DX2 analytically  !
 ! D8    D(5,1,2,7)             60.0002         calculate D2E/DX2 analytically  !
 ! D9    D(5,1,2,8)            -59.9982         calculate D2E/DX2 analytically  !
 --------------------------------------------------------------------------------
 Number of steps in this run=      2 maximum allowed number of steps=      2.
 GradGradGradGradGradGradGradGradGradGradGradGradGradGradGradGradGradGrad

                    Distance matrix (angstroms):
                    1          2          3          4          5
     1  C    0.000000
     2  C    1.525471   0.000000
     3  H    1.103834   2.184545   0.000000
     4  H    1.103828   2.184527   1.780532   0.000000
     5  H    1.103833   2.184557   1.780554   1.780537   0.000000
     6  H    2.184557   1.103833   2.546368   2.546363   3.107155
     7  H    2.184527   1.103828   2.546356   3.107110   2.546362
     8  H    2.184545   1.103834   3.107139   2.546356   2.546368
                    6          7          8
     6  H    0.000000
     7  H    1.780537   0.000000
     8  H    1.780554   1.780532   0.000000
 Framework group  C1[X(C2H6)]
 Deg. of freedom    18
                         Standard orientation:                         
 ---------------------------------------------------------------------
 Center     Atomic      Atomic             Coordinates (Angstroms)
 Number     Number       Type             X           Y           Z
 ---------------------------------------------------------------------
      1          6           0        0.762735    0.000001   -0.000001
      2          6           0       -0.762735   -0.000001    0.000001
      3          1           0        1.164817   -0.830246   -0.606194
      4          1           0        1.164797   -0.109881    1.022108
      5          1           0        1.164833    0.940109   -0.415887
      6          1           0       -1.164833   -0.940109    0.415886
      7          1           0       -1.164797    0.109882   -1.022108
      8          1           0       -1.164817    0.830245    0.606194
 ---------------------------------------------------------------------
 Rotational constants (GHZ):          79.0857506          19.9266752          19.9265988
    40 basis functions,    74 primitive gaussians,    42 cartesian basis functions
     9 alpha electrons        9 beta electrons
       nuclear repulsion energy        42.0081757742 Hartrees.
 NAtoms=    8 NActive=    8 NUniq=    8 SFac= 1.00D+00 NAtFMM=   60 NAOKFM=F Big=F
 Nuclear repulsion after empirical dispersion term =       42.0063045820 Hartrees.
   1 Symmetry operations used in ECPInt.
 ECPInt:  NShTT=     300 NPrTT=    1220 LenC2=     301 LenP2D=    1136.
 LDataN:  DoStor=T MaxTD1= 4 Len=   56
 Initial guess from the checkpoint file:  "7.chk"
 B after Tr=     0.000000   -0.000000    0.000000
         Rot=    1.000000   -0.000000    0.000000   -0.000000 Ang=   0.00 deg.
 SCF Done:  E(RwB97XD) =  -79.7320278290     a.u. after    1 cycles
            Convg  =    0.1822D-08                     1 Fock formations.
              S**2 =  0.0000                  -V/T =  2.0124
 DoSCS=F DFT=T ScalE2(SS,OS)=  1.000000  1.000000
 NROrb=     40 NOA=     9 NOB=     9 NVA=    31 NVB=    31
   1 Symmetry operations used in ECPInt.
 ECPInt:  NShTT=     300 NPrTT=    1220 LenC2=     301 LenP2D=    1136.
 LDataN:  DoStor=T MaxTD1= 5 Len=  102
 Symmetrizing basis deriv contribution to polar:
 IMax=3 JMax=2 DiffMx= 0.00D+00
 Calling FoFCou, ICntrl=  3107 FMM=F I1Cent=   0 AccDes= 0.00D+00.
 End of G2Drv F.D. properties file   721 does not exist.
 End of G2Drv F.D. properties file   722 does not exist.
 End of G2Drv F.D. properties file   788 does not exist.
          IDoAtm=11111111
 End of Minotr F.D. properties file   721 does not exist.
 End of Minotr F.D. properties file   722 does not exist.
 End of Minotr F.D. properties file   788 does not exist.

 **********************************************************************

            Population analysis using the SCF Density.

 **********************************************************************

 Orbital symmetries:
       Occupied  (A) (A) (A) (A) (A) (A) (A) (A) (A)
       Virtual   (A) (A) (A) (A) (A) (A) (A) (A) (A) (A) (A) (A)
                 (A) (A) (A) (A) (A) (A) (A) (A) (A) (A) (A) (A)
                 (A) (A) (A) (A) (A) (A) (A)
 The electronic state is 1-A.
 Alpha  occ. eigenvalues --  -10.28032 -10.28026  -0.84185  -0.69974  -0.51949
 Alpha  occ. eigenvalues --   -0.51948  -0.45173  -0.42266  -0.42266
 Alpha virt. eigenvalues --    0.14766   0.19493   0.20702   0.20702   0.24108
 Alpha virt. eigenvalues --    0.24108   0.31509   0.50708   0.50708   0.51771
 Alpha virt. eigenvalues --    0.63178   0.63180   0.72170   0.76293   0.79956
 Alpha virt. eigenvalues --    0.80630   0.80630   0.81563   0.81564   0.85939
 Alpha virt. eigenvalues --    1.06988   1.59305   1.59307   1.97186   2.02399
 Alpha virt. eigenvalues --    2.02401   2.24184   2.24186   2.35062   2.35063
 Alpha virt. eigenvalues --    2.63459
          Condensed to atoms (all electrons):
 Mulliken charges:
               1
     1  C   -0.357275
     2  C   -0.357275
     3  H    0.119094
     4  H    0.119089
     5  H    0.119092
     6  H    0.119092
     7  H    0.119089
     8  H    0.119094
 Sum of Mulliken charges =  -0.00000
 Mulliken charges with hydrogens summed into heavy atoms:
               1
     1  C    0.000000
     2  C   -0.000000
 APT charges:
               1
     1  C    0.058439
     2  C    0.058439
     3  H   -0.019581
     4  H   -0.019496
     5  H   -0.019362
     6  H   -0.019362
     7  H   -0.019496
     8  H   -0.019581
 Sum of APT charges =  -0.00000
 APT charges with hydrogens summed into heavy atoms:
               1
     1  C    0.000000
     2  C   -0.000000
 Electronic spatial extent (au):  <R**2>=            110.0687
 Charge=             -0.0000 electrons
 Dipole moment (field-independent basis, Debye):
    X=             -0.0000    Y=             -0.0000    Z=              0.0000  Tot=              0.0000
  Exact polarizability:  24.375  -0.004  22.319   0.001   0.004  22.325
 Approx polarizability:  21.607   0.000  21.973  -0.000   0.000  21.973
   1 Symmetry operations used in ECPInt.
 ECPInt:  NShTT=     300 NPrTT=    1220 LenC2=     301 LenP2D=    1136.
 LDataN:  DoStor=T MaxTD1= 6 Len=  172
 Calling FoFJK, ICntrl=    100127 FMM=F ISym2X=0 I1Cent= 0 IOpClX= 0 NMat=1 NMatS=1 NMatT=0.
 Full mass-weighted force constant matrix:
 Low frequencies ---  -17.1247   -0.0009    0.0002    0.0003   13.5184   30.0666
 Low frequencies ---  320.4745  835.0017  836.3182
 Diagonal vibrational polarizability:
        0.1803949       0.5243367       0.5247881
 Harmonic frequencies (cm**-1), IR intensities (KM/Mole), Raman scattering
 activities (A**4/AMU), depolarization ratios for plane and unpolarized
 incident light, reduced masses (AMU), force constants (mDyne/A),
 and normal coordinates:
                      1                      2                      3
                      A                      A                      A
 Frequencies --    320.4745               835.0017               836.3182
 Red. masses --      1.0078                 1.0577                 1.0578
 Frc consts  --      0.0610                 0.4345                 0.4359
 IR Inten    --      0.0001                 5.9865                 6.0109
  Atom  AN      X      Y      Z        X      Y      Z        X      Y      Z
     1   6    -0.00   0.00  -0.00    -0.00  -0.04  -0.03     0.00   0.03  -0.04
     2   6    -0.00   0.00  -0.00    -0.00  -0.04  -0.03     0.00   0.03  -0.04
     3   1     0.00  -0.24   0.33     0.51   0.11   0.11    -0.05  -0.14   0.17
     4   1    -0.00   0.41   0.04    -0.30   0.17   0.11    -0.41  -0.14   0.11
     5   1     0.00  -0.17  -0.37    -0.21   0.14   0.16     0.46  -0.09   0.14
     6   1     0.00  -0.17  -0.37    -0.21   0.14   0.16     0.46  -0.09   0.14
     7   1    -0.00   0.41   0.04    -0.30   0.17   0.11    -0.41  -0.14   0.11
     8   1     0.00  -0.24   0.33     0.51   0.11   0.11    -0.05  -0.14   0.17
                      4                      5                      6
                      A                      A                      A
 Frequencies --   1032.1755              1225.7192              1225.9638
 Red. masses --      2.9199                 1.4724                 1.4726
 Frc consts  --      1.8328                 1.3034                 1.3041
 IR Inten    --      0.0000                 0.0000                 0.0000
  Atom  AN      X      Y      Z        X      Y      Z        X      Y      Z
     1   6     0.29  -0.00   0.00    -0.00  -0.10  -0.10     0.00   0.10  -0.10
     2   6    -0.29   0.00  -0.00     0.00   0.10   0.10    -0.00  -0.10   0.10
     3   1     0.37   0.02   0.01     0.49   0.02   0.06    -0.08  -0.16   0.21
     4   1     0.37   0.00  -0.02    -0.31   0.20   0.05    -0.38  -0.17   0.02
     5   1     0.37  -0.02   0.01    -0.18   0.12   0.22     0.46  -0.01   0.11
     6   1    -0.37   0.02  -0.01     0.18  -0.12  -0.22    -0.46   0.01  -0.11
     7   1    -0.37  -0.00   0.02     0.31  -0.20  -0.05     0.38   0.17  -0.02
     8   1    -0.37  -0.02  -0.01    -0.49  -0.02  -0.06     0.08   0.16  -0.21
                      7                      8                      9
                      A                      A                      A
 Frequencies --   1405.5369              1442.3762              1498.4261
 Red. masses --      1.1961                 1.3085                 1.0162
 Frc consts  --      1.3922                 1.6039                 1.3443
 IR Inten    --      1.6801                 0.0000                 0.0000
  Atom  AN      X      Y      Z        X      Y      Z        X      Y      Z
     1   6    -0.09   0.00   0.00     0.12  -0.00  -0.00    -0.00  -0.01   0.02
     2   6    -0.09   0.00   0.00    -0.12   0.00   0.00     0.00   0.01  -0.02
     3   1     0.37   0.14   0.10    -0.36  -0.15  -0.11     0.03   0.29  -0.38
     4   1     0.37   0.02  -0.17    -0.36  -0.02   0.18    -0.27   0.19   0.13
     5   1     0.37  -0.16   0.07    -0.36   0.17  -0.07     0.24  -0.20  -0.22
     6   1     0.37  -0.16   0.07     0.36  -0.17   0.07    -0.24   0.20   0.22
     7   1     0.37   0.02  -0.17     0.36   0.02  -0.18     0.27  -0.19  -0.13
     8   1     0.37   0.14   0.10     0.36   0.15   0.11    -0.03  -0.29   0.38
                     10                     11                     12
                      A                      A                      A
 Frequencies --   1498.5015              1498.6832              1498.8401
 Red. masses --      1.0600                 1.0163                 1.0600
 Frc consts  --      1.4024                 1.3449                 1.4030
 IR Inten    --     13.3924                 0.0000                13.3703
  Atom  AN      X      Y      Z        X      Y      Z        X      Y      Z
     1   6     0.00   0.03  -0.04    -0.00  -0.02  -0.01    -0.00  -0.04  -0.03
     2   6     0.00   0.03  -0.04     0.00   0.02   0.01    -0.00  -0.04  -0.03
     3   1    -0.01  -0.31   0.41    -0.29  -0.07  -0.11    -0.22  -0.09  -0.09
     4   1     0.20  -0.23  -0.14     0.12   0.44  -0.00     0.11   0.46  -0.01
     5   1    -0.19   0.21   0.21     0.17   0.09   0.39     0.12   0.11   0.43
     6   1    -0.19   0.21   0.21    -0.17  -0.09  -0.39     0.12   0.11   0.43
     7   1     0.20  -0.23  -0.14    -0.12  -0.44   0.00     0.11   0.46  -0.01
     8   1    -0.01  -0.31   0.41     0.29   0.07   0.11    -0.22  -0.09  -0.09
                     13                     14                     15
                      A                      A                      A
 Frequencies --   3033.1620              3035.8539              3114.5868
 Red. masses --      1.0358                 1.0405                 1.1049
 Frc consts  --      5.6144                 5.6501                 6.3148
 IR Inten    --     53.8448                 0.0000                 0.0000
  Atom  AN      X      Y      Z        X      Y      Z        X      Y      Z
     1   6    -0.04   0.00   0.00    -0.04   0.00   0.00    -0.00  -0.05  -0.04
     2   6    -0.04   0.00   0.00     0.04  -0.00  -0.00     0.00   0.05   0.04
     3   1     0.14  -0.31  -0.23     0.15  -0.31  -0.23    -0.20   0.43   0.31
     4   1     0.14  -0.04   0.38     0.14  -0.04   0.38     0.10  -0.04   0.25
     5   1     0.14   0.35  -0.15     0.14   0.35  -0.15     0.11   0.26  -0.12
     6   1     0.14   0.35  -0.15    -0.14  -0.35   0.15    -0.11  -0.26   0.12
     7   1     0.14  -0.04   0.38    -0.14   0.04  -0.38    -0.10   0.04  -0.25
     8   1     0.14  -0.31  -0.23    -0.15   0.31   0.23     0.20  -0.43  -0.31
                     16                     17                     18
                      A                      A                      A
 Frequencies --   3115.7057              3134.7864              3135.9049
 Red. masses --      1.1049                 1.1050                 1.1050
 Frc consts  --      6.3194                 6.3978                 6.4024
 IR Inten    --      0.0000                48.6239                48.5794
  Atom  AN      X      Y      Z        X      Y      Z        X      Y      Z
     1   6    -0.00   0.04  -0.05    -0.00  -0.06  -0.04    -0.00   0.04  -0.06
     2   6     0.00  -0.04   0.05    -0.00  -0.06  -0.04    -0.00   0.04  -0.06
     3   1    -0.01   0.02   0.00    -0.21   0.43   0.31    -0.01   0.02   0.00
     4   1     0.18  -0.05   0.47     0.10  -0.03   0.25     0.18  -0.05   0.47
     5   1    -0.17  -0.42   0.18     0.11   0.26  -0.12    -0.18  -0.42   0.18
     6   1     0.17   0.42  -0.18     0.11   0.26  -0.12    -0.18  -0.42   0.18
     7   1    -0.18   0.05  -0.47     0.10  -0.03   0.25     0.18  -0.05   0.47
     8   1     0.01  -0.02  -0.00    -0.21   0.43   0.31    -0.01   0.02   0.00
 
 Temperature   298.150 Kelvin.  Pressure   1.00000 Atm.
 Zero-point correction=                           0.074924 (Hartree/Particle)
 Thermal correction to Energy=                    0.078386
 Thermal correction to Enthalpy=                  0.079330
 Thermal correction to Gibbs Free Energy=         0.051818
 Sum of electronic and zero-point Energies=            -79.657103
 Sum of electronic and thermal Energies=               -79.653642
 Sum of electronic and thermal Enthalpies=             -79.652698
 Sum of electronic and thermal Free Energies=          -79.680210
 FormGI is forming the generalized inverse of G from B-inverse, IUseBI=4.

 GradGradGradGradGradGradGradGradGradGradGradGradGradGradGradGradGradGrad
 Internal  Forces:  Max     0.000004043 RMS     0.000001518
 Step number   1 out of a maximum of    2
 All quantities printed in internal units (Hartrees-Bohrs-Radians)
 Second derivative matrix not updated -- analytic derivatives used.
 ITU=  0
     Eigenvalues ---    0.00246   0.04577   0.04581   0.04739   0.04741
     Eigenvalues ---    0.12494   0.12573   0.12612   0.12635   0.17951
     Eigenvalues ---    0.17957   0.31894   0.33750   0.33774   0.33948
     Eigenvalues ---    0.33973   0.34165   0.34445
 Angle between quadratic step and forces=  36.69 degrees.
 Linear search not attempted -- first point.
 Iteration  1 RMS(Cart)=  0.00001070 RMS(Int)=  0.00000000
 Iteration  2 RMS(Cart)=  0.00000000 RMS(Int)=  0.00000000
 Variable       Old X    -DE/DX   Delta X   Delta X   Delta X     New X
                                 (Linear)    (Quad)   (Total)
    R1        2.88272  -0.00000   0.00000  -0.00000  -0.00000   2.88272
    R2        2.08594   0.00000   0.00000   0.00000   0.00000   2.08595
    R3        2.08593   0.00000   0.00000   0.00000   0.00000   2.08593
    R4        2.08594  -0.00000   0.00000  -0.00000  -0.00000   2.08594
    R5        2.08594  -0.00000   0.00000  -0.00000  -0.00000   2.08594
    R6        2.08593   0.00000   0.00000   0.00000   0.00000   2.08593
    R7        2.08594   0.00000   0.00000   0.00000   0.00000   2.08595
    A1        1.94363  -0.00000   0.00000  -0.00000  -0.00000   1.94363
    A2        1.94361   0.00000   0.00000   0.00003   0.00003   1.94364
    A3        1.94365  -0.00000   0.00000  -0.00002  -0.00002   1.94363
    A4        1.87650  -0.00000   0.00000   0.00001   0.00001   1.87650
    A5        1.87653   0.00000   0.00000  -0.00001  -0.00001   1.87652
    A6        1.87651  -0.00000   0.00000  -0.00000  -0.00000   1.87650
    A7        1.94365  -0.00000   0.00000  -0.00002  -0.00002   1.94363
    A8        1.94361   0.00000   0.00000   0.00003   0.00003   1.94364
    A9        1.94363  -0.00000   0.00000  -0.00000  -0.00000   1.94363
   A10        1.87651  -0.00000   0.00000  -0.00000  -0.00000   1.87650
   A11        1.87653   0.00000   0.00000  -0.00001  -0.00001   1.87652
   A12        1.87650  -0.00000   0.00000   0.00001   0.00001   1.87650
    D1        1.04716   0.00000   0.00000   0.00003   0.00003   1.04719
    D2       -1.04723   0.00000   0.00000   0.00003   0.00003  -1.04720
    D3        3.14159   0.00000   0.00000   0.00000   0.00000   3.14159
    D4       -1.04720   0.00000   0.00000   0.00000   0.00000  -1.04720
    D5        3.14159   0.00000   0.00000   0.00000   0.00000   3.14159
    D6        1.04722  -0.00000   0.00000  -0.00002  -0.00002   1.04720
    D7        3.14159   0.00000   0.00000   0.00000   0.00000   3.14159
    D8        1.04720  -0.00000   0.00000  -0.00000  -0.00000   1.04720
    D9       -1.04717  -0.00000   0.00000  -0.00002  -0.00002  -1.04719
         Item               Value     Threshold  Converged?
 Maximum Force            0.000004     0.000015     YES
 RMS     Force            0.000002     0.000010     YES
 Maximum Displacement     0.000026     0.000060     YES
 RMS     Displacement     0.000011     0.000040     YES
 Optimization completed.
    -- Stationary point found.
                           ----------------------------
                           !   Optimized Parameters   !
                           ! (Angstroms and Degrees)  !
 --------------------------                            --------------------------
 ! Name  Definition              Value          Derivative Info.                !
 --------------------------------------------------------------------------------
 ! R1    R(1,2)                  1.5255         -DE/DX =    0.0                 !
 ! R2    R(1,3)                  1.1038         -DE/DX =    0.0                 !
 ! R3    R(1,4)                  1.1038         -DE/DX =    0.0                 !
 ! R4    R(1,5)                  1.1038         -DE/DX =    0.0                 !
 ! R5    R(2,6)                  1.1038         -DE/DX =    0.0                 !
 ! R6    R(2,7)                  1.1038         -DE/DX =    0.0                 !
 ! R7    R(2,8)                  1.1038         -DE/DX =    0.0                 !
 ! A1    A(2,1,3)              111.362          -DE/DX =    0.0                 !
 ! A2    A(2,1,4)              111.3609         -DE/DX =    0.0                 !
 ! A3    A(2,1,5)              111.363          -DE/DX =    0.0                 !
 ! A4    A(3,1,4)              107.5154         -DE/DX =    0.0                 !
 ! A5    A(3,1,5)              107.517          -DE/DX =    0.0                 !
 ! A6    A(4,1,5)              107.5159         -DE/DX =    0.0                 !
 ! A7    A(1,2,6)              111.363          -DE/DX =    0.0                 !
 ! A8    A(1,2,7)              111.3609         -DE/DX =    0.0                 !
 ! A9    A(1,2,8)              111.362          -DE/DX =    0.0                 !
 ! A10   A(6,2,7)              107.5159         -DE/DX =    0.0                 !
 ! A11   A(6,2,8)              107.517          -DE/DX =    0.0                 !
 ! A12   A(7,2,8)              107.5154         -DE/DX =    0.0                 !
 ! D1    D(3,1,2,6)             59.9981         -DE/DX =    0.0                 !
 ! D2    D(3,1,2,7)            -60.0016         -DE/DX =    0.0                 !
 ! D3    D(3,1,2,8)            180.0            -DE/DX =    0.0                 !
 ! D4    D(4,1,2,6)            -60.0003         -DE/DX =    0.0                 !
 ! D5    D(4,1,2,7)            180.0            -DE/DX =    0.0                 !
 ! D6    D(4,1,2,8)             60.0015         -DE/DX =    0.0                 !
 ! D7    D(5,1,2,6)            180.0            -DE/DX =    0.0                 !
 ! D8    D(5,1,2,7)             60.0002         -DE/DX =    0.0                 !
 ! D9    D(5,1,2,8)            -59.9982         -DE/DX =    0.0                 !
 --------------------------------------------------------------------------------
 GradGradGradGradGradGradGradGradGradGradGradGradGradGradGradGradGradGrad

 Dipole is zero, so no output in dipole orientation.

 ----------------------------------------------------------------------

 Electric dipole moment (input orientation):
 (Debye = 10**-18 statcoulomb cm , SI units = C m)
                  (au)            (Debye)         (10**-30 SI)
   Tot        0.000000D+00      0.000000D+00      0.000000D+00
   x          0.000000D+00      0.000000D+00      0.000000D+00
   y          0.000000D+00      0.000000D+00      0.000000D+00
   z          0.000000D+00      0.000000D+00      0.000000D+00

 Dipole polarizability, Alpha (input orientation).
 (esu units = cm**3 , SI units = C**2 m**2 J**-1)
 Alpha(0;0):
               (au)            (10**-24 esu)      (10**-40 SI)
   iso        0.230062D+02      0.340916D+01      0.379321D+01
   aniso      0.205354D+01      0.304303D+00      0.338583D+00
   xx         0.243752D+02      0.361203D+01      0.401893D+01
   yx         0.201928D-02      0.299227D-03      0.332935D-03
   yy         0.223259D+02      0.330836D+01      0.368104D+01
   zx         0.309756D-02      0.459011D-03      0.510719D-03
   zy        -0.345791D-02     -0.512410D-03     -0.570133D-03
   zz         0.223175D+02      0.330711D+01      0.367965D+01

 ----------------------------------------------------------------------
 1\1\GINC-C007\Freq\RwB97XD\def2SVPP\C2H6\PETERCHAO1\06-Feb-2023\0\\#T 
 Geom=AllCheck Guess=TCheck SCRF=Check GenChk RwB97XD/def2SVPP Freq\\Mo
 nomer\\0,1\C,-0.7627354979,0.0000041203,0.0000116888\C,0.7627354353,-0
 .0000048968,-0.0000099141\H,-1.1648249703,-1.02136111,-0.1165470589\H,
 -1.1648038585,0.6116163913,-0.8262493317\H,-1.164819198,0.4097700332,0
 .9428093506\H,1.164819113,-0.4097715661,-0.9428072548\H,1.1648038252,-
 0.611616497,0.8262515901\H,1.1648249019,1.0213604302,0.1165480102\\Ver
 sion=ES64L-G16RevB.01\State=1-A\HF=-79.7320278\RMSD=7.714e-11\RMSF=2.0
 60e-06\ZeroPoint=0.0749244\Thermal=0.0783856\Dipole=0.,0.,0.\DipoleDer
 iv=0.0566192,0.0000245,0.0000871,-0.0001965,0.0594754,-0.0000094,0.000
 1035,-0.0000854,0.0592217,0.0566192,0.0000245,0.0000871,-0.0001965,0.0
 594755,-0.0000095,0.0001035,-0.0000853,0.0592217,-0.019057,-0.0576747,
 -0.006604,-0.0948654,-0.1149848,-0.0219982,-0.0108791,-0.0218769,0.075
 2997,-0.0187859,0.0345622,-0.0466826,0.0569721,0.008516,0.0935108,-0.0
 767412,0.0933645,-0.048219,-0.0187763,0.0230879,0.0531996,0.0380898,0.
 0469933,-0.0715031,0.0875168,-0.0714023,-0.0863025,-0.0187763,0.023087
 9,0.0531996,0.0380899,0.0469932,-0.0715033,0.0875168,-0.0714024,-0.086
 3024,-0.018786,0.0345622,-0.0466826,0.056972,0.0085162,0.0935108,-0.07
 67412,0.0933645,-0.0482191,-0.019057,-0.0576747,-0.006604,-0.0948654,-
 0.1149848,-0.0219981,-0.010879,-0.0218768,0.0752998\Polar=24.3751873,0
 .0020193,22.3258968,0.0030976,-0.0034579,22.3174642\Quadrupole=-0.3495
 382,0.1747787,0.1747594,0.0000238,-0.0000226,0.0000541\PG=C01 [X(C2H6)
 ]\NImag=0\\0.50172175,-0.00013183,0.58318950,0.00005100,-0.00002421,0.
 58348333,-0.22459666,0.00002380,0.00000902,0.50172175,0.00002380,-0.08
 358290,-0.00000089,-0.00013183,0.58318950,0.00000902,-0.00000088,-0.08
 356209,0.00005101,-0.00002421,0.58348333,-0.08092181,-0.08628193,-0.00
 984841,-0.01138795,-0.03259127,-0.00371847,0.08890549,-0.08802328,-0.2
 8229805,-0.02647004,0.00161950,0.00327714,0.00043145,0.09552220,0.2984
 0143,-0.01004363,-0.02648322,-0.05343588,0.00018342,0.00042581,-0.0004
 3883,0.01089936,0.02880794,0.04936298,-0.08103056,0.05174905,-0.069886
 03,-0.01138729,0.01951060,-0.02634879,0.00389162,-0.00562813,0.0098856
 3,0.08901606,0.05277546,-0.13372268,0.11244787,-0.00095878,0.00087765,
 -0.00181995,0.01107868,-0.01353341,0.02264049,-0.05729169,0.13669511,-
 0.07130246,0.11247792,-0.20240606,0.00130560,-0.00181944,0.00196544,0.
 00262877,-0.00354900,0.00427592,0.07736229,-0.12236851,0.21145186,-0.0
 8101245,0.03465087,0.07967729,-0.01138501,0.01307070,0.03006440,0.0038
 9144,-0.00325980,-0.01089790,0.00388778,-0.00574105,-0.00980979,0.0889
 9419,0.03533924,-0.08786504,-0.08596121,-0.00064412,0.00012438,0.00139
 699,0.01137198,-0.00842436,-0.02556733,-0.00780099,0.00810370,0.016011
 41,-0.03835747,0.08679197,0.08128771,-0.08596881,-0.24831486,-0.001490
 66,0.00139283,0.00270895,-0.00006287,0.00060250,-0.00080773,0.00826667
 ,-0.01014576,-0.01732592,-0.08821099,0.09354275,0.26139327,-0.01138501
 ,0.01307071,0.03006440,-0.08101245,0.03465094,0.07967726,0.00133589,-0
 .00045306,0.00006116,0.00132983,0.00035334,-0.00028582,-0.00704166,-0.
 00026353,-0.00059835,0.08899419,-0.00064413,0.00012438,0.00139700,0.03
 533931,-0.08786518,-0.08596135,0.00007315,0.00042090,0.00064513,0.0002
 8173,-0.00019497,-0.00028870,-0.00026353,0.00104341,0.00022097,-0.0383
 5753,0.08679212,-0.00149066,0.00139283,0.00270894,0.08128768,-0.085968
 93,-0.24831472,0.00045045,0.00028520,0.00013805,0.00035804,0.00007031,
 0.00075268,-0.00059834,0.00022097,0.00145556,-0.08821096,0.09354289,0.
 26139313,-0.01138729,0.01951059,-0.02634880,-0.08103057,0.05174899,-0.
 06988608,0.00133592,-0.00042709,-0.00016025,-0.00704335,-0.00039349,0.
 00052245,0.00132984,0.00028173,0.00035804,0.00388778,-0.00780098,0.008
 26668,0.08901606,-0.00095877,0.00087764,-0.00181995,0.05277540,-0.1337
 2250,0.11244780,0.00017754,0.00061216,-0.00053630,-0.00039349,0.001162
 43,-0.00028814,0.00035334,-0.00019497,0.00007031,-0.00574106,0.0081037
 1,-0.01014578,-0.05729164,0.13669491,0.00130561,-0.00181944,0.00196544
 ,-0.07130251,0.11247786,-0.20240624,-0.00042104,-0.00017553,-0.0000520
 6,0.00052245,-0.00028814,0.00133813,-0.00028582,-0.00028870,0.00075268
 ,-0.00980979,0.01601139,-0.01732592,0.07736234,-0.12236845,0.21145206,
 -0.01138795,-0.03259128,-0.00371845,-0.08092181,-0.08628194,-0.0098483
 4,-0.00705059,0.00064966,0.00007222,0.00133593,0.00017754,-0.00042104,
 0.00133589,0.00007315,0.00045045,0.00389144,0.01137198,-0.00006288,0.0
 0389162,0.01107868,0.00262876,0.08890549,0.00161950,0.00327714,0.00043
 144,-0.08802329,-0.28229809,-0.02646986,0.00064966,0.00154417,0.000067
 49,-0.00042709,0.00061217,-0.00017553,-0.00045306,0.00042090,0.0002852
 0,-0.00325981,-0.00842438,0.00060250,-0.00562812,-0.01353339,-0.003548
 99,0.09552220,0.29840147,0.00018341,0.00042580,-0.00043883,-0.01004355
 ,-0.02648303,-0.05343584,0.00007222,0.00006749,0.00095755,-0.00016026,
 -0.00053630,-0.00005206,0.00006116,0.00064513,0.00013804,-0.01089790,-
 0.02556733,-0.00080771,0.00988563,0.02264050,0.00427591,0.01089929,0.0
 2880774,0.04936293\\-0.00000108,-0.00000222,0.00000518,0.00000108,0.00
 000222,-0.00000519,-0.00000062,0.00000139,-0.00000196,0.00000292,0.000
 00041,0.00000020,-0.00000150,0.00000022,0.00000089,0.00000150,-0.00000
 023,-0.00000089,-0.00000292,-0.00000041,-0.00000019,0.00000062,-0.0000
 0139,0.00000196\\\@


 You never know when you're making a memory.
                        -- Rickie Lee Jones
 File lengths (MBytes):  RWF=      6 Int=      0 D2E=      0 Chk=      1 Scr=      1
 Normal termination of Gaussian 16 at Mon Feb  6 10:16:17 2023.
real 81.20
user 138.84
sys 5.78
