 Entering Gaussian System, Link 0=g16
 Input=gaussian_test.inp
 Output=gaussian_test.log
 Initial command:
 /sw/restricted/lms/sw/Gaussian/g16_B01/g16/l1.exe "/scratch/user/peterchao1/peterchao1/9993837_1712002017000000858164427/Gau-31490.inp" -scrdir="/scratch/user/peterchao1/peterchao1/9993837_1712002017000000858164427/"
 Entering Link 1 = /sw/restricted/lms/sw/Gaussian/g16_B01/g16/l1.exe PID=     31491.
  
 Copyright (c) 1988-2017, Gaussian, Inc.  All Rights Reserved.
  
 This is part of the Gaussian(R) 16 program.  It is based on
 the Gaussian(R) 09 system (copyright 2009, Gaussian, Inc.),
 the Gaussian(R) 03 system (copyright 2003, Gaussian, Inc.),
 the Gaussian(R) 98 system (copyright 1998, Gaussian, Inc.),
 the Gaussian(R) 94 system (copyright 1995, Gaussian, Inc.),
 the Gaussian 92(TM) system (copyright 1992, Gaussian, Inc.),
 the Gaussian 90(TM) system (copyright 1990, Gaussian, Inc.),
 the Gaussian 88(TM) system (copyright 1988, Gaussian, Inc.),
 the Gaussian 86(TM) system (copyright 1986, Carnegie Mellon
 University), and the Gaussian 82(TM) system (copyright 1983,
 Carnegie Mellon University). Gaussian is a federally registered
 trademark of Gaussian, Inc.
  
 This software contains proprietary and confidential information,
 including trade secrets, belonging to Gaussian, Inc.
  
 This software is provided under written license and may be
 used, copied, transmitted, or stored only in accord with that
 written license.
  
 The following legend is applicable only to US Government
 contracts under FAR:
  
                    RESTRICTED RIGHTS LEGEND
  
 Use, reproduction and disclosure by the US Government is
 subject to restrictions as set forth in subparagraphs (a)
 and (c) of the Commercial Computer Software - Restricted
 Rights clause in FAR 52.227-19.
  
 Gaussian, Inc.
 340 Quinnipiac St., Bldg. 40, Wallingford CT 06492
  
  
 ---------------------------------------------------------------
 Warning -- This program may not be used in any manner that
 competes with the business of Gaussian, Inc. or will provide
 assistance to any competitor of Gaussian, Inc.  The licensee
 of this program is prohibited from giving any competitor of
 Gaussian, Inc. access to this program.  By using this program,
 the user acknowledges that Gaussian, Inc. is engaged in the
 business of creating and licensing software in the field of
 computational chemistry and represents and warrants to the
 licensee that it is not a competitor of Gaussian, Inc. and that
 it will not use this program in any manner prohibited above.
 ---------------------------------------------------------------
  

 Cite this work as:
 Gaussian 16, Revision B.01,
 M. J. Frisch, G. W. Trucks, H. B. Schlegel, G. E. Scuseria, 
 M. A. Robb, J. R. Cheeseman, G. Scalmani, V. Barone, 
 G. A. Petersson, H. Nakatsuji, X. Li, M. Caricato, A. V. Marenich, 
 J. Bloino, B. G. Janesko, R. Gomperts, B. Mennucci, H. P. Hratchian, 
 J. V. Ortiz, A. F. Izmaylov, J. L. Sonnenberg, D. Williams-Young, 
 F. Ding, F. Lipparini, F. Egidi, J. Goings, B. Peng, A. Petrone, 
 T. Henderson, D. Ranasinghe, V. G. Zakrzewski, J. Gao, N. Rega, 
 G. Zheng, W. Liang, M. Hada, M. Ehara, K. Toyota, R. Fukuda, 
 J. Hasegawa, M. Ishida, T. Nakajima, Y. Honda, O. Kitao, H. Nakai, 
 T. Vreven, K. Throssell, J. A. Montgomery, Jr., J. E. Peralta, 
 F. Ogliaro, M. J. Bearpark, J. J. Heyd, E. N. Brothers, K. N. Kudin, 
 V. N. Staroverov, T. A. Keith, R. Kobayashi, J. Normand, 
 K. Raghavachari, A. P. Rendell, J. C. Burant, S. S. Iyengar, 
 J. Tomasi, M. Cossi, J. M. Millam, M. Klene, C. Adamo, R. Cammi, 
 J. W. Ochterski, R. L. Martin, K. Morokuma, O. Farkas, 
 J. B. Foresman, and D. J. Fox, Gaussian, Inc., Wallingford CT, 2016.
 
 ******************************************
 Gaussian 16:  ES64L-G16RevB.01 20-Dec-2017
                 1-Apr-2024 
 ******************************************
 %nprocshared=4
 Will use up to    4 processors via shared memory.
 %mem=8000mb
 %chk=dimer.chk
 %nprocshared=4
 Will use up to    4 processors via shared memory.
 %mem=8000mb
 ----------------------------------------------------------------------
 #T wB97XD/def2svpp opt=tight freq int(grid=ultrafine) scf=(verytight,q
 c) Volume=tight
 ----------------------------------------------------------------------
 -----
 Dimer
 -----
 Symbolic Z-matrix:
 Charge =  0 Multiplicity = 1
 C                     4.08692   1.26007   0.26781 
 C                     3.50026   0.01662  -0.40086 
 C                     4.09871  -1.26447   0.18043 
 C                     1.97936   0.00645  -0.28148 
 N                     1.47708  -0.04006   0.9507 
 O                     1.26929   0.04021  -1.28071 
 H                     5.16005   1.30312   0.09412 
 H                     3.91728   1.24815   1.34268 
 H                     3.63532   2.1608   -0.14171 
 H                     3.72238   0.05476  -1.47193 
 H                     3.65615  -2.13898  -0.29109 
 H                     3.9288   -1.32899   1.25338 
 H                     5.17225  -1.2848    0.00515 
 H                     2.07833  -0.06611   1.75397 
 H                     0.45786  -0.04665   1.10225 
 C                    -4.08946   1.27385  -0.18033 
 C                    -3.50037  -0.01162   0.40093 
 C                    -4.09596  -1.25058  -0.26813 
 C                    -1.97942  -0.01169   0.28159 
 N                    -1.47698   0.03107  -0.95065 
 O                    -1.26946  -0.04969   1.28074 
 H                    -3.91978   1.33665  -1.25342 
 H                    -3.6398    2.14508   0.29055 
 H                    -5.16269   1.30258  -0.00432 
 H                    -3.7229   -0.04825   1.47196 
 H                    -3.65095  -2.15466   0.14117 
 H                    -3.92619  -1.23962  -1.34298 
 H                    -5.16938  -1.2859   -0.0945 
 H                    -2.07804   0.06163  -1.75389 
 H                    -0.45774   0.03426  -1.1022 
 
 Add virtual bond connecting atoms O21        and H15        Dist= 3.28D+00.
 Add virtual bond connecting atoms H30        and O6         Dist= 3.28D+00.

 GradGradGradGradGradGradGradGradGradGradGradGradGradGradGradGradGradGrad
 Initialization pass.
                           ----------------------------
                           !    Initial Parameters    !
                           ! (Angstroms and Degrees)  !
 --------------------------                            --------------------------
 ! Name  Definition              Value          Derivative Info.                !
 --------------------------------------------------------------------------------
 ! R1    R(1,2)                  1.5289         estimate D2E/DX2                !
 ! R2    R(1,7)                  1.0879         estimate D2E/DX2                !
 ! R3    R(1,8)                  1.0882         estimate D2E/DX2                !
 ! R4    R(1,9)                  1.0876         estimate D2E/DX2                !
 ! R5    R(2,3)                  1.5288         estimate D2E/DX2                !
 ! R6    R(2,4)                  1.5256         estimate D2E/DX2                !
 ! R7    R(2,10)                 1.0945         estimate D2E/DX2                !
 ! R8    R(3,11)                 1.0876         estimate D2E/DX2                !
 ! R9    R(3,12)                 1.0882         estimate D2E/DX2                !
 ! R10   R(3,13)                 1.0879         estimate D2E/DX2                !
 ! R11   R(4,5)                  1.3314         estimate D2E/DX2                !
 ! R12   R(4,6)                  1.2263         estimate D2E/DX2                !
 ! R13   R(5,14)                 1.0037         estimate D2E/DX2                !
 ! R14   R(5,15)                 1.0304         estimate D2E/DX2                !
 ! R15   R(6,30)                 1.7362         estimate D2E/DX2                !
 ! R16   R(15,21)                1.7365         estimate D2E/DX2                !
 ! R17   R(16,17)                1.5288         estimate D2E/DX2                !
 ! R18   R(16,22)                1.0882         estimate D2E/DX2                !
 ! R19   R(16,23)                1.0876         estimate D2E/DX2                !
 ! R20   R(16,24)                1.0879         estimate D2E/DX2                !
 ! R21   R(17,18)                1.5289         estimate D2E/DX2                !
 ! R22   R(17,19)                1.5256         estimate D2E/DX2                !
 ! R23   R(17,25)                1.0945         estimate D2E/DX2                !
 ! R24   R(18,26)                1.0876         estimate D2E/DX2                !
 ! R25   R(18,27)                1.0882         estimate D2E/DX2                !
 ! R26   R(18,28)                1.0879         estimate D2E/DX2                !
 ! R27   R(19,20)                1.3314         estimate D2E/DX2                !
 ! R28   R(19,21)                1.2263         estimate D2E/DX2                !
 ! R29   R(20,29)                1.0037         estimate D2E/DX2                !
 ! R30   R(20,30)                1.0304         estimate D2E/DX2                !
 ! A1    A(2,1,7)              109.9291         estimate D2E/DX2                !
 ! A2    A(2,1,8)              111.3001         estimate D2E/DX2                !
 ! A3    A(2,1,9)              110.4594         estimate D2E/DX2                !
 ! A4    A(7,1,8)              108.1731         estimate D2E/DX2                !
 ! A5    A(7,1,9)              108.4621         estimate D2E/DX2                !
 ! A6    A(8,1,9)              108.4355         estimate D2E/DX2                !
 ! A7    A(1,2,3)              111.4091         estimate D2E/DX2                !
 ! A8    A(1,2,4)              110.7159         estimate D2E/DX2                !
 ! A9    A(1,2,10)             108.7704         estimate D2E/DX2                !
 ! A10   A(3,2,4)              110.7875         estimate D2E/DX2                !
 ! A11   A(3,2,10)             108.7739         estimate D2E/DX2                !
 ! A12   A(4,2,10)             106.2078         estimate D2E/DX2                !
 ! A13   A(2,3,11)             110.466          estimate D2E/DX2                !
 ! A14   A(2,3,12)             111.3121         estimate D2E/DX2                !
 ! A15   A(2,3,13)             109.9179         estimate D2E/DX2                !
 ! A16   A(11,3,12)            108.4352         estimate D2E/DX2                !
 ! A17   A(11,3,13)            108.4598         estimate D2E/DX2                !
 ! A18   A(12,3,13)            108.168          estimate D2E/DX2                !
 ! A19   A(2,4,5)              116.6626         estimate D2E/DX2                !
 ! A20   A(2,4,6)              120.884          estimate D2E/DX2                !
 ! A21   A(5,4,6)              122.4534         estimate D2E/DX2                !
 ! A22   A(4,5,14)             121.0353         estimate D2E/DX2                !
 ! A23   A(4,5,15)             120.6285         estimate D2E/DX2                !
 ! A24   A(14,5,15)            118.3358         estimate D2E/DX2                !
 ! A25   A(4,6,30)             119.4785         estimate D2E/DX2                !
 ! A26   A(17,16,22)           111.3061         estimate D2E/DX2                !
 ! A27   A(17,16,23)           110.4633         estimate D2E/DX2                !
 ! A28   A(17,16,24)           109.9259         estimate D2E/DX2                !
 ! A29   A(22,16,23)           108.4352         estimate D2E/DX2                !
 ! A30   A(22,16,24)           108.1687         estimate D2E/DX2                !
 ! A31   A(23,16,24)           108.4599         estimate D2E/DX2                !
 ! A32   A(16,17,18)           111.4009         estimate D2E/DX2                !
 ! A33   A(16,17,19)           110.7591         estimate D2E/DX2                !
 ! A34   A(16,17,25)           108.7746         estimate D2E/DX2                !
 ! A35   A(18,17,19)           110.7385         estimate D2E/DX2                !
 ! A36   A(18,17,25)           108.7779         estimate D2E/DX2                !
 ! A37   A(19,17,25)           106.2147         estimate D2E/DX2                !
 ! A38   A(17,18,26)           110.4595         estimate D2E/DX2                !
 ! A39   A(17,18,27)           111.3035         estimate D2E/DX2                !
 ! A40   A(17,18,28)           109.9279         estimate D2E/DX2                !
 ! A41   A(26,18,27)           108.4355         estimate D2E/DX2                !
 ! A42   A(26,18,28)           108.4603         estimate D2E/DX2                !
 ! A43   A(27,18,28)           108.1725         estimate D2E/DX2                !
 ! A44   A(17,19,20)           116.6547         estimate D2E/DX2                !
 ! A45   A(17,19,21)           120.8937         estimate D2E/DX2                !
 ! A46   A(20,19,21)           122.4516         estimate D2E/DX2                !
 ! A47   A(19,20,29)           121.041          estimate D2E/DX2                !
 ! A48   A(19,20,30)           120.6293         estimate D2E/DX2                !
 ! A49   A(29,20,30)           118.3297         estimate D2E/DX2                !
 ! A50   A(15,21,19)           119.4779         estimate D2E/DX2                !
 ! A51   L(5,15,21,30,-1)      177.4341         estimate D2E/DX2                !
 ! A52   L(6,30,20,15,-1)      177.4463         estimate D2E/DX2                !
 ! A53   L(5,15,21,30,-2)      180.1802         estimate D2E/DX2                !
 ! A54   L(6,30,20,15,-2)      179.8845         estimate D2E/DX2                !
 ! D1    D(7,1,2,3)             61.5708         estimate D2E/DX2                !
 ! D2    D(7,1,2,4)           -174.6609         estimate D2E/DX2                !
 ! D3    D(7,1,2,10)           -58.3204         estimate D2E/DX2                !
 ! D4    D(8,1,2,3)            -58.2601         estimate D2E/DX2                !
 ! D5    D(8,1,2,4)             65.5083         estimate D2E/DX2                !
 ! D6    D(8,1,2,10)          -178.1512         estimate D2E/DX2                !
 ! D7    D(9,1,2,3)           -178.773          estimate D2E/DX2                !
 ! D8    D(9,1,2,4)            -55.0046         estimate D2E/DX2                !
 ! D9    D(9,1,2,10)            61.3358         estimate D2E/DX2                !
 ! D10   D(1,2,3,11)           178.8253         estimate D2E/DX2                !
 ! D11   D(1,2,3,12)            58.3004         estimate D2E/DX2                !
 ! D12   D(1,2,3,13)           -61.5243         estimate D2E/DX2                !
 ! D13   D(4,2,3,11)            55.0976         estimate D2E/DX2                !
 ! D14   D(4,2,3,12)           -65.4274         estimate D2E/DX2                !
 ! D15   D(4,2,3,13)           174.748          estimate D2E/DX2                !
 ! D16   D(10,2,3,11)          -61.2856         estimate D2E/DX2                !
 ! D17   D(10,2,3,12)          178.1895         estimate D2E/DX2                !
 ! D18   D(10,2,3,13)           58.3648         estimate D2E/DX2                !
 ! D19   D(1,2,4,5)            -62.1633         estimate D2E/DX2                !
 ! D20   D(1,2,4,6)            117.8181         estimate D2E/DX2                !
 ! D21   D(3,2,4,5)             61.9614         estimate D2E/DX2                !
 ! D22   D(3,2,4,6)           -118.0572         estimate D2E/DX2                !
 ! D23   D(10,2,4,5)           179.9201         estimate D2E/DX2                !
 ! D24   D(10,2,4,6)            -0.0985         estimate D2E/DX2                !
 ! D25   D(2,4,5,14)             0.046          estimate D2E/DX2                !
 ! D26   D(2,4,5,15)           179.8187         estimate D2E/DX2                !
 ! D27   D(6,4,5,14)          -179.9351         estimate D2E/DX2                !
 ! D28   D(6,4,5,15)            -0.1624         estimate D2E/DX2                !
 ! D29   D(2,4,6,30)          -179.7289         estimate D2E/DX2                !
 ! D30   D(5,4,6,30)             0.2514         estimate D2E/DX2                !
 ! D31   D(4,5,21,19)            0.0491         estimate D2E/DX2                !
 ! D32   D(14,5,21,19)         179.7023         estimate D2E/DX2                !
 ! D33   D(4,6,20,19)           -0.1009         estimate D2E/DX2                !
 ! D34   D(4,6,20,29)          179.7762         estimate D2E/DX2                !
 ! D35   D(22,16,17,18)        -58.2372         estimate D2E/DX2                !
 ! D36   D(22,16,17,19)         65.4932         estimate D2E/DX2                !
 ! D37   D(22,16,17,25)       -178.131          estimate D2E/DX2                !
 ! D38   D(23,16,17,18)       -178.7563         estimate D2E/DX2                !
 ! D39   D(23,16,17,19)        -55.0258         estimate D2E/DX2                !
 ! D40   D(23,16,17,25)         61.35           estimate D2E/DX2                !
 ! D41   D(24,16,17,18)         61.5898         estimate D2E/DX2                !
 ! D42   D(24,16,17,19)       -174.6797         estimate D2E/DX2                !
 ! D43   D(24,16,17,25)        -58.3039         estimate D2E/DX2                !
 ! D44   D(16,17,18,26)        178.7656         estimate D2E/DX2                !
 ! D45   D(16,17,18,27)         58.2504         estimate D2E/DX2                !
 ! D46   D(16,17,18,28)        -61.581          estimate D2E/DX2                !
 ! D47   D(19,17,18,26)         55.0235         estimate D2E/DX2                !
 ! D48   D(19,17,18,27)        -65.4917         estimate D2E/DX2                !
 ! D49   D(19,17,18,28)        174.6769         estimate D2E/DX2                !
 ! D50   D(25,17,18,26)        -61.3426         estimate D2E/DX2                !
 ! D51   D(25,17,18,27)        178.1422         estimate D2E/DX2                !
 ! D52   D(25,17,18,28)         58.3107         estimate D2E/DX2                !
 ! D53   D(16,17,19,20)        -61.9893         estimate D2E/DX2                !
 ! D54   D(16,17,19,21)        118.0178         estimate D2E/DX2                !
 ! D55   D(18,17,19,20)         62.1206         estimate D2E/DX2                !
 ! D56   D(18,17,19,21)       -117.8723         estimate D2E/DX2                !
 ! D57   D(25,17,19,20)       -179.9378         estimate D2E/DX2                !
 ! D58   D(25,17,19,21)          0.0693         estimate D2E/DX2                !
 ! D59   D(17,19,20,29)          0.0019         estimate D2E/DX2                !
 ! D60   D(17,19,20,30)        179.9567         estimate D2E/DX2                !
 ! D61   D(21,19,20,29)        179.9947         estimate D2E/DX2                !
 ! D62   D(21,19,20,30)         -0.0505         estimate D2E/DX2                !
 ! D63   D(17,19,21,15)       -179.9404         estimate D2E/DX2                !
 ! D64   D(20,19,21,15)          0.0671         estimate D2E/DX2                !
 --------------------------------------------------------------------------------
 Number of steps in this run=    158 maximum allowed number of steps=    180.
 GradGradGradGradGradGradGradGradGradGradGradGradGradGradGradGradGradGrad

                    Distance matrix (angstroms):
                    1          2          3          4          5
     1  C    0.000000
     2  C    1.528878   0.000000
     3  C    2.526078   1.528798   0.000000
     4  C    2.512988   1.525612   2.514008   0.000000
     5  N    2.994659   2.433762   2.994237   1.331433   0.000000
     6  O    3.438755   2.398315   3.441326   1.226296   2.242500
     7  H    1.087947   2.157549   2.779644   3.455322   4.012753
     8  H    1.088244   2.174971   2.774343   2.816951   2.787056
     9  H    1.087640   2.164005   3.471450   2.720841   3.270345
    10  H    2.147645   1.094527   2.147620   2.111315   3.304473
    11  H    3.471525   2.164017   1.087638   2.722978   3.270457
    12  H    2.774810   2.175042   1.088235   2.817710   2.786375
    13  H    2.779081   2.157334   1.087944   3.456014   4.012199
    14  H    2.828763   2.583026   2.827370   2.039143   1.003703
    15  H    3.946381   3.394043   3.948241   2.057299   1.030443
    16  C    8.188669   7.696304   8.580171   6.200573   5.830263
    17  C    7.694280   7.046450   7.704820   5.522085   5.007798
    18  C    8.576144   7.702337   8.206952   6.204018   5.831784
    19  C    6.198238   5.522088   6.206721   3.998667   3.520785
    20  N    5.826844   5.007531   5.834899   3.520606   3.513782
    21  O    5.606452   5.057899   5.612804   3.605338   2.766308
    22  H    8.150298   7.584611   8.550902   6.124864   5.989957
    23  H    7.777276   7.482567   8.457047   6.039526   5.602951
    24  H    9.253718   8.766850   9.612360   7.263998   6.841150
    25  H    8.009686   7.462284   8.020276   5.966011   5.226046
    26  H    8.458795   7.493204   7.800722   6.045615   5.605676
    27  H    8.547115   7.590647   8.168259   6.128217   5.991268
    28  H    9.606896   8.772290   9.272193   7.267023   6.842515
    29  H    6.597753   5.740221   6.606992   4.316659   4.468114
    30  H    4.902403   4.019697   4.908469   2.571736   2.821962
                    6          7          8          9         10
     6  O    0.000000
     7  H    4.315455   0.000000
     8  H    3.918304   1.762507   0.000000
     9  H    3.375255   1.765229   1.765175   0.000000
    10  H    2.460579   2.465328   3.063367   2.492491   0.000000
    11  H    3.380141   3.776000   3.769617   4.302427   2.492242
    12  H    3.920369   3.128556   2.578704   3.769749   3.063442
    13  H    4.317660   2.589481   3.127261   3.775697   2.465422
    14  H    3.142470   3.758583   2.297425   3.313151   3.622702
    15  H    2.518819   4.994882   3.701602   4.064055   4.158582
    16  C    5.607928   9.253632   8.150342   7.775632   8.011197
    17  C    5.057688   8.765022   7.582570   7.478767   7.461913
    18  C    5.610469   9.608667   8.546949   8.451406   8.017453
    19  C    3.605217   7.261958   6.122432   6.035253   5.965722
    20  N    2.766043   6.838119   5.986538   5.596944   5.225479
    21  O    3.607534   6.676583   5.346999   5.564752   5.701451
    22  H    5.348637   9.179348   8.256335   7.680804   7.752008
    23  H    5.567623   8.842224   7.682505   7.287970   7.853501
    24  H    6.677806  10.323217   9.179501   8.840842   9.091506
    25  H    5.701484   9.090190   7.750463   7.850305   8.006830
    26  H    5.572072   9.465324   8.384559   8.473079   7.864459
    27  H    5.351156   9.544145   8.655737   8.377498   7.758397
    28  H    6.679978  10.650628   9.542234   9.455411   9.097149
    29  H    3.380676   7.572746   6.851308   6.296682   5.807275
    30  H    1.736242   5.882249   5.156721   4.711469   4.196494
                   11         12         13         14         15
    11  H    0.000000
    12  H    1.765163   0.000000
    13  H    1.765199   1.762439   0.000000
    14  H    3.311882   2.295577   3.757113   0.000000
    15  H    4.067959   3.703326   4.996207   1.746720   0.000000
    16  C    8.464881   8.551187   9.610430   6.601416   4.905804
    17  C    7.498024   7.593067   8.774505   5.740694   4.020034
    18  C    7.802890   8.168106   9.272303   6.604070   4.905579
    19  C    6.050872   6.130803   7.269364   4.316970   2.571978
    20  N    5.611877   5.994158   6.845238   4.468182   2.822068
    21  O    5.576504   5.353429   6.681929   3.381107   1.736517
    22  H    8.390522   8.659670   9.545732   6.854889   5.160087
    23  H    8.480705   8.383308   9.460323   6.303014   4.717348
    24  H    9.470936   9.547891  10.653904   7.576105   5.885202
    25  H    7.869555   7.761223   9.099685   5.808109   4.197078
    26  H    7.319897   7.705284   8.867021   6.307760   4.716964
    27  H    7.707613   8.273451   9.197888   6.857298   5.159679
    28  H    8.868847   9.197584  10.342111   7.578526   5.885051
    29  H    6.313749   6.859999   7.581146   5.440296   3.821005
    30  H    4.722817   5.162260   5.887524   3.820923   2.388407
                   16         17         18         19         20
    16  C    0.000000
    17  C    1.528833   0.000000
    18  C    2.525963   1.528854   0.000000
    19  C    2.513613   1.525620   2.513319   0.000000
    20  N    2.993821   2.433662   2.994584   1.331428   0.000000
    21  O    3.440775   2.398435   3.439517   1.226295   2.242476
    22  H    1.088234   2.174998   2.774089   2.817671   2.786305
    23  H    1.087637   2.164012   3.471405   2.721868   3.269159
    24  H    1.087949   2.157470   2.779591   3.455758   4.012079
    25  H    2.147648   1.094512   2.147710   2.111403   3.304466
    26  H    3.471363   2.163976   1.087627   2.721407   3.270423
    27  H    2.774157   2.174984   1.088233   2.817261   2.786974
    28  H    2.779554   2.157510   1.087944   3.455558   4.012635
    29  H    2.826902   2.582951   2.828670   2.039187   1.003694
    30  H    3.946619   3.393977   3.947545   2.057303   1.030445
                   21         22         23         24         25
    21  O    0.000000
    22  H    3.920222   0.000000
    23  H    3.378758   1.765160   0.000000
    24  H    4.317098   1.762450   1.765204   0.000000
    25  H    2.460887   3.063398   2.492653   2.465192   0.000000
    26  H    3.376546   3.769139   4.302345   3.776119   2.492614
    27  H    3.918943   2.577831   3.769164   3.127895   3.063424
    28  H    4.316125   3.127674   3.776170   2.590060   2.465333
    29  H    3.142480   2.295246   3.310525   3.757130   3.622668
    30  H    2.518794   3.701999   4.064577   4.995050   4.158647
                   26         27         28         29         30
    26  H    0.000000
    27  H    1.765156   0.000000
    28  H    1.765196   1.762488   0.000000
    29  H    3.313193   2.297336   3.758428   0.000000
    30  H    4.066193   3.702821   4.995778   1.746658   0.000000
 Framework group  C1[X(C8H18N2O2)]
 Deg. of freedom    84
                         Standard orientation:                         
 ---------------------------------------------------------------------
 Center     Atomic      Atomic             Coordinates (Angstroms)
 Number     Number       Type             X           Y           Z
 ---------------------------------------------------------------------
      1          6           0        4.088799    1.266930    0.195807
      2          6           0        3.496453    0.005518   -0.433028
      3          6           0        4.100568   -1.259057    0.177807
      4          6           0        1.976707   -0.001451   -0.299556
      5          7           0        1.485681   -0.014072    0.937961
      6          8           0        1.257555    0.004764   -1.292826
      7          1           0        5.160289    1.305249    0.011229
      8          1           0        3.928949    1.284571    1.272103
      9          1           0        3.633208    2.156026   -0.234199
     10          1           0        3.708801    0.014186   -1.506724
     11          1           0        3.654007   -2.146237   -0.265419
     12          1           0        3.940455   -1.294042    1.253630
     13          1           0        5.172473   -1.284142   -0.006618
     14          1           0        2.094231   -0.017984    1.736130
     15          1           0        0.467889   -0.016555    1.098914
     16          6           0       -4.091332    1.267896   -0.178034
     17          6           0       -3.496575   -0.001060    0.432986
     18          6           0       -4.097853   -1.257993   -0.196282
     19          6           0       -1.976779   -0.004327    0.299840
     20          7           0       -1.485588    0.004542   -0.937639
     21          8           0       -1.257730   -0.014780    1.293147
     22          1           0       -3.931451    1.301154   -1.253945
     23          1           0       -3.637672    2.151771    0.264586
     24          1           0       -5.162926    1.301396    0.006888
     25          1           0       -3.709333   -0.008228    1.506597
     26          1           0       -3.648855   -2.150449    0.233665
     27          1           0       -3.937881   -1.276602   -1.272532
     28          1           0       -5.169635   -1.288587   -0.011976
     29          1           0       -2.093949    0.012954   -1.735904
     30          1           0       -0.467776    0.003619   -1.098496
 ---------------------------------------------------------------------
 Rotational constants (GHZ):           2.3529843           0.3024182           0.3019493
   204 basis functions,   372 primitive gaussians,   216 cartesian basis functions
    48 alpha electrons       48 beta electrons
       nuclear repulsion energy       731.9667317707 Hartrees.
 NAtoms=   30 NActive=   30 NUniq=   30 SFac= 1.00D+00 NAtFMM=   60 NAOKFM=F Big=F
 Nuclear repulsion after empirical dispersion term =      731.9477287951 Hartrees.
   1 Symmetry operations used in ECPInt.
 ECPInt:  NShTT=    5886 NPrTT=   23646 LenC2=    5508 LenP2D=   15765.
 LDataN:  DoStor=T MaxTD1= 4 Len=   56
 ExpMin= 1.22D-01 ExpMax= 2.27D+03 ExpMxC= 3.41D+02 IAcc=3 IRadAn=         5 AccDes= 0.00D+00
 Harris functional with IExCor= 4639 and IRadAn=       5 diagonalized for initial guess.
 HarFok:  IExCor= 4639 AccDes= 0.00D+00 IRadAn=         5 IDoV= 1 UseB2=F ITyADJ=14
 ICtDFT=  3500011 ScaDFX=  1.000000  1.000000  1.000000  1.000000
 FoFCou: FMM=F IPFlag=           0 FMFlag=      100000 FMFlg1=           0
         NFxFlg=           0 DoJE=T BraDBF=F KetDBF=T FulRan=T
         wScrn=  0.000000 ICntrl=       500 IOpCl=  0 I1Cent=   200000004 NGrid=           0
         NMat0=    1 NMatS0=      1 NMatT0=    0 NMatD0=    1 NMtDS0=    0 NMtDT0=    0
 Petite list used in FoFCou.
     Minimum is close to point  3 DX=  6.05D-02 DF= -6.99D-04 DXR=  9.17D-02 DFR=  8.45D-03 which will be used.
     Minimum is close to point  3 DX=  2.73D-02 DF= -7.39D-06 DXR=  2.94D-02 DFR=  8.64D-04 which will be used.
     Accept linear search using points  1 and  2.
     Minimum is close to point  2 DX=  8.43D-04 DF= -2.39D-11 DXR=  8.43D-04 DFR=  7.09D-07 which will be used.
 SCF Done:  E(RwB97XD) =  -575.071350491     a.u. after    7 cycles
            Convg  =    0.9033D-09                    35 Fock formations.
              S**2 =  0.0000                  -V/T =  2.0089

 **********************************************************************

            Population analysis using the SCF Density.

 **********************************************************************

 Orbital symmetries:
       Occupied  (A) (A) (A) (A) (A) (A) (A) (A) (A) (A) (A) (A)
                 (A) (A) (A) (A) (A) (A) (A) (A) (A) (A) (A) (A)
                 (A) (A) (A) (A) (A) (A) (A) (A) (A) (A) (A) (A)
                 (A) (A) (A) (A) (A) (A) (A) (A) (A) (A) (A) (A)
       Virtual   (A) (A) (A) (A) (A) (A) (A) (A) (A) (A) (A) (A)
                 (A) (A) (A) (A) (A) (A) (A) (A) (A) (A) (A) (A)
                 (A) (A) (A) (A) (A) (A) (A) (A) (A) (A) (A) (A)
                 (A) (A) (A) (A) (A) (A) (A) (A) (A) (A) (A) (A)
                 (A) (A) (A) (A) (A) (A) (A) (A) (A) (A) (A) (A)
                 (A) (A) (A) (A) (A) (A) (A) (A) (A) (A) (A) (A)
                 (A) (A) (A) (A) (A) (A) (A) (A) (A) (A) (A) (A)
                 (A) (A) (A) (A) (A) (A) (A) (A) (A) (A) (A) (A)
                 (A) (A) (A) (A) (A) (A) (A) (A) (A) (A) (A) (A)
                 (A) (A) (A) (A) (A) (A) (A) (A) (A) (A) (A) (A)
                 (A) (A) (A) (A) (A) (A) (A) (A) (A) (A) (A) (A)
                 (A) (A) (A) (A) (A) (A) (A) (A) (A) (A) (A) (A)
                 (A) (A) (A) (A) (A) (A) (A) (A) (A) (A) (A) (A)
 The electronic state is 1-A.
 Alpha  occ. eigenvalues --  -19.21429 -19.21428 -14.43680 -14.43677 -10.38980
 Alpha  occ. eigenvalues --  -10.38978 -10.30171 -10.30170 -10.28681 -10.28681
 Alpha  occ. eigenvalues --  -10.28681 -10.28679  -1.12407  -1.11791  -0.99059
 Alpha  occ. eigenvalues --   -0.98314  -0.89533  -0.89305  -0.78585  -0.78583
 Alpha  occ. eigenvalues --   -0.73030  -0.71717  -0.66043  -0.65818  -0.62611
 Alpha  occ. eigenvalues --   -0.62332  -0.56890  -0.54852  -0.53747  -0.53722
 Alpha  occ. eigenvalues --   -0.52695  -0.52465  -0.50830  -0.49855  -0.48655
 Alpha  occ. eigenvalues --   -0.48594  -0.46496  -0.46181  -0.45261  -0.45256
 Alpha  occ. eigenvalues --   -0.42693  -0.42569  -0.42550  -0.42431  -0.34787
 Alpha  occ. eigenvalues --   -0.34020  -0.33815  -0.32199
 Alpha virt. eigenvalues --    0.11148   0.11836   0.12722   0.12991   0.16533
 Alpha virt. eigenvalues --    0.16568   0.19320   0.19334   0.19854   0.19896
 Alpha virt. eigenvalues --    0.21505   0.21704   0.23794   0.23812   0.24515
 Alpha virt. eigenvalues --    0.25012   0.25031   0.25370   0.26165   0.27168
 Alpha virt. eigenvalues --    0.28505   0.29838   0.33185   0.33232   0.33860
 Alpha virt. eigenvalues --    0.34332   0.39845   0.42529   0.46092   0.48073
 Alpha virt. eigenvalues --    0.49346   0.49399   0.51578   0.51675   0.54898
 Alpha virt. eigenvalues --    0.55271   0.55375   0.55591   0.58154   0.61392
 Alpha virt. eigenvalues --    0.61696   0.65119   0.68329   0.69146   0.69388
 Alpha virt. eigenvalues --    0.71096   0.71158   0.73421   0.73804   0.73958
 Alpha virt. eigenvalues --    0.75074   0.75147   0.75597   0.76209   0.77689
 Alpha virt. eigenvalues --    0.77771   0.77960   0.78829   0.79497   0.79921
 Alpha virt. eigenvalues --    0.79955   0.79967   0.80347   0.80463   0.80868
 Alpha virt. eigenvalues --    0.80907   0.82349   0.83803   0.84267   0.84589
 Alpha virt. eigenvalues --    0.86607   0.86655   0.89341   0.90708   0.92035
 Alpha virt. eigenvalues --    0.93662   0.99532   1.03471   1.07276   1.08833
 Alpha virt. eigenvalues --    1.09882   1.12014   1.14412   1.14689   1.20271
 Alpha virt. eigenvalues --    1.23343   1.23627   1.24654   1.29926   1.32239
 Alpha virt. eigenvalues --    1.43920   1.45728   1.45862   1.46554   1.53312
 Alpha virt. eigenvalues --    1.54548   1.61929   1.63078   1.63929   1.63991
 Alpha virt. eigenvalues --    1.78062   1.78095   1.79502   1.80399   1.82699
 Alpha virt. eigenvalues --    1.82853   1.84407   1.84951   1.98278   1.98286
 Alpha virt. eigenvalues --    2.02785   2.03565   2.05814   2.06025   2.08978
 Alpha virt. eigenvalues --    2.09087   2.11148   2.11913   2.16028   2.16704
 Alpha virt. eigenvalues --    2.24240   2.24262   2.24456   2.24469   2.26627
 Alpha virt. eigenvalues --    2.26984   2.33604   2.35687   2.47352   2.47401
 Alpha virt. eigenvalues --    2.47593   2.48748   2.49391   2.52502   2.59939
 Alpha virt. eigenvalues --    2.60225   2.60469   2.63043   2.70203   2.70463
 Alpha virt. eigenvalues --    2.70535   2.73064   2.78374   2.87824   2.89349
 Alpha virt. eigenvalues --    2.89956   2.97827   2.99113   3.12514   3.16008
 Alpha virt. eigenvalues --    3.25250   3.25305   3.53357   3.53484   3.73932
 Alpha virt. eigenvalues --    3.74700
          Condensed to atoms (all electrons):
 Mulliken charges:
               1
     1  C   -0.287132
     2  C   -0.212910
     3  C   -0.286966
     4  C    0.181640
     5  N   -0.418147
     6  O   -0.324808
     7  H    0.122410
     8  H    0.101602
     9  H    0.133282
    10  H    0.106092
    11  H    0.133278
    12  H    0.101580
    13  H    0.122375
    14  H    0.248439
    15  H    0.279296
    16  C   -0.287070
    17  C   -0.212902
    18  C   -0.287038
    19  C    0.181648
    20  N   -0.418162
    21  O   -0.324803
    22  H    0.101574
    23  H    0.133264
    24  H    0.122394
    25  H    0.106088
    26  H    0.133289
    27  H    0.101597
    28  H    0.122399
    29  H    0.248427
    30  H    0.279265
 Sum of Mulliken charges =   0.00000
 Mulliken charges with hydrogens summed into heavy atoms:
               1
     1  C    0.070162
     2  C   -0.106817
     3  C    0.070267
     4  C    0.181640
     5  N    0.109587
     6  O   -0.324808
    16  C    0.070163
    17  C   -0.106815
    18  C    0.070247
    19  C    0.181648
    20  N    0.109530
    21  O   -0.324803
 Electronic spatial extent (au):  <R**2>=           3882.7924
 Charge=              0.0000 electrons
 Dipole moment (field-independent basis, Debye):
    X=              0.0010    Y=              0.0155    Z=             -0.0002  Tot=              0.0155
 Evaluate density.
 Using the total density.
 Monte-Carlo method of calculating molar volume:
 based on  0.001 e/bohr**3 density envelope.
 Number of points per bohr**3 =  100 CutOff= 1.00D-04
 Using the SCF density.
 There are      1959 points.  Will hold      1959 in memory.
 LenV=  1048100674 MDV=  1048576000.
 Box volume = 7527.514 fraction occupied=0.216
 Integrated density= 7.7305144484091329D+01 error=-1.8694855515908671D+01
 Molar volume = 1625.390 bohr**3/mol (145.048 cm**3/mol)
 Recommended a0 for SCRF calculation =  4.75 angstrom (  8.97 bohr)
   1 Symmetry operations used in ECPInt.
 ECPInt:  NShTT=    5886 NPrTT=   23646 LenC2=    5508 LenP2D=   15765.
 LDataN:  DoStor=T MaxTD1= 5 Len=  102
 Calling FoFJK, ICntrl=      2127 FMM=F ISym2X=0 I1Cent= 0 IOpClX= 0 NMat=1 NMatS=1 NMatT=0.

 GradGradGradGradGradGradGradGradGradGradGradGradGradGradGradGradGradGrad
 FormGI is forming the generalized inverse of G from B-inverse, IUseBI=4.
 Internal  Forces:  Max     0.014789279 RMS     0.004091447
 Step number   1 out of a maximum of  158
 All quantities printed in internal units (Hartrees-Bohrs-Radians)
 Mixed Optimization -- RFO/linear search
 Second derivative matrix not updated -- first step.
 ITU=  0
     Eigenvalues ---    0.00379   0.00384   0.00384   0.00385   0.00385
     Eigenvalues ---    0.00427   0.00427   0.00905   0.01474   0.01799
     Eigenvalues ---    0.01853   0.01973   0.01990   0.02960   0.03099
     Eigenvalues ---    0.03872   0.03874   0.04708   0.04708   0.04911
     Eigenvalues ---    0.05547   0.05547   0.05548   0.05548   0.05594
     Eigenvalues ---    0.05681   0.05682   0.05682   0.05683   0.05855
     Eigenvalues ---    0.05855   0.06899   0.09027   0.16000   0.16000
     Eigenvalues ---    0.16000   0.16000   0.16000   0.16000   0.16000
     Eigenvalues ---    0.16000   0.16000   0.16000   0.16000   0.16000
     Eigenvalues ---    0.16000   0.16000   0.16000   0.16862   0.16865
     Eigenvalues ---    0.18018   0.18020   0.20859   0.22723   0.25000
     Eigenvalues ---    0.25000   0.29527   0.29530   0.29531   0.29535
     Eigenvalues ---    0.29832   0.29832   0.34295   0.34296   0.35016
     Eigenvalues ---    0.35017   0.35018   0.35018   0.35051   0.35051
     Eigenvalues ---    0.35051   0.35051   0.35087   0.35087   0.35087
     Eigenvalues ---    0.35088   0.40389   0.42713   0.47043   0.47045
     Eigenvalues ---    0.57045   0.59169   0.89205   0.92647
 Linear search not attempted -- first point.
 Iteration  1 RMS(Cart)=  0.04614819 RMS(Int)=  0.00038738
 Iteration  2 RMS(Cart)=  0.00053421 RMS(Int)=  0.00010023
 Iteration  3 RMS(Cart)=  0.00000030 RMS(Int)=  0.00010023
 Variable       Old X    -DE/DX   Delta X   Delta X   Delta X     New X
                                 (Linear)    (Quad)   (Total)
    R1        2.88916   0.00473   0.00000   0.01564   0.01564   2.90480
    R2        2.05592   0.01064   0.00000   0.02974   0.02974   2.08566
    R3        2.05648   0.01072   0.00000   0.03000   0.03000   2.08648
    R4        2.05534   0.01050   0.00000   0.02932   0.02932   2.08466
    R5        2.88901   0.00473   0.00000   0.01561   0.01561   2.90462
    R6        2.88299   0.00250   0.00000   0.00816   0.00816   2.89115
    R7        2.06836   0.00384   0.00000   0.01096   0.01096   2.07932
    R8        2.05534   0.01050   0.00000   0.02932   0.02932   2.08466
    R9        2.05647   0.01073   0.00000   0.03002   0.03002   2.08649
   R10        2.05592   0.01064   0.00000   0.02974   0.02974   2.08566
   R11        2.51604   0.01478   0.00000   0.02468   0.02468   2.54073
   R12        2.31736   0.00859   0.00000   0.00919   0.00919   2.32656
   R13        1.89672   0.00726   0.00000   0.01520   0.01520   1.91193
   R14        1.94725   0.00855   0.00000   0.01970   0.01970   1.96696
   R15        3.28102   0.00325   0.00000   0.04246   0.04246   3.32348
   R16        3.28154   0.00324   0.00000   0.04252   0.04252   3.32406
   R17        2.88908   0.00473   0.00000   0.01564   0.01564   2.90471
   R18        2.05646   0.01073   0.00000   0.03002   0.03002   2.08648
   R19        2.05534   0.01051   0.00000   0.02933   0.02933   2.08466
   R20        2.05592   0.01064   0.00000   0.02973   0.02973   2.08566
   R21        2.88912   0.00473   0.00000   0.01564   0.01564   2.90475
   R22        2.88300   0.00249   0.00000   0.00816   0.00816   2.89116
   R23        2.06833   0.00385   0.00000   0.01099   0.01099   2.07932
   R24        2.05532   0.01051   0.00000   0.02935   0.02935   2.08466
   R25        2.05646   0.01073   0.00000   0.03001   0.03001   2.08648
   R26        2.05592   0.01065   0.00000   0.02975   0.02975   2.08566
   R27        2.51603   0.01479   0.00000   0.02468   0.02468   2.54071
   R28        2.31736   0.00858   0.00000   0.00919   0.00919   2.32655
   R29        1.89671   0.00727   0.00000   0.01522   0.01522   1.91192
   R30        1.94726   0.00857   0.00000   0.01970   0.01970   1.96695
    A1        1.91862   0.00099   0.00000   0.00521   0.00518   1.92381
    A2        1.94255   0.00123   0.00000   0.00695   0.00692   1.94947
    A3        1.92788   0.00190   0.00000   0.01246   0.01241   1.94029
    A4        1.88798  -0.00143   0.00000  -0.01065  -0.01065   1.87733
    A5        1.89302  -0.00137   0.00000  -0.00738  -0.00742   1.88560
    A6        1.89256  -0.00149   0.00000  -0.00759  -0.00764   1.88491
    A7        1.94446  -0.00030   0.00000   0.01185   0.01141   1.95587
    A8        1.93236   0.00122   0.00000   0.01693   0.01652   1.94887
    A9        1.89840  -0.00001   0.00000  -0.00656  -0.00642   1.89198
   A10        1.93361   0.00113   0.00000   0.01638   0.01596   1.94957
   A11        1.89846   0.00002   0.00000  -0.00652  -0.00638   1.89208
   A12        1.85368  -0.00218   0.00000  -0.03524  -0.03509   1.81858
   A13        1.92800   0.00189   0.00000   0.01241   0.01235   1.94035
   A14        1.94276   0.00122   0.00000   0.00684   0.00681   1.94957
   A15        1.91843   0.00100   0.00000   0.00532   0.00529   1.92372
   A16        1.89255  -0.00149   0.00000  -0.00761  -0.00766   1.88489
   A17        1.89298  -0.00137   0.00000  -0.00733  -0.00737   1.88561
   A18        1.88789  -0.00142   0.00000  -0.01062  -0.01062   1.87726
   A19        2.03615   0.00177   0.00000   0.00592   0.00592   2.04206
   A20        2.10982  -0.00265   0.00000  -0.01126  -0.01126   2.09857
   A21        2.13721   0.00088   0.00000   0.00534   0.00534   2.14256
   A22        2.11246   0.00035   0.00000   0.00060   0.00060   2.11306
   A23        2.10536  -0.00116   0.00000  -0.00390  -0.00390   2.10146
   A24        2.06535   0.00081   0.00000   0.00330   0.00330   2.06865
   A25        2.08529   0.00117   0.00000   0.01134   0.01134   2.09663
   A26        1.94266   0.00123   0.00000   0.00692   0.00689   1.94955
   A27        1.92795   0.00190   0.00000   0.01248   0.01243   1.94037
   A28        1.91857   0.00099   0.00000   0.00519   0.00517   1.92374
   A29        1.89255  -0.00149   0.00000  -0.00759  -0.00765   1.88490
   A30        1.88790  -0.00143   0.00000  -0.01065  -0.01065   1.87725
   A31        1.89298  -0.00137   0.00000  -0.00735  -0.00739   1.88559
   A32        1.94431  -0.00029   0.00000   0.01200   0.01155   1.95586
   A33        1.93311   0.00116   0.00000   0.01669   0.01626   1.94937
   A34        1.89847   0.00000   0.00000  -0.00660  -0.00645   1.89202
   A35        1.93275   0.00117   0.00000   0.01674   0.01631   1.94906
   A36        1.89853  -0.00000   0.00000  -0.00668  -0.00653   1.89200
   A37        1.85380  -0.00218   0.00000  -0.03531  -0.03517   1.81863
   A38        1.92788   0.00191   0.00000   0.01250   0.01245   1.94033
   A39        1.94261   0.00122   0.00000   0.00688   0.00685   1.94946
   A40        1.91860   0.00099   0.00000   0.00521   0.00518   1.92379
   A41        1.89256  -0.00149   0.00000  -0.00759  -0.00765   1.88490
   A42        1.89299  -0.00137   0.00000  -0.00735  -0.00739   1.88560
   A43        1.88797  -0.00142   0.00000  -0.01064  -0.01064   1.87733
   A44        2.03601   0.00181   0.00000   0.00609   0.00609   2.04210
   A45        2.10999  -0.00269   0.00000  -0.01141  -0.01141   2.09859
   A46        2.13718   0.00088   0.00000   0.00532   0.00532   2.14250
   A47        2.11256   0.00035   0.00000   0.00064   0.00064   2.11321
   A48        2.10538  -0.00117   0.00000  -0.00410  -0.00411   2.10127
   A49        2.06524   0.00082   0.00000   0.00346   0.00346   2.06871
   A50        2.08528   0.00117   0.00000   0.01148   0.01148   2.09676
   A51        3.09681  -0.00088   0.00000  -0.01292  -0.01292   3.08389
   A52        3.09702  -0.00089   0.00000  -0.01255  -0.01255   3.08447
   A53        3.14474  -0.00004   0.00000  -0.00350  -0.00350   3.14123
   A54        3.13958   0.00003   0.00000   0.00293   0.00294   3.14251
    D1        1.07461  -0.00091   0.00000  -0.01705  -0.01713   1.05749
    D2       -3.04841   0.00121   0.00000   0.02487   0.02493  -3.02348
    D3       -1.01788  -0.00074   0.00000  -0.01204  -0.01206  -1.02994
    D4       -1.01683  -0.00056   0.00000  -0.01162  -0.01167  -1.02850
    D5        1.14334   0.00155   0.00000   0.03031   0.03039   1.17372
    D6       -3.10933  -0.00040   0.00000  -0.00661  -0.00660  -3.11592
    D7       -3.12018  -0.00078   0.00000  -0.01504  -0.01510  -3.13528
    D8       -0.96001   0.00134   0.00000   0.02689   0.02695  -0.93306
    D9        1.07051  -0.00061   0.00000  -0.01003  -0.01003   1.06048
   D10        3.12109   0.00079   0.00000   0.01483   0.01489   3.13598
   D11        1.01753   0.00059   0.00000   0.01154   0.01159   1.02912
   D12       -1.07380   0.00093   0.00000   0.01694   0.01701  -1.05679
   D13        0.96163  -0.00138   0.00000  -0.02744  -0.02749   0.93414
   D14       -1.14192  -0.00158   0.00000  -0.03072  -0.03080  -1.17272
   D15        3.04993  -0.00124   0.00000  -0.02533  -0.02538   3.02455
   D16       -1.06964   0.00061   0.00000   0.00980   0.00980  -1.05984
   D17        3.10999   0.00040   0.00000   0.00651   0.00649   3.11649
   D18        1.01866   0.00075   0.00000   0.01190   0.01192   1.03057
   D19       -1.08495  -0.00065   0.00000  -0.01996  -0.02008  -1.10503
   D20        2.05631  -0.00064   0.00000  -0.01973  -0.01985   2.03646
   D21        1.08143   0.00064   0.00000   0.01909   0.01920   1.10063
   D22       -2.06049   0.00064   0.00000   0.01932   0.01943  -2.04106
   D23        3.14020  -0.00001   0.00000  -0.00058  -0.00058   3.13962
   D24       -0.00172  -0.00001   0.00000  -0.00036  -0.00035  -0.00207
   D25        0.00080   0.00001   0.00000   0.00025   0.00025   0.00106
   D26        3.13843   0.00001   0.00000   0.00042   0.00043   3.13886
   D27       -3.14046   0.00000   0.00000   0.00002   0.00002  -3.14044
   D28       -0.00283   0.00001   0.00000   0.00019   0.00020  -0.00264
   D29       -3.13686  -0.00002   0.00000  -0.00062  -0.00062  -3.13748
   D30        0.00439  -0.00002   0.00000  -0.00038  -0.00037   0.00401
   D31        0.00086  -0.00002   0.00000  -0.00160  -0.00159  -0.00074
   D32        3.13640   0.00001   0.00000   0.00094   0.00094   3.13734
   D33       -0.00176  -0.00001   0.00000  -0.00135  -0.00134  -0.00310
   D34        3.13769   0.00001   0.00000   0.00073   0.00073   3.13841
   D35       -1.01643  -0.00058   0.00000  -0.01179  -0.01184  -1.02827
   D36        1.14307   0.00157   0.00000   0.03053   0.03061   1.17368
   D37       -3.10897  -0.00040   0.00000  -0.00665  -0.00664  -3.11561
   D38       -3.11989  -0.00079   0.00000  -0.01520  -0.01526  -3.13515
   D39       -0.96038   0.00136   0.00000   0.02712   0.02718  -0.93320
   D40        1.07076  -0.00061   0.00000  -0.01006  -0.01007   1.06069
   D41        1.07495  -0.00093   0.00000  -0.01725  -0.01732   1.05763
   D42       -3.04874   0.00123   0.00000   0.02507   0.02512  -3.02361
   D43       -1.01760  -0.00075   0.00000  -0.01211  -0.01212  -1.02972
   D44        3.12005   0.00079   0.00000   0.01522   0.01528   3.13533
   D45        1.01666   0.00058   0.00000   0.01183   0.01187   1.02854
   D46       -1.07479   0.00092   0.00000   0.01729   0.01736  -1.05743
   D47        0.96034  -0.00136   0.00000  -0.02707  -0.02713   0.93322
   D48       -1.14305  -0.00157   0.00000  -0.03046  -0.03053  -1.17358
   D49        3.04869  -0.00122   0.00000  -0.02499  -0.02504   3.02364
   D50       -1.07063   0.00061   0.00000   0.01013   0.01013  -1.06050
   D51        3.10917   0.00040   0.00000   0.00674   0.00673   3.11589
   D52        1.01771   0.00075   0.00000   0.01220   0.01222   1.02993
   D53       -1.08192  -0.00065   0.00000  -0.01978  -0.01990  -1.10181
   D54        2.05980  -0.00065   0.00000  -0.01972  -0.01984   2.03996
   D55        1.08421   0.00065   0.00000   0.01952   0.01964   1.10385
   D56       -2.05726   0.00065   0.00000   0.01958   0.01970  -2.03756
   D57       -3.14051  -0.00000   0.00000  -0.00015  -0.00016  -3.14066
   D58        0.00121  -0.00000   0.00000  -0.00010  -0.00010   0.00111
   D59        0.00003   0.00001   0.00000   0.00031   0.00031   0.00034
   D60        3.14084   0.00001   0.00000   0.00040   0.00040   3.14124
   D61        3.14150   0.00001   0.00000   0.00025   0.00025  -3.14143
   D62       -0.00088   0.00001   0.00000   0.00034   0.00035  -0.00054
   D63       -3.14055  -0.00000   0.00000   0.00003   0.00004  -3.14052
   D64        0.00117  -0.00000   0.00000   0.00009   0.00010   0.00127
         Item               Value     Threshold  Converged?
 Maximum Force            0.014789     0.000015     NO 
 RMS     Force            0.004091     0.000010     NO 
 Maximum Displacement     0.166673     0.000060     NO 
 RMS     Displacement     0.046267     0.000040     NO 
 GradGradGradGradGradGradGradGradGradGradGradGradGradGradGradGradGradGrad

                    Distance matrix (angstroms):
                    1          2          3          4          5
     1  C    0.000000
     2  C    1.537153   0.000000
     3  C    2.549581   1.537061   0.000000
     4  C    2.537664   1.529932   2.538184   0.000000
     5  N    3.044794   2.452786   3.043296   1.344494   0.000000
     6  O    3.452661   2.398672   3.454951   1.231160   2.261597
     7  H    1.103685   2.180374   2.807717   3.490914   4.079762
     8  H    1.104117   2.199268   2.817296   2.871670   2.867111
     9  H    1.103155   2.191935   3.511818   2.754951   3.321600
    10  H    2.154407   1.100327   2.154400   2.092168   3.307238
    11  H    3.511864   2.191895   1.103153   2.756161   3.319835
    12  H    2.817642   2.199264   1.104121   2.871931   2.865193
    13  H    2.807297   2.180226   1.103683   3.491283   4.078442
    14  H    2.889601   2.608941   2.887049   2.057993   1.011748
    15  H    4.005443   3.419855   4.006033   2.075480   1.040870
    16  C    8.291390   7.773260   8.680284   6.272868   5.894796
    17  C    7.771644   7.091032   7.776972   5.561872   5.047761
    18  C    8.677298   7.775231   8.300300   6.273547   5.894895
    19  C    6.270998   5.561870   6.275498   4.033293   3.560939
    20  N    5.891812   5.047514   5.897439   3.560733   3.564682
    21  O    5.684492   5.097280   5.686837   3.634850   2.798800
    22  H    8.290585   7.705698   8.692576   6.242617   6.101430
    23  H    7.873651   7.553908   8.555578   6.106170   5.663908
    24  H    9.366524   8.854853   9.721790   7.347003   6.910241
    25  H    8.049727   7.466320   8.054346   5.964169   5.218380
    26  H    8.555348   7.557473   7.884491   6.107454   5.664136
    27  H    8.688882   7.707478   8.299873   6.243050   6.101267
    28  H    9.718368   8.856652   9.375404   7.347622   6.910387
    29  H    6.666812   5.788690   6.673687   4.367366   4.528438
    30  H    4.954230   4.049898   4.959381   2.604312   2.868149
                    6          7          8          9         10
     6  O    0.000000
     7  H    4.332625   0.000000
     8  H    3.969603   1.781186   0.000000
     9  H    3.397942   1.785790   1.785693   0.000000
    10  H    2.419822   2.486833   3.088765   2.512124   0.000000
    11  H    3.402218   3.819119   3.831241   4.359963   2.511936
    12  H    3.971401   3.172388   2.635356   3.831324   3.088810
    13  H    4.334634   2.613753   3.171341   3.818922   2.486995
    14  H    3.167437   3.841404   2.382308   3.372006   3.642989
    15  H    2.541217   5.070586   3.795543   4.120958   4.160494
    16  C    5.685518   9.366496   8.290414   7.872445   8.051096
    17  C    5.097120   8.853413   7.703891   7.550980   7.466156
    18  C    5.685408   9.719100   8.689446   8.551417   8.052494
    19  C    3.634727   7.345386   6.240521   6.102826   5.964040
    20  N    2.798509   6.907635   6.098297   5.658729   5.218017
    21  O    3.631448   6.770464   5.468284   5.635890   5.705468
    22  H    5.469563   9.326135   8.434937   7.813553   7.832589
    23  H    5.637814   8.949962   7.814604   7.374818   7.888798
    24  H    6.771313  10.447368   9.325994   8.948932   9.146229
    25  H    5.705417   9.145020   7.831008   7.886198   7.976723
    26  H    5.637742   9.571402   8.523830   8.570828   7.891354
    27  H    5.469179   9.691565   8.840011   8.518912   7.833801
    28  H    6.771212  10.772572   9.691357   9.566485   9.147491
    29  H    3.425863   7.642943   6.967512   6.363083   5.806516
    30  H    1.758709   5.937412   5.254181   4.761990   4.178527
                   11         12         13         14         15
    11  H    0.000000
    12  H    1.785679   0.000000
    13  H    1.785792   1.781146   0.000000
    14  H    3.368852   2.378929   3.839113   0.000000
    15  H    4.122566   3.795846   5.070931   1.764324   0.000000
    16  C    8.559868   8.691711   9.721052   6.670122   4.957250
    17  C    7.560952   7.709015   8.858235   5.789153   4.050273
    18  C    7.886100   8.299594   9.375531   6.671219   4.957122
    19  C    6.111318   6.244783   7.349341   4.367736   2.604687
    20  N    5.669224   6.103522   6.912667   4.528516   2.868446
    21  O    5.640580   5.470409   6.772402   3.426365   1.759019
    22  H    8.528446   8.842937   9.694236   6.970893   5.257349
    23  H    8.576467   8.523006   9.570162   6.368737   4.767076
    24  H    9.575526   9.694088  10.775015   7.645931   5.939985
    25  H    7.894907   7.835490   9.149149   5.807153   4.178913
    26  H    7.389733   7.826175   8.961365   6.370736   4.766885
    27  H    7.828050   8.444363   9.335622   6.971720   5.256975
    28  H    8.962693   9.335159  10.456401   7.646991   5.939942
    29  H    6.375817   6.973915   7.649263   5.509492   3.875889
    30  H    4.771584   5.258840   5.941941   3.875609   2.431896
                   16         17         18         19         20
    16  C    0.000000
    17  C    1.537107   0.000000
    18  C    2.549598   1.537129   0.000000
    19  C    2.538062   1.529936   2.537814   0.000000
    20  N    3.043737   2.452809   3.044430   1.344487   0.000000
    21  O    3.454416   2.398687   3.453242   1.231158   2.261555
    22  H    1.104118   2.199285   2.817264   2.872201   2.866155
    23  H    1.103156   2.191957   3.511886   2.755614   3.319880
    24  H    1.103683   2.180282   2.807720   3.491166   4.078968
    25  H    2.154396   1.100326   2.154398   2.092207   3.307276
    26  H    3.511864   2.191946   1.103157   2.755254   3.321070
    27  H    2.817309   2.199238   1.104115   2.871776   2.866681
    28  H    2.807678   2.180337   1.103684   3.491017   4.079473
    29  H    2.887595   2.609109   2.889414   2.058065   1.011747
    30  H    4.005430   3.419809   4.006082   2.075360   1.040867
                   21         22         23         24         25
    21  O    0.000000
    22  H    3.971349   0.000000
    23  H    3.401056   1.785686   0.000000
    24  H    4.333986   1.781136   1.785780   0.000000
    25  H    2.419895   3.088788   2.512268   2.486683   0.000000
    26  H    3.399011   3.831078   4.360025   3.819249   2.512160
    27  H    3.970089   2.634936   3.831054   3.171978   3.088749
    28  H    4.333109   3.171736   3.819291   2.614159   2.486804
    29  H    3.167458   2.379904   3.368879   3.839956   3.643157
    30  H    2.540976   3.795815   4.120853   5.070583   4.160425
                   26         27         28         29         30
    26  H    0.000000
    27  H    1.785688   0.000000
    28  H    1.785788   1.781185   0.000000
    29  H    3.371670   2.381989   3.841282   0.000000
    30  H    4.122051   3.796275   5.071093   1.764350   0.000000
 Framework group  C1[X(C8H18N2O2)]
 Deg. of freedom    84
                         Standard orientation:                         
 ---------------------------------------------------------------------
 Center     Atomic      Atomic             Coordinates (Angstroms)
 Number     Number       Type             X           Y           Z
 ---------------------------------------------------------------------
      1          6           0        4.141122    1.276528    0.181863
      2          6           0        3.520855    0.004053   -0.417233
      3          6           0        4.147465   -1.272990    0.165070
      4          6           0        1.997105   -0.000069   -0.279905
      5          7           0        1.496701   -0.011840    0.967942
      6          8           0        1.284095    0.007354   -1.283558
      7          1           0        5.222464    1.312971   -0.036062
      8          1           0        4.020963    1.311702    1.278859
      9          1           0        3.676682    2.183340   -0.241147
     10          1           0        3.693865    0.011691   -1.503847
     11          1           0        3.688091   -2.176510   -0.270330
     12          1           0        4.027019   -1.323590    1.261435
     13          1           0        5.229093   -1.300720   -0.052710
     14          1           0        2.106707   -0.016740    1.775100
     15          1           0        0.467411   -0.012705    1.122769
     16          6           0       -4.143111    1.277765   -0.162570
     17          6           0       -3.520912   -0.002657    0.417160
     18          6           0       -4.145466   -1.271737   -0.184617
     19          6           0       -1.997138   -0.003139    0.279978
     20          7           0       -1.496542    0.008263   -0.967787
     21          8           0       -1.284232   -0.013820    1.283672
     22          1           0       -4.023136    1.329780   -1.258917
     23          1           0       -3.680114    2.178825    0.274098
     24          1           0       -5.224498    1.309180    0.055904
     25          1           0       -3.694100   -0.011904    1.503732
     26          1           0       -3.684236   -2.181037    0.236565
     27          1           0       -4.025283   -1.305057   -1.281666
     28          1           0       -5.226956   -1.304879    0.033098
     29          1           0       -2.106310    0.017041   -1.775090
     30          1           0       -0.467201    0.008847   -1.122259
 ---------------------------------------------------------------------
 Rotational constants (GHZ):           2.3223596           0.2961095           0.2953328
   204 basis functions,   372 primitive gaussians,   216 cartesian basis functions
    48 alpha electrons       48 beta electrons
       nuclear repulsion energy       725.2322850740 Hartrees.
 NAtoms=   30 NActive=   30 NUniq=   30 SFac= 1.00D+00 NAtFMM=   60 NAOKFM=F Big=F
 Nuclear repulsion after empirical dispersion term =      725.2134446855 Hartrees.
   1 Symmetry operations used in ECPInt.
 ECPInt:  NShTT=    5886 NPrTT=   23646 LenC2=    5480 LenP2D=   15648.
 LDataN:  DoStor=T MaxTD1= 4 Len=   56
 Initial guess from the checkpoint file:  "dimer.chk"
 B after Tr=     0.000000    0.000000    0.000000
         Rot=    1.000000   -0.000250   -0.000118    0.000018 Ang=  -0.03 deg.
 ExpMin= 1.22D-01 ExpMax= 2.27D+03 ExpMxC= 3.41D+02 IAcc=3 IRadAn=         5 AccDes= 0.00D+00
 Harris functional with IExCor= 4639 and IRadAn=       5 diagonalized for initial guess.
 HarFok:  IExCor= 4639 AccDes= 0.00D+00 IRadAn=         5 IDoV= 1 UseB2=F ITyADJ=14
 ICtDFT=  3500011 ScaDFX=  1.000000  1.000000  1.000000  1.000000
 FoFCou: FMM=F IPFlag=           0 FMFlag=      100000 FMFlg1=           0
         NFxFlg=           0 DoJE=T BraDBF=F KetDBF=T FulRan=T
         wScrn=  0.000000 ICntrl=       500 IOpCl=  0 I1Cent=   200000004 NGrid=           0
         NMat0=    1 NMatS0=      1 NMatT0=    0 NMatD0=    1 NMtDS0=    0 NMtDT0=    0
 Petite list used in FoFCou.
     Accept linear search using points  3 and  4.
     Minimum is close to point  3 DX=  1.93D-02 DF= -1.15D-07 DXR=  1.72D-02 DFR=  2.96D-04 which will be used.
     Accept linear search using points  1 and  2.
     Accept linear search using points  1 and  2.
     Accept linear search using points  1 and  2.
     Minimum is close to point  2 DX= -6.91D-06 DF=  0.00D+00 DXR=  6.91D-06 DFR=  0.00D+00 which will be used.
 SCF Done:  E(RwB97XD) =  -575.074909624     a.u. after    7 cycles
            Convg  =    0.2918D-09                    36 Fock formations.
              S**2 =  0.0000                  -V/T =  2.0099
   1 Symmetry operations used in ECPInt.
 ECPInt:  NShTT=    5886 NPrTT=   23646 LenC2=    5480 LenP2D=   15648.
 LDataN:  DoStor=T MaxTD1= 5 Len=  102
 Calling FoFJK, ICntrl=      2127 FMM=F ISym2X=0 I1Cent= 0 IOpClX= 0 NMat=1 NMatS=1 NMatT=0.

 GradGradGradGradGradGradGradGradGradGradGradGradGradGradGradGradGradGrad
 Using GEDIIS/GDIIS optimizer.
 FormGI is forming the generalized inverse of G from B-inverse, IUseBI=4.
 Internal  Forces:  Max     0.002505796 RMS     0.000606107
 Step number   2 out of a maximum of  158
 All quantities printed in internal units (Hartrees-Bohrs-Radians)
 Mixed Optimization -- En-DIIS/RFO-DIIS
 Trust test= 9.24D-01 RLast= 2.03D-01 DXMaxT set to 5.05D-01
 ITU=  1  0
 Use linear search instead of GDIIS.
     Eigenvalues ---    0.00380   0.00384   0.00384   0.00385   0.00385
     Eigenvalues ---    0.00427   0.00427   0.00913   0.01476   0.01805
     Eigenvalues ---    0.01857   0.01972   0.01988   0.02972   0.03103
     Eigenvalues ---    0.03598   0.03816   0.04715   0.04731   0.04965
     Eigenvalues ---    0.05453   0.05453   0.05453   0.05455   0.05580
     Eigenvalues ---    0.05604   0.05605   0.05605   0.05606   0.05980
     Eigenvalues ---    0.05980   0.06663   0.09028   0.15730   0.16000
     Eigenvalues ---    0.16000   0.16000   0.16000   0.16000   0.16000
     Eigenvalues ---    0.16000   0.16000   0.16000   0.16000   0.16000
     Eigenvalues ---    0.16000   0.16000   0.16130   0.17264   0.17264
     Eigenvalues ---    0.18367   0.18410   0.20877   0.22735   0.25000
     Eigenvalues ---    0.25108   0.29528   0.29531   0.29534   0.29718
     Eigenvalues ---    0.29832   0.29917   0.34236   0.34295   0.34789
     Eigenvalues ---    0.35017   0.35017   0.35018   0.35051   0.35051
     Eigenvalues ---    0.35051   0.35063   0.35087   0.35087   0.35088
     Eigenvalues ---    0.35745   0.40435   0.43313   0.47044   0.47076
     Eigenvalues ---    0.57100   0.59475   0.89249   0.93712
 Quartic linear search produced a step of -0.02078.
 Iteration  1 RMS(Cart)=  0.00746728 RMS(Int)=  0.00001369
 Iteration  2 RMS(Cart)=  0.00003656 RMS(Int)=  0.00000178
 Iteration  3 RMS(Cart)=  0.00000000 RMS(Int)=  0.00000178
 Variable       Old X    -DE/DX   Delta X   Delta X   Delta X     New X
                                 (Linear)    (Quad)   (Total)
    R1        2.90480  -0.00251  -0.00032  -0.00744  -0.00776   2.89704
    R2        2.08566   0.00005  -0.00062   0.00178   0.00116   2.08682
    R3        2.08648   0.00050  -0.00062   0.00304   0.00242   2.08890
    R4        2.08466  -0.00009  -0.00061   0.00137   0.00076   2.08542
    R5        2.90462  -0.00248  -0.00032  -0.00734  -0.00766   2.89696
    R6        2.89115  -0.00121  -0.00017  -0.00351  -0.00368   2.88747
    R7        2.07932   0.00032  -0.00023   0.00151   0.00128   2.08060
    R8        2.08466  -0.00009  -0.00061   0.00138   0.00077   2.08542
    R9        2.08649   0.00049  -0.00062   0.00303   0.00241   2.08890
   R10        2.08566   0.00005  -0.00062   0.00178   0.00116   2.08682
   R11        2.54073  -0.00055  -0.00051   0.00046  -0.00006   2.54067
   R12        2.32656  -0.00208  -0.00019  -0.00169  -0.00188   2.32468
   R13        1.91193  -0.00008  -0.00032   0.00068   0.00037   1.91229
   R14        1.96696  -0.00108  -0.00041  -0.00139  -0.00180   1.96516
   R15        3.32348   0.00171  -0.00088   0.02646   0.02558   3.34905
   R16        3.32406   0.00169  -0.00088   0.02629   0.02540   3.34947
   R17        2.90471  -0.00250  -0.00032  -0.00741  -0.00773   2.89698
   R18        2.08648   0.00050  -0.00062   0.00304   0.00242   2.08890
   R19        2.08466  -0.00009  -0.00061   0.00137   0.00077   2.08543
   R20        2.08566   0.00005  -0.00062   0.00178   0.00116   2.08682
   R21        2.90475  -0.00250  -0.00032  -0.00741  -0.00774   2.89702
   R22        2.89116  -0.00122  -0.00017  -0.00354  -0.00371   2.88745
   R23        2.07932   0.00032  -0.00023   0.00151   0.00128   2.08060
   R24        2.08466  -0.00009  -0.00061   0.00137   0.00076   2.08542
   R25        2.08648   0.00050  -0.00062   0.00305   0.00242   2.08890
   R26        2.08566   0.00005  -0.00062   0.00178   0.00116   2.08682
   R27        2.54071  -0.00055  -0.00051   0.00046  -0.00005   2.54066
   R28        2.32655  -0.00208  -0.00019  -0.00168  -0.00187   2.32468
   R29        1.91192  -0.00008  -0.00032   0.00068   0.00036   1.91229
   R30        1.96695  -0.00107  -0.00041  -0.00135  -0.00176   1.96519
    A1        1.92381   0.00001  -0.00011   0.00039   0.00028   1.92409
    A2        1.94947   0.00019  -0.00014   0.00141   0.00127   1.95074
    A3        1.94029  -0.00006  -0.00026   0.00036   0.00010   1.94039
    A4        1.87733  -0.00011   0.00022  -0.00136  -0.00114   1.87618
    A5        1.88560   0.00005   0.00015   0.00007   0.00023   1.88583
    A6        1.88491  -0.00008   0.00016  -0.00099  -0.00083   1.88409
    A7        1.95587  -0.00036  -0.00024  -0.00269  -0.00293   1.95294
    A8        1.94887   0.00003  -0.00034  -0.00127  -0.00162   1.94726
    A9        1.89198   0.00023   0.00013   0.00381   0.00394   1.89592
   A10        1.94957   0.00003  -0.00033  -0.00132  -0.00165   1.94791
   A11        1.89208   0.00022   0.00013   0.00378   0.00392   1.89600
   A12        1.81858  -0.00011   0.00073  -0.00181  -0.00108   1.81751
   A13        1.94035  -0.00006  -0.00026   0.00035   0.00009   1.94044
   A14        1.94957   0.00019  -0.00014   0.00145   0.00131   1.95088
   A15        1.92372   0.00002  -0.00011   0.00044   0.00033   1.92405
   A16        1.88489  -0.00008   0.00016  -0.00101  -0.00085   1.88404
   A17        1.88561   0.00005   0.00015   0.00007   0.00022   1.88583
   A18        1.87726  -0.00012   0.00022  -0.00142  -0.00120   1.87606
   A19        2.04206  -0.00060  -0.00012  -0.00232  -0.00244   2.03962
   A20        2.09857   0.00077   0.00023   0.00207   0.00230   2.10087
   A21        2.14256  -0.00017  -0.00011   0.00025   0.00013   2.14269
   A22        2.11306  -0.00073  -0.00001  -0.00488  -0.00489   2.10817
   A23        2.10146  -0.00030   0.00008  -0.00110  -0.00102   2.10044
   A24        2.06865   0.00103  -0.00007   0.00599   0.00592   2.07457
   A25        2.09663   0.00072  -0.00024   0.00648   0.00625   2.10288
   A26        1.94955   0.00019  -0.00014   0.00144   0.00130   1.95084
   A27        1.94037  -0.00007  -0.00026   0.00033   0.00007   1.94045
   A28        1.92374   0.00001  -0.00011   0.00042   0.00031   1.92405
   A29        1.88490  -0.00008   0.00016  -0.00099  -0.00083   1.88407
   A30        1.87725  -0.00012   0.00022  -0.00139  -0.00117   1.87608
   A31        1.88559   0.00005   0.00015   0.00008   0.00023   1.88582
   A32        1.95586  -0.00037  -0.00024  -0.00270  -0.00294   1.95292
   A33        1.94937   0.00003  -0.00034  -0.00132  -0.00166   1.94771
   A34        1.89202   0.00023   0.00013   0.00382   0.00395   1.89598
   A35        1.94906   0.00003  -0.00034  -0.00129  -0.00163   1.94744
   A36        1.89200   0.00023   0.00014   0.00382   0.00395   1.89595
   A37        1.81863  -0.00011   0.00073  -0.00183  -0.00109   1.81754
   A38        1.94033  -0.00007  -0.00026   0.00032   0.00007   1.94040
   A39        1.94946   0.00019  -0.00014   0.00144   0.00130   1.95076
   A40        1.92379   0.00001  -0.00011   0.00041   0.00030   1.92409
   A41        1.88490  -0.00008   0.00016  -0.00099  -0.00083   1.88407
   A42        1.88560   0.00005   0.00015   0.00008   0.00024   1.88583
   A43        1.87733  -0.00011   0.00022  -0.00138  -0.00116   1.87617
   A44        2.04210  -0.00060  -0.00013  -0.00233  -0.00245   2.03964
   A45        2.09859   0.00077   0.00024   0.00207   0.00230   2.10089
   A46        2.14250  -0.00017  -0.00011   0.00026   0.00015   2.14265
   A47        2.11321  -0.00074  -0.00001  -0.00496  -0.00497   2.10823
   A48        2.10127  -0.00029   0.00009  -0.00103  -0.00094   2.10033
   A49        2.06871   0.00103  -0.00007   0.00599   0.00592   2.07462
   A50        2.09676   0.00072  -0.00024   0.00644   0.00620   2.10296
   A51        3.08389  -0.00024   0.00027  -0.00554  -0.00528   3.07862
   A52        3.08447  -0.00027   0.00026  -0.00575  -0.00549   3.07898
   A53        3.14123   0.00003   0.00007   0.00629   0.00636   3.14759
   A54        3.14251  -0.00003  -0.00006  -0.00570  -0.00576   3.13675
    D1        1.05749   0.00012   0.00036   0.00023   0.00058   1.05807
    D2       -3.02348  -0.00011  -0.00052  -0.00467  -0.00519  -3.02867
    D3       -1.02994  -0.00009   0.00025  -0.00531  -0.00506  -1.03500
    D4       -1.02850   0.00013   0.00024   0.00076   0.00101  -1.02749
    D5        1.17372  -0.00009  -0.00063  -0.00413  -0.00476   1.16896
    D6       -3.11592  -0.00007   0.00014  -0.00477  -0.00464  -3.12056
    D7       -3.13528   0.00014   0.00031   0.00080   0.00112  -3.13416
    D8       -0.93306  -0.00008  -0.00056  -0.00409  -0.00465  -0.93771
    D9        1.06048  -0.00006   0.00021  -0.00473  -0.00453   1.05595
   D10        3.13598  -0.00015  -0.00031  -0.00161  -0.00192   3.13407
   D11        1.02912  -0.00013  -0.00024  -0.00156  -0.00180   1.02732
   D12       -1.05679  -0.00012  -0.00035  -0.00101  -0.00136  -1.05815
   D13        0.93414   0.00007   0.00057   0.00326   0.00383   0.93798
   D14       -1.17272   0.00009   0.00064   0.00331   0.00395  -1.16877
   D15        3.02455   0.00010   0.00053   0.00386   0.00439   3.02894
   D16       -1.05984   0.00006  -0.00020   0.00394   0.00374  -1.05609
   D17        3.11649   0.00007  -0.00013   0.00399   0.00386   3.12034
   D18        1.03057   0.00009  -0.00025   0.00454   0.00430   1.03487
   D19       -1.10503   0.00022   0.00042   0.00290   0.00332  -1.10171
   D20        2.03646   0.00022   0.00041   0.00285   0.00326   2.03972
   D21        1.10063  -0.00022  -0.00040  -0.00273  -0.00313   1.09750
   D22       -2.04106  -0.00022  -0.00040  -0.00278  -0.00319  -2.04425
   D23        3.13962  -0.00000   0.00001   0.00006   0.00007   3.13969
   D24       -0.00207  -0.00000   0.00001   0.00001   0.00001  -0.00206
   D25        0.00106  -0.00000  -0.00001  -0.00004  -0.00004   0.00101
   D26        3.13886   0.00002  -0.00001   0.00107   0.00107   3.13992
   D27       -3.14044   0.00000  -0.00000   0.00002   0.00002  -3.14042
   D28       -0.00264   0.00002  -0.00000   0.00113   0.00113  -0.00151
   D29       -3.13748  -0.00002   0.00001  -0.00031  -0.00029  -3.13777
   D30        0.00401  -0.00002   0.00001  -0.00037  -0.00035   0.00366
   D31       -0.00074  -0.00000   0.00003   0.00164   0.00168   0.00094
   D32        3.13734  -0.00000  -0.00002  -0.00160  -0.00162   3.13572
   D33       -0.00310   0.00001   0.00003   0.00201   0.00205  -0.00106
   D34        3.13841   0.00000  -0.00002  -0.00142  -0.00144   3.13697
   D35       -1.02827   0.00013   0.00025   0.00094   0.00118  -1.02709
   D36        1.17368  -0.00009  -0.00064  -0.00397  -0.00460   1.16908
   D37       -3.11561  -0.00008   0.00014  -0.00465  -0.00451  -3.12013
   D38       -3.13515   0.00014   0.00032   0.00098   0.00130  -3.13385
   D39       -0.93320  -0.00008  -0.00056  -0.00392  -0.00448  -0.93769
   D40        1.06069  -0.00006   0.00021  -0.00460  -0.00439   1.05630
   D41        1.05763   0.00012   0.00036   0.00040   0.00076   1.05838
   D42       -3.02361  -0.00010  -0.00052  -0.00450  -0.00502  -3.02864
   D43       -1.02972  -0.00009   0.00025  -0.00519  -0.00493  -1.03465
   D44        3.13533  -0.00014  -0.00032  -0.00082  -0.00113   3.13420
   D45        1.02854  -0.00013  -0.00025  -0.00076  -0.00101   1.02753
   D46       -1.05743  -0.00012  -0.00036  -0.00023  -0.00059  -1.05802
   D47        0.93322   0.00008   0.00056   0.00410   0.00467   0.93788
   D48       -1.17358   0.00009   0.00063   0.00416   0.00479  -1.16879
   D49        3.02364   0.00011   0.00052   0.00469   0.00520   3.02885
   D50       -1.06050   0.00006  -0.00021   0.00477   0.00456  -1.05594
   D51        3.11589   0.00008  -0.00014   0.00483   0.00469   3.12058
   D52        1.02993   0.00009  -0.00025   0.00535   0.00510   1.03503
   D53       -1.10181   0.00022   0.00041   0.00261   0.00302  -1.09879
   D54        2.03996   0.00022   0.00041   0.00264   0.00306   2.04302
   D55        1.10385  -0.00022  -0.00041  -0.00305  -0.00346   1.10039
   D56       -2.03756  -0.00022  -0.00041  -0.00301  -0.00342  -2.04099
   D57       -3.14066  -0.00000   0.00000  -0.00021  -0.00021  -3.14087
   D58        0.00111  -0.00000   0.00000  -0.00018  -0.00018   0.00093
   D59        0.00034  -0.00000  -0.00001  -0.00011  -0.00012   0.00023
   D60        3.14124   0.00001  -0.00001   0.00034   0.00033   3.14158
   D61       -3.14143  -0.00000  -0.00001  -0.00014  -0.00015  -3.14158
   D62       -0.00054   0.00001  -0.00001   0.00030   0.00030  -0.00023
   D63       -3.14052  -0.00001  -0.00000  -0.00027  -0.00026  -3.14078
   D64        0.00127  -0.00001  -0.00000  -0.00023  -0.00023   0.00104
         Item               Value     Threshold  Converged?
 Maximum Force            0.002506     0.000015     NO 
 RMS     Force            0.000606     0.000010     NO 
 Maximum Displacement     0.031133     0.000060     NO 
 RMS     Displacement     0.007456     0.000040     NO 
 GradGradGradGradGradGradGradGradGradGradGradGradGradGradGradGradGradGrad

                    Distance matrix (angstroms):
                    1          2          3          4          5
     1  C    0.000000
     2  C    1.533046   0.000000
     3  C    2.540300   1.533004   0.000000
     4  C    2.531263   1.527984   2.531792   0.000000
     5  N    3.034803   2.449239   3.033388   1.344465   0.000000
     6  O    3.448199   2.397658   3.450463   1.230167   2.260793
     7  H    1.104298   2.177427   2.799107   3.486157   4.069990
     8  H    1.105397   2.197521   2.809083   2.864557   2.853564
     9  H    1.103559   2.188688   3.503773   2.750464   3.314867
    10  H    2.154243   1.101006   2.154264   2.090132   3.304615
    11  H    3.503805   2.188689   1.103558   2.751322   3.312620
    12  H    2.809118   2.197583   1.105396   2.865230   2.852229
    13  H    2.799098   2.177360   1.104298   3.486523   4.068912
    14  H    2.873615   2.600183   2.871191   2.055349   1.011942
    15  H    3.995125   3.415411   3.995159   2.074071   1.039918
    16  C    8.286178   7.773428   8.678192   6.275626   5.902152
    17  C    7.771921   7.098493   7.782886   5.571280   5.060528
    18  C    8.675411   7.781279   8.307061   6.280536   5.904843
    19  C    6.273901   5.571286   6.282351   4.044636   3.575605
    20  N    5.899486   5.060374   5.907254   3.575470   3.581199
    21  O    5.684411   5.103569   5.690457   3.642352   2.811069
    22  H    8.282410   7.701999   8.686807   6.241682   6.105454
    23  H    7.868118   7.553511   8.552378   6.108697   5.671235
    24  H    9.362751   8.856681   9.722095   7.351460   6.920061
    25  H    8.048153   7.472585   8.059069   5.972275   5.229723
    26  H    8.557121   7.567565   7.895794   6.117545   5.676173
    27  H    8.684122   7.709771   8.302958   6.246376   6.107751
    28  H    9.717538   8.863781   9.383904   7.355791   6.922505
    29  H    6.679259   5.806439   6.688502   4.386014   4.546578
    30  H    4.964502   4.064184   4.969393   2.620356   2.884352
                    6          7          8          9         10
     6  O    0.000000
     7  H    4.331104   0.000000
     8  H    3.963312   1.781968   0.000000
     9  H    3.394888   1.786760   1.786519   0.000000
    10  H    2.418846   2.489323   3.090243   2.510775   0.000000
    11  H    3.398877   3.811786   3.823638   4.353302   2.510902
    12  H    3.965531   3.164174   2.625336   3.823707   3.090319
    13  H    4.332904   2.604220   3.164244   3.811723   2.489269
    14  H    3.164852   3.823538   2.362592   3.360729   3.635514
    15  H    2.539360   5.060569   3.780827   4.114007   4.156913
    16  C    5.685395   9.362758   8.282052   7.867152   8.049488
    17  C    5.103466   8.855344   7.700127   7.550949   7.472485
    18  C    5.689179   9.719593   8.683719   8.548652   8.057413
    19  C    3.642279   7.349971   6.239575   6.105760   5.972203
    20  N    2.810885   6.917768   6.102488   5.666669   5.229497
    21  O    3.633241   6.771329   5.464790   5.635798   5.710198
    22  H    5.466170   9.319834   8.424171   7.805450   7.826801
    23  H    5.637438   8.945423   7.806086   7.368961   7.886564
    24  H    6.772174  10.444866   9.319449   8.944587   9.145720
    25  H    5.710163   9.144521   7.825083   7.884268   7.982067
    26  H    5.644226   9.575664   8.521481   8.571851   7.900670
    27  H    5.469841   9.689592   8.831874   8.513507   7.834812
    28  H    6.775409  10.773911   9.687119   9.564289   9.152866
    29  H    3.444704   7.658746   6.975480   6.375874   5.824125
    30  H    1.772243   5.950194   5.261367   4.772859   4.191075
                   11         12         13         14         15
    11  H    0.000000
    12  H    1.786488   0.000000
    13  H    1.786762   1.781888   0.000000
    14  H    3.357127   2.359744   3.821697   0.000000
    15  H    4.114033   3.781092   5.060598   1.766762   0.000000
    16  C    8.560869   8.687297   9.720002   6.682117   4.967290
    17  C    7.570262   7.711796   8.865196   5.806708   4.064434
    18  C    7.896791   8.303371   9.383879   6.686121   4.967088
    19  C    6.120619   6.248587   7.357351   4.386234   2.620612
    20  N    5.680534   6.110471   6.924528   4.546618   2.884548
    21  O    5.646213   5.471519   6.776531   3.444999   1.772462
    22  H    8.525554   8.835300   9.689874   6.978585   5.264418
    23  H    8.576494   8.517665   9.567596   6.380756   4.777547
    24  H    9.579039   9.692476  10.776150   7.661262   5.952532
    25  H    7.903320   7.836914   9.154367   5.824498   4.191336
    26  H    7.404734   7.834175   8.974323   6.388046   4.777299
    27  H    7.834793   8.444778   9.340760   6.982159   5.263851
    28  H    8.975199   9.341221  10.466303   7.664967   5.952463
    29  H    6.392483   6.984845   7.666970   5.528665   3.892471
    30  H    4.781598   5.266351   5.954340   3.892284   2.444987
                   16         17         18         19         20
    16  C    0.000000
    17  C    1.533016   0.000000
    18  C    2.540288   1.533035   0.000000
    19  C    2.531624   1.527975   2.531401   0.000000
    20  N    3.033829   2.449242   3.034340   1.344461   0.000000
    21  O    3.449833   2.397661   3.448831   1.230166   2.260765
    22  H    1.105398   2.197569   2.808971   2.865142   2.852800
[...]
 .00000205,0.00000021,-0.00000420,0.00000076,-0.00000168,0.00000685,-0.
 00000341,0.00000033,0.00001862,-0.00000621,-0.00001311,-0.00036457,0.0
 0003869,0.00001478,0.00144187,-0.04777403,-0.00145684,0.02956630,-0.00
 198598,-0.00632537,0.00094522,0.00159575,-0.00039296,-0.00165843,-0.00
 561585,0.00239255,0.00083035,0.00085107,-0.00068574,0.00211389,0.00089
 769,0.00080708,-0.00159110,-0.00097711,-0.00003364,-0.02433161,0.00216
 133,0.00689892,-0.00567543,0.05012021,-0.00000182,0.00000229,0.0000006
 2,-0.00000057,-0.00000132,0.00000640,-0.00000106,-0.00000091,0.0000008
 9,-0.00000198,0.00000561,-0.00009625,-0.00008714,0.00001253,0.00004589
 ,0.00003250,-0.00000354,0.00004952,-0.00000090,-0.00000078,-0.00000004
 ,0.00000119,0.00000039,0.00000075,0.00000026,-0.00000082,-0.00000022,-
 0.00000359,0.00000031,0.00000152,0.00000046,-0.00000059,-0.00000045,0.
 00000141,-0.00000060,0.00000086,-0.00000084,0.00000033,0.00000026,-0.0
 0000752,0.00000139,0.00000638,0.00014038,-0.00004236,-0.00000822,0.051
 36693,-0.00209132,-0.05887990,-0.01437050,0.00161950,0.00184569,0.0003
 0837,-0.00069599,0.00002793,0.00111865,0.00294279,-0.00155662,-0.00028
 805,-0.00068754,0.00079784,-0.00070250,-0.00048271,0.00011190,0.031119
 90,-0.00047718,-0.00345956,-0.01423392,0.00156326,0.00292062,-0.053929
 12,-0.00130197,0.05734443,-0.00001102,0.00001048,0.00000520,-0.0000323
 8,0.00000247,-0.00007054,-0.00001101,-0.00001082,0.00000445,0.00014272
 ,-0.00002491,0.00071144,0.00038235,0.00001125,-0.00031812,-0.00071324,
 0.00001329,-0.00038405,-0.00000536,-0.00000595,-0.00000402,-0.00000283
 ,-0.00000150,-0.00000641,0.00000259,0.00000125,0.00000242,0.00001491,0
 .00000029,-0.00000821,0.00000259,-0.00000141,0.00000233,-0.00000283,0.
 00000195,-0.00000629,-0.00000536,0.00000622,-0.00000359,0.00001365,0.0
 0000001,-0.00000038,-0.00045226,-0.00000229,0.00006240,0.00184441,0.00
 149935,-0.01475738,-0.05637642,-0.00147622,0.04199113,0.00184264,-0.00
 045957,-0.01481292,-0.00841768,-0.00141306,0.04019928,-0.00866411,0.00
 005110,-0.00152616,0.00315843,0.00007156,-0.00200653,-0.00061376,0.002
 65035,-0.00125974,0.00027503,-0.00043439,0.00062911,0.00035675,-0.0005
 3789,-0.00038103,0.06618083,0.00000086,-0.00000072,0.00000124,-0.00000
 054,0.00000226,-0.00000091,-0.00000114,-0.00000095,-0.00000108,0.00000
 237,-0.00000419,0.00001167,0.00000574,-0.00002043,-0.00000566,-0.00001
 070,-0.00000175,-0.00000605,0.00000014,-0.00000026,-0.00000043,-0.0000
 0068,0.00000136,-0.00000112,-0.00000008,0.00000005,0.00000140,0.000000
 29,-0.00000152,-0.00000020,0.00000016,0.00000007,-0.00000127,0.0000006
 0,0.00000133,0.00000090,-0.00000032,-0.00000010,0.00000031,0.00000039,
 0.00001087,0.00000042,-0.00000594,0.00002079,0.00000075,-0.00447165,-0
 .00253001,0.02910971,-0.00173175,-0.04948329,0.00916504,0.00434980,-0.
 00045322,-0.02848307,0.00006330,-0.00113387,0.00026497,-0.00006857,0.0
 0147833,0.00001927,0.00007705,-0.00073156,-0.00012962,0.00252193,-0.00
 467376,0.00225756,-0.00073152,0.00070876,-0.00012225,-0.00008166,0.001
 09873,-0.00058053,0.00167598,0.05854743,0.00000396,-0.00000432,-0.0000
 0324,0.00001522,-0.00000089,0.00002776,0.00000389,0.00000448,-0.000003
 02,-0.00006651,0.00001148,-0.00033152,-0.00016071,-0.00000562,0.000138
 58,0.00030023,-0.00000588,0.00016773,0.00000262,0.00000260,0.00000168,
 0.00000110,0.00000045,0.00000452,-0.00000119,-0.00000101,-0.00000180,-
 0.00000821,-0.00000020,0.00000417,-0.00000118,0.00000114,-0.00000182,0
 .00000114,-0.00000068,0.00000455,0.00000261,-0.00000272,0.00000152,-0.
 00001118,0.00000041,-0.00000096,0.00016585,0.00000077,-0.00000013,0.00
 159841,0.00103282,-0.00946122,0.04927037,0.00916710,-0.30992354,0.0019
 0836,-0.00039866,-0.01153608,-0.00183902,0.00025503,-0.00840714,0.0018
 8571,0.00002015,0.00091959,-0.00217331,-0.00012963,0.00294180,-0.00096
 652,0.00176787,0.00087292,0.00009418,0.00021812,0.00050184,-0.00037900
 ,-0.00011665,0.00038022,-0.04767798,-0.00962082,0.33190869,0.00000718,
 -0.00000936,-0.00000376,0.00000913,-0.00000324,0.00000475,0.00000848,0
 .00000632,-0.00000415,-0.00009837,-0.00001179,-0.00000541,0.00010710,0
 .00002945,-0.00000564,0.00011700,0.00002057,0.00000743,0.00000796,0.00
 000364,0.00000071,-0.00000363,-0.00000048,0.00000023,-0.00000363,-0.00
 000063,-0.00000020,0.00000259,-0.00000008,-0.00000119,-0.00000573,0.00
 000344,0.00000162,-0.00000474,0.00000024,-0.00000056,0.00000898,-0.000
 00175,0.00000026,0.00000454,-0.00000561,-0.00001187,-0.00017044,-0.000
 03055,-0.00001436,-0.00104390,-0.00215230,-0.00149246,0.00552228,-0.01
 286697,0.00671040,-0.09794937,0.09593424,-0.04234127,0.00070169,-0.001
 22559,0.00089472,0.00010171,0.00035755,-0.00009797,0.00037465,0.000371
 90,-0.00001146,-0.00016563,0.00013398,-0.00008080,0.00067126,-0.000751
 83,0.00009651,0.00029586,-0.00025196,-0.00010090,0.00027448,0.00072292
 ,0.00014534,0.09910275,0.00000093,-0.00000580,-0.00000037,0.00000125,-
 0.00000984,0.00000015,0.00000425,-0.00000182,-0.00000106,-0.00004123,-
 0.00002851,0.00003479,0.00002573,0.00007475,-0.00001944,0.00000569,0.0
 0005545,-0.00001748,0.00000254,0.00000201,0.00000076,-0.00000019,-0.00
 000118,0.00000042,-0.00000063,0.00000361,-0.00000191,0.00000124,0.0000
 0005,-0.00000101,-0.00000355,0.00000514,0.00000404,-0.00000358,-0.0000
 0125,-0.00000296,0.00000398,0.00000142,-0.00000082,-0.00000541,-0.0000
 2132,-0.00000079,-0.00002763,-0.00008090,-0.00000627,-0.00351929,-0.00
 375583,-0.00358043,0.01052357,-0.01940956,0.01075512,0.09380549,-0.234
 06677,0.08311646,0.00205521,-0.00053657,0.00115320,-0.00042779,0.00053
 146,0.00005603,-0.00065178,0.00047965,-0.00070790,-0.00011011,0.000282
 85,-0.00001877,0.00074413,-0.00138357,0.00063305,-0.00002418,0.0003172
 5,-0.00009159,0.00038896,0.00071495,-0.00020312,-0.09995409,0.25271761
 ,0.00000192,0.00000021,0.00000171,0.00000020,0.00000423,-0.00000474,0.
 00000160,0.00000593,0.00000476,0.00001450,0.00001347,0.00008871,0.0000
 5572,-0.00001776,-0.00005013,-0.00000872,-0.00003750,-0.00005355,-0.00
 000013,-0.00000003,-0.00000041,-0.00000093,-0.00000025,-0.00000226,-0.
 00000020,-0.00000191,0.00000031,0.00000242,0.00000140,-0.00000180,0.00
 000138,-0.00000361,-0.00000098,-0.00000012,-0.00000061,-0.00000210,-0.
 00000063,-0.00000171,-0.00000022,-0.00000012,0.00000296,0.00000410,-0.
 00007695,0.00001417,0.00001600,-0.00158534,-0.00217894,-0.00096271,0.0
 0724530,-0.01243742,0.00557987,-0.04214439,0.08459971,-0.08752839,0.00
 016580,0.00017157,0.00142867,0.00015087,-0.00038000,-0.00046165,0.0003
 3248,0.00029100,-0.00044067,-0.00006174,-0.00030674,0.00030433,0.00014
 934,-0.00077241,0.00059961,-0.00015919,0.00018332,-0.00015773,0.000657
 95,0.00013759,0.00049611,0.04665535,-0.08816289,0.08739695,0.00000794,
 -0.00001029,-0.00000352,0.00001441,-0.00000308,0.00002050,0.00000829,0
 .00000700,-0.00000402,-0.00011154,-0.00000225,-0.00019982,0.00000200,0
 .00001078,0.00008266,0.00026062,0.00001737,0.00010351,0.00000769,0.000
 00409,0.00000170,-0.00000184,0.00000027,0.00000190,-0.00000363,-0.0000
 0019,-0.00000093,-0.00000283,-0.00000068,0.00000110,-0.00000474,0.0000
 0358,0.00000013,-0.00000252,-0.00000021,0.00000146,0.00000811,-0.00000
 297,0.00000119,-0.00000084,-0.00000362,-0.00000663,-0.00003619,-0.0000
 1097,-0.00002512,0.00014872,0.00090780,0.00048112,0.00136022,0.0003807
 4,-0.01423303,-0.05280214,0.00034156,0.03410017,0.00104008,0.00048360,
 -0.00225101,-0.00053350,0.00019431,0.00043664,-0.00019498,-0.00007400,
 0.00063557,0.00023050,0.00009410,0.00026464,-0.00016564,0.00011398,-0.
 00005400,-0.00001218,-0.00005935,0.00015547,-0.00061144,-0.00244608,-0
 .00114000,0.00178458,-0.00123629,-0.01385535,0.05187752,0.00000199,-0.
 00000027,-0.00000083,0.00000352,0.00000174,0.00000948,0.00000223,0.000
 00360,0.00000136,-0.00001548,0.00000868,-0.00007066,-0.00003867,-0.000
 00104,0.00002378,0.00008923,-0.00002715,0.00002615,0.00000064,0.000000
 60,0.00000058,0.00000027,-0.00000025,0.00000013,-0.00000048,-0.0000011
 8,-0.00000025,-0.00000150,0.00000136,0.00000045,-0.00000020,-0.0000015
 0,0.00000065,0.00000010,-0.00000141,-0.00000076,0.00000070,-0.00000096
 ,0.00000039,-0.00000330,-0.00000243,0.00000225,0.00005528,-0.00000014,
 0.00000328,0.00035255,0.00209243,-0.00121667,0.00455619,0.00006423,-0.
 02758904,0.00023571,-0.04890415,0.00308735,0.00115152,0.00056206,-0.00
 035575,-0.00015745,-0.00027409,-0.00015591,-0.00037275,0.00020553,0.00
 028970,-0.00011222,-0.00031755,0.00071884,-0.00012818,0.00026018,0.000
 30358,0.00007366,-0.00010199,0.00002489,-0.00255377,-0.00436716,-0.002
 13671,-0.00546765,0.00173844,0.02560361,0.00327069,0.05035393,0.000000
 30,-0.00000252,-0.00000256,0.00000564,-0.00000257,0.00001563,0.0000002
 5,-0.00000095,-0.00000413,-0.00004711,0.00000132,-0.00027227,-0.000127
 44,0.00000040,0.00014198,0.00015732,0.00001515,0.00014060,0.00000054,0
 .00000166,0.00000102,0.00000190,0.00000013,0.00000528,0.00000023,0.000
 00042,-0.00000226,-0.00000641,-0.00000112,0.00000452,-0.00000058,0.000
 00301,-0.00000185,0.00000147,0.00000029,0.00000531,0.00000074,-0.00000
 079,0.00000075,0.00000125,-0.00000158,-0.00000600,0.00015202,0.0000059
 6,-0.00003466,-0.00011836,0.00100337,0.00110976,0.00123329,0.00034077,
 -0.01355444,0.03362354,0.00269487,-0.30949759,0.00227544,-0.00023130,-
 0.00252139,-0.00011411,0.00098980,0.00148734,-0.00059599,0.00005541,0.
 00099642,0.00025773,-0.00077202,0.00044041,-0.00009002,0.00001563,0.00
 032701,-0.00004932,-0.00001914,-0.00004281,-0.00144138,-0.00262651,0.0
 0056398,0.00214929,-0.00128749,-0.00862768,-0.03621282,0.00020050,0.33
 199486,-0.00001531,0.00001832,0.00000661,-0.00002186,0.00000348,-0.000
 01034,-0.00001633,-0.00001699,0.00000606,0.00018594,0.00000567,0.00002
 175,-0.00024522,-0.00002596,0.00001702,-0.00028604,-0.00001676,-0.0000
 1991,-0.00001607,-0.00000678,-0.00000132,0.00000769,0.00000064,0.00000
 054,0.00000796,0.00000254,-0.00000013,-0.00000536,0.00000014,0.0000026
 2,0.00000898,-0.00000392,-0.00000090,0.00000811,-0.00000075,0.00000069
 ,-0.00001659,0.00000603,-0.00000090,-0.00001288,0.00000111,0.00002122,
 0.00041920,0.00004747,0.00001005,0.00085696,0.00089538,0.00027462,-0.0
 1252497,0.00000615,0.00222940,-0.30802251,-0.00651695,0.05084108,0.002
 33976,-0.00232601,-0.00113906,-0.00044718,-0.00012920,0.00016376,-0.00
 140227,0.00029772,-0.00063463,-0.00001217,-0.00006995,-0.00005438,0.00
 029573,0.00003526,-0.00015703,0.00039110,-0.00059695,0.00021112,0.0003
 5647,0.00010773,-0.00037243,-0.00967265,-0.00169367,0.00278304,-0.0010
 5743,0.00012407,-0.00065116,0.32856707,-0.00000890,0.00000930,0.000002
 11,-0.00001084,-0.00000132,0.00000169,-0.00000842,-0.00001302,0.000000
 36,0.00006279,-0.00001056,-0.00006258,-0.00020540,0.00000172,0.0000476
 8,-0.00012380,0.00001879,0.00003222,-0.00000678,-0.00000335,-0.0000005
 8,0.00000409,0.00000060,0.00000166,0.00000364,0.00000201,-0.00000003,-
 0.00000596,-0.00000026,0.00000260,0.00000173,0.00000123,0.00000181,0.0
 0000289,-0.00000098,0.00000067,-0.00000597,0.00000532,-0.00000078,-0.0
 0001805,-0.00000697,0.00001218,0.00035402,0.00003671,-0.00001163,-0.00
 096487,0.00151178,0.00049741,-0.02849008,-0.00230959,0.00603548,-0.005
 16291,-0.04808250,0.00224030,0.00157941,-0.00522274,-0.00265079,-0.000
 80852,0.00075442,0.00068271,-0.00206062,0.00091546,-0.00075091,0.00004
 833,-0.00010131,0.00001497,0.00025842,0.00032145,-0.00014972,0.0005811
 2,-0.00053190,-0.00013339,0.00056293,0.00104675,0.00016331,0.02526432,
 0.00276821,-0.00690935,-0.00059586,-0.00102527,0.00020457,0.00957445,0
 .04998250,-0.00000169,0.00000150,0.00000110,-0.00000133,0.00000078,0.0
 0000661,-0.00000241,-0.00000325,0.00000048,0.00000242,0.00000040,-0.00
 010105,-0.00010178,-0.00001568,0.00004836,0.00002389,0.00000140,0.0000
 5204,-0.00000132,-0.00000058,0.00000020,0.00000170,0.00000058,0.000001
 02,0.00000071,0.00000076,-0.00000041,-0.00000402,-0.00000043,0.0000016
 8,0.00000038,0.00000092,-0.00000003,0.00000139,-0.00000051,0.00000077,
 -0.00000132,0.00000115,-0.00000004,-0.00000881,-0.00000233,0.00000714,
 0.00016558,0.00004558,-0.00000606,0.00024096,0.00080044,0.00011177,-0.
 01640826,-0.00191851,0.00215622,0.05114016,0.00287503,-0.05857758,0.00
 123380,-0.00320010,-0.00194985,-0.00034588,0.00068430,0.00089404,-0.00
 084942,0.00053889,0.00009302,0.00015925,-0.00002893,-0.00004349,-0.000
 08303,0.00012523,-0.00016179,0.00025242,0.00007841,0.00025205,-0.00034
 271,0.00062717,0.00043253,-0.01249117,-0.00158055,0.00232480,0.0311546
 5,0.00066296,-0.00341212,-0.05340078,0.00075869,0.05749212,-0.00003951
 ,0.00003270,0.00000566,-0.00012184,0.00000646,-0.00018526,-0.00003950,
 -0.00003304,0.00000335,0.00047993,-0.00004285,0.00122525,0.00043226,0.
 00001319,-0.00037188,-0.00306013,-0.00001710,0.00046771,-0.00001288,-0
 .00001805,-0.00000881,-0.00000084,-0.00000330,0.00000125,0.00000454,-0
 .00000541,-0.00000012,0.00001365,0.00000039,-0.00001118,0.00000453,0.0
 0000542,0.00000026,-0.00000085,0.00000321,0.00000148,-0.00001288,0.000
 01862,-0.00000752,0.00001274,0.,-0.00000053,-0.00050757,-0.00000746,0.
 00020919,-0.00082172,-0.00024485,0.00134857,-0.00073043,-0.00000759,0.
 00021585,-0.00082195,0.00014929,0.00136219,0.01645326,-0.00023222,0.00
 680342,-0.22091225,0.00656659,-0.18885592,0.00067077,-0.00023719,0.006
 70601,-0.00091175,0.00095627,-0.00017345,0.00015234,-0.00013600,-0.000
 31649,-0.00004565,0.00005666,-0.00027031,0.00022602,0.00000693,-0.0001
 9253,0.00015234,0.00015804,-0.00030630,-0.00091142,-0.00094226,-0.0002
 3978,-0.00004572,-0.00003751,-0.00027340,0.21378197,0.00000011,0.00002
 239,-0.00000805,-0.00000313,0.00003100,-0.00000250,-0.00000244,0.00001
 974,0.00001013,0.00001968,0.00002822,0.00002096,0.00000456,-0.00016629
 ,-0.00001541,-0.00006303,-0.00022887,0.00000731,0.00000112,-0.00000697
 ,-0.00000233,-0.00000362,-0.00000243,-0.00000158,-0.00000561,-0.000021
 32,0.00000296,0.00000001,0.00001087,0.00000041,0.00000644,-0.00002104,
 -0.00000473,0.00000408,-0.00000240,0.00000184,-0.00000260,-0.00000621,
 0.00000139,0.,0.00005410,0.00000275,-0.00001173,0.00001421,0.00000705,
 -0.00041170,0.00008657,-0.00129240,-0.00000839,-0.00026046,0.00001307,
 0.00041818,-0.00003325,0.00128516,0.00090901,-0.00942750,0.00030837,0.
 00633731,-0.00373228,0.01085154,-0.00015474,0.00926717,0.00049034,0.00
 137089,-0.00036668,0.00066016,0.00011575,-0.00021651,-0.00013708,-0.00
 017923,-0.00012530,0.00066848,0.00002224,-0.00071490,-0.00003961,-0.00
 011489,-0.00021888,0.00012470,-0.00140347,-0.00034432,-0.00071598,0.00
 018990,-0.00007378,-0.00069088,-0.00695901,0.00959449,0.00003294,-0.00
 002731,-0.00000990,0.00008814,-0.00000243,0.00010093,0.00003284,0.0000
 2941,-0.00000727,-0.00055833,0.00002051,-0.00055997,-0.00012551,-0.000
 01535,0.00027006,0.00177795,0.00000764,-0.00043400,0.00002122,0.000012
 18,0.00000714,-0.00000663,0.00000225,-0.00000600,-0.00001187,-0.000000
 79,0.00000410,-0.00000038,0.00000042,-0.00000096,-0.00001145,-0.000000
 99,0.00000382,-0.00000636,-0.00000200,-0.00000603,0.00002110,-0.000013
 11,0.00000639,-0.00000053,0.00000275,-0.00002417,0.00032985,0.00000708
 ,-0.00018542,-0.00011147,-0.00042344,0.00007831,0.00023981,0.00001303,
 -0.00063258,-0.00008268,0.00041558,0.00019841,-0.02574697,0.00030057,-
 0.01817425,-0.18231163,0.01085285,-0.31421749,0.00435366,0.00048978,-0
 .00465599,0.00050425,-0.00038584,0.00044910,-0.00000633,0.00009176,-0.
 00004321,-0.00015807,0.00004154,0.00024311,-0.00062956,-0.00003968,0.0
 0041118,-0.00001434,-0.00010407,-0.00004094,0.00040673,0.00033026,0.00
 042609,-0.00014512,-0.00006389,0.00019174,0.19996250,-0.01108564,0.326
 84451,0.00075957,-0.00075428,-0.00019818,0.00159444,-0.00010490,0.0029
 9203,0.00075933,0.00076670,-0.00014491,-0.00765839,0.00094240,-0.02693
 341,-0.00442156,-0.00036517,0.01038855,0.01320030,-0.00047782,0.013783
 25,0.00041918,0.00035404,0.00016556,-0.00003619,0.00005528,0.00015202,
 -0.00017045,-0.00002766,-0.00007697,-0.00045226,-0.00000593,0.00016585
 ,-0.00017048,0.00003291,-0.00007482,-0.00003617,-0.00006581,0.00014777
 ,0.00041940,-0.00036456,0.00014040,-0.00050756,-0.00001168,0.00032986,
 0.00666421,0.00005100,-0.00141537,0.00045863,0.00058423,-0.00013547,0.
 00135155,0.00004606,-0.00134286,0.00045850,-0.00057322,-0.00017604,-0.
 00223730,-0.00083052,0.02366648,-0.37365737,-0.00126923,0.03363143,-0.
 00713652,0.00039021,-0.01113997,-0.00029786,0.00013568,-0.00015727,-0.
 00013647,0.00002279,-0.00001620,0.00037573,-0.00021145,-0.00007487,0.0
 0084583,0.00001445,-0.00040923,-0.00013646,-0.00002160,-0.00001777,-0.
 00029779,-0.00012445,-0.00016647,0.00037559,0.00021633,-0.00005999,-0.
 00338746,-0.00007569,0.00215623,0.37305802,0.00030171,-0.00001861,-0.0
 0006271,-0.00000227,0.00172057,0.00006969,-0.00030235,-0.00002295,0.00
 005932,0.00017430,0.00074035,-0.00005526,-0.00000213,-0.00124797,0.000
 00133,-0.00010235,-0.00906897,-0.00000617,0.00004747,0.00003672,0.0000
 4558,-0.00001097,-0.00000014,0.00000596,-0.00003054,-0.00008089,0.0000
 1418,-0.00000231,0.00002079,0.00000078,0.00003143,-0.00007983,-0.00002
 094,0.00001268,0.00000031,-0.00000343,-0.00004787,0.00003868,-0.000042
 36,-0.00000747,0.00001421,0.00000709,0.00005102,0.00094976,0.00009837,
 -0.00070056,0.00032194,0.00020587,0.00000447,0.00493774,0.00035531,0.0
 0072102,0.00035139,-0.00016615,-0.00128202,0.00174774,-0.00004177,-0.0
 0153903,-0.01931106,0.00233670,0.00012171,-0.00583167,-0.00031793,-0.0
 0002923,0.00010489,-0.00014379,-0.00000089,-0.00016331,-0.00007507,-0.
 00008735,0.00002702,-0.00024864,-0.00004788,0.00048601,0.00002080,0.00
 000017,-0.00017104,0.00005723,0.00001945,0.00007808,0.00012874,0.00008
 782,0.00000730,0.00023755,0.00095007,-0.00315938,-0.00045307,0.0016719
 0,0.02757232,0.00002521,-0.00000542,0.00002412,0.00006342,0.00006898,-
 0.00024340,0.00000401,0.00000211,0.00002867,-0.00503019,-0.00004980,0.
 00212179,0.00003842,-0.00000124,-0.00121180,0.00307736,-0.00000885,-0.
 00879476,0.00001005,-0.00001163,-0.00000606,-0.00002513,0.00000327,-0.
 00003466,-0.00001437,-0.00000627,0.00001600,0.00006240,0.00000075,-0.0
 0000013,-0.00001219,-0.00000047,0.00001497,-0.00002430,-0.00000083,-0.
 00003513,0.00000670,0.00001479,-0.00000822,0.00020919,0.00000706,-0.00
 018541,-0.00141538,0.00009836,-0.00186282,-0.00031788,0.00025151,-0.00
 021479,-0.00015411,0.00035582,-0.00520021,-0.00026810,-0.00021189,-0.0
 0024417,0.03654929,-0.00003823,0.00310135,0.04131770,0.00233849,-0.085
 63319,-0.00347993,-0.00031617,0.00315062,0.00013555,-0.00025140,0.0002
 9199,0.00001086,-0.00005269,0.00008231,-0.00000761,-0.00004437,0.00016
 492,0.00137130,0.00002120,-0.00010887,0.00001088,0.00003490,0.00009004
 ,0.00013713,0.00023639,0.00031880,-0.00000150,0.00003327,0.00018475,-0
 .02709921,-0.00046045,0.00976328,-0.04517961,-0.00200720,0.08443003\\0
 .00000006,0.00000010,0.00000026,-0.00000004,0.00000020,0.00000002,0.00
 000007,-0.00000013,0.00000025,-0.00000008,-0.00000015,0.00000025,-0.00
 000004,-0.00000010,0.00000012,0.,-0.00000006,-0.00000013,-0.00000002,0
 .,0.00000026,-0.00000006,0.,0.00000016,0.00000003,0.00000002,0.0000002
 1,0.00000008,-0.00000002,0.00000023,0.00000003,-0.00000003,0.00000021,
 -0.00000005,-0.00000003,0.00000016,-0.00000001,-0.00000003,0.00000029,
 -0.00000013,0.,0.00000014,-0.00000007,0.,0.00000003,-0.00000006,0.0000
 0025,-0.00000033,0.00000004,-0.00000050,-0.00000003,-0.00000007,0.0000
 0002,-0.00000017,0.00000006,0.00000020,-0.00000023,0.00000007,-0.00000
 013,-0.00000014,0.00000007,0.00000017,0.00000012,0.00000010,0.00000001
 ,-0.00000014,-0.00000004,0.00000002,-0.00000019,0.00000001,0.00000004,
 -0.00000028,-0.00000008,0.00000003,-0.00000023,-0.00000003,-0.00000003
 ,-0.00000023,0.00000002,-0.00000002,-0.00000019,0.00000002,0.,-0.00000
 027,0.00000013,0.00000004,-0.00000014,-0.00000001,0.00000010,0.\\\@


 A SOLDIER'S LIFE IS A LIFE OF HONOR, BUT A DOG WOULD NOT LEAD IT.
 -- PRINCE RUPERT, FOUNDER OF THE HUDSON'S BAY COMPANY
 File lengths (MBytes):  RWF=    157 Int=      0 D2E=      0 Chk=      5 Scr=      1
 Normal termination of Gaussian 16 at Mon Apr  1 15:32:23 2024.
real 1523.47
user 5604.26
sys 41.66
