 Entering Gaussian System, Link 0=g16
 Input=gaussian_test.inp
 Output=gaussian_test.log
 Initial command:
 /sw/restricted/lms/sw/Gaussian/g16_B01/g16/l1.exe "/scratch/user/peterchao1/peterchao1/6991768_1675632256000000755396537/Gau-40694.inp" -scrdir="/scratch/user/peterchao1/peterchao1/6991768_1675632256000000755396537/"
 Entering Link 1 = /sw/restricted/lms/sw/Gaussian/g16_B01/g16/l1.exe PID=     40695.
  
 Copyright (c) 1988-2017, Gaussian, Inc.  All Rights Reserved.
  
 This is part of the Gaussian(R) 16 program.  It is based on
 the Gaussian(R) 09 system (copyright 2009, Gaussian, Inc.),
 the Gaussian(R) 03 system (copyright 2003, Gaussian, Inc.),
 the Gaussian(R) 98 system (copyright 1998, Gaussian, Inc.),
 the Gaussian(R) 94 system (copyright 1995, Gaussian, Inc.),
 the Gaussian 92(TM) system (copyright 1992, Gaussian, Inc.),
 the Gaussian 90(TM) system (copyright 1990, Gaussian, Inc.),
 the Gaussian 88(TM) system (copyright 1988, Gaussian, Inc.),
 the Gaussian 86(TM) system (copyright 1986, Carnegie Mellon
 University), and the Gaussian 82(TM) system (copyright 1983,
 Carnegie Mellon University). Gaussian is a federally registered
 trademark of Gaussian, Inc.
  
 This software contains proprietary and confidential information,
 including trade secrets, belonging to Gaussian, Inc.
  
 This software is provided under written license and may be
 used, copied, transmitted, or stored only in accord with that
 written license.
  
 The following legend is applicable only to US Government
 contracts under FAR:
  
                    RESTRICTED RIGHTS LEGEND
  
 Use, reproduction and disclosure by the US Government is
 subject to restrictions as set forth in subparagraphs (a)
 and (c) of the Commercial Computer Software - Restricted
 Rights clause in FAR 52.227-19.
  
 Gaussian, Inc.
 340 Quinnipiac St., Bldg. 40, Wallingford CT 06492
  
  
 ---------------------------------------------------------------
 Warning -- This program may not be used in any manner that
 competes with the business of Gaussian, Inc. or will provide
 assistance to any competitor of Gaussian, Inc.  The licensee
 of this program is prohibited from giving any competitor of
 Gaussian, Inc. access to this program.  By using this program,
 the user acknowledges that Gaussian, Inc. is engaged in the
 business of creating and licensing software in the field of
 computational chemistry and represents and warrants to the
 licensee that it is not a competitor of Gaussian, Inc. and that
 it will not use this program in any manner prohibited above.
 ---------------------------------------------------------------
  

 Cite this work as:
 Gaussian 16, Revision B.01,
 M. J. Frisch, G. W. Trucks, H. B. Schlegel, G. E. Scuseria, 
 M. A. Robb, J. R. Cheeseman, G. Scalmani, V. Barone, 
 G. A. Petersson, H. Nakatsuji, X. Li, M. Caricato, A. V. Marenich, 
 J. Bloino, B. G. Janesko, R. Gomperts, B. Mennucci, H. P. Hratchian, 
 J. V. Ortiz, A. F. Izmaylov, J. L. Sonnenberg, D. Williams-Young, 
 F. Ding, F. Lipparini, F. Egidi, J. Goings, B. Peng, A. Petrone, 
 T. Henderson, D. Ranasinghe, V. G. Zakrzewski, J. Gao, N. Rega, 
 G. Zheng, W. Liang, M. Hada, M. Ehara, K. Toyota, R. Fukuda, 
 J. Hasegawa, M. Ishida, T. Nakajima, Y. Honda, O. Kitao, H. Nakai, 
 T. Vreven, K. Throssell, J. A. Montgomery, Jr., J. E. Peralta, 
 F. Ogliaro, M. J. Bearpark, J. J. Heyd, E. N. Brothers, K. N. Kudin, 
 V. N. Staroverov, T. A. Keith, R. Kobayashi, J. Normand, 
 K. Raghavachari, A. P. Rendell, J. C. Burant, S. S. Iyengar, 
 J. Tomasi, M. Cossi, J. M. Millam, M. Klene, C. Adamo, R. Cammi, 
 J. W. Ochterski, R. L. Martin, K. Morokuma, O. Farkas, 
 J. B. Foresman, and D. J. Fox, Gaussian, Inc., Wallingford CT, 2016.
 
 ******************************************
 Gaussian 16:  ES64L-G16RevB.01 20-Dec-2017
                 5-Feb-2023 
 ******************************************
 %nprocshared=4
 Will use up to    4 processors via shared memory.
 %mem=8000mb
 %chk=14.chk
 %nprocshared=4
 Will use up to    4 processors via shared memory.
 %mem=8000mb
 ----------------------------------------------------------------------
 #T wB97XD/def2svpp opt=tight freq int(grid=ultrafine) scf=(verytight,q
 c) Volume=tight
 ----------------------------------------------------------------------
 -----
 Dimer
 -----
 Symbolic Z-matrix:
 Charge =  0 Multiplicity = 1
 C                    -3.80261  -2.08971   0.13276 
 C                    -4.08034  -0.79198  -0.61801 
 C                    -3.4101    0.44636   0.00621 
 C                    -3.70969   1.67354  -0.86629 
 C                    -3.89132   0.6961    1.43441 
 C                    -1.90134   0.24104  -0.00146 
 O                    -1.40994   0.00242  -1.19019 
 O                    -1.21562   0.30614   1.00346 
 H                    -2.73244  -2.26144   0.226 
 H                    -4.23539  -2.92839  -0.40807 
 H                    -4.23624  -2.07022   1.12898 
 H                    -5.15786  -0.61783  -0.65434 
 H                    -3.72048  -0.89162  -1.64371 
 H                    -3.21932   2.55728  -0.46312 
 H                    -4.7817    1.85445  -0.89023 
 H                    -3.35762   1.51323  -1.88216 
 H                    -4.97666   0.7515    1.45775 
 H                    -3.48395   1.63235   1.80796 
 H                    -3.55978  -0.09652   2.09853 
 H                    -0.41045  -0.12328  -1.17365 
 C                     3.80411   2.08708  -0.16457 
 C                     4.07928   0.80047   0.60601 
 C                     3.40978  -0.44672  -0.00148 
 C                     3.88953  -0.71398  -1.42698 
 C                     3.71204  -1.66205   0.8864 
 C                     1.90103  -0.24118   0.00548 
 O                     1.40987   0.00091   1.19361 
 O                     1.21517  -0.30832  -0.99921 
 H                     2.73428   2.25647  -0.26568 
 H                     4.24272   2.05364  -1.15823 
 H                     4.23352   2.93381   0.36631 
 H                     3.71703   0.91519   1.62932 
 H                     5.15662   0.62631   0.64752 
 H                     4.97502  -0.7659   -1.45142 
 H                     3.55401   0.06845  -2.10109 
 H                     3.48491  -1.65666  -1.78718 
 H                     4.7842   -1.84204   0.91034 
 H                     3.22131  -2.55133   0.49605 
 H                     3.36209  -1.48862   1.90082 
 H                     0.41019   0.12527   1.17714 
 
 Add virtual bond connecting atoms O28        and H20        Dist= 3.11D+00.
 Add virtual bond connecting atoms H40        and O8         Dist= 3.11D+00.

 GradGradGradGradGradGradGradGradGradGradGradGradGradGradGradGradGradGrad
 Initialization pass.
                           ----------------------------
                           !    Initial Parameters    !
                           ! (Angstroms and Degrees)  !
 --------------------------                            --------------------------
 ! Name  Definition              Value          Derivative Info.                !
 --------------------------------------------------------------------------------
 ! R1    R(1,2)                  1.5248         estimate D2E/DX2                !
 ! R2    R(1,9)                  1.0879         estimate D2E/DX2                !
 ! R3    R(1,10)                 1.0877         estimate D2E/DX2                !
 ! R4    R(1,11)                 1.0867         estimate D2E/DX2                !
 ! R5    R(2,3)                  1.5402         estimate D2E/DX2                !
 ! R6    R(2,12)                 1.0921         estimate D2E/DX2                !
 ! R7    R(2,13)                 1.0916         estimate D2E/DX2                !
 ! R8    R(3,4)                  1.5352         estimate D2E/DX2                !
 ! R9    R(3,5)                  1.5276         estimate D2E/DX2                !
 ! R10   R(3,6)                  1.5227         estimate D2E/DX2                !
 ! R11   R(4,14)                 1.0881         estimate D2E/DX2                !
 ! R12   R(4,15)                 1.0874         estimate D2E/DX2                !
 ! R13   R(4,16)                 1.087          estimate D2E/DX2                !
 ! R14   R(5,17)                 1.087          estimate D2E/DX2                !
 ! R15   R(5,18)                 1.0872         estimate D2E/DX2                !
 ! R16   R(5,19)                 1.0859         estimate D2E/DX2                !
 ! R17   R(6,7)                  1.3082         estimate D2E/DX2                !
 ! R18   R(6,8)                  1.2183         estimate D2E/DX2                !
 ! R19   R(7,20)                 1.0075         estimate D2E/DX2                !
 ! R20   R(8,40)                 1.645          estimate D2E/DX2                !
 ! R21   R(20,28)                1.6454         estimate D2E/DX2                !
 ! R22   R(21,22)                1.5248         estimate D2E/DX2                !
 ! R23   R(21,29)                1.0879         estimate D2E/DX2                !
 ! R24   R(21,30)                1.0867         estimate D2E/DX2                !
 ! R25   R(21,31)                1.0877         estimate D2E/DX2                !
 ! R26   R(22,23)                1.5404         estimate D2E/DX2                !
 ! R27   R(22,32)                1.0916         estimate D2E/DX2                !
 ! R28   R(22,33)                1.0921         estimate D2E/DX2                !
 ! R29   R(23,24)                1.5276         estimate D2E/DX2                !
 ! R30   R(23,25)                1.5352         estimate D2E/DX2                !
 ! R31   R(23,26)                1.5227         estimate D2E/DX2                !
 ! R32   R(24,34)                1.087          estimate D2E/DX2                !
 ! R33   R(24,35)                1.0859         estimate D2E/DX2                !
 ! R34   R(24,36)                1.0872         estimate D2E/DX2                !
 ! R35   R(25,37)                1.0874         estimate D2E/DX2                !
 ! R36   R(25,38)                1.0881         estimate D2E/DX2                !
 ! R37   R(25,39)                1.087          estimate D2E/DX2                !
 ! R38   R(26,27)                1.3082         estimate D2E/DX2                !
 ! R39   R(26,28)                1.2183         estimate D2E/DX2                !
 ! R40   R(27,40)                1.0075         estimate D2E/DX2                !
 ! A1    A(2,1,9)              110.8389         estimate D2E/DX2                !
 ! A2    A(2,1,10)             109.8125         estimate D2E/DX2                !
 ! A3    A(2,1,11)             111.3121         estimate D2E/DX2                !
 ! A4    A(9,1,10)             108.1977         estimate D2E/DX2                !
 ! A5    A(9,1,11)             108.4697         estimate D2E/DX2                !
 ! A6    A(10,1,11)            108.1124         estimate D2E/DX2                !
 ! A7    A(1,2,3)              113.9206         estimate D2E/DX2                !
 ! A8    A(1,2,12)             109.3793         estimate D2E/DX2                !
 ! A9    A(1,2,13)             108.9623         estimate D2E/DX2                !
 ! A10   A(3,2,12)             108.3373         estimate D2E/DX2                !
 ! A11   A(3,2,13)             108.1043         estimate D2E/DX2                !
 ! A12   A(12,2,13)            107.9725         estimate D2E/DX2                !
 ! A13   A(2,3,4)              109.1124         estimate D2E/DX2                !
 ! A14   A(2,3,5)              111.9159         estimate D2E/DX2                !
 ! A15   A(2,3,6)              108.7065         estimate D2E/DX2                !
 ! A16   A(4,3,5)              109.8262         estimate D2E/DX2                !
 ! A17   A(4,3,6)              107.3545         estimate D2E/DX2                !
 ! A18   A(5,3,6)              109.8087         estimate D2E/DX2                !
 ! A19   A(3,4,14)             110.5295         estimate D2E/DX2                !
 ! A20   A(3,4,15)             109.7477         estimate D2E/DX2                !
 ! A21   A(3,4,16)             110.4889         estimate D2E/DX2                !
 ! A22   A(14,4,15)            108.4999         estimate D2E/DX2                !
 ! A23   A(14,4,16)            108.6671         estimate D2E/DX2                !
 ! A24   A(15,4,16)            108.8592         estimate D2E/DX2                !
 ! A25   A(3,5,17)             110.0557         estimate D2E/DX2                !
 ! A26   A(3,5,18)             110.1184         estimate D2E/DX2                !
 ! A27   A(3,5,19)             110.8709         estimate D2E/DX2                !
 ! A28   A(17,5,18)            108.8352         estimate D2E/DX2                !
 ! A29   A(17,5,19)            109.2029         estimate D2E/DX2                !
 ! A30   A(18,5,19)            107.6997         estimate D2E/DX2                !
 ! A31   A(3,6,7)              113.6629         estimate D2E/DX2                !
 ! A32   A(3,6,8)              123.1159         estimate D2E/DX2                !
 ! A33   A(7,6,8)              123.2175         estimate D2E/DX2                !
 ! A34   A(6,7,20)             112.3629         estimate D2E/DX2                !
 ! A35   A(6,8,40)             129.6035         estimate D2E/DX2                !
 ! A36   A(22,21,29)           110.8451         estimate D2E/DX2                !
 ! A37   A(22,21,30)           111.3043         estimate D2E/DX2                !
 ! A38   A(22,21,31)           109.8133         estimate D2E/DX2                !
 ! A39   A(29,21,30)           108.4655         estimate D2E/DX2                !
 ! A40   A(29,21,31)           108.2024         estimate D2E/DX2                !
 ! A41   A(30,21,31)           108.1129         estimate D2E/DX2                !
 ! A42   A(21,22,23)           113.92           estimate D2E/DX2                !
 ! A43   A(21,22,32)           108.9774         estimate D2E/DX2                !
 ! A44   A(21,22,33)           109.378          estimate D2E/DX2                !
 ! A45   A(23,22,32)           108.0936         estimate D2E/DX2                !
 ! A46   A(23,22,33)           108.3385         estimate D2E/DX2                !
 ! A47   A(32,22,33)           107.9684         estimate D2E/DX2                !
 ! A48   A(22,23,24)           111.9112         estimate D2E/DX2                !
 ! A49   A(22,23,25)           109.1061         estimate D2E/DX2                !
 ! A50   A(22,23,26)           108.6364         estimate D2E/DX2                !
 ! A51   A(24,23,25)           109.8378         estimate D2E/DX2                !
 ! A52   A(24,23,26)           109.8191         estimate D2E/DX2                !
 ! A53   A(25,23,26)           107.4157         estimate D2E/DX2                !
 ! A54   A(23,24,34)           110.0566         estimate D2E/DX2                !
 ! A55   A(23,24,35)           110.8663         estimate D2E/DX2                !
 ! A56   A(23,24,36)           110.1183         estimate D2E/DX2                !
 ! A57   A(34,24,35)           109.2085         estimate D2E/DX2                !
 ! A58   A(34,24,36)           108.8305         estimate D2E/DX2                !
 ! A59   A(35,24,36)           107.7027         estimate D2E/DX2                !
 ! A60   A(23,25,37)           109.7489         estimate D2E/DX2                !
 ! A61   A(23,25,38)           110.5318         estimate D2E/DX2                !
 ! A62   A(23,25,39)           110.4898         estimate D2E/DX2                !
 ! A63   A(37,25,38)           108.4985         estimate D2E/DX2                !
 ! A64   A(37,25,39)           108.8614         estimate D2E/DX2                !
 ! A65   A(38,25,39)           108.6619         estimate D2E/DX2                !
 ! A66   A(23,26,27)           113.6485         estimate D2E/DX2                !
 ! A67   A(23,26,28)           123.1331         estimate D2E/DX2                !
 ! A68   A(27,26,28)           123.2151         estimate D2E/DX2                !
 ! A69   A(26,27,40)           112.3648         estimate D2E/DX2                !
 ! A70   A(20,28,26)           129.5996         estimate D2E/DX2                !
 ! A71   L(7,20,28,8,-1)       174.812          estimate D2E/DX2                !
 ! A72   L(8,40,27,28,-1)      174.8232         estimate D2E/DX2                !
 ! A73   L(7,20,28,8,-2)       179.9043         estimate D2E/DX2                !
 ! A74   L(8,40,27,28,-2)      179.9647         estimate D2E/DX2                !
 ! D1    D(9,1,2,3)            -55.8047         estimate D2E/DX2                !
 ! D2    D(9,1,2,12)          -177.1953         estimate D2E/DX2                !
 ! D3    D(9,1,2,13)            64.9832         estimate D2E/DX2                !
 ! D4    D(10,1,2,3)          -175.2974         estimate D2E/DX2                !
 ! D5    D(10,1,2,12)           63.312          estimate D2E/DX2                !
 ! D6    D(10,1,2,13)          -54.5096         estimate D2E/DX2                !
 ! D7    D(11,1,2,3)            65.0164         estimate D2E/DX2                !
 ! D8    D(11,1,2,12)          -56.3742         estimate D2E/DX2                !
 ! D9    D(11,1,2,13)         -174.1958         estimate D2E/DX2                !
 ! D10   D(1,2,3,4)            177.5528         estimate D2E/DX2                !
 ! D11   D(1,2,3,5)            -60.6895         estimate D2E/DX2                !
 ! D12   D(1,2,3,6)             60.769          estimate D2E/DX2                !
 ! D13   D(12,2,3,4)           -60.4799         estimate D2E/DX2                !
 ! D14   D(12,2,3,5)            61.2779         estimate D2E/DX2                !
 ! D15   D(12,2,3,6)          -177.2637         estimate D2E/DX2                !
 ! D16   D(13,2,3,4)            56.2867         estimate D2E/DX2                !
 ! D17   D(13,2,3,5)           178.0445         estimate D2E/DX2                !
 ! D18   D(13,2,3,6)           -60.4971         estimate D2E/DX2                !
 ! D19   D(2,3,4,14)          -178.169          estimate D2E/DX2                !
 ! D20   D(2,3,4,15)            62.1992         estimate D2E/DX2                !
 ! D21   D(2,3,4,16)           -57.8521         estimate D2E/DX2                !
 ! D22   D(5,3,4,14)            58.8169         estimate D2E/DX2                !
 ! D23   D(5,3,4,15)           -60.8149         estimate D2E/DX2                !
 ! D24   D(5,3,4,16)           179.1338         estimate D2E/DX2                !
 ! D25   D(6,3,4,14)           -60.5293         estimate D2E/DX2                !
 ! D26   D(6,3,4,15)           179.839          estimate D2E/DX2                !
 ! D27   D(6,3,4,16)            59.7876         estimate D2E/DX2                !
 ! D28   D(2,3,5,17)           -53.9539         estimate D2E/DX2                !
 ! D29   D(2,3,5,18)          -173.9375         estimate D2E/DX2                !
 ! D30   D(2,3,5,19)            66.9721         estimate D2E/DX2                !
 ! D31   D(4,3,5,17)            67.3929         estimate D2E/DX2                !
 ! D32   D(4,3,5,18)           -52.5907         estimate D2E/DX2                !
 ! D33   D(4,3,5,19)          -171.6811         estimate D2E/DX2                !
 ! D34   D(6,3,5,17)          -174.775          estimate D2E/DX2                !
 ! D35   D(6,3,5,18)            65.2414         estimate D2E/DX2                !
 ! D36   D(6,3,5,19)           -53.849          estimate D2E/DX2                !
 ! D37   D(2,3,6,7)             56.3941         estimate D2E/DX2                !
 ! D38   D(2,3,6,8)           -124.2899         estimate D2E/DX2                !
 ! D39   D(4,3,6,7)            -61.5096         estimate D2E/DX2                !
 ! D40   D(4,3,6,8)            117.8064         estimate D2E/DX2                !
 ! D41   D(5,3,6,7)            179.133          estimate D2E/DX2                !
 ! D42   D(5,3,6,8)             -1.551          estimate D2E/DX2                !
 ! D43   D(3,6,7,20)           179.5664         estimate D2E/DX2                !
 ! D44   D(8,6,7,20)             0.2511         estimate D2E/DX2                !
 ! D45   D(3,6,8,40)          -179.4778         estimate D2E/DX2                !
 ! D46   D(7,6,8,40)            -0.2267         estimate D2E/DX2                !
 ! D47   D(6,7,28,26)           -0.4441         estimate D2E/DX2                !
 ! D48   D(6,8,27,26)            0.0238         estimate D2E/DX2                !
 ! D49   D(29,21,22,23)         55.6286         estimate D2E/DX2                !
 ! D50   D(29,21,22,32)        -65.156          estimate D2E/DX2                !
 ! D51   D(29,21,22,33)        177.0193         estimate D2E/DX2                !
 ! D52   D(30,21,22,23)        -65.1861         estimate D2E/DX2                !
 ! D53   D(30,21,22,32)        174.0293         estimate D2E/DX2                !
 ! D54   D(30,21,22,33)         56.2046         estimate D2E/DX2                !
 ! D55   D(31,21,22,23)        175.1315         estimate D2E/DX2                !
 ! D56   D(31,21,22,32)         54.347          estimate D2E/DX2                !
 ! D57   D(31,21,22,33)        -63.4777         estimate D2E/DX2                !
 ! D58   D(21,22,23,24)         60.4238         estimate D2E/DX2                !
 ! D59   D(21,22,23,25)       -177.8113         estimate D2E/DX2                !
 ! D60   D(21,22,23,26)        -60.997          estimate D2E/DX2                !
 ! D61   D(32,22,23,24)       -178.2991         estimate D2E/DX2                !
 ! D62   D(32,22,23,25)        -56.5342         estimate D2E/DX2                !
 ! D63   D(32,22,23,26)         60.2801         estimate D2E/DX2                !
 ! D64   D(33,22,23,24)        -61.5424         estimate D2E/DX2                !
 ! D65   D(33,22,23,25)         60.2226         estimate D2E/DX2                !
 ! D66   D(33,22,23,26)        177.0368         estimate D2E/DX2                !
 ! D67   D(22,23,24,34)         53.82           estimate D2E/DX2                !
 ! D68   D(22,23,24,35)        -67.1105         estimate D2E/DX2                !
 ! D69   D(22,23,24,36)        173.7983         estimate D2E/DX2                !
 ! D70   D(25,23,24,34)        -67.5236         estimate D2E/DX2                !
 ! D71   D(25,23,24,35)        171.5459         estimate D2E/DX2                !
 ! D72   D(25,23,24,36)         52.4547         estimate D2E/DX2                !
 ! D73   D(26,23,24,34)        174.5564         estimate D2E/DX2                !
 ! D74   D(26,23,24,35)         53.6259         estimate D2E/DX2                !
 ! D75   D(26,23,24,36)        -65.4653         estimate D2E/DX2                !
 ! D76   D(22,23,25,37)        -62.2709         estimate D2E/DX2                !
 ! D77   D(22,23,25,38)        178.0969         estimate D2E/DX2                !
 ! D78   D(22,23,25,39)         57.7845         estimate D2E/DX2                !
 ! D79   D(24,23,25,37)         60.7406         estimate D2E/DX2                !
 ! D80   D(24,23,25,38)        -58.8916         estimate D2E/DX2                !
 ! D81   D(24,23,25,39)       -179.204          estimate D2E/DX2                !
 ! D82   D(26,23,25,37)       -179.8581         estimate D2E/DX2                !
 ! D83   D(26,23,25,38)         60.5097         estimate D2E/DX2                !
 ! D84   D(26,23,25,39)        -59.8027         estimate D2E/DX2                !
 ! D85   D(22,23,26,27)        -56.9795         estimate D2E/DX2                !
 ! D86   D(22,23,26,28)        123.6642         estimate D2E/DX2                !
 ! D87   D(24,23,26,27)       -179.6737         estimate D2E/DX2                !
 ! D88   D(24,23,26,28)          0.97           estimate D2E/DX2                !
 ! D89   D(25,23,26,27)         60.913          estimate D2E/DX2                !
 ! D90   D(25,23,26,28)       -118.4433         estimate D2E/DX2                !
 ! D91   D(23,26,27,40)       -179.4744         estimate D2E/DX2                !
 ! D92   D(28,26,27,40)         -0.1187         estimate D2E/DX2                !
 ! D93   D(23,26,28,20)        179.6714         estimate D2E/DX2                !
 ! D94   D(27,26,28,20)          0.3762         estimate D2E/DX2                !
 --------------------------------------------------------------------------------
 Number of steps in this run=    218 maximum allowed number of steps=    240.
 GradGradGradGradGradGradGradGradGradGradGradGradGradGradGradGradGradGrad

                    Distance matrix (angstroms):
                    1          2          3          4          5
     1  C    0.000000
     2  C    1.524757   0.000000
     3  C    2.569386   1.540249   0.000000
     4  C    3.894710   2.505556   1.535241   0.000000
     5  C    3.076183   2.542150   1.527646   2.506307   0.000000
     6  C    3.010855   2.489037   1.522682   2.463759   2.495759
     7  O    3.442692   2.844211   2.372575   2.861192   3.677908
     8  O    3.631904   3.470104   2.414515   3.403835   2.738093
     9  H    1.087866   2.165294   2.799950   4.199068   3.398572
    10  H    1.087738   2.152290   3.498811   4.654467   4.080446
    11  H    1.086673   2.170287   2.876855   4.274815   2.804421
    12  H    2.150042   1.092108   2.150231   2.718906   2.773698
    13  H    2.144303   1.091557   2.146804   2.680396   3.467689
    14  H    4.721214   3.461637   2.170866   1.088125   2.741571
    15  H    4.190650   2.751296   2.160465   1.087426   2.745634
    16  H    4.152001   2.726613   2.169537   1.087033   3.457187
    17  H    3.347606   2.737607   2.157360   2.802945   1.087005
    18  H    4.094096   3.481150   2.158319   2.684071   1.087229
    19  H    2.809992   2.852062   2.166783   3.456261   1.085924
    20  H    4.132837   3.771471   3.273291   3.769349   4.426039
    21  C    8.683098   8.405900   7.400400   7.557821   7.981933
    22  C    8.408407   8.403185   7.521697   7.974835   8.014215
    23  C    7.398384   7.523380   6.878111   7.478655   7.528208
    24  C    7.968343   8.011202   7.528943   7.985160   8.409372
    25  C    7.564446   7.983822   7.479636   8.323468   7.979491
    26  C    5.997064   6.038947   5.355442   5.992185   6.039174
    27  O    5.715425   5.835500   4.984018   5.766348   5.352000
    28  O    5.443604   5.331195   4.793065   5.310334   5.745223
    29  H    7.859966   7.473707   6.411228   6.498103   7.015962
    30  H    9.141195   8.812650   7.906006   7.966843   8.644501
    31  H    9.479961   9.163548   8.046236   8.136470   8.494776
    32  H    8.234934   8.292399   7.324631   7.871424   7.614001
    33  H    9.376008   9.430509   8.592570   9.055371   9.082360
    34  H    9.017151   9.093673   8.596774   9.039774   9.438091
    35  H    7.985462   7.824522   7.285759   7.540713   8.265993
    36  H    7.548620   7.703741   7.428328   7.981262   8.385874
    37  H    8.625502   9.056407   8.555742   9.362791   9.054361
    38  H    7.048443   7.592794   7.293947   8.230690   7.875016
    39  H    7.404071   7.887934   7.293570   8.225943   7.589629
    40  H    4.872837   4.922269   4.008585   4.852435   4.346841
                    6          7          8          9         10
     6  C    0.000000
     7  O    1.308249   0.000000
     8  O    1.218319   2.223087   0.000000
     9  H    2.646673   2.979885   3.081823   0.000000
    10  H    3.957069   4.145425   4.644735   1.762305   0.000000
    11  H    3.474413   4.202663   3.845380   1.764463   1.760389
    12  H    3.430572   3.836505   4.375299   3.059273   2.500066
    13  H    2.699851   2.518653   3.836204   2.519622   2.437293
    14  H    2.704659   3.214005   3.351611   4.892040   5.579252
    15  H    3.418985   3.858595   4.324373   4.731386   4.838030
    16  H    2.697453   2.560242   3.791041   4.368450   4.761453
    17  H    3.442013   4.504915   3.814465   3.953674   4.191940
    18  H    2.777482   3.993389   2.747980   4.269544   5.125998
    19  H    2.697094   3.930311   2.618469   2.979554   3.841746
    20  H    1.931197   1.007494   2.360616   3.452887   4.804677
    21  C    5.998887   5.708238   5.452868   7.860576   9.478803
    22  C    6.037368   5.830499   5.332760   7.477915   9.168773
    23  C    5.355469   4.984422   4.792814   6.408734   8.048144
    24  C    6.039733   5.352910   5.745456   6.998392   8.482692
    25  C    5.993336   5.772116   5.307478   6.505898   8.151125
    26  C    3.832831   3.528664   3.317984   5.059557   6.711759
    27  O    3.528452   3.692404   2.650007   4.818012   6.558591
    28  O    3.318121   2.650321   3.208890   4.571591   6.076410
    29  H    5.061699   4.807288   4.584352   7.109034   8.687886
    30  H    6.509468   6.013408   6.125375   8.317990   9.862136
    31  H    6.709899   6.547082   6.083070   8.691079  10.328957
    32  H    5.888973   5.921873   5.009362   7.325022   9.064491
    33  H    7.098196   6.847340   6.390199   8.411539  10.097518
    34  H    7.099347   6.436325   6.745356   8.028413   9.518225
    35  H    5.847998   5.047259   5.695973   7.096704   8.515987
    36  H    5.983457   5.202735   5.808204   6.563086   7.944948
    37  H    7.061660   6.795704   6.373477   7.559369   9.179938
    38  H    5.855460   5.550992   5.301791   5.966917   7.520765
    39  H    5.857819   5.877905   4.998184   6.367537   8.070038
    40  H    2.597240   2.988680   1.645036   4.059205   5.780923
                   11         12         13         14         15
    11  H    0.000000
    12  H    2.477714   0.000000
    13  H    3.056619   1.766314   0.000000
    14  H    4.998268   3.725026   3.679657   0.000000
    15  H    4.447222   2.511832   3.038881   1.765620   0.000000
    16  H    4.762354   3.047915   2.443732   1.767154   1.768708
    17  H    2.935715   2.523650   3.727851   3.168413   2.601447
    18  H    3.838752   3.732052   4.282572   2.466438   3.002282
    19  H    2.300682   3.225519   3.829155   3.704140   3.772547
    20  H    4.871277   4.801265   3.430397   3.947150   4.806195
    21  C    9.143500   9.374076   8.226786   7.045482   8.619558
    22  C    8.812615   9.429994   8.292208   7.582810   9.048012
    23  C    7.897804   8.594185   7.330455   7.292607   8.554856
    24  C    8.625568   9.080831   7.615172   7.884537   9.059530
    25  C    7.962447   9.063079   7.889070   8.226037   9.362997
    26  C    6.501819   7.099657   5.894431   5.853967   7.060648
    27  O    6.014342   6.850756   5.930224   5.541587   6.790692
    28  O    6.111570   6.389851   5.011613   5.306951   6.375876
    29  H    8.321869   8.408244   7.312554   5.964466   7.552590
    30  H    9.702079   9.785785   8.504286   7.511251   9.030592
    31  H    9.867052  10.092264   9.052082   7.508296   9.166131
    32  H    8.509847   9.291335   8.324296   7.428842   8.913959
    33  H    9.784109  10.470490   9.292835   8.667094  10.131292
    34  H    9.654380  10.165264   8.698542   8.897615  10.118041
    35  H    8.700298   8.857803   7.351811   7.399674   8.610452
    36  H    8.263843   8.778380   7.247315   8.028520   9.026028
    37  H    9.025970  10.138612   8.930628   9.235623  10.412129
    38  H    7.499806   8.675963   7.451290   8.276452   9.240173
    39  H    7.659540   8.937373   7.942476   8.079135   9.235111
    40  H    5.139237   5.908440   5.104283   4.666741   5.849765
                   16         17         18         19         20
    16  H    0.000000
    17  H    3.788995   0.000000
    18  H    3.694197   1.768259   0.000000
    19  H    4.298612   1.771247   1.754763   0.000000
    20  H    3.444699   5.342264   4.628030   4.541605   0.000000
    21  C    7.387138   9.028715   7.563963   8.007283   4.864816
    22  C    7.874421   9.096042   7.703196   7.835011   4.917131
    23  C    7.292195   8.596367   7.424297   7.287484   4.009089
    24  C    7.595319   9.438150   8.386798   8.264544   4.347752
    25  C    8.229666   9.035774   7.967728   7.536542   4.858657
    26  C    5.856153   7.099092   5.979721   5.849971   2.597537
    27  O    5.871664   6.435912   5.195049   5.052303   2.988801
    28  O    5.000803   6.745266   5.807593   5.695697   1.645389
    29  H    6.346392   8.043249   6.584526   7.123292   4.046845
    30  H    7.653844   9.671401   8.287176   8.724031   5.137240
    31  H    8.043569   9.527915   7.958109   8.539258   5.769200
    32  H    7.920782   8.696926   7.238811   7.361768   5.096190
    33  H    8.926263  10.166391   8.776001   8.865857   5.905151
    34  H    8.649448  10.478638   9.377073   9.267852   5.430789
    35  H    7.064412   9.268453   8.201180   8.262566   4.076007
    36  H    7.541716   9.376939   8.503391   8.195144   4.231018
    37  H    9.238242  10.114372   9.013295   8.607006   5.855046
    38  H    8.090666   8.890463   8.011549   7.387638   4.676863
    39  H    8.275052   8.645761   7.524451   7.063230   5.054560
    40  H    5.047981   5.430385   4.222983   4.081517   2.502286
                   21         22         23         24         25
    21  C    0.000000
    22  C    1.524754   0.000000
    23  C    2.569473   1.540365   0.000000
    24  C    3.073576   2.542162   1.527630   0.000000
    25  C    3.894732   2.505485   1.535158   2.506403   0.000000
    26  C    3.011878   2.488058   1.522707   2.495925   2.464679
    27  O    3.453857   2.847861   2.372395   3.677947   2.856537
    28  O    3.624522   3.465440   2.414739   2.738571   3.409175
    29  H    1.087866   2.165368   2.798808   3.392164   4.199773
    30  H    1.086674   2.170188   2.878137   2.802981   4.274167
    31  H    1.087738   2.152299   3.498818   4.079281   4.654493
    32  H    2.144512   1.091583   2.146785   3.467697   2.682187
    33  H    2.150026   1.092112   2.150351   2.775868   2.716696
    34  H    3.341628   2.736580   2.157360   1.087010   2.804213
    35  H    2.808471   2.853096   2.166702   1.085912   3.456113
    36  H    4.092711   3.481101   2.158317   1.087247   2.683208
    37  H    4.189743   2.751793   2.160407   2.745182   1.087426
    38  H    4.721324   3.461612   2.170821   2.742340   1.088125
    39  H    4.152925   2.725948   2.169460   3.457241   1.087013
    40  H    4.143379   3.774165   3.273203   4.426239   3.765800
                   26         27         28         29         30
    26  C    0.000000
    27  O    1.308239   0.000000
    28  O    1.218329   2.223062   0.000000
    29  H    2.646904   2.995190   3.069840   0.000000
    30  H    3.479077   4.215440   3.843207   1.764418   0.000000
    31  H    3.956163   4.154430   4.635347   1.762356   1.760395
    32  H    2.696644   2.519669   3.829550   2.521082   3.056611
    33  H    3.429812   3.837635   4.372675   3.059262   2.476540
    34  H    3.442000   4.504945   3.814499   3.944822   2.927806
    35  H    2.695531   3.931536   2.612714   2.971212   2.303106
    36  H    2.779551   3.992296   2.755114   4.265087   3.838775
    37  H    3.419678   3.855231   4.328589   4.731066   4.443934
    38  H    2.705663   3.206535   3.360286   4.892076   4.998573
    39  H    2.698720   2.555384   3.796386   4.371905   4.762449
    40  H    1.931231   1.007522   2.360609   3.467735   4.884763
                   31         32         33         34         35
    31  H    0.000000
    32  H    2.436547   0.000000
    33  H    2.501149   1.766293   0.000000
    34  H    4.188291   3.728214   2.525230   0.000000
    35  H    3.841880   3.828776   3.230242   1.771302   0.000000
    36  H    5.125453   4.282608   3.732867   1.768226   1.754803
    37  H    4.838174   3.042715   2.510081   2.602387   3.772546
    38  H    5.579260   3.680603   3.723675   3.171108   3.703932
    39  H    4.761506   2.444993   3.043680   3.789645   4.298443
    40  H    4.812815   3.429817   4.802095   5.342400   4.542425
                   36         37         38         39         40
    36  H    0.000000
    37  H    2.999851   0.000000
    38  H    2.466380   1.765604   0.000000
    39  H    3.693864   1.768716   1.767080   0.000000
    40  H    4.627778   4.803483   3.940873   3.441227   0.000000
 Framework group  C1[X(C12H24O4)]
 Deg. of freedom   114
                         Standard orientation:                         
 ---------------------------------------------------------------------
 Center     Atomic      Atomic             Coordinates (Angstroms)
 Number     Number       Type             X           Y           Z
 ---------------------------------------------------------------------
      1          6           0       -3.807677   -2.083698    0.065093
      2          6           0       -4.080749   -0.764504   -0.649079
      3          6           0       -3.409091    0.454019    0.011559
      4          6           0       -3.703916    1.706201   -0.826346
      5          6           0       -3.892964    0.664185    1.445226
      6          6           0       -1.900794    0.245462    0.001361
      7          8           0       -1.407256    0.039580   -1.192603
      8          8           0       -1.217197    0.280359    1.009218
      9          1           0       -2.738113   -2.260519    0.155759
     10          1           0       -4.241143   -2.905648   -0.500310
     11          1           0       -4.243502   -2.091517    1.060509
     12          1           0       -5.157784   -0.586857   -0.682808
     13          1           0       -3.718810   -0.835783   -1.676414
     14          1           0       -3.212439    2.576977   -0.397143
     15          1           0       -4.775447    1.890239   -0.847485
     16          1           0       -3.349923    1.574015   -1.845589
     17          1           0       -4.978225    0.721444    1.467754
     18          1           0       -3.484302    1.588487    1.846135
     19          1           0       -3.564725   -0.147768    2.087271
     20          1           0       -0.408100   -0.088880   -1.177453
     21          6           0        3.809210    2.082001   -0.096713
     22          6           0        4.079704    0.773364    0.637574
     23          6           0        3.408733   -0.454470   -0.006588
     24          6           0        3.891082   -0.682226   -1.438063
     25          6           0        3.706213   -1.695257    0.847030
     26          6           0        1.900439   -0.245675    0.002911
     27          8           0        1.407158   -0.036307    1.196364
     28          8           0        1.216693   -0.282618   -1.004786
     29          1           0        2.740002    2.256712   -0.195310
     30          1           0        4.249982    2.075802   -1.089961
     31          1           0        4.239350    2.912289    0.458963
     32          1           0        3.715409    0.859804    1.662938
     33          1           0        5.156544    0.595570    0.676479
     34          1           0        4.976507   -0.735977   -1.461594
     35          1           0        3.558865    0.119838   -2.090390
     36          1           0        3.485124   -1.613335   -1.825799
     37          1           0        4.777901   -1.878371    0.868193
     38          1           0        3.214336   -2.571932    0.430480
     39          1           0        3.354371   -1.549912    1.865205
     40          1           0        0.407802    0.090810    1.181243
 ---------------------------------------------------------------------
 Rotational constants (GHZ):           1.0677897           0.2044716           0.1979113
   272 basis functions,   496 primitive gaussians,   288 cartesian basis functions
    64 alpha electrons       64 beta electrons
       nuclear repulsion energy      1212.5231880607 Hartrees.
 NAtoms=   40 NActive=   40 NUniq=   40 SFac= 1.00D+00 NAtFMM=   60 NAOKFM=F Big=F
 Nuclear repulsion after empirical dispersion term =     1212.4929939929 Hartrees.
   1 Symmetry operations used in ECPInt.
 ECPInt:  NShTT=   10440 NPrTT=   41896 LenC2=    9577 LenP2D=   26578.
 LDataN:  DoStor=T MaxTD1= 4 Len=   56
 ExpMin= 1.22D-01 ExpMax= 2.27D+03 ExpMxC= 3.41D+02 IAcc=3 IRadAn=         5 AccDes= 0.00D+00
 Harris functional with IExCor= 4639 and IRadAn=       5 diagonalized for initial guess.
 HarFok:  IExCor= 4639 AccDes= 0.00D+00 IRadAn=         5 IDoV= 1 UseB2=F ITyADJ=14
 ICtDFT=  3500011 ScaDFX=  1.000000  1.000000  1.000000  1.000000
 FoFCou: FMM=F IPFlag=           0 FMFlag=      100000 FMFlg1=           0
         NFxFlg=           0 DoJE=T BraDBF=F KetDBF=T FulRan=T
         wScrn=  0.000000 ICntrl=       500 IOpCl=  0 I1Cent=   200000004 NGrid=           0
         NMat0=    1 NMatS0=      1 NMatT0=    0 NMatD0=    1 NMtDS0=    0 NMtDT0=    0
 Petite list used in FoFCou.
     Accept linear search using points  2 and  3.
     Minimum is close to point  2 DX=  4.99D-02 DF= -7.36D-06 DXR=  6.66D-02 DFR=  4.45D-03 which will be used.
     Accept linear search using points  1 and  2.
     Minimum is close to point  2 DX=  6.64D-02 DF= -5.38D-07 DXR=  8.67D-02 DFR=  7.57D-03 which will be used.
     Accept linear search using points  1 and  2.
     Minimum is close to point  2 DX= -3.31D-05 DF=  0.00D+00 DXR=  3.31D-05 DFR=  0.00D+00 which will be used.
 SCF Done:  E(RwB97XD) =  -771.864207516     a.u. after    8 cycles
            Convg  =    0.1977D-09                    36 Fock formations.
              S**2 =  0.0000                  -V/T =  2.0091

 **********************************************************************

            Population analysis using the SCF Density.

 **********************************************************************

 Orbital symmetries:
       Occupied  (A) (A) (A) (A) (A) (A) (A) (A) (A) (A) (A) (A)
                 (A) (A) (A) (A) (A) (A) (A) (A) (A) (A) (A) (A)
                 (A) (A) (A) (A) (A) (A) (A) (A) (A) (A) (A) (A)
                 (A) (A) (A) (A) (A) (A) (A) (A) (A) (A) (A) (A)
                 (A) (A) (A) (A) (A) (A) (A) (A) (A) (A) (A) (A)
                 (A) (A) (A) (A)
       Virtual   (A) (A) (A) (A) (A) (A) (A) (A) (A) (A) (A) (A)
                 (A) (A) (A) (A) (A) (A) (A) (A) (A) (A) (A) (A)
                 (A) (A) (A) (A) (A) (A) (A) (A) (A) (A) (A) (A)
                 (A) (A) (A) (A) (A) (A) (A) (A) (A) (A) (A) (A)
                 (A) (A) (A) (A) (A) (A) (A) (A) (A) (A) (A) (A)
                 (A) (A) (A) (A) (A) (A) (A) (A) (A) (A) (A) (A)
                 (A) (A) (A) (A) (A) (A) (A) (A) (A) (A) (A) (A)
                 (A) (A) (A) (A) (A) (A) (A) (A) (A) (A) (A) (A)
                 (A) (A) (A) (A) (A) (A) (A) (A) (A) (A) (A) (A)
                 (A) (A) (A) (A) (A) (A) (A) (A) (A) (A) (A) (A)
                 (A) (A) (A) (A) (A) (A) (A) (A) (A) (A) (A) (A)
                 (A) (A) (A) (A) (A) (A) (A) (A) (A) (A) (A) (A)
                 (A) (A) (A) (A) (A) (A) (A) (A) (A) (A) (A) (A)
                 (A) (A) (A) (A) (A) (A) (A) (A) (A) (A) (A) (A)
                 (A) (A) (A) (A) (A) (A) (A) (A) (A) (A) (A) (A)
                 (A) (A) (A) (A) (A) (A) (A) (A) (A) (A) (A) (A)
                 (A) (A) (A) (A) (A) (A) (A) (A) (A) (A) (A) (A)
                 (A) (A) (A) (A)
 The electronic state is 1-A.
 Alpha  occ. eigenvalues --  -19.28945 -19.28941 -19.25722 -19.25720 -10.43472
 Alpha  occ. eigenvalues --  -10.43469 -10.31819 -10.31817 -10.29148 -10.29141
 Alpha  occ. eigenvalues --  -10.28376 -10.28363 -10.27877 -10.27875 -10.27701
 Alpha  occ. eigenvalues --  -10.27699  -1.21029  -1.19875  -1.11518  -1.10213
 Alpha  occ. eigenvalues --   -0.93052  -0.92818  -0.83698  -0.83648  -0.78375
 Alpha  occ. eigenvalues --   -0.78327  -0.76473  -0.74633  -0.71693  -0.71205
 Alpha  occ. eigenvalues --   -0.66654  -0.65016  -0.59851  -0.58353  -0.57892
 Alpha  occ. eigenvalues --   -0.57127  -0.57126  -0.56478  -0.53811  -0.53524
 Alpha  occ. eigenvalues --   -0.52281  -0.52184  -0.51872  -0.50526  -0.49484
 Alpha  occ. eigenvalues --   -0.48241  -0.47862  -0.47821  -0.47135  -0.47027
 Alpha  occ. eigenvalues --   -0.45042  -0.44889  -0.44432  -0.44138  -0.43471
 Alpha  occ. eigenvalues --   -0.43279  -0.41391  -0.40904  -0.40862  -0.40636
 Alpha  occ. eigenvalues --   -0.40542  -0.40360  -0.37449  -0.35832
 Alpha virt. eigenvalues --    0.08116   0.08547   0.13399   0.13774   0.16807
 Alpha virt. eigenvalues --    0.17157   0.17577   0.18170   0.18788   0.19052
 Alpha virt. eigenvalues --    0.20507   0.20647   0.21042   0.21304   0.22004
 Alpha virt. eigenvalues --    0.22389   0.22968   0.23379   0.24467   0.24695
 Alpha virt. eigenvalues --    0.25009   0.25728   0.26694   0.26739   0.27007
 Alpha virt. eigenvalues --    0.27301   0.28252   0.29505   0.30362   0.30416
 Alpha virt. eigenvalues --    0.31067   0.31541   0.32796   0.32850   0.34324
 Alpha virt. eigenvalues --    0.35173   0.39254   0.40997   0.44142   0.46856
 Alpha virt. eigenvalues --    0.48557   0.48632   0.49188   0.49276   0.51207
 Alpha virt. eigenvalues --    0.51486   0.53216   0.53360   0.54712   0.57520
 Alpha virt. eigenvalues --    0.58674   0.59889   0.60400   0.62723   0.63799
 Alpha virt. eigenvalues --    0.64008   0.65444   0.66373   0.66837   0.67303
 Alpha virt. eigenvalues --    0.69574   0.69645   0.70377   0.71703   0.73650
 Alpha virt. eigenvalues --    0.73828   0.74772   0.75262   0.75874   0.76485
 Alpha virt. eigenvalues --    0.77388   0.77481   0.78800   0.78809   0.79047
 Alpha virt. eigenvalues --    0.79172   0.79618   0.80632   0.81307   0.81371
 Alpha virt. eigenvalues --    0.81532   0.81776   0.82385   0.82552   0.82967
 Alpha virt. eigenvalues --    0.83046   0.83245   0.83318   0.83947   0.84250
 Alpha virt. eigenvalues --    0.85208   0.85234   0.85918   0.86089   0.86687
 Alpha virt. eigenvalues --    0.87143   0.87993   0.88327   0.92614   0.92922
 Alpha virt. eigenvalues --    0.94165   0.95063   1.02122   1.04643   1.04978
 Alpha virt. eigenvalues --    1.09441   1.09909   1.11177   1.11615   1.12673
 Alpha virt. eigenvalues --    1.16927   1.17849   1.18852   1.21216   1.24361
 Alpha virt. eigenvalues --    1.25136   1.26330   1.28012   1.28441   1.31204
 Alpha virt. eigenvalues --    1.42076   1.42166   1.47460   1.49165   1.50583
 Alpha virt. eigenvalues --    1.52465   1.56070   1.56099   1.62800   1.66255
 Alpha virt. eigenvalues --    1.66842   1.67986   1.68133   1.69893   1.75663
 Alpha virt. eigenvalues --    1.75773   1.79350   1.80094   1.87745   1.87826
 Alpha virt. eigenvalues --    1.89395   1.89743   1.92750   1.93559   1.93780
 Alpha virt. eigenvalues --    1.94109   1.97677   1.97822   2.01628   2.02315
 Alpha virt. eigenvalues --    2.04245   2.04936   2.12032   2.12376   2.12983
 Alpha virt. eigenvalues --    2.13116   2.14257   2.14928   2.15224   2.15414
 Alpha virt. eigenvalues --    2.18714   2.18783   2.25394   2.25554   2.25926
 Alpha virt. eigenvalues --    2.26141   2.28012   2.28104   2.30217   2.32297
 Alpha virt. eigenvalues --    2.33237   2.35098   2.37214   2.37229   2.38160
 Alpha virt. eigenvalues --    2.40096   2.48960   2.49938   2.57378   2.57511
 Alpha virt. eigenvalues --    2.66831   2.67000   2.67450   2.67758   2.69367
 Alpha virt. eigenvalues --    2.70390   2.71047   2.71282   2.75869   2.76412
 Alpha virt. eigenvalues --    2.80589   2.81838   2.82138   2.83279   2.97507
 Alpha virt. eigenvalues --    3.03594   3.04158   3.04705   3.19884   3.21614
 Alpha virt. eigenvalues --    3.26654   3.26749   3.42305   3.43010   3.69059
 Alpha virt. eigenvalues --    3.71050   3.75104   3.75867
          Condensed to atoms (all electrons):
 Mulliken charges:
               1
     1  C   -0.310618
     2  C   -0.178758
     3  C   -0.330193
     4  C   -0.243289
     5  C   -0.228481
     6  C    0.291572
     7  O   -0.370592
     8  O   -0.310306
     9  H    0.126943
    10  H    0.122390
    11  H    0.119851
    12  H    0.103662
    13  H    0.122396
    14  H    0.118538
    15  H    0.119138
    16  H    0.134535
    17  H    0.110571
    18  H    0.118355
    19  H    0.129439
    20  H    0.354899
    21  C   -0.310463
    22  C   -0.179509
    23  C   -0.330007
    24  C   -0.228656
    25  C   -0.243076
    26  C    0.291598
    27  O   -0.370551
    28  O   -0.310315
    29  H    0.126963
    30  H    0.119918
    31  H    0.122403
    32  H    0.122452
    33  H    0.103790
    34  H    0.110600
    35  H    0.129751
    36  H    0.118153
    37  H    0.118981
    38  H    0.118396
    39  H    0.134654
    40  H    0.354863
 Sum of Mulliken charges =   0.00000
 Mulliken charges with hydrogens summed into heavy atoms:
               1
     1  C    0.058566
     2  C    0.047301
     3  C   -0.330193
     4  C    0.128923
     5  C    0.129884
     6  C    0.291572
     7  O   -0.015693
     8  O   -0.310306
    21  C    0.058821
    22  C    0.046733
    23  C   -0.330007
    24  C    0.129848
    25  C    0.128955
    26  C    0.291598
    27  O   -0.015688
    28  O   -0.310315
 Electronic spatial extent (au):  <R**2>=           5950.4124
 Charge=              0.0000 electrons
 Dipole moment (field-independent basis, Debye):
    X=             -0.0015    Y=              0.0052    Z=             -0.0019  Tot=              0.0058
 Evaluate density.
 Using the total density.
 Monte-Carlo method of calculating molar volume:
 based on  0.001 e/bohr**3 density envelope.
 Number of points per bohr**3 =  100 CutOff= 1.00D-04
 Using the SCF density.
 There are      2222 points.  Will hold      2222 in memory.
 LenV=  1047848432 MDV=  1048576000.
 Box volume =10982.172 fraction occupied=0.198
 Integrated density= 1.0420171173197538D+02 error=-2.3798288268024621D+01
 Molar volume = 2179.630 bohr**3/mol (194.508 cm**3/mol)
 Recommended a0 for SCRF calculation =  5.18 angstrom (  9.80 bohr)
   1 Symmetry operations used in ECPInt.
 ECPInt:  NShTT=   10440 NPrTT=   41896 LenC2=    9577 LenP2D=   26578.
 LDataN:  DoStor=T MaxTD1= 5 Len=  102
 Calling FoFJK, ICntrl=      2127 FMM=F ISym2X=0 I1Cent= 0 IOpClX= 0 NMat=1 NMatS=1 NMatT=0.

 GradGradGradGradGradGradGradGradGradGradGradGradGradGradGradGradGradGrad
 FormGI is forming the generalized inverse of G from B-inverse, IUseBI=4.
 Internal  Forces:  Max     0.011276439 RMS     0.003666510
 Step number   1 out of a maximum of  218
 All quantities printed in internal units (Hartrees-Bohrs-Radians)
 Mixed Optimization -- RFO/linear search
 Second derivative matrix not updated -- first step.
 ITU=  0
     Eigenvalues ---    0.00232   0.00234   0.00300   0.00301   0.00400
     Eigenvalues ---    0.00400   0.00438   0.00439   0.00466   0.00466
     Eigenvalues ---    0.00511   0.01325   0.01616   0.01773   0.02076
     Eigenvalues ---    0.03212   0.03451   0.03452   0.03608   0.04462
     Eigenvalues ---    0.04464   0.04829   0.04830   0.04908   0.05240
     Eigenvalues ---    0.05242   0.05370   0.05552   0.05552   0.05573
     Eigenvalues ---    0.05573   0.05619   0.05620   0.05659   0.05659
     Eigenvalues ---    0.05710   0.05711   0.05716   0.05716   0.05798
     Eigenvalues ---    0.05803   0.08274   0.08471   0.08472   0.09485
     Eigenvalues ---    0.12307   0.12307   0.15050   0.15055   0.15135
     Eigenvalues ---    0.15141   0.16000   0.16000   0.16000   0.16000
     Eigenvalues ---    0.16000   0.16000   0.16000   0.16000   0.16000
     Eigenvalues ---    0.16000   0.16000   0.16000   0.16000   0.16000
     Eigenvalues ---    0.16000   0.16000   0.16000   0.16000   0.16000
     Eigenvalues ---    0.21237   0.21995   0.21995   0.22985   0.24999
     Eigenvalues ---    0.24999   0.28487   0.28497   0.28945   0.28952
     Eigenvalues ---    0.29642   0.29643   0.29913   0.29913   0.30107
     Eigenvalues ---    0.30110   0.34570   0.34570   0.34630   0.34633
     Eigenvalues ---    0.35030   0.35030   0.35060   0.35060   0.35075
     Eigenvalues ---    0.35075   0.35112   0.35112   0.35133   0.35135
     Eigenvalues ---    0.35158   0.35160   0.35161   0.35161   0.35200
     Eigenvalues ---    0.35200   0.35288   0.35289   0.44099   0.46392
     Eigenvalues ---    0.63003   0.64955   0.91795   0.96130
 Linear search not attempted -- first point.
 Iteration  1 RMS(Cart)=  0.02989618 RMS(Int)=  0.00032908
 Iteration  2 RMS(Cart)=  0.00046108 RMS(Int)=  0.00005462
 Iteration  3 RMS(Cart)=  0.00000024 RMS(Int)=  0.00005462
 Variable       Old X    -DE/DX   Delta X   Delta X   Delta X     New X
                                 (Linear)    (Quad)   (Total)
    R1        2.88137   0.00454   0.00000   0.01472   0.01472   2.89609
    R2        2.05577   0.01106   0.00000   0.03076   0.03076   2.08653
    R3        2.05553   0.01027   0.00000   0.02853   0.02853   2.08406
    R4        2.05351   0.01077   0.00000   0.02981   0.02981   2.08333
    R5        2.91065   0.00505   0.00000   0.01717   0.01717   2.92782
    R6        2.06379   0.00854   0.00000   0.02408   0.02408   2.08787
    R7        2.06274   0.00751   0.00000   0.02113   0.02113   2.08387
    R8        2.90119   0.00486   0.00000   0.01628   0.01628   2.91746
    R9        2.88683   0.00329   0.00000   0.01075   0.01075   2.89759
   R10        2.87745   0.00190   0.00000   0.00612   0.00612   2.88358
   R11        2.05626   0.01073   0.00000   0.02985   0.02985   2.08611
   R12        2.05494   0.01101   0.00000   0.03058   0.03058   2.08552
   R13        2.05420   0.01010   0.00000   0.02800   0.02800   2.08220
   R14        2.05414   0.01127   0.00000   0.03126   0.03126   2.08540
   R15        2.05456   0.01021   0.00000   0.02832   0.02832   2.08289
   R16        2.05210   0.01031   0.00000   0.02849   0.02849   2.08059
   R17        2.47223   0.00236   0.00000   0.00352   0.00352   2.47576
   R18        2.30229   0.00611   0.00000   0.00633   0.00632   2.30861
   R19        1.90389  -0.00225   0.00000  -0.00491  -0.00490   1.89899
   R20        3.10867  -0.00135   0.00000  -0.01392  -0.01393   3.09474
   R21        3.10933  -0.00136   0.00000  -0.01556  -0.01555   3.09378
   R22        2.88137   0.00456   0.00000   0.01480   0.01480   2.89617
   R23        2.05577   0.01107   0.00000   0.03077   0.03077   2.08654
   R24        2.05352   0.01075   0.00000   0.02976   0.02976   2.08328
   R25        2.05553   0.01027   0.00000   0.02854   0.02854   2.08407
   R26        2.91087   0.00509   0.00000   0.01731   0.01731   2.92818
   R27        2.06279   0.00751   0.00000   0.02112   0.02112   2.08391
   R28        2.06379   0.00854   0.00000   0.02408   0.02408   2.08787
   R29        2.88680   0.00330   0.00000   0.01079   0.01079   2.89759
   R30        2.90103   0.00485   0.00000   0.01623   0.01623   2.91726
   R31        2.87750   0.00191   0.00000   0.00617   0.00617   2.88366
   R32        2.05415   0.01128   0.00000   0.03127   0.03127   2.08542
   R33        2.05208   0.01029   0.00000   0.02842   0.02842   2.08050
   R34        2.05460   0.01022   0.00000   0.02835   0.02835   2.08295
   R35        2.05494   0.01101   0.00000   0.03058   0.03058   2.08551
   R36        2.05626   0.01073   0.00000   0.02986   0.02986   2.08612
   R37        2.05416   0.01009   0.00000   0.02797   0.02797   2.08213
   R38        2.47221   0.00236   0.00000   0.00364   0.00364   2.47585
   R39        2.30231   0.00611   0.00000   0.00626   0.00627   2.30858
   R40        1.90394  -0.00225   0.00000  -0.00460  -0.00461   1.89933
    A1        1.93450   0.00189   0.00000   0.01117   0.01112   1.94562
    A2        1.91659   0.00158   0.00000   0.00871   0.00868   1.92527
    A3        1.94276   0.00152   0.00000   0.00968   0.00962   1.95238
    A4        1.88841  -0.00196   0.00000  -0.01292  -0.01295   1.87545
    A5        1.89315  -0.00166   0.00000  -0.00864  -0.00871   1.88444
    A6        1.88692  -0.00159   0.00000  -0.00932  -0.00936   1.87756
    A7        1.98829   0.00476   0.00000   0.02554   0.02542   2.01371
    A8        1.90903  -0.00045   0.00000   0.00072   0.00085   1.90988
    A9        1.90175  -0.00104   0.00000   0.00331   0.00310   1.90485
   A10        1.89084  -0.00244   0.00000  -0.01658  -0.01662   1.87422
   A11        1.88678  -0.00086   0.00000   0.00228   0.00200   1.88878
   A12        1.88447  -0.00019   0.00000  -0.01757  -0.01762   1.86686
   A13        1.90437  -0.00054   0.00000  -0.00157  -0.00160   1.90277
   A14        1.95330   0.00006   0.00000  -0.00273  -0.00273   1.95058
   A15        1.89729   0.00052   0.00000   0.00465   0.00462   1.90191
   A16        1.91683   0.00026   0.00000   0.00035   0.00036   1.91718
   A17        1.87369   0.00067   0.00000   0.00781   0.00781   1.88150
   A18        1.91652  -0.00093   0.00000  -0.00799  -0.00798   1.90854
   A19        1.92910   0.00161   0.00000   0.01003   0.00998   1.93908
   A20        1.91546  -0.00029   0.00000  -0.00348  -0.00347   1.91199
   A21        1.92839   0.00184   0.00000   0.01217   0.01212   1.94052
   A22        1.89368  -0.00100   0.00000  -0.00847  -0.00845   1.88523
   A23        1.89660  -0.00134   0.00000  -0.00446  -0.00457   1.89202
   A24        1.89995  -0.00092   0.00000  -0.00640  -0.00638   1.89357
   A25        1.92083  -0.00098   0.00000  -0.00735  -0.00731   1.91352
   A26        1.92193   0.00185   0.00000   0.01145   0.01138   1.93331
   A27        1.93506   0.00283   0.00000   0.01777   0.01770   1.95276
   A28        1.89953  -0.00072   0.00000  -0.00629  -0.00626   1.89327
   A29        1.90595  -0.00108   0.00000  -0.00735  -0.00731   1.89864
   A30        1.87971  -0.00198   0.00000  -0.00875  -0.00891   1.87080
   A31        1.98379   0.00062   0.00000   0.00572   0.00570   1.98949
   A32        2.14878  -0.00102   0.00000  -0.00064  -0.00066   2.14812
   A33        2.15055   0.00040   0.00000  -0.00496  -0.00498   2.14557
   A34        1.96110  -0.00322   0.00000  -0.03507  -0.03505   1.92605
   A35        2.26201  -0.00054   0.00000  -0.01739  -0.01740   2.24461
   A36        1.93461   0.00191   0.00000   0.01127   0.01121   1.94583
   A37        1.94263   0.00154   0.00000   0.00980   0.00974   1.95237
   A38        1.91660   0.00157   0.00000   0.00865   0.00861   1.92521
   A39        1.89308  -0.00169   0.00000  -0.00879  -0.00886   1.88422
   A40        1.88849  -0.00196   0.00000  -0.01289  -0.01292   1.87557
   A41        1.88693  -0.00160   0.00000  -0.00936  -0.00940   1.87753
   A42        1.98828   0.00482   0.00000   0.02582   0.02570   2.01398
   A43        1.90201  -0.00107   0.00000   0.00308   0.00288   1.90489
   A44        1.90901  -0.00045   0.00000   0.00081   0.00095   1.90995
   A45        1.88659  -0.00088   0.00000   0.00214   0.00186   1.88845
   A46        1.89086  -0.00246   0.00000  -0.01656  -0.01660   1.87426
   A47        1.88440  -0.00018   0.00000  -0.01762  -0.01767   1.86673
   A48        1.95322   0.00008   0.00000  -0.00249  -0.00249   1.95073
   A49        1.90426  -0.00055   0.00000  -0.00163  -0.00166   1.90260
   A50        1.89606   0.00052   0.00000   0.00470   0.00468   1.90074
   A51        1.91703   0.00025   0.00000   0.00019   0.00020   1.91724
   A52        1.91670  -0.00095   0.00000  -0.00810  -0.00810   1.90861
   A53        1.87476   0.00068   0.00000   0.00784   0.00784   1.88260
   A54        1.92085  -0.00098   0.00000  -0.00730  -0.00726   1.91359
   A55        1.93498   0.00286   0.00000   0.01799   0.01793   1.95291
   A56        1.92193   0.00184   0.00000   0.01133   0.01125   1.93318
   A57        1.90605  -0.00109   0.00000  -0.00730  -0.00727   1.89878
   A58        1.89945  -0.00073   0.00000  -0.00638  -0.00635   1.89310
   A59        1.87977  -0.00200   0.00000  -0.00887  -0.00903   1.87074
   A60        1.91548  -0.00030   0.00000  -0.00355  -0.00353   1.91195
   A61        1.92914   0.00161   0.00000   0.01003   0.00998   1.93912
   A62        1.92841   0.00184   0.00000   0.01222   0.01217   1.94058
   A63        1.89366  -0.00100   0.00000  -0.00848  -0.00847   1.88519
   A64        1.89999  -0.00091   0.00000  -0.00634  -0.00632   1.89367
   A65        1.89651  -0.00134   0.00000  -0.00449  -0.00460   1.89191
   A66        1.98354   0.00068   0.00000   0.00585   0.00582   1.98936
   A67        2.14908  -0.00107   0.00000  -0.00092  -0.00094   2.14813
   A68        2.15051   0.00040   0.00000  -0.00480  -0.00482   2.14569
   A69        1.96114  -0.00322   0.00000  -0.03284  -0.03286   1.92828
   A70        2.26194  -0.00053   0.00000  -0.01872  -0.01870   2.24324
   A71        3.05104   0.00336   0.00000   0.05906   0.05908   3.11013
   A72        3.05124   0.00335   0.00000   0.05476   0.05474   3.10598
   A73        3.13992   0.00002   0.00000   0.00133   0.00131   3.14123
   A74        3.14098   0.00000   0.00000  -0.00061  -0.00062   3.14035
    D1       -0.97398  -0.00074   0.00000  -0.01698  -0.01700  -0.99098
    D2       -3.09264  -0.00051   0.00000  -0.01357  -0.01361  -3.10626
    D3        1.13417   0.00057   0.00000   0.00528   0.00533   1.13950
    D4       -3.05952  -0.00051   0.00000  -0.01355  -0.01357  -3.07308
    D5        1.10500  -0.00029   0.00000  -0.01014  -0.01018   1.09482
    D6       -0.95137   0.00080   0.00000   0.00871   0.00876  -0.94261
    D7        1.13475  -0.00053   0.00000  -0.01379  -0.01380   1.12095
    D8       -0.98392  -0.00031   0.00000  -0.01038  -0.01041  -0.99433
    D9       -3.04029   0.00078   0.00000   0.00847   0.00853  -3.03176
   D10        3.09888   0.00034   0.00000   0.00649   0.00656   3.10544
   D11       -1.05923   0.00033   0.00000   0.00405   0.00413  -1.05510
   D12        1.06062  -0.00045   0.00000  -0.00457  -0.00450   1.05612
   D13       -1.05557   0.00116   0.00000   0.01236   0.01229  -1.04329
   D14        1.06950   0.00116   0.00000   0.00993   0.00986   1.07936
   D15       -3.09384   0.00037   0.00000   0.00130   0.00123  -3.09261
   D16        0.98239  -0.00082   0.00000  -0.01601  -0.01602   0.96637
   D17        3.10746  -0.00083   0.00000  -0.01844  -0.01844   3.08902
   D18       -1.05587  -0.00161   0.00000  -0.02707  -0.02708  -1.08295
   D19       -3.10964  -0.00051   0.00000  -0.00198  -0.00201  -3.11164
   D20        1.08558  -0.00009   0.00000   0.00444   0.00444   1.09002
   D21       -1.00971   0.00007   0.00000   0.00692   0.00695  -1.00276
   D22        1.02655  -0.00039   0.00000   0.00223   0.00219   1.02874
   D23       -1.06142   0.00002   0.00000   0.00864   0.00864  -1.05278
   D24        3.12647   0.00018   0.00000   0.01112   0.01116   3.13763
   D25       -1.05643   0.00018   0.00000   0.00703   0.00699  -1.04945
   D26        3.13878   0.00060   0.00000   0.01344   0.01344  -3.13096
   D27        1.04349   0.00076   0.00000   0.01592   0.01595   1.05944
   D28       -0.94167  -0.00000   0.00000  -0.00914  -0.00913  -0.95080
   D29       -3.03578   0.00034   0.00000  -0.00394  -0.00388  -3.03966
   D30        1.16888  -0.00016   0.00000  -0.01161  -0.01165   1.15723
   D31        1.17623  -0.00047   0.00000  -0.01271  -0.01272   1.16351
   D32       -0.91788  -0.00013   0.00000  -0.00752  -0.00747  -0.92535
   D33       -2.99640  -0.00063   0.00000  -0.01518  -0.01524  -3.01164
   D34       -3.05040  -0.00006   0.00000  -0.00775  -0.00776  -3.05816
   D35        1.13868   0.00029   0.00000  -0.00255  -0.00251   1.13617
   D36       -0.93984  -0.00022   0.00000  -0.01022  -0.01028  -0.95013
   D37        0.98426  -0.00016   0.00000  -0.00724  -0.00723   0.97703
   D38       -2.16927   0.00014   0.00000   0.00404   0.00406  -2.16520
   D39       -1.07355  -0.00016   0.00000  -0.01215  -0.01217  -1.08572
   D40        2.05611   0.00014   0.00000  -0.00086  -0.00088   2.05523
   D41        3.12646  -0.00034   0.00000  -0.01268  -0.01268   3.11378
   D42       -0.02707  -0.00004   0.00000  -0.00140  -0.00139  -0.02846
   D43        3.13402   0.00019   0.00000   0.00657   0.00659   3.14061
   D44        0.00438  -0.00010   0.00000  -0.00476  -0.00472  -0.00034
   D45       -3.13248  -0.00021   0.00000  -0.00683  -0.00680  -3.13928
   D46       -0.00396   0.00012   0.00000   0.00560   0.00557   0.00161
   D47       -0.00775   0.00011   0.00000   0.00573   0.00580  -0.00195
   D48        0.00042  -0.00009   0.00000  -0.00404  -0.00409  -0.00368
   D49        0.97090   0.00073   0.00000   0.01687   0.01689   0.98780
   D50       -1.13719  -0.00058   0.00000  -0.00524  -0.00529  -1.14247
   D51        3.08957   0.00052   0.00000   0.01375   0.01380   3.10337
   D52       -1.13771   0.00053   0.00000   0.01373   0.01373  -1.12398
   D53        3.03738  -0.00078   0.00000  -0.00839  -0.00845   3.02894
   D54        0.98096   0.00032   0.00000   0.01060   0.01064   0.99159
   D55        3.05662   0.00051   0.00000   0.01351   0.01352   3.07014
   D56        0.94853  -0.00080   0.00000  -0.00860  -0.00866   0.93988
   D57       -1.10790   0.00030   0.00000   0.01039   0.01042  -1.09747
   D58        1.05459  -0.00030   0.00000  -0.00254  -0.00262   1.05197
   D59       -3.10339  -0.00032   0.00000  -0.00505  -0.00512  -3.10852
   D60       -1.06460   0.00048   0.00000   0.00604   0.00596  -1.05864
   D61       -3.11191   0.00085   0.00000   0.01975   0.01975  -3.09216
   D62       -0.98671   0.00083   0.00000   0.01724   0.01725  -0.96946
   D63        1.05209   0.00163   0.00000   0.02832   0.02833   1.08042
   D64       -1.07412  -0.00115   0.00000  -0.00873  -0.00867  -1.08279
   D65        1.05108  -0.00116   0.00000  -0.01125  -0.01117   1.03991
   D66        3.08988  -0.00036   0.00000  -0.00016  -0.00009   3.08979
   D67        0.93934   0.00001   0.00000   0.00929   0.00928   0.94862
   D68       -1.17130   0.00015   0.00000   0.01153   0.01157  -1.15973
   D69        3.03335  -0.00035   0.00000   0.00394   0.00388   3.03723
   D70       -1.17851   0.00049   0.00000   0.01289   0.01289  -1.16562
   D71        2.99404   0.00063   0.00000   0.01512   0.01518   3.00922
   D72        0.91551   0.00013   0.00000   0.00754   0.00749   0.92300
   D73        3.04658   0.00007   0.00000   0.00806   0.00807   3.05465
   D74        0.93595   0.00021   0.00000   0.01029   0.01035   0.94630
   D75       -1.14259  -0.00029   0.00000   0.00271   0.00267  -1.13992
   D76       -1.08683   0.00008   0.00000  -0.00463  -0.00464  -1.09147
   D77        3.10838   0.00050   0.00000   0.00184   0.00188   3.11025
   D78        1.00853  -0.00007   0.00000  -0.00705  -0.00708   1.00145
   D79        1.06012  -0.00002   0.00000  -0.00868  -0.00868   1.05144
   D80       -1.02785   0.00041   0.00000  -0.00220  -0.00217  -1.03002
   D81       -3.12770  -0.00017   0.00000  -0.01109  -0.01113  -3.13883
   D82       -3.13912  -0.00061   0.00000  -0.01369  -0.01368   3.13039
   D83        1.05609  -0.00019   0.00000  -0.00721  -0.00717   1.04892
   D84       -1.04375  -0.00077   0.00000  -0.01610  -0.01613  -1.05988
   D85       -0.99448   0.00020   0.00000   0.00900   0.00899  -0.98549
   D86        2.15835  -0.00014   0.00000  -0.00358  -0.00360   2.15474
   D87       -3.13590   0.00036   0.00000   0.01418   0.01418  -3.12172
   D88        0.01693   0.00003   0.00000   0.00159   0.00158   0.01851
   D89        1.06313   0.00019   0.00000   0.01388   0.01390   1.07704
   D90       -2.06723  -0.00014   0.00000   0.00129   0.00131  -2.06592
   D91       -3.13242  -0.00023   0.00000  -0.00821  -0.00821  -3.14063
   D92       -0.00207   0.00009   0.00000   0.00442   0.00440   0.00232
   D93        3.13586   0.00024   0.00000   0.00762   0.00760  -3.13972
   D94        0.00657  -0.00012   0.00000  -0.00623  -0.00618   0.00039
         Item               Value     Threshold  Converged?
 Maximum Force            0.011276     0.000015     NO 
 RMS     Force            0.003667     0.000010     NO 
 Maximum Displacement     0.124904     0.000060     NO 
 RMS     Displacement     0.029904     0.000040     NO 
 GradGradGradGradGradGradGradGradGradGradGradGradGradGradGradGradGradGrad

                    Distance matrix (angstroms):
                    1          2          3          4          5
     1  C    0.000000
     2  C    1.532547   0.000000
     3  C    2.604684   1.549335   0.000000
     4  C    3.927764   2.518543   1.543855   0.000000
     5  C    3.114282   2.552047   1.533336   2.518329   0.000000
     6  C    3.055238   2.503208   1.525922   2.480402   2.496030
     7  O    3.471921   2.860459   2.381262   2.890747   3.684471
     8  O    3.682443   3.484959   2.419869   3.422085   2.733927
     9  H    1.104142   2.192453   2.864149   4.264666   3.466176
    10  H    1.102838   2.176747   3.545573   4.693474   4.128272
    11  H    1.102450   2.196010   2.925369   4.325369   2.853680
    12  H    2.166985   1.104851   2.155008   2.714690   2.777545
    13  H    2.161701   1.102737   2.164438   2.690119   3.488331
    14  H    4.779857   3.493699   2.197561   1.103923   2.769284
    15  H    4.219311   2.768613   2.177538   1.103609   2.756666
    16  H    4.194205   2.751263   2.197033   1.101850   3.487624
    17  H    3.383424   2.748833   2.169382   2.808933   1.103546
    18  H    4.150771   3.510841   2.182815   2.713808   1.102217
    19  H    2.859379   2.876375   2.195876   3.490720   1.101000
    20  H    4.150695   3.779619   3.264466   3.791358   4.404154
    21  C    8.752158   8.449809   7.428385   7.601984   7.994885
    22  C    8.455803   8.425960   7.534467   8.005250   8.016171
    23  C    7.432600   7.538009   6.884340   7.504577   7.524027
    24  C    7.988657   8.014826   7.523782   7.997569   8.397987
    25  C    7.617415   8.018510   7.508511   8.370699   7.996919
    26  C    6.027050   6.049481   5.358416   6.017036   6.031391
    27  O    5.751545   5.843737   4.983352   5.784357   5.338126
    28  O    5.465197   5.337765   4.792127   5.332058   5.736884
    29  H    7.940909   7.524662   6.438975   6.536705   7.022845
    30  H    9.203123   8.846978   7.922765   7.993825   8.651015
    31  H    9.576849   9.236194   8.104855   8.212632   8.537224
    32  H    8.307326   8.341615   7.366103   7.933097   7.640443
    33  H    9.425753   9.458643   8.614160   9.095968   9.095387
    34  H    9.052646   9.113593   8.608371   9.069066   9.442651
    35  H    8.017520   7.837519   7.289027   7.557580   8.266268
    36  H    7.565338   7.707655   7.427879   7.997404   8.382319
    37  H    8.693059   9.104102   8.597908   9.420513   9.088513
    38  H    7.097772   7.631467   7.330457   8.287865   7.899212
    39  H    7.483434   7.948766   7.349666   8.301313   7.629683
    40  H    4.904948   4.919998   4.001133   4.859118   4.339127
                    6          7          8          9         10
     6  C    0.000000
     7  O    1.310114   0.000000
     8  O    1.221664   2.224655   0.000000
     9  H    2.720245   3.020885   3.163698   0.000000
    10  H    4.020941   4.197944   4.716638   1.779300   0.000000
    11  H    3.521423   4.237491   3.892518   1.784838   1.779311
    12  H    3.446239   3.860828   4.390856   3.096918   2.525694
    13  H    2.734135   2.555411   3.874393   2.555081   2.464315
    14  H    2.734689   3.253549   3.382280   4.985915   5.643960
    15  H    3.446286   3.904077   4.349502   4.795125   4.867737
    16  H    2.739792   2.614967   3.836664   4.441742   4.806757
    17  H    3.455816   4.524383   3.826911   4.020811   4.231351
    18  H    2.790961   4.015628   2.748986   4.358088   5.192720
    19  H    2.721221   3.954776   2.633642   3.056749   3.901968
    20  H    1.908427   1.004903   2.325291   3.476543   4.855203
    21  C    6.024282   5.741285   5.469587   7.943444   9.576785
    22  C    6.046629   5.837466   5.338273   7.533705   9.245358
    23  C    5.358461   4.982897   4.792475   6.444125   8.113329
    24  C    6.031287   5.337476   5.737202   7.014525   8.533483
    25  C    6.020248   5.790282   5.332180   6.554176   8.235912
    26  C    3.832571   3.525780   3.313248   5.095277   6.771767
    27  O    3.526215   3.689124   2.642350   4.869293   6.624260
    28  O    3.312999   2.641754   3.201539   4.595831   6.127313
    29  H    5.091610   4.855136   4.602062   7.210707   8.799297
    30  H    6.524928   6.033572   6.137394   8.392422   9.953152
    31  H    6.765305   6.610122   6.128818   8.803276  10.452892
    32  H    5.927533   5.959453   5.041542   7.407952   9.164853
    33  H    7.115502   6.858574   6.405798   8.465444  10.175219
    34  H    7.107544   6.437767   6.752844   8.058143   9.583650
    35  H    5.848838   5.041009   5.699822   7.129071   8.575859
    36  H    5.981776   5.188883   5.811037   6.569405   7.990642
    37  H    7.100921   6.822299   6.413319   7.620452   9.278316
    38  H    5.891984   5.578555   5.336369   6.004306   7.601458
    39  H    5.913431   5.926710   5.049609   6.446320   8.180124
    40  H    2.582851   2.961237   1.637664   4.111169   5.838046
                   11         12         13         14         15
    11  H    0.000000
    12  H    2.511809   0.000000
    13  H    3.092337   1.774161   0.000000
    14  H    5.072810   3.738181   3.709307   0.000000
    15  H    4.491781   2.500762   3.052142   1.786109   0.000000
    16  H    4.824093   3.053497   2.456998   1.789079   1.789821
    17  H    2.985920   2.517955   3.743719   3.189684   2.593548
    18  H    3.901494   3.751553   4.323285   2.503330   3.030113
    19  H    2.347327   3.245399   3.871666   3.755248   3.800646
    20  H    4.883984   4.819265   3.472619   3.974565   4.844885
    21  C    9.205139   9.419060   8.296105   7.083650   8.678006
    22  C    8.851318   9.457498   8.340544   7.615612   9.091531
    23  C    7.922215   8.617217   7.372139   7.324691   8.594413
    24  C    8.640594   9.094783   7.641711   7.901812   9.088882
    25  C    8.000858   9.108102   7.952278   8.282085   9.421406
    26  C    6.522948   7.117894   5.932903   5.887421   7.098154
    27  O    6.038911   6.863295   5.967715   5.568512   6.817450
    28  O    6.129046   6.405899   5.043735   5.337447   6.413001
    29  H    8.393649   8.455977   7.391617   5.989770   7.603696
    30  H    9.760246   9.821408   8.560273   7.529833   9.074011
    31  H    9.956347  10.164636   9.149338   7.578013   9.255352
    32  H    8.569888   9.344103   8.401332   7.494602   8.985703
    33  H    9.825684  10.504988   9.345048   8.712130  10.185595
    34  H    9.683624  10.195652   8.741201   8.930842  10.164351
    35  H    8.731846   8.879044   7.382996   7.418582   8.645896
    36  H    8.276856   8.794977   7.271751   8.053541   9.058541
    37  H    9.081257  10.197225   9.003748   9.301205  10.482187
    38  H    7.532550   8.727198   7.519635   8.345668   9.307737
    39  H    7.719801   9.006538   8.034292   8.163736   9.318626
    40  H    5.168896   5.911474   5.123584   4.687018   5.866531
                   16         17         18         19         20
    16  H    0.000000
    17  H    3.809891   0.000000
    18  H    3.742839   1.789875   0.000000
    19  H    4.354516   1.792339   1.773229   0.000000
    20  H    3.503224   5.338304   4.616792   4.532101   0.000000
    21  C    7.458606   9.056399   7.571470   8.033837   4.894905
    22  C    7.930750   9.114129   7.704127   7.848052   4.913345
    23  C    7.344411   8.608942   7.423494   7.293664   4.000224
    24  C    7.629259   9.442633   8.381482   8.267258   4.338991
    25  C    8.303347   9.070356   7.987727   7.560491   4.863945
    26  C    5.909047   7.107923   5.977819   5.852760   2.581540
    27  O    5.919736   6.438903   5.182383   5.048348   2.959380
    28  O    5.048602   6.752594   5.809373   5.700768   1.637160
    29  H    6.416989   8.063297   6.579840   7.148021   4.096818
    30  H    7.703285   9.691504   8.289542   8.749556   5.164259
    31  H    8.146422   9.584423   7.993563   8.592404   5.824678
    32  H    8.010895   8.739411   7.262328   7.393906   5.114625
    33  H    8.990484  10.195712   8.790156   8.888248   5.906648
    34  H    8.699773  10.499352   9.386523   9.285146   5.438558
    35  H    7.098560   9.283009   8.207760   8.281102   4.084365
    36  H    7.576332   9.388231   8.509757   8.205932   4.228843
    37  H    9.319294  10.165790   9.049307   8.649561   5.870364
    38  H    8.174319   8.931055   8.042157   7.415680   4.695991
    39  H    8.379542   8.702519   7.564435   7.105186   5.083029
    40  H    5.077870   5.439171   4.221674   4.090683   2.436642
                   21         22         23         24         25
    21  C    0.000000
    22  C    1.532588   0.000000
    23  C    2.605098   1.549526   0.000000
    24  C    3.113219   2.552339   1.533339   0.000000
    25  C    3.927910   2.518459   1.543747   2.518289   0.000000
    26  C    3.055829   2.502358   1.525969   2.496128   2.481343
    27  O    3.480523   2.863438   2.381241   3.684623   2.887210
    28  O    3.675053   3.480411   2.419905   2.733943   3.427129
    29  H    1.104149   2.192643   2.863447   3.461760   4.265277
    30  H    1.102424   2.196015   2.927119   2.854145   4.325445
    31  H    1.102841   2.176747   3.545823   4.128455   4.693418
    32  H    2.161784   1.102759   2.164377   3.488486   2.691190
    33  H    2.167074   1.104854   2.155208   2.779548   2.712990
    34  H    3.379547   2.748221   2.169439   1.103554   2.810016
    35  H    2.859867   2.877929   2.195943   1.100951   3.490541
    36  H    4.150696   3.510979   2.182752   1.102251   2.712667
    37  H    4.218880   2.769117   2.177409   2.755960   1.103607
    38  H    4.780180   3.493687   2.197499   2.769873   1.103927
    39  H    4.194700   2.750527   2.196957   3.487581   1.101815
    40  H    4.158341   3.781750   3.265544   4.405919   3.789820
                   26         27         28         29         30
    26  C    0.000000
    27  O    1.310163   0.000000
    28  O    1.221646   2.224755   0.000000
    29  H    2.719973   3.032701   3.152138   0.000000
    30  H    3.525337   4.247854   3.889563   1.784677   0.000000
    31  H    4.019845   4.204406   4.707607   1.779384   1.779270
    32  H    2.731547   2.556159   3.868573   2.556473   3.092269
    33  H    3.445630   3.861845   4.388126   3.097060   2.510910
    34  H    3.455810   4.524572   3.826564   4.014313   2.980957
    35  H    2.719755   3.955896   2.627583   3.051337   2.351588
    36  H    2.792783   4.014887   2.755422   4.355321   3.903310
    37  H    3.446958   3.901670   4.353295   4.795061   4.489759
    38  H    2.735638   3.247502   3.390534   4.985987   5.073920
    39  H    2.741197   2.611482   3.841945   4.444368   4.824328
    40  H    1.910046   1.005081   2.327632   3.487289   4.894937
                   31         32         33         34         35
    31  H    0.000000
    32  H    2.463389   0.000000
    33  H    2.526753   1.774099   0.000000
    34  H    4.229575   3.744137   2.519471   0.000000
    35  H    3.904037   3.872062   3.249881   1.792397   0.000000
    36  H    5.193348   4.323245   3.752308   1.789800   1.773177
    37  H    4.868103   3.055100   2.499609   2.594136   3.800461
    38  H    5.643992   3.709666   3.737266   3.192129   3.754904
    39  H    4.806165   2.457421   3.049902   3.810399   4.354427
    40  H    4.859989   3.471448   4.820069   5.339822   4.534186
                   36         37         38         39         40
    36  H    0.000000
    37  H    3.027330   0.000000
    38  H    2.502891   1.786084   0.000000
    39  H    3.742218   1.789854   1.788978   0.000000
    40  H    4.618792   4.843920   3.971184   3.501448   0.000000
 Framework group  C1[X(C12H24O4)]
 Deg. of freedom   114
                         Standard orientation:                         
 ---------------------------------------------------------------------
 Center     Atomic      Atomic             Coordinates (Angstroms)
 Number     Number       Type             X           Y           Z
 ---------------------------------------------------------------------
      1          6           0       -3.837186   -2.105232    0.082435
      2          6           0       -4.094441   -0.772586   -0.629306
      3          6           0       -3.410565    0.463187    0.007577
      4          6           0       -3.722360    1.708527   -0.849976
      5          6           0       -3.880198    0.692855    1.449041
      6          6           0       -1.898974    0.254903   -0.004614
[...]
 00000663,0.00000164,0.00000369,0.00000254,-0.00000353,0.00000271,-0.00
 000024,0.00000326,-0.00000381,0.00000340,-0.00000335,0.00000066,0.0000
 0279,0.00000105,0.00000311,0.00000140,0.00000072,-0.00000127,-0.000001
 22,0.00024548,-0.00008985,-0.00002323,-0.00028577,0.00010419,0.0000637
 0,0.00107051,0.00059399,-0.00073079,-0.00143591,-0.00459218,-0.0005572
 2,-0.09288391,-0.24478199,-0.08111172,0.00019611,0.00078744,0.00128282
 ,-0.00181362,-0.00040908,-0.00232988,0.00028101,0.00007554,0.00079884,
 0.00012510,0.00098205,0.00182296,0.00006480,-0.00001329,-0.00001892,0.
 00017910,0.00023848,-0.00020356,0.00004270,-0.00003353,-0.00015409,-0.
 00023503,-0.00017743,-0.00021484,-0.00004994,0.00005584,0.00012856,0.0
 0257783,0.00518093,0.00267199,-0.00955380,-0.01677692,-0.00905734,0.10
 149059,0.25828930,0.00000914,-0.00000014,-0.00000041,-0.00000406,-0.00
 000235,0.00000476,-0.00000002,-0.00000225,0.00000059,-0.00000171,-0.00
 000220,0.00000301,-0.00000234,-0.00000115,-0.00000055,0.00003172,-0.00
 002303,-0.00003583,-0.00006897,0.00002555,0.,0.00001695,0.00002419,0.0
 0001716,-0.00000275,-0.00000095,0.00000064,-0.00000071,0.00000036,0.00
 000036,-0.00000097,0.00000016,-0.00000073,-0.00000273,0.00000245,-0.00
 000096,0.00000172,0.00000082,0.00000006,0.00000052,0.00000173,-0.00000
 004,-0.00000102,0.00000100,-0.00000048,0.00000068,-0.00000057,0.000000
 33,-0.00000114,0.00000033,0.00000074,0.00000029,0.00000140,0.00000009,
 0.00000060,-0.00000012,-0.00000202,0.00010441,-0.00003066,0.00005262,0
 .00011629,0.00066317,-0.00026805,0.00325246,0.00037212,-0.00581099,-0.
 01331241,-0.02572850,-0.01065586,-0.03725989,-0.07880598,-0.08020774,-
 0.00076981,-0.00151691,0.00123982,-0.00136213,-0.00060752,-0.00060329,
 0.00003302,0.00023894,0.00020466,0.00038964,0.00044151,0.00067738,0.00
 001526,-0.00006767,0.00003869,-0.00012764,-0.00018719,0.00036404,-0.00
 004655,-0.00008888,0.00023709,-0.00070471,-0.00170937,-0.00074796,0.00
 011186,0.00027315,0.00016879,0.00057282,0.00141543,-0.00055848,0.00914
 757,0.01650143,0.00789310,0.03940063,0.08771826,0.08824654,0.00001734,
 -0.00000674,-0.00000467,-0.00000927,0.00002004,0.00001076,-0.00001121,
 -0.00000370,-0.00001828,-0.00002006,-0.00001573,0.00001155,-0.00001406
 ,-0.00000187,-0.00001012,0.00024344,-0.00003395,0.00005111,-0.00032408
 ,0.00006575,-0.00000634,-0.00034912,0.00006728,-0.00006880,-0.00000604
 ,0.00001049,0.00000170,-0.00000795,-0.00000509,-0.00000413,-0.00000049
 ,0.00000313,0.00000347,-0.00001649,-0.00000389,-0.00000159,0.00001006,
 0.00000049,0.00000460,0.00000635,-0.00000157,0.00000112,-0.00001315,0.
 00000800,-0.00000384,0.00000857,-0.00000336,0.00000413,-0.00001476,0.0
 0000241,0.00000275,0.00000767,-0.00000353,-0.00000102,0.00000981,0.000
 00247,-0.00000380,0.00047612,-0.00010410,0.00007921,0.00039613,0.00001
 081,-0.00001160,0.00064746,-0.00109359,0.00036891,-0.00698102,0.000885
 79,0.00035400,0.00046078,-0.00059747,0.00063996,-0.31151853,0.04022645
 ,-0.00027266,0.00166714,0.00100240,-0.00011388,-0.00045089,0.00018586,
 -0.00027392,-0.00088921,-0.00001141,-0.00067140,0.00001915,-0.00019764
 ,0.00004310,-0.00001679,0.00000465,-0.00001480,-0.00000344,0.00006746,
 -0.00002832,-0.00005668,0.00006485,-0.00009422,0.00046719,0.00046484,0
 .00024204,0.00040489,-0.00003988,-0.00043685,0.00029510,-0.00004252,-0
 .00003307,-0.00009741,0.00009073,-0.00005004,0.33173790,0.00000494,0.0
 0000334,0.00000272,0.00000117,-0.00002135,-0.00000356,0.00000874,-0.00
 000204,0.00000218,0.00001534,0.00001164,-0.00000619,0.00001435,-0.0000
 0012,0.00001036,-0.00015185,0.00002145,0.00008426,0.00040504,-0.000074
 75,-0.00004493,0.00023769,-0.00001863,-0.00001705,-0.00000057,-0.00000
 938,0.00000338,0.00000333,0.00000446,0.00000070,0.00000084,-0.00000082
 ,-0.00000295,0.00000788,0.00000910,-0.00000054,-0.00000567,-0.00000040
 ,-0.00000476,-0.00000381,0.00000235,-0.00000075,0.00000799,-0.00000593
 ,0.00000237,-0.00000618,0.00000244,-0.00000442,0.00000816,-0.00000155,
 -0.00000488,-0.00000406,0.00000271,0.00000100,-0.00000404,-0.00000099,
 -0.00000038,-0.00059081,0.00013346,-0.00007657,-0.00020963,0.00005284,
 0.00003007,0.00157412,0.00133960,-0.00016956,0.02704865,-0.00641786,0.
 00048418,0.00024157,0.00071022,-0.00124906,0.03852860,-0.05283757,-0.0
 0125240,-0.00288516,-0.00438007,0.00290641,0.00118859,0.00026027,-0.00
 066208,0.00245565,0.00080231,0.00090680,-0.00013630,0.00016774,-0.0000
 8660,0.00001383,0.00004047,-0.00002571,-0.00003498,0.00001936,-0.00001
 221,-0.00002109,-0.00003950,-0.00010571,-0.00073004,-0.00063328,0.0001
 7457,-0.00039856,0.00021883,0.00039285,-0.00011651,-0.00008233,-0.0002
 8409,-0.00019855,-0.00002472,0.00008188,-0.04443327,0.05629014,0.00000
 101,-0.00000139,-0.00000024,-0.00000051,0.00000911,0.00000190,-0.00000
 430,0.00000004,0.00000975,-0.00000575,-0.00000435,0.00000365,-0.000008
 88,0.00000178,-0.00000547,0.00007877,-0.00003872,-0.00018358,-0.000302
 68,0.00008431,0.00007864,-0.00000753,0.00001798,0.00009243,0.00000078,
 0.00000398,-0.00000429,-0.00000158,-0.00000221,0.00000016,-0.00000314,
 0.00000053,0.00000185,-0.00000396,-0.00000337,0.00000067,0.00000411,0.
 00000040,0.00000353,0.00000173,-0.00000116,-0.00000024,-0.00000384,0.0
 0000237,-0.00000030,0.00000379,-0.00000184,0.00000335,-0.00000308,0.00
 000057,0.00000394,0.00000107,-0.00000024,-0.00000048,0.00000016,-0.000
 00079,0.00000050,0.00043299,-0.00014418,0.00005600,-0.00002904,-0.0001
 2008,-0.00013284,0.00001440,-0.00125144,0.00023253,-0.02034296,0.00524
 180,-0.00167751,-0.00116780,-0.00016570,0.00084139,0.00059205,-0.00168
 488,-0.04803429,0.00274945,0.00301990,-0.00351639,-0.00026768,-0.00053
 783,0.00141591,-0.00172478,-0.00053685,-0.00016402,0.00003765,-0.00004
 921,-0.00000587,-0.00001073,0.00004166,-0.00003374,0.00003639,-0.00003
 302,0.00000650,0.00020730,0.00003189,-0.00002768,0.00033653,0.00001212
 ,0.00038370,0.00044077,0.00040863,-0.00049230,0.00016919,-0.00016432,0
 .00024111,-0.00005167,-0.00009016,-0.00008561,0.00098758,-0.00319916,0
 .04761169,-0.00001380,0.00000403,0.00000244,0.00000632,-0.00000785,-0.
 00000679,0.00000357,0.00000229,0.00000771,0.00000932,0.00000708,-0.000
 00629,0.00000674,0.00000109,0.00000409,-0.00012269,0.00002226,-0.00002
 428,0.00014319,-0.00003220,0.00000774,0.00012857,-0.00003391,0.0000275
 8,0.00000389,-0.00000506,-0.00000263,0.00000604,0.00000249,0.00000257,
 0.00000048,-0.00000183,-0.00000119,0.00000857,0.00000003,0.00000125,-0
 .00000521,-0.00000067,-0.00000159,-0.00000288,0.00000067,-0.00000034,0
 .00000635,-0.00000381,0.00000172,-0.00000414,0.00000152,-0.00000166,0.
 00000725,-0.00000137,-0.00000104,-0.00000356,0.00000164,0.00000052,-0.
 00000507,-0.00000125,0.00000243,-0.00020363,0.00004410,-0.00004358,0.0
 0069592,0.00042315,0.00002297,-0.00020665,0.00088504,-0.00079259,0.002
 81251,0.00787647,0.00314499,-0.00015959,-0.00021616,0.00022890,-0.1035
 1996,-0.09937202,-0.04203270,0.00058614,0.00125026,0.00045089,0.000065
 64,-0.00029184,-0.00001194,0.00037687,-0.00031730,0.00022271,0.0000199
 0,-0.00014053,0.00005909,-0.00001013,0.00000337,-0.00000246,-0.0000143
 2,0.00013990,-0.00005333,-0.00015736,-0.00002933,-0.00022354,0.0004901
 4,0.00027599,-0.00000566,-0.00003379,-0.00012613,-0.00008121,-0.000026
 59,0.00018455,0.00013838,0.00020251,-0.00016265,0.00031255,-0.01056617
 ,-0.02601657,-0.01125275,0.10453539,0.00002192,-0.00000126,0.00000120,
 -0.00000830,-0.00000724,0.00000275,0.00000004,-0.00000966,-0.00000059,
 -0.00000200,-0.00000728,0.00000241,-0.00000205,-0.00000236,-0.00000040
 ,0.00005663,-0.00005685,-0.00004100,-0.00003156,0.00007278,0.00002096,
 0.00003067,0.00007953,0.00001641,-0.00000648,-0.00000082,0.00000073,-0
 .00000127,0.00000286,-0.00000189,-0.00000247,0.00000103,0.00000053,-0.
 00000634,0.00000647,-0.00000141,0.00000432,-0.00000001,0.00000180,0.00
 000067,0.00000623,0.00000297,-0.00000157,0.00000235,-0.00000116,0.0000
 0018,-0.00000297,-0.00000029,-0.00000277,0.00000063,0.00000019,0.00000
 099,0.00000369,0.00000173,0.00000213,-0.00000005,-0.00000482,0.0000304
 4,-0.00011755,0.00002068,-0.00108646,-0.00067442,-0.00098733,0.0024267
 9,-0.00357355,0.00403767,-0.01020299,-0.01940057,-0.00974886,0.0000106
 4,0.00072672,-0.00147328,-0.09825273,-0.22855501,-0.07731923,-0.002390
 10,-0.00094022,-0.00091602,0.00063815,0.00035931,-0.00011537,0.0007602
 5,0.00044847,0.00059085,0.00008780,0.00001374,-0.00000155,-0.00001590,
 -0.00005708,0.00012391,0.00007726,-0.00049867,0.00027427,0.00010866,0.
 00029618,0.00019248,-0.00002621,0.00025234,0.00008461,0.00006042,0.000
 00184,0.00005870,0.00025110,0.00032774,-0.00001855,-0.00003761,0.00044
 768,0.00087343,0.00317365,0.00600459,0.00281116,0.10574184,0.24733933,
 0.00001082,0.00000220,-0.00000256,-0.00000498,-0.00001009,0.00000471,0
 .00000121,-0.00000318,-0.00000384,0.00000321,0.00000078,0.00000130,0.0
 0000349,-0.00000289,0.00000408,-0.00002065,-0.00000406,0.00008658,0.00
 010671,-0.00001093,-0.00004983,0.00003960,0.00002966,-0.00004520,-0.00
 000467,-0.00000434,0.00000937,-0.00000120,0.00000174,0.00000052,0.0000
 0427,-0.00000183,-0.00000326,-0.00000099,0.00000595,-0.00000203,-0.000
 00096,0.00000201,-0.00000357,-0.00000034,0.00000297,0.00000049,0.00000
 112,-0.00000075,-0.00000024,-0.00000178,0.00000014,-0.00000227,0.00000
 056,-0.00000003,-0.00000185,-0.00000028,0.00000253,-0.00000004,0.00000
 051,-0.00000029,-0.00000336,-0.00013933,0.00001547,0.00001004,0.000447
 03,0.00092547,0.00094539,-0.00109543,0.00242985,-0.00245956,0.00954613
 ,0.01560252,0.00597106,0.00058145,0.00098478,0.00129730,-0.04269421,-0
 .07954163,-0.08329518,0.00035934,-0.00000224,0.00123148,0.00031992,0.0
 0009910,-0.00022569,0.00029714,-0.00026145,-0.00017478,-0.00001513,-0.
 00004280,0.00001205,0.00004246,-0.00014455,0.00003630,-0.00005510,0.00
 034881,-0.00015614,-0.00013510,0.00025892,0.00027891,-0.00003539,-0.00
 005835,-0.00019649,0.00003837,-0.00001991,-0.00006882,-0.00007827,-0.0
 0020557,0.00016302,-0.00016452,0.00002084,-0.00058146,0.00090292,0.001
 30687,-0.00037359,0.04693957,0.08146148,0.08450993,-0.00001199,0.00000
 526,0.00000514,0.00000900,-0.00001350,-0.00000903,0.00000795,0.0000058
 6,0.00002615,0.00001467,0.00001263,-0.00000804,0.00000716,0.00000414,0
 .00000572,-0.00016452,-0.00000462,-0.00023723,0.00006596,-0.00000875,0
 .00009919,0.00035540,-0.00007273,0.00016251,0.00000566,-0.00000784,-0.
 00000703,0.00000728,0.00000318,0.00000351,-0.00000370,-0.00000179,-0.0
 0000077,0.00001158,0.00000258,0.00000244,-0.00000517,-0.00000060,-0.00
 000045,-0.00000414,0.00000018,-0.00000178,0.00000857,-0.00000618,0.000
 00379,-0.00000429,0.00000157,-0.00000050,0.00001104,-0.00000209,0.0000
 0031,-0.00000609,0.00000326,0.00000068,-0.00000924,-0.00000338,0.00000
 398,-0.00012109,0.00003878,-0.00005969,-0.00004404,-0.00008334,-0.0001
 5816,-0.00004091,-0.00024222,0.00035078,0.00117254,-0.00142379,-0.0075
 3063,-0.00022022,0.00093119,-0.00072572,-0.07532576,0.01264374,0.08091
 978,0.00076627,-0.00064213,-0.00230072,-0.00088916,0.00033824,0.000304
 55,0.00008494,0.00028141,0.00051541,-0.00004376,0.00005982,-0.00003289
 ,-0.00003211,0.00004413,-0.00003938,-0.00001462,-0.00002217,0.00002662
 ,0.00033133,-0.00037293,0.00008798,-0.00006580,0.00002987,0.00016369,0
 .00034124,0.00005955,-0.00025787,0.00054764,0.00016393,-0.00034524,-0.
 00006187,0.00017780,0.00019776,-0.00603768,0.00464261,0.02913531,0.005
 11521,-0.00135324,-0.01508985,0.07478060,-0.00000276,-0.00000325,-0.00
 000082,-0.00000067,0.00001199,0.00000161,-0.00000357,-0.00000057,-0.00
 001517,-0.00000756,-0.00000226,0.00000390,-0.00000290,0.00000356,-0.00
 000525,0.00006132,0.00002446,0.00011615,-0.00001372,-0.00000781,-0.000
 04387,-0.00023464,-0.00001617,-0.00007504,0.00000221,0.00000389,-0.000
 00580,-0.00000026,-0.00000246,-0.00000063,-0.00000363,0.00000259,0.000
 00264,-0.00000275,-0.00000520,0.,0.00000151,-0.00000223,0.00000198,0.0
 0000152,-0.00000297,0.00000014,-0.00000336,0.00000244,-0.00000184,0.00
 000157,-0.00000070,0.00000097,-0.00000389,-0.00000007,0.00000075,0.000
 00261,-0.00000381,-0.00000057,0.00000211,0.00000105,0.00000066,0.00003
 221,-0.00000630,0.00001936,0.00014285,0.00008850,-0.00020326,-0.000292
 59,0.00134112,0.00153199,-0.00886038,0.00407887,0.02347835,0.00151816,
 -0.00424263,0.00226924,0.01329819,-0.05618955,-0.04469340,-0.00073174,
 0.00093181,0.00102032,0.00007501,-0.00048697,-0.00011918,0.00005861,-0
 .00002268,-0.00031410,-0.00001260,0.00002069,0.00001876,0.00001015,0.0
 0016064,-0.00006189,-0.00000318,0.00002572,-0.00002005,-0.00006961,-0.
 00095842,-0.00033464,-0.00005515,-0.00002376,-0.00010368,-0.00003131,-
 0.00011218,-0.00016522,-0.00037752,0.00036538,0.00155797,0.00019798,0.
 00012924,0.00013388,0.00040196,-0.00156402,-0.00347726,0.00987117,-0.0
 0226755,-0.02314317,-0.01540717,0.05872771,-0.00000862,0.00000317,0.00
 000466,0.00000806,-0.00000732,-0.00000866,0.00000597,0.00000515,0.0000
 2724,0.00000934,0.00000723,-0.00000683,0.00000161,0.00000242,0.0000028
 9,-0.00009348,-0.00002891,-0.00033080,-0.00009672,0.00002700,0.0001549
 5,0.00033300,-0.00003818,0.00018910,0.00000366,-0.00000416,-0.00000877
 ,0.00000588,0.00000196,0.00000151,-0.00000463,-0.00000066,0.00000187,0
 .00000663,0.00000116,0.00000254,-0.00000142,-0.00000044,0.00000305,-0.
 00000166,-0.00000029,-0.00000227,0.00000413,-0.00000442,0.00000335,-0.
 00000050,0.00000097,0.00000256,0.00000642,-0.00000095,0.00000138,-0.00
 000399,0.00000340,0.00000033,-0.00000626,-0.00000341,0.00000374,0.0000
 8243,-0.00000621,-0.00005924,-0.00014409,0.00008377,0.00031131,-0.0001
 8312,-0.00156166,0.00056296,0.00500495,-0.00380769,-0.01638183,-0.0018
 0868,0.00414616,-0.00144948,0.07839098,-0.04147737,-0.28974602,0.00208
 332,-0.00067238,-0.00320724,0.00043185,-0.00073938,0.00192948,-0.00033
 047,0.00019004,0.00086954,-0.00000034,-0.00000071,-0.00003795,-0.00003
 081,-0.00019557,0.00013202,-0.00001298,0.00003911,0.00001358,0.0001960
 2,0.00055779,0.00067486,-0.00006356,0.00006291,-0.00001130,0.00006378,
 -0.00007474,0.00020411,0.00058313,-0.00017800,-0.00108169,-0.00000848,
 0.00002829,0.00040624,-0.00157618,0.00077674,0.00365068,0.00297270,0.0
 0002987,-0.00700588,-0.08524509,0.04284198,0.30990181,-0.00001300,0.00
 019707,0.00038624,0.00090891,-0.00152817,-0.00062580,0.00096886,0.0009
 3900,0.00459301,0.00147188,0.00092831,-0.00063459,0.00006329,0.0001941
 1,0.00090069,-0.00676992,-0.00603615,-0.04300786,-0.01131637,0.0042400
 5,0.01793169,0.01449026,0.00054467,0.02768710,0.00004610,-0.00043268,-
 0.00011431,0.00025588,0.00026818,0.00006372,-0.00007075,-0.00010507,-0
 .00009238,0.00063564,0.00064673,0.00022816,-0.00013372,0.00009262,0.00
 003855,-0.00020363,0.00003044,-0.00013933,0.00047612,-0.00059082,0.000
 43299,-0.00012110,0.00003221,0.00008243,0.00060552,-0.00010098,-0.0000
 8129,-0.00030815,0.00024548,0.00010441,-0.00041090,-0.00015755,0.00018
 650,0.01642424,-0.00240968,-0.00181890,0.00000024,0.00008218,0.0001109
 9,0.00006647,-0.00111090,-0.00027256,0.00158723,0.00006870,-0.00159315
 ,0.00143660,-0.00002795,0.00033304,0.00089154,0.00088113,-0.00042250,-
 0.02014870,0.01088131,0.04824472,-0.30890235,0.03297955,-0.02988271,-0
 .01247918,-0.00282270,-0.02295226,0.00012081,-0.00052352,0.00024299,0.
 00012939,0.00000829,-0.00019488,0.00023036,0.00026690,0.00002569,-0.00
 069330,-0.00023525,-0.00055802,0.00064226,0.00040587,-0.00019883,0.000
 56168,-0.00013971,-0.00048424,-0.00015469,0.00002026,-0.00000681,-0.00
 016130,-0.00000673,0.00000366,0.00052939,-0.00046144,-0.00003836,-0.00
 017498,-0.00005449,-0.00010764,-0.00053787,0.00044182,-0.00057280,0.32
 005726,-0.00017620,-0.00000162,-0.00003241,0.00038309,0.00006736,0.000
 02496,0.00027920,0.00231774,-0.00093623,-0.00066934,-0.00006399,0.0001
 3318,0.00001378,0.00005474,-0.00012129,-0.00035876,0.00145223,0.005380
 73,0.00144134,-0.00204182,-0.00221690,-0.00251091,-0.01362592,-0.00337
 517,0.00002991,-0.00002447,-0.00005540,0.00003217,-0.00006492,0.000014
 83,0.00000173,0.00001350,0.00001766,-0.00000022,-0.00003199,0.00005431
 ,-0.00001394,-0.00002737,0.00000150,0.00004409,-0.00011755,0.00001547,
 -0.00010410,0.00013346,-0.00014418,0.00003877,-0.00000630,-0.00000620,
 -0.00008058,-0.00001680,0.00000516,0.00007043,-0.00008985,-0.00003066,
 0.00002496,0.00001681,0.00002427,-0.00240962,0.00121739,-0.00039795,-0
 .00039469,0.00012938,-0.00016029,0.00044626,0.00034266,0.00009236,0.00
 050123,0.00471894,-0.00142819,0.00007179,0.00035561,-0.00001237,-0.000
 74712,0.00025736,-0.00006426,0.01140987,0.00115529,-0.00642934,0.02998
 053,-0.03493266,-0.00066604,0.00000895,-0.00572519,0.00439325,0.000092
 25,-0.00004507,0.00010743,0.00014099,-0.00004236,0.00002471,0.00003145
 ,-0.00010649,0.00002373,0.00005478,0.00017285,0.00029349,-0.00004600,-
 0.00012539,0.00024906,-0.00005553,0.00004464,-0.00001661,0.00002684,0.
 00000228,0.00001997,0.00001361,-0.00004271,0.00000425,-0.00016017,0.00
 001800,-0.00018004,0.00002155,-0.00022039,-0.00004403,0.00021876,0.000
 00188,-0.00000666,-0.03765113,0.04488072,-0.00004146,0.00002286,0.0000
 2604,0.00004619,-0.00013195,-0.00002929,0.00030616,-0.00038604,0.00034
 421,0.00030027,0.00008076,-0.00006800,0.00010393,0.00000453,0.00018957
 ,-0.00848943,0.00059489,-0.00288688,0.00070593,0.00013554,0.00002389,0
 .00837630,-0.00067494,-0.01046332,0.00000177,-0.00004637,0.00006580,0.
 00001574,0.00003053,-0.00001248,0.00006419,-0.00000389,-0.00004307,0.0
 0007494,0.00006119,0.00000729,-0.00005429,-0.00000323,-0.00006327,-0.0
 0004358,0.00002068,0.00001004,0.00007921,-0.00007657,0.00005600,-0.000
 05969,0.00001936,-0.00005924,0.00005867,-0.00001492,-0.00007810,0.0000
 0118,-0.00002324,0.00005262,0.00002264,0.00004249,0.00003868,-0.001818
 91,-0.00039795,-0.00309288,0.00011412,-0.00007060,0.00002482,-0.000541
 07,-0.00012928,-0.00026116,0.00008746,-0.00157950,-0.00495286,0.001204
 40,-0.00014553,0.00040722,-0.00025338,0.00011447,-0.00015529,0.0508954
 1,-0.00673806,0.00431030,-0.04839398,0.00182841,-0.05979424,-0.0050332
 0,0.00199034,0.00162504,-0.00006036,0.00010540,0.00004298,0.00000745,-
 0.00003892,0.00001405,-0.00010188,0.00000541,-0.00001162,0.00013114,0.
 00020269,0.00026425,-0.00005927,-0.00001419,0.00008070,0.00010695,-0.0
 0007925,-0.00038090,0.00002108,0.00008244,-0.00002926,0.00000250,-0.00
 008282,0.00000372,-0.00000936,0.00004620,0.00009855,-0.00000522,0.0000
 2100,0.00009311,0.00003480,-0.00021584,0.00028221,0.00220263,0.0054439
 0,0.07432077\\0.00000007,-0.00000015,-0.00000045,0.00000001,-0.0000002
 9,-0.00000044,-0.00000009,0.00000004,-0.00000039,0.00000001,-0.0000001
 6,-0.00000035,-0.00000019,-0.00000013,-0.00000023,0.00000028,-0.000000
 24,-0.00000025,0.,0.00000009,-0.00000002,-0.00000030,0.00000004,-0.000
 00008,0.00000008,-0.00000013,-0.00000021,0.00000018,-0.00000020,-0.000
 00038,-0.00000004,-0.00000018,-0.00000039,0.00000011,-0.00000017,-0.00
 000045,0.00000020,-0.00000012,-0.00000035,-0.00000005,-0.00000012,-0.0
 0000029,0.00000002,-0.00000020,-0.00000047,0.00000013,-0.00000013,-0.0
 0000033,-0.00000015,-0.00000020,-0.00000048,-0.00000023,-0.00000016,-0
 .00000034,-0.00000019,-0.00000014,-0.00000034,0.00000007,0.,-0.0000000
 2,-0.00000007,0.00000011,0.00000043,-0.00000003,0.00000029,0.00000041,
 0.00000011,-0.00000004,0.00000036,0.00000018,0.00000015,0.00000026,0.0
 0000003,0.00000015,0.00000039,-0.00000028,0.00000025,0.00000025,0.0000
 0003,0.,0.,0.00000032,-0.00000009,0.00000007,-0.00000009,0.00000012,0.
 00000022,0.00000003,0.00000018,0.00000038,-0.00000016,0.00000019,0.000
 00039,-0.00000021,0.00000010,0.00000036,-0.00000011,0.00000018,0.00000
 045,0.00000016,0.00000020,0.00000049,0.00000019,0.00000016,0.00000033,
 0.00000022,0.00000016,0.00000035,-0.00000003,0.00000019,0.00000047,0.0
 0000005,0.00000013,0.00000029,-0.00000012,0.00000013,0.00000033,-0.000
 00012,-0.00000001,0.00000001\\\@


 OF ALL THE WONDERS OF THE UNIVERSE, THE GREATEST IS MAN.

                                    -- ARISTOTLE
 File lengths (MBytes):  RWF=    362 Int=      0 D2E=      0 Chk=      7 Scr=      1
 Normal termination of Gaussian 16 at Sun Feb  5 16:37:31 2023.
real 4394.00
user 17400.54
sys 23.35
