 Entering Gaussian System, Link 0=g16
 Input=gaussian_test.inp
 Output=gaussian_test.log
 Initial command:
 /sw/restricted/lms/sw/Gaussian/g16_B01/g16/l1.exe "/scratch/user/peterchao1/peterchao1/9982563_1711744440000000488845226/Gau-111216.inp" -scrdir="/scratch/user/peterchao1/peterchao1/9982563_1711744440000000488845226/"
 Entering Link 1 = /sw/restricted/lms/sw/Gaussian/g16_B01/g16/l1.exe PID=    111217.
  
 Copyright (c) 1988-2017, Gaussian, Inc.  All Rights Reserved.
  
 This is part of the Gaussian(R) 16 program.  It is based on
 the Gaussian(R) 09 system (copyright 2009, Gaussian, Inc.),
 the Gaussian(R) 03 system (copyright 2003, Gaussian, Inc.),
 the Gaussian(R) 98 system (copyright 1998, Gaussian, Inc.),
 the Gaussian(R) 94 system (copyright 1995, Gaussian, Inc.),
 the Gaussian 92(TM) system (copyright 1992, Gaussian, Inc.),
 the Gaussian 90(TM) system (copyright 1990, Gaussian, Inc.),
 the Gaussian 88(TM) system (copyright 1988, Gaussian, Inc.),
 the Gaussian 86(TM) system (copyright 1986, Carnegie Mellon
 University), and the Gaussian 82(TM) system (copyright 1983,
 Carnegie Mellon University). Gaussian is a federally registered
 trademark of Gaussian, Inc.
  
 This software contains proprietary and confidential information,
 including trade secrets, belonging to Gaussian, Inc.
  
 This software is provided under written license and may be
 used, copied, transmitted, or stored only in accord with that
 written license.
  
 The following legend is applicable only to US Government
 contracts under FAR:
  
                    RESTRICTED RIGHTS LEGEND
  
 Use, reproduction and disclosure by the US Government is
 subject to restrictions as set forth in subparagraphs (a)
 and (c) of the Commercial Computer Software - Restricted
 Rights clause in FAR 52.227-19.
  
 Gaussian, Inc.
 340 Quinnipiac St., Bldg. 40, Wallingford CT 06492
  
  
 ---------------------------------------------------------------
 Warning -- This program may not be used in any manner that
 competes with the business of Gaussian, Inc. or will provide
 assistance to any competitor of Gaussian, Inc.  The licensee
 of this program is prohibited from giving any competitor of
 Gaussian, Inc. access to this program.  By using this program,
 the user acknowledges that Gaussian, Inc. is engaged in the
 business of creating and licensing software in the field of
 computational chemistry and represents and warrants to the
 licensee that it is not a competitor of Gaussian, Inc. and that
 it will not use this program in any manner prohibited above.
 ---------------------------------------------------------------
  

 Cite this work as:
 Gaussian 16, Revision B.01,
 M. J. Frisch, G. W. Trucks, H. B. Schlegel, G. E. Scuseria, 
 M. A. Robb, J. R. Cheeseman, G. Scalmani, V. Barone, 
 G. A. Petersson, H. Nakatsuji, X. Li, M. Caricato, A. V. Marenich, 
 J. Bloino, B. G. Janesko, R. Gomperts, B. Mennucci, H. P. Hratchian, 
 J. V. Ortiz, A. F. Izmaylov, J. L. Sonnenberg, D. Williams-Young, 
 F. Ding, F. Lipparini, F. Egidi, J. Goings, B. Peng, A. Petrone, 
 T. Henderson, D. Ranasinghe, V. G. Zakrzewski, J. Gao, N. Rega, 
 G. Zheng, W. Liang, M. Hada, M. Ehara, K. Toyota, R. Fukuda, 
 J. Hasegawa, M. Ishida, T. Nakajima, Y. Honda, O. Kitao, H. Nakai, 
 T. Vreven, K. Throssell, J. A. Montgomery, Jr., J. E. Peralta, 
 F. Ogliaro, M. J. Bearpark, J. J. Heyd, E. N. Brothers, K. N. Kudin, 
 V. N. Staroverov, T. A. Keith, R. Kobayashi, J. Normand, 
 K. Raghavachari, A. P. Rendell, J. C. Burant, S. S. Iyengar, 
 J. Tomasi, M. Cossi, J. M. Millam, M. Klene, C. Adamo, R. Cammi, 
 J. W. Ochterski, R. L. Martin, K. Morokuma, O. Farkas, 
 J. B. Foresman, and D. J. Fox, Gaussian, Inc., Wallingford CT, 2016.
 
 ******************************************
 Gaussian 16:  ES64L-G16RevB.01 20-Dec-2017
                29-Mar-2024 
 ******************************************
 %nprocshared=4
 Will use up to    4 processors via shared memory.
 %mem=8000mb
 %chk=monomer.chk
 %nprocshared=4
 Will use up to    4 processors via shared memory.
 %mem=8000mb
 ----------------------------------------------------------------------
 #T wB97XD/def2svpp opt=tight freq int(grid=ultrafine) scf=(verytight,q
 c) Volume=tight
 ----------------------------------------------------------------------
 -------
 Monomer
 -------
 Symbolic Z-matrix:
 Charge =  0 Multiplicity = 1
 C                    -1.68119  -0.82645  -0.39809 
 C                    -0.4502    0.0003   -0.00561 
 C                    -0.55303   1.41286  -0.58067 
 N                    -0.27829   0.10943   1.44416 
 C                     0.8321   -0.68083  -0.52439 
 O                     1.98185  -0.01779  -0.07557 
 H                    -1.75083  -0.91642  -1.47887 
 H                    -2.58847  -0.34895  -0.03159 
 H                    -1.6209   -1.82782   0.0261 
 H                    -1.40602   1.93753  -0.15524 
 H                    -0.67176   1.37081  -1.65973 
 H                     0.35167   1.96877  -0.34994 
 H                    -0.31281  -0.81067   1.87212 
 H                    -1.01938   0.66912   1.85022 
 H                     0.85941  -0.67076  -1.61597 
 H                     0.84293  -1.73038  -0.18654 
 H                     1.79741   0.24204   0.8394 
 

 GradGradGradGradGradGradGradGradGradGradGradGradGradGradGradGradGradGrad
 Initialization pass.
                           ----------------------------
                           !    Initial Parameters    !
                           ! (Angstroms and Degrees)  !
 --------------------------                            --------------------------
 ! Name  Definition              Value          Derivative Info.                !
 --------------------------------------------------------------------------------
 ! R1    R(1,2)                  1.5339         estimate D2E/DX2                !
 ! R2    R(1,7)                  1.0868         estimate D2E/DX2                !
 ! R3    R(1,8)                  1.0888         estimate D2E/DX2                !
 ! R4    R(1,9)                  1.0892         estimate D2E/DX2                !
 ! R5    R(2,3)                  1.5286         estimate D2E/DX2                !
 ! R6    R(2,4)                  1.464          estimate D2E/DX2                !
 ! R7    R(2,5)                  1.5419         estimate D2E/DX2                !
 ! R8    R(3,10)                 1.0881         estimate D2E/DX2                !
 ! R9    R(3,11)                 1.0864         estimate D2E/DX2                !
 ! R10   R(3,12)                 1.0866         estimate D2E/DX2                !
 ! R11   R(4,13)                 1.0153         estimate D2E/DX2                !
 ! R12   R(4,14)                 1.0136         estimate D2E/DX2                !
 ! R13   R(5,6)                  1.4011         estimate D2E/DX2                !
 ! R14   R(5,15)                 1.092          estimate D2E/DX2                !
 ! R15   R(5,16)                 1.1026         estimate D2E/DX2                !
 ! R16   R(6,17)                 0.9689         estimate D2E/DX2                !
 ! A1    A(2,1,7)              110.5184         estimate D2E/DX2                !
 ! A2    A(2,1,8)              110.2563         estimate D2E/DX2                !
 ! A3    A(2,1,9)              110.5763         estimate D2E/DX2                !
 ! A4    A(7,1,8)              108.5215         estimate D2E/DX2                !
 ! A5    A(7,1,9)              108.3462         estimate D2E/DX2                !
 ! A6    A(8,1,9)              108.5564         estimate D2E/DX2                !
 ! A7    A(1,2,3)              110.3542         estimate D2E/DX2                !
 ! A8    A(1,2,4)              112.8171         estimate D2E/DX2                !
 ! A9    A(1,2,5)              110.0733         estimate D2E/DX2                !
 ! A10   A(3,2,4)              108.1536         estimate D2E/DX2                !
 ! A11   A(3,2,5)              109.7303         estimate D2E/DX2                !
 ! A12   A(4,2,5)              105.573          estimate D2E/DX2                !
 ! A13   A(2,3,10)             110.5637         estimate D2E/DX2                !
 ! A14   A(2,3,11)             110.1973         estimate D2E/DX2                !
 ! A15   A(2,3,12)             109.6861         estimate D2E/DX2                !
 ! A16   A(10,3,11)            108.745          estimate D2E/DX2                !
 ! A17   A(10,3,12)            108.8436         estimate D2E/DX2                !
 ! A18   A(11,3,12)            108.7653         estimate D2E/DX2                !
 ! A19   A(2,4,13)             110.2339         estimate D2E/DX2                !
 ! A20   A(2,4,14)             110.6119         estimate D2E/DX2                !
 ! A21   A(13,4,14)            107.8588         estimate D2E/DX2                !
 ! A22   A(2,5,6)              111.4466         estimate D2E/DX2                !
 ! A23   A(2,5,15)             110.6749         estimate D2E/DX2                !
 ! A24   A(2,5,16)             108.9996         estimate D2E/DX2                !
 ! A25   A(6,5,15)             107.178          estimate D2E/DX2                !
 ! A26   A(6,5,16)             110.1354         estimate D2E/DX2                !
 ! A27   A(15,5,16)            108.3505         estimate D2E/DX2                !
 ! A28   A(5,6,17)             105.8554         estimate D2E/DX2                !
 ! D1    D(7,1,2,3)             61.1371         estimate D2E/DX2                !
 ! D2    D(7,1,2,4)           -177.758          estimate D2E/DX2                !
 ! D3    D(7,1,2,5)            -60.1234         estimate D2E/DX2                !
 ! D4    D(8,1,2,3)            -58.8399         estimate D2E/DX2                !
 ! D5    D(8,1,2,4)             62.2649         estimate D2E/DX2                !
 ! D6    D(8,1,2,5)            179.8995         estimate D2E/DX2                !
 ! D7    D(9,1,2,3)           -178.8977         estimate D2E/DX2                !
 ! D8    D(9,1,2,4)            -57.7928         estimate D2E/DX2                !
 ! D9    D(9,1,2,5)             59.8418         estimate D2E/DX2                !
 ! D10   D(1,2,3,10)            63.5234         estimate D2E/DX2                !
 ! D11   D(1,2,3,11)           -56.7233         estimate D2E/DX2                !
 ! D12   D(1,2,3,12)          -176.4368         estimate D2E/DX2                !
 ! D13   D(4,2,3,10)           -60.32           estimate D2E/DX2                !
 ! D14   D(4,2,3,11)           179.4334         estimate D2E/DX2                !
 ! D15   D(4,2,3,12)            59.7198         estimate D2E/DX2                !
 ! D16   D(5,2,3,10)          -175.0124         estimate D2E/DX2                !
 ! D17   D(5,2,3,11)            64.741          estimate D2E/DX2                !
 ! D18   D(5,2,3,12)           -54.9726         estimate D2E/DX2                !
 ! D19   D(1,2,4,13)            51.1954         estimate D2E/DX2                !
 ! D20   D(1,2,4,14)           -68.0027         estimate D2E/DX2                !
 ! D21   D(3,2,4,13)           173.5436         estimate D2E/DX2                !
 ! D22   D(3,2,4,14)            54.3455         estimate D2E/DX2                !
 ! D23   D(5,2,4,13)           -69.0565         estimate D2E/DX2                !
 ! D24   D(5,2,4,14)           171.7454         estimate D2E/DX2                !
 ! D25   D(1,2,5,6)           -174.4376         estimate D2E/DX2                !
 ! D26   D(1,2,5,15)            66.3927         estimate D2E/DX2                !
 ! D27   D(1,2,5,16)           -52.6737         estimate D2E/DX2                !
 ! D28   D(3,2,5,6)             63.9297         estimate D2E/DX2                !
 ! D29   D(3,2,5,15)           -55.24           estimate D2E/DX2                !
 ! D30   D(3,2,5,16)          -174.3065         estimate D2E/DX2                !
 ! D31   D(4,2,5,6)            -52.4019         estimate D2E/DX2                !
 ! D32   D(4,2,5,15)          -171.5716         estimate D2E/DX2                !
 ! D33   D(4,2,5,16)            69.3619         estimate D2E/DX2                !
 ! D34   D(2,5,6,17)            39.1406         estimate D2E/DX2                !
 ! D35   D(15,5,6,17)          160.3709         estimate D2E/DX2                !
 ! D36   D(16,5,6,17)          -81.9627         estimate D2E/DX2                !
 --------------------------------------------------------------------------------
 Number of steps in this run=     90 maximum allowed number of steps=    102.
 GradGradGradGradGradGradGradGradGradGradGradGradGradGradGradGradGradGrad

                    Distance matrix (angstroms):
                    1          2          3          4          5
     1  C    0.000000
     2  C    1.533920   0.000000
     3  C    2.514079   1.528587   0.000000
     4  N    2.497574   1.463994   2.423701   0.000000
     5  C    2.520673   1.541871   2.511032   2.394296   0.000000
     6  O    3.765084   2.433125   2.954238   2.726536   1.401071
     7  H    1.086755   2.168534   2.768939   3.429992   2.763708
     8  H    1.088803   2.166766   2.747448   2.779369   3.471789
     9  H    1.089175   2.171075   3.465614   2.750709   2.763299
    10  H    2.788240   2.165368   1.088053   2.678016   3.464281
    11  H    2.727392   2.159514   1.086387   3.373427   2.785643
    12  H    3.456604   2.153233   1.086628   2.659468   2.698447
    13  H    2.650762   2.049978   3.319331   1.015349   2.659122
    14  H    2.780224   2.053143   2.584544   1.013585   3.299869
    15  H    2.821721   2.181431   2.721813   3.356695   1.091964
    16  H    2.689424   2.167986   3.461785   2.702071   1.102637
    17  H    3.843660   2.413343   2.985300   2.166065   1.908781
                    6          7          8          9         10
     6  O    0.000000
     7  H    4.087757   0.000000
     8  H    4.582521   1.765866   0.000000
     9  H    4.033157   1.764222   1.768217   0.000000
    10  H    3.912454   3.164793   2.577102   3.775828   0.000000
    11  H    3.388131   2.535456   3.046672   3.738198   1.767431
    12  H    2.584413   3.744239   3.757340   4.294939   1.768716
    13  H    3.112496   3.648042   3.002655   2.480612   3.585787
    14  H    3.631516   3.759234   2.653255   3.150230   2.404208
    15  H    2.014717   2.625358   3.808108   3.191722   3.750870
    16  H    2.059714   3.010024   3.702279   2.474903   4.302587
    17  H    0.968868   4.393912   4.510419   4.078060   3.758452
                   11         12         13         14         15
    11  H    0.000000
    12  H    1.766497   0.000000
    13  H    4.166733   3.619996   0.000000
    14  H    3.596247   2.899927   1.639972   0.000000
    15  H    2.552326   2.971147   3.682445   4.164082   0.000000
    16  H    3.752588   3.735198   2.533703   3.657072   1.779418
    17  H    3.690068   2.546824   2.574437   3.022987   2.782426
                   16         17
    16  H    0.000000
    17  H    2.419506   0.000000
 Framework group  C1[X(C4H11NO)]
 Deg. of freedom    45
                         Standard orientation:                         
 ---------------------------------------------------------------------
 Center     Atomic      Atomic             Coordinates (Angstroms)
 Number     Number       Type             X           Y           Z
 ---------------------------------------------------------------------
      1          6           0       -1.637224   -0.770013   -0.453143
      2          6           0       -0.395573    0.002784    0.009458
      3          6           0       -0.498606    1.470899   -0.403580
      4          7           0       -0.201277   -0.050538    1.459522
      5          6           0        0.874712   -0.621959   -0.601639
      6          8           0        2.035004   -0.017777   -0.099956
      7          1           0       -1.723616   -0.739070   -1.536017
      8          1           0       -2.536041   -0.332316   -0.021819
      9          1           0       -1.576539   -1.812547   -0.143719
     10          1           0       -1.341969    1.948690    0.090699
     11          1           0       -0.633762    1.549481   -1.478659
     12          1           0        0.412755    1.993885   -0.126691
     13          1           0       -0.234854   -1.012331    1.783189
     14          1           0       -0.932837    0.463732    1.936702
     15          1           0        0.885691   -0.490811   -1.685643
     16          1           0        0.884354   -1.702576   -0.382588
     17          1           0        1.865866    0.139586    0.840966
 ---------------------------------------------------------------------
 Rotational constants (GHZ):           4.5743114           2.6997699           2.6653743
   106 basis functions,   194 primitive gaussians,   112 cartesian basis functions
    25 alpha electrons       25 beta electrons
       nuclear repulsion energy       271.4877523992 Hartrees.
 NAtoms=   17 NActive=   17 NUniq=   17 SFac= 1.00D+00 NAtFMM=   60 NAOKFM=F Big=F
 Nuclear repulsion after empirical dispersion term =      271.4774019029 Hartrees.
   1 Symmetry operations used in ECPInt.
 ECPInt:  NShTT=    1711 NPrTT=    6897 LenC2=    1709 LenP2D=    5764.
 LDataN:  DoStor=T MaxTD1= 4 Len=   56
 ExpMin= 1.22D-01 ExpMax= 2.27D+03 ExpMxC= 3.41D+02 IAcc=3 IRadAn=         5 AccDes= 0.00D+00
 Harris functional with IExCor= 4639 and IRadAn=       5 diagonalized for initial guess.
 HarFok:  IExCor= 4639 AccDes= 0.00D+00 IRadAn=         5 IDoV= 1 UseB2=F ITyADJ=14
 ICtDFT=  3500011 ScaDFX=  1.000000  1.000000  1.000000  1.000000
 FoFCou: FMM=F IPFlag=           0 FMFlag=      100000 FMFlg1=           0
         NFxFlg=           0 DoJE=T BraDBF=F KetDBF=T FulRan=T
         wScrn=  0.000000 ICntrl=       500 IOpCl=  0 I1Cent=   200000004 NGrid=           0
         NMat0=    1 NMatS0=      1 NMatT0=    0 NMatD0=    1 NMtDS0=    0 NMtDT0=    0
 Petite list used in FoFCou.
     Minimum is close to point  3 DX=  2.90D-02 DF= -9.73D-05 DXR=  4.61D-02 DFR=  2.12D-03 which will be used.
     Accept linear search using points  2 and  3.
     Minimum is close to point  2 DX=  4.50D-02 DF= -2.41D-06 DXR=  6.04D-02 DFR=  3.66D-03 which will be used.
     Accept linear search using points  1 and  2.
     Minimum is close to point  2 DX= -4.87D-02 DF= -2.61D-07 DXR=  7.47D-02 DFR=  2.28D-03 which will be used.
     Minimum is close to point  2 DX=  5.25D-04 DF= -8.47D-12 DXR=  5.25D-04 DFR=  2.78D-07 which will be used.
 SCF Done:  E(RwB97XD) =  -288.691101304     a.u. after    7 cycles
            Convg  =    0.8186D-09                    32 Fock formations.
              S**2 =  0.0000                  -V/T =  2.0089

 **********************************************************************

            Population analysis using the SCF Density.

 **********************************************************************

 Orbital symmetries:
       Occupied  (A) (A) (A) (A) (A) (A) (A) (A) (A) (A) (A) (A)
                 (A) (A) (A) (A) (A) (A) (A) (A) (A) (A) (A) (A)
                 (A)
       Virtual   (A) (A) (A) (A) (A) (A) (A) (A) (A) (A) (A) (A)
                 (A) (A) (A) (A) (A) (A) (A) (A) (A) (A) (A) (A)
                 (A) (A) (A) (A) (A) (A) (A) (A) (A) (A) (A) (A)
                 (A) (A) (A) (A) (A) (A) (A) (A) (A) (A) (A) (A)
                 (A) (A) (A) (A) (A) (A) (A) (A) (A) (A) (A) (A)
                 (A) (A) (A) (A) (A) (A) (A) (A) (A) (A) (A) (A)
                 (A) (A) (A) (A) (A) (A) (A) (A) (A)
 The electronic state is 1-A.
 Alpha  occ. eigenvalues --  -19.22647 -14.42743 -10.33129 -10.32406 -10.28296
 Alpha  occ. eigenvalues --  -10.27566  -1.09819  -0.99223  -0.85826  -0.78536
 Alpha  occ. eigenvalues --   -0.76012  -0.65977  -0.60234  -0.56271  -0.55111
 Alpha  occ. eigenvalues --   -0.54309  -0.50455  -0.48680  -0.47742  -0.45880
 Alpha  occ. eigenvalues --   -0.45057  -0.42563  -0.39015  -0.34102  -0.33116
 Alpha virt. eigenvalues --    0.11879   0.17117   0.17339   0.18240   0.19669
 Alpha virt. eigenvalues --    0.20637   0.21669   0.23253   0.24334   0.26395
 Alpha virt. eigenvalues --    0.26930   0.29127   0.30397   0.31237   0.32500
 Alpha virt. eigenvalues --    0.35021   0.48392   0.51338   0.54315   0.55561
 Alpha virt. eigenvalues --    0.59752   0.62673   0.65111   0.67731   0.69920
 Alpha virt. eigenvalues --    0.71946   0.73244   0.77176   0.77818   0.78308
 Alpha virt. eigenvalues --    0.78923   0.79396   0.80924   0.82096   0.83196
 Alpha virt. eigenvalues --    0.83904   0.84160   0.84972   0.86528   0.88633
 Alpha virt. eigenvalues --    0.93521   1.02972   1.03803   1.09259   1.14044
 Alpha virt. eigenvalues --    1.20183   1.21839   1.29107   1.35417   1.39617
 Alpha virt. eigenvalues --    1.51932   1.53819   1.66801   1.83218   1.84871
 Alpha virt. eigenvalues --    1.88312   1.92198   1.94567   1.96575   2.08185
 Alpha virt. eigenvalues --    2.10905   2.16181   2.20292   2.23249   2.24478
 Alpha virt. eigenvalues --    2.24995   2.35279   2.37509   2.41580   2.44058
 Alpha virt. eigenvalues --    2.57253   2.66141   2.72545   2.79085   2.80383
 Alpha virt. eigenvalues --    2.83221   2.98035   3.05496   3.11201   3.12813
 Alpha virt. eigenvalues --    3.50032
          Condensed to atoms (all electrons):
 Mulliken charges:
               1
     1  C   -0.240102
     2  C   -0.226389
     3  C   -0.237007
     4  N   -0.505873
     5  C    0.107838
     6  O   -0.498750
     7  H    0.112480
     8  H    0.107920
     9  H    0.105156
    10  H    0.103454
    11  H    0.111660
    12  H    0.127207
    13  H    0.221245
    14  H    0.224357
    15  H    0.094875
    16  H    0.072696
    17  H    0.319233
 Sum of Mulliken charges =   0.00000
 Mulliken charges with hydrogens summed into heavy atoms:
               1
     1  C    0.085454
     2  C   -0.226389
     3  C    0.105315
     4  N   -0.060271
     5  C    0.275409
     6  O   -0.179517
 Electronic spatial extent (au):  <R**2>=            618.9709
 Charge=              0.0000 electrons
 Dipole moment (field-independent basis, Debye):
    X=             -2.8164    Y=             -0.6858    Z=              0.9615  Tot=              3.0540
 Evaluate density.
 Using the total density.
 Monte-Carlo method of calculating molar volume:
 based on  0.001 e/bohr**3 density envelope.
 Number of points per bohr**3 =  100 CutOff= 1.00D-04
 Using the SCF density.
 There are      1716 points.  Will hold      1716 in memory.
 LenV=  1048364945 MDV=  1048576000.
 Box volume = 5053.100 fraction occupied=0.177
 Integrated density= 4.3608640770875667D+01 error=-6.3913592291243333D+00
 Molar volume =  895.188 bohr**3/mol ( 79.886 cm**3/mol)
 Recommended a0 for SCRF calculation =  3.98 angstrom (  7.53 bohr)
   1 Symmetry operations used in ECPInt.
 ECPInt:  NShTT=    1711 NPrTT=    6897 LenC2=    1709 LenP2D=    5764.
 LDataN:  DoStor=T MaxTD1= 5 Len=  102
 Calling FoFJK, ICntrl=      2127 FMM=F ISym2X=0 I1Cent= 0 IOpClX= 0 NMat=1 NMatS=1 NMatT=0.

 GradGradGradGradGradGradGradGradGradGradGradGradGradGradGradGradGradGrad
 FormGI is forming the generalized inverse of G from B-inverse, IUseBI=4.
 Internal  Forces:  Max     0.012069579 RMS     0.003561907
 Step number   1 out of a maximum of   90
 All quantities printed in internal units (Hartrees-Bohrs-Radians)
 Mixed Optimization -- RFO/linear search
 Second derivative matrix not updated -- first step.
 ITU=  0
     Eigenvalues ---    0.00230   0.00317   0.00388   0.00845   0.01678
     Eigenvalues ---    0.04198   0.04547   0.04924   0.05075   0.05579
     Eigenvalues ---    0.05604   0.05651   0.05735   0.05736   0.06050
     Eigenvalues ---    0.11634   0.13914   0.14792   0.15433   0.16000
     Eigenvalues ---    0.16000   0.16000   0.16000   0.16000   0.16000
     Eigenvalues ---    0.16000   0.16000   0.16000   0.22053   0.28354
     Eigenvalues ---    0.29064   0.29554   0.33392   0.34587   0.34908
     Eigenvalues ---    0.34951   0.35039   0.35190   0.35205   0.35234
     Eigenvalues ---    0.36469   0.45088   0.45377   0.45444   0.53609
 Linear search not attempted -- first point.
 Iteration  1 RMS(Cart)=  0.03153939 RMS(Int)=  0.00061525
 Iteration  2 RMS(Cart)=  0.00073207 RMS(Int)=  0.00003685
 Iteration  3 RMS(Cart)=  0.00000044 RMS(Int)=  0.00003685
 Variable       Old X    -DE/DX   Delta X   Delta X   Delta X     New X
                                 (Linear)    (Quad)   (Total)
    R1        2.89869   0.00107   0.00000   0.00365   0.00365   2.90234
    R2        2.05367   0.01207   0.00000   0.03397   0.03397   2.08764
    R3        2.05754   0.01057   0.00000   0.02995   0.02995   2.08749
    R4        2.05824   0.01072   0.00000   0.03042   0.03042   2.08867
    R5        2.88861   0.00191   0.00000   0.00638   0.00638   2.89499
    R6        2.76655   0.00384   0.00000   0.01044   0.01044   2.77699
    R7        2.91371  -0.00127   0.00000  -0.00444  -0.00444   2.90928
    R8        2.05612   0.01159   0.00000   0.03276   0.03276   2.08888
    R9        2.05297   0.01118   0.00000   0.03143   0.03143   2.08441
   R10        2.05343   0.01013   0.00000   0.02851   0.02851   2.08194
   R11        1.91873   0.00555   0.00000   0.01222   0.01222   1.93095
   R12        1.91540   0.00548   0.00000   0.01198   0.01198   1.92738
   R13        2.64764  -0.00219   0.00000  -0.00478  -0.00478   2.64286
   R14        2.06351   0.00741   0.00000   0.02121   0.02121   2.08472
   R15        2.08368   0.00693   0.00000   0.02055   0.02055   2.10423
   R16        1.83089   0.00487   0.00000   0.00903   0.00903   1.83993
    A1        1.92891   0.00218   0.00000   0.01440   0.01436   1.94327
    A2        1.92434   0.00046   0.00000   0.00190   0.00188   1.92622
    A3        1.92992   0.00073   0.00000   0.00437   0.00434   1.93426
    A4        1.89406  -0.00134   0.00000  -0.00794  -0.00796   1.88610
    A5        1.89100  -0.00130   0.00000  -0.00613  -0.00619   1.88481
    A6        1.89467  -0.00086   0.00000  -0.00733  -0.00733   1.88734
    A7        1.92604   0.00014   0.00000   0.00508   0.00508   1.93112
    A8        1.96903   0.00028   0.00000   0.00220   0.00219   1.97122
    A9        1.92114   0.00001   0.00000   0.00020   0.00019   1.92134
   A10        1.88764  -0.00003   0.00000  -0.00035  -0.00036   1.88728
   A11        1.91516   0.00017   0.00000   0.00096   0.00095   1.91611
   A12        1.84260  -0.00059   0.00000  -0.00866  -0.00866   1.83393
   A13        1.92970   0.00080   0.00000   0.00441   0.00439   1.93409
   A14        1.92331   0.00116   0.00000   0.00602   0.00600   1.92931
   A15        1.91438   0.00079   0.00000   0.00637   0.00634   1.92073
   A16        1.89796  -0.00137   0.00000  -0.01136  -0.01136   1.88660
   A17        1.89968  -0.00057   0.00000  -0.00141  -0.00144   1.89824
   A18        1.89831  -0.00087   0.00000  -0.00439  -0.00442   1.89389
   A19        1.92394   0.00093   0.00000   0.00688   0.00683   1.93077
   A20        1.93054   0.00266   0.00000   0.01742   0.01737   1.94791
   A21        1.88249  -0.00162   0.00000  -0.00764  -0.00774   1.87475
   A22        1.94511  -0.00270   0.00000  -0.00883  -0.00879   1.93632
   A23        1.93164   0.00019   0.00000  -0.00429  -0.00432   1.92733
   A24        1.90240  -0.00091   0.00000  -0.00999  -0.01000   1.89240
   A25        1.87061   0.00159   0.00000   0.01245   0.01241   1.88302
   A26        1.92223   0.00282   0.00000   0.02454   0.02451   1.94674
   A27        1.89107  -0.00088   0.00000  -0.01349  -0.01370   1.87738
   A28        1.84753  -0.00327   0.00000  -0.02003  -0.02003   1.82750
    D1        1.06704  -0.00005   0.00000  -0.00077  -0.00079   1.06626
    D2       -3.10246   0.00020   0.00000   0.00393   0.00392  -3.09854
    D3       -1.04935  -0.00036   0.00000  -0.00543  -0.00544  -1.05479
    D4       -1.02695  -0.00009   0.00000  -0.00135  -0.00136  -1.02831
    D5        1.08673   0.00016   0.00000   0.00335   0.00335   1.09007
    D6        3.13984  -0.00040   0.00000  -0.00601  -0.00602   3.13382
    D7       -3.12235   0.00021   0.00000   0.00375   0.00376  -3.11859
    D8       -1.00867   0.00046   0.00000   0.00845   0.00847  -1.00021
    D9        1.04444  -0.00010   0.00000  -0.00091  -0.00090   1.04354
   D10        1.10869  -0.00016   0.00000  -0.00016  -0.00017   1.10852
   D11       -0.99001   0.00029   0.00000   0.00727   0.00727  -0.98273
   D12       -3.07940   0.00015   0.00000   0.00495   0.00495  -3.07446
   D13       -1.05278  -0.00058   0.00000  -0.00594  -0.00595  -1.05873
   D14        3.13170  -0.00013   0.00000   0.00149   0.00150   3.13320
   D15        1.04231  -0.00027   0.00000  -0.00083  -0.00083   1.04148
   D16       -3.05454   0.00006   0.00000   0.00401   0.00401  -3.05054
   D17        1.12994   0.00050   0.00000   0.01144   0.01145   1.14139
   D18       -0.95945   0.00037   0.00000   0.00912   0.00912  -0.95033
   D19        0.89353  -0.00065   0.00000  -0.05139  -0.05136   0.84217
   D20       -1.18687  -0.00092   0.00000  -0.05730  -0.05733  -1.24420
   D21        3.02891  -0.00031   0.00000  -0.04375  -0.04373   2.98518
   D22        0.94851  -0.00058   0.00000  -0.04967  -0.04970   0.89881
   D23       -1.20526  -0.00044   0.00000  -0.04725  -0.04722  -1.25248
   D24        2.99752  -0.00071   0.00000  -0.05317  -0.05319   2.94433
   D25       -3.04451  -0.00040   0.00000  -0.04233  -0.04233  -3.08684
   D26        1.15877  -0.00077   0.00000  -0.04938  -0.04935   1.10942
   D27       -0.91933   0.00076   0.00000  -0.02401  -0.02404  -0.94337
   D28        1.11578  -0.00070   0.00000  -0.04941  -0.04941   1.06637
   D29       -0.96412  -0.00106   0.00000  -0.05647  -0.05643  -1.02055
   D30       -3.04222   0.00047   0.00000  -0.03109  -0.03112  -3.07334
   D31       -0.91459  -0.00042   0.00000  -0.04482  -0.04481  -0.95940
   D32       -2.99449  -0.00078   0.00000  -0.05187  -0.05184  -3.04633
   D33        1.21059   0.00075   0.00000  -0.02650  -0.02652   1.18407
   D34        0.68313  -0.00083   0.00000  -0.02963  -0.02964   0.65349
   D35        2.79900  -0.00118   0.00000  -0.03216  -0.03226   2.76673
   D36       -1.43052   0.00021   0.00000  -0.02782  -0.02771  -1.45823
         Item               Value     Threshold  Converged?
 Maximum Force            0.012070     0.000015     NO 
 RMS     Force            0.003562     0.000010     NO 
 Maximum Displacement     0.131099     0.000060     NO 
 RMS     Displacement     0.031594     0.000040     NO 
 GradGradGradGradGradGradGradGradGradGradGradGradGradGradGradGradGradGrad

                    Distance matrix (angstroms):
                    1          2          3          4          5
     1  C    0.000000
     2  C    1.535850   0.000000
     3  C    2.522870   1.531961   0.000000
     4  N    2.505571   1.469521   2.430571   0.000000
     5  C    2.520498   1.539523   2.512704   2.388840   0.000000
     6  O    3.760026   2.421826   2.916722   2.730594   1.398543
     7  H    1.104731   2.194124   2.797919   3.460669   2.786602
     8  H    1.104652   2.181713   2.765547   2.796996   3.486414
     9  H    1.105274   2.188030   3.489869   2.765227   2.773782
    10  H    2.809115   2.184564   1.105389   2.697842   3.482770
    11  H    2.745811   2.179310   1.103021   3.398386   2.806003
    12  H    3.480395   2.172080   1.101714   2.676666   2.708314
    13  H    2.647566   2.064332   3.332186   1.021817   2.684582
    14  H    2.830394   2.074506   2.586696   1.019924   3.303934
    15  H    2.798911   2.184653   2.749014   3.365118   1.103188
    16  H    2.694187   2.166510   3.470012   2.677414   1.113511
    17  H    3.821029   2.372044   2.896036   2.146922   1.896143
                    6          7          8          9         10
     6  O    0.000000
     7  H    4.096210   0.000000
     8  H    4.588823   1.788170   0.000000
     9  H    4.052922   1.787836   1.789416   0.000000
    10  H    3.896462   3.202807   2.596579   3.811341   0.000000
    11  H    3.361222   2.563601   3.071913   3.774371   1.787707
    12  H    2.541398   3.787634   3.791614   4.332767   1.794164
    13  H    3.172735   3.671229   2.994508   2.477915   3.598664
    14  H    3.616940   3.825759   2.712816   3.212161   2.414233
    15  H    2.029977   2.611547   3.807445   3.170445   3.789935
    16  H    2.083111   3.046090   3.717248   2.478862   4.323267
    17  H    0.973648   4.386485   4.490839   4.093960   3.687275
                   11         12         13         14         15
    11  H    0.000000
    12  H    1.789441   0.000000
    13  H    4.198606   3.652263   0.000000
    14  H    3.621913   2.893634   1.645659   0.000000
    15  H    2.588452   3.019995   3.705159   4.184751   0.000000
    16  H    3.787811   3.748802   2.532809   3.653244   1.788407
    17  H    3.621568   2.442148   2.638092   2.968017   2.787087
                   16         17
    16  H    0.000000
    17  H    2.441675   0.000000
 Framework group  C1[X(C4H11NO)]
 Deg. of freedom    45
                         Standard orientation:                         
 ---------------------------------------------------------------------
 Center     Atomic      Atomic             Coordinates (Angstroms)
 Number     Number       Type             X           Y           Z
 ---------------------------------------------------------------------
      1          6           0       -1.650472   -0.751175   -0.447224
      2          6           0       -0.393399    0.004551    0.008276
      3          6           0       -0.450830    1.468214   -0.440386
      4          7           0       -0.206830   -0.020069    1.465697
      5          6           0        0.865758   -0.668134   -0.568049
      6          8           0        2.025332   -0.036687   -0.106981
      7          1           0       -1.741381   -0.753400   -1.548205
      8          1           0       -2.556546   -0.276923   -0.029644
      9          1           0       -1.623072   -1.801713   -0.104806
     10          1           0       -1.297559    1.992989    0.038723
     11          1           0       -0.582042    1.533032   -1.533655
     12          1           0        0.484493    1.983376   -0.169179
     13          1           0       -0.310913   -0.970616    1.825887
     14          1           0       -0.893971    0.563888    1.942221
     15          1           0        0.863390   -0.609933   -1.669699
     16          1           0        0.848349   -1.745821   -0.288419
     17          1           0        1.828069    0.198369    0.817046
 ---------------------------------------------------------------------
 Rotational constants (GHZ):           4.5354334           2.7078093           2.6695518
   106 basis functions,   194 primitive gaussians,   112 cartesian basis functions
    25 alpha electrons       25 beta electrons
       nuclear repulsion energy       270.8725480411 Hartrees.
 NAtoms=   17 NActive=   17 NUniq=   17 SFac= 1.00D+00 NAtFMM=   60 NAOKFM=F Big=F
 Nuclear repulsion after empirical dispersion term =      270.8622055250 Hartrees.
   1 Symmetry operations used in ECPInt.
 ECPInt:  NShTT=    1711 NPrTT=    6897 LenC2=    1709 LenP2D=    5758.
 LDataN:  DoStor=T MaxTD1= 4 Len=   56
 Initial guess from the checkpoint file:  "monomer.chk"
 B after Tr=    -0.000000    0.000000    0.000000
         Rot=    0.999851    0.014193    0.001781    0.009611 Ang=   1.97 deg.
 ExpMin= 1.22D-01 ExpMax= 2.27D+03 ExpMxC= 3.41D+02 IAcc=3 IRadAn=         5 AccDes= 0.00D+00
 Harris functional with IExCor= 4639 and IRadAn=       5 diagonalized for initial guess.
 HarFok:  IExCor= 4639 AccDes= 0.00D+00 IRadAn=         5 IDoV= 1 UseB2=F ITyADJ=14
 ICtDFT=  3500011 ScaDFX=  1.000000  1.000000  1.000000  1.000000
 FoFCou: FMM=F IPFlag=           0 FMFlag=      100000 FMFlg1=           0
         NFxFlg=           0 DoJE=T BraDBF=F KetDBF=T FulRan=T
         wScrn=  0.000000 ICntrl=       500 IOpCl=  0 I1Cent=   200000004 NGrid=           0
         NMat0=    1 NMatS0=      1 NMatT0=    0 NMatD0=    1 NMtDS0=    0 NMtDT0=    0
 Petite list used in FoFCou.
     Accept linear search using points  3 and  4.
     Minimum is close to point  3 DX=  8.91D-03 DF= -2.36D-08 DXR=  8.03D-03 DFR=  6.46D-05 which will be used.
     Accept linear search using points  1 and  2.
     Accept linear search using points  1 and  2.
     Minimum is close to point  2 DX= -3.46D-02 DF= -7.50D-08 DXR=  3.58D-02 DFR=  1.28D-03 which will be used.
     Accept linear search using points  1 and  2.
     Minimum is close to point  2 DX= -2.00D-05 DF=  0.00D+00 DXR=  2.00D-05 DFR=  0.00D+00 which will be used.
 SCF Done:  E(RwB97XD) =  -288.692732108     a.u. after    7 cycles
            Convg  =    0.2475D-08                    32 Fock formations.
              S**2 =  0.0000                  -V/T =  2.0096
   1 Symmetry operations used in ECPInt.
 ECPInt:  NShTT=    1711 NPrTT=    6897 LenC2=    1709 LenP2D=    5758.
 LDataN:  DoStor=T MaxTD1= 5 Len=  102
 Calling FoFJK, ICntrl=      2127 FMM=F ISym2X=0 I1Cent= 0 IOpClX= 0 NMat=1 NMatS=1 NMatT=0.

 GradGradGradGradGradGradGradGradGradGradGradGradGradGradGradGradGradGrad
 Using GEDIIS/GDIIS optimizer.
 FormGI is forming the generalized inverse of G from B-inverse, IUseBI=4.
 Internal  Forces:  Max     0.002086366 RMS     0.000580482
 Step number   2 out of a maximum of   90
 All quantities printed in internal units (Hartrees-Bohrs-Radians)
 Mixed Optimization -- En-DIIS/RFO-DIIS
 Trust test= 9.14D-01 RLast= 2.13D-01 DXMaxT set to 5.05D-01
 ITU=  1  0
 Use linear search instead of GDIIS.
     Eigenvalues ---    0.00261   0.00317   0.00388   0.00835   0.01730
     Eigenvalues ---    0.04067   0.04476   0.04960   0.05108   0.05476
     Eigenvalues ---    0.05563   0.05584   0.05664   0.05757   0.06119
     Eigenvalues ---    0.11526   0.13944   0.14659   0.15368   0.15634
     Eigenvalues ---    0.16000   0.16000   0.16000   0.16000   0.16000
     Eigenvalues ---    0.16000   0.16000   0.16110   0.22202   0.28344
     Eigenvalues ---    0.28917   0.29561   0.32968   0.34049   0.34741
     Eigenvalues ---    0.34927   0.35005   0.35164   0.35217   0.35330
     Eigenvalues ---    0.36642   0.44880   0.45264   0.45940   0.53343
 Quartic linear search produced a step of -0.03630.
 Iteration  1 RMS(Cart)=  0.07818242 RMS(Int)=  0.00338344
 Iteration  2 RMS(Cart)=  0.00454163 RMS(Int)=  0.00001778
 Iteration  3 RMS(Cart)=  0.00000927 RMS(Int)=  0.00001565
 Iteration  4 RMS(Cart)=  0.00000000 RMS(Int)=  0.00001565
 Variable       Old X    -DE/DX   Delta X   Delta X   Delta X     New X
                                 (Linear)    (Quad)   (Total)
    R1        2.90234  -0.00146  -0.00013  -0.00364  -0.00377   2.89857
    R2        2.08764  -0.00013  -0.00123   0.01115   0.00992   2.09756
    R3        2.08749   0.00010  -0.00109   0.01042   0.00933   2.09682
    R4        2.08867   0.00006  -0.00110   0.01046   0.00936   2.09802
    R5        2.89499  -0.00091  -0.00023  -0.00082  -0.00106   2.89393
    R6        2.77699  -0.00059  -0.00038   0.00196   0.00158   2.77858
    R7        2.90928   0.00090   0.00016   0.00158   0.00174   2.91101
    R8        2.08888   0.00007  -0.00119   0.01128   0.01009   2.09897
    R9        2.08441  -0.00005  -0.00114   0.01050   0.00936   2.09377
   R10        2.08194  -0.00043  -0.00103   0.00848   0.00744   2.08938
   R11        1.93095  -0.00027  -0.00044   0.00355   0.00311   1.93406
   R12        1.92738  -0.00008  -0.00043   0.00389   0.00345   1.93083
   R13        2.64286  -0.00209   0.00017  -0.00608  -0.00590   2.63696
   R14        2.08472   0.00033  -0.00077   0.00811   0.00734   2.09206
   R15        2.10423   0.00034  -0.00075   0.00795   0.00720   2.11143
   R16        1.83993   0.00187  -0.00033   0.00645   0.00612   1.84605
    A1        1.94327   0.00024  -0.00052   0.00630   0.00577   1.94904
    A2        1.92622   0.00053  -0.00007   0.00398   0.00390   1.93012
    A3        1.93426   0.00020  -0.00016   0.00245   0.00229   1.93655
    A4        1.88610  -0.00036   0.00029  -0.00453  -0.00426   1.88184
    A5        1.88481  -0.00027   0.00022  -0.00404  -0.00382   1.88099
    A6        1.88734  -0.00038   0.00027  -0.00480  -0.00453   1.88281
    A7        1.93112  -0.00050  -0.00018  -0.00147  -0.00167   1.92945
    A8        1.97122   0.00048  -0.00008   0.00264   0.00256   1.97377
    A9        1.92134   0.00008  -0.00001   0.00327   0.00326   1.92459
   A10        1.88728  -0.00033   0.00001  -0.00538  -0.00535   1.88192
   A11        1.91611   0.00068  -0.00003   0.00611   0.00606   1.92217
   A12        1.83393  -0.00039   0.00031  -0.00521  -0.00489   1.82905
   A13        1.93409   0.00010  -0.00016   0.00207   0.00190   1.93600
   A14        1.92931   0.00007  -0.00022   0.00155   0.00133   1.93064
   A15        1.92073   0.00085  -0.00023   0.00818   0.00793   1.92866
   A16        1.88660  -0.00029   0.00041  -0.00729  -0.00688   1.87972
   A17        1.89824  -0.00031   0.00005  -0.00068  -0.00065   1.89760
   A18        1.89389  -0.00047   0.00016  -0.00427  -0.00412   1.88977
   A19        1.93077   0.00014  -0.00025   0.00349   0.00324   1.93401
   A20        1.94791  -0.00021  -0.00063   0.00496   0.00432   1.95224
   A21        1.87475   0.00010   0.00028  -0.00132  -0.00105   1.87371
   A22        1.93632   0.00104   0.00032   0.00278   0.00306   1.93938
   A23        1.92733  -0.00062   0.00016  -0.00150  -0.00142   1.92591
   A24        1.89240   0.00021   0.00036  -0.00537  -0.00503   1.88737
   A25        1.88302   0.00076  -0.00045   0.01754   0.01706   1.90009
   A26        1.94674  -0.00124  -0.00089  -0.00419  -0.00507   1.94168
   A27        1.87738  -0.00020   0.00050  -0.00963  -0.00913   1.86824
   A28        1.82750  -0.00084   0.00073  -0.01182  -0.01109   1.81641
    D1        1.06626   0.00035   0.00003  -0.00076  -0.00073   1.06553
    D2       -3.09854  -0.00010  -0.00014  -0.00692  -0.00706  -3.10560
    D3       -1.05479  -0.00023   0.00020  -0.00963  -0.00943  -1.06422
    D4       -1.02831   0.00030   0.00005  -0.00183  -0.00179  -1.03010
    D5        1.09007  -0.00015  -0.00012  -0.00799  -0.00812   1.08195
    D6        3.13382  -0.00028   0.00022  -0.01071  -0.01049   3.12334
    D7       -3.11859   0.00031  -0.00014  -0.00001  -0.00015  -3.11874
    D8       -1.00021  -0.00015  -0.00031  -0.00617  -0.00648  -1.00669
    D9        1.04354  -0.00028   0.00003  -0.00888  -0.00884   1.03470
   D10        1.10852  -0.00025   0.00001  -0.01186  -0.01186   1.09666
   D11       -0.98273  -0.00000  -0.00026  -0.00510  -0.00535  -0.98809
   D12       -3.07446  -0.00001  -0.00018  -0.00602  -0.00619  -3.08065
   D13       -1.05873  -0.00031   0.00022  -0.01056  -0.01036  -1.06910
   D14        3.13320  -0.00006  -0.00005  -0.00380  -0.00386   3.12934
   D15        1.04148  -0.00006   0.00003  -0.00472  -0.00470   1.03678
   D16       -3.05054  -0.00002  -0.00015  -0.00467  -0.00482  -3.05535
   D17        1.14139   0.00023  -0.00042   0.00210   0.00169   1.14308
   D18       -0.95033   0.00022  -0.00033   0.00117   0.00085  -0.94948
   D19        0.84217   0.00002   0.00186  -0.03688  -0.03501   0.80716
   D20       -1.24420  -0.00006   0.00208  -0.04081  -0.03873  -1.28294
   D21        2.98518  -0.00053   0.00159  -0.04084  -0.03926   2.94592
   D22        0.89881  -0.00061   0.00180  -0.04477  -0.04298   0.85582
   D23       -1.25248  -0.00010   0.00171  -0.03897  -0.03724  -1.28973
   D24        2.94433  -0.00018   0.00193  -0.04291  -0.04097   2.90336
   D25       -3.08684   0.00097   0.00154   0.15063   0.15218  -2.93466
   D26        1.10942  -0.00024   0.00179   0.12788   0.12969   1.23911
   D27       -0.94337   0.00023   0.00087   0.14358   0.14446  -0.79891
   D28        1.06637   0.00109   0.00179   0.14632   0.14810   1.21448
   D29       -1.02055  -0.00012   0.00205   0.12357   0.12562  -0.89494
   D30       -3.07334   0.00035   0.00113   0.13927   0.14038  -2.93296
   D31       -0.95940   0.00136   0.00163   0.15245   0.15407  -0.80533
   D32       -3.04633   0.00015   0.00188   0.12970   0.13159  -2.91474
   D33        1.18407   0.00062   0.00096   0.14540   0.14636   1.33042
   D34        0.65349   0.00040   0.00108   0.01007   0.01110   0.66459
   D35        2.76673   0.00075   0.00117   0.02116   0.02240   2.78913
   D36       -1.45823   0.00026   0.00101   0.01786   0.01884  -1.43939
         Item               Value     Threshold  Converged?
 Maximum Force            0.002086     0.000015     NO 
 RMS     Force            0.000580     0.000010     NO 
 Maximum Displacement     0.337870     0.000060     NO 
 RMS     Displacement     0.078252     0.000040     NO 
 GradGradGradGradGradGradGradGradGradGradGradGradGradGradGradGradGradGrad

                    Distance matrix (angstroms):
                    1          2          3          4          5
     1  C    0.000000
     2  C    1.533856   0.000000
     3  C    2.519316   1.531403   0.000000
     4  N    2.506703   1.470359   2.426063   0.000000
     5  C    2.522483   1.540443   2.518344   2.385758   0.000000
     6  O    3.749592   2.422627   3.010392   2.645990   1.395419
     7  H    1.109980   2.200506   2.800929   3.469064   2.800632
     8  H    1.109590   2.186520   2.767891   2.800380   3.494144
     9  H    1.110225   2.191673   3.492451   2.773561   2.776141
    10  H    2.803949   2.189489   1.110728   2.700881   3.493032
    11  H    2.747805   2.183518   1.107974   3.400367   2.816749
    12  H    3.484519   2.180325   1.105652   2.677192   2.723520
    13  H    2.640216   2.068508   3.328624   1.023463   2.702640
    14  H    2.853748   2.079531   2.567514   1.021752   3.301303
    15  H    2.865453   2.187342   2.700379   3.356791   1.107070
    16  H    2.630871   2.166339   3.466406   2.748537   1.117321
    17  H    3.766092   2.367766   3.039654   2.028830   1.887966
                    6          7          8          9         10
     6  O    0.000000
     7  H    4.136992   0.000000
     8  H    4.585495   1.793636   0.000000
     9  H    3.997755   1.793589   1.794466   0.000000
    10  H    3.975125   3.200042   2.592282   3.813355   0.000000
    11  H    3.495503   2.568059   3.080902   3.781362   1.791549
    12  H    2.670149   3.798869   3.798698   4.344113   1.801289
    13  H    3.068892   3.675976   2.975512   2.477971   3.590076
    14  H    3.541567   3.849741   2.741070   3.250099   2.402068
    15  H    2.042524   2.700324   3.865753   3.263746   3.758529
    16  H    2.079848   2.953052   3.674420   2.415731   4.326578
    17  H    0.976888   4.387859   4.446993   3.968043   3.810725
                   11         12         13         14         15
    11  H    0.000000
    12  H    1.793990   0.000000
    13  H    4.203242   3.661838   0.000000
    14  H    3.614099   2.863518   1.647825   0.000000
    15  H    2.545638   2.942208   3.745910   4.171187   0.000000
    16  H    3.751537   3.787785   2.635377   3.720654   1.788593
    17  H    3.789983   2.673542   2.449496   2.876301   2.796869
                   16         17
    16  H    0.000000
    17  H    2.424207   0.000000
 Framework group  C1[X(C4H11NO)]
 Deg. of freedom    45
                         Standard orientation:                         
 ---------------------------------------------------------------------
 Center     Atomic      Atomic             Coordinates (Angstroms)
 Number     Number       Type             X           Y           Z
 ---------------------------------------------------------------------
      1          6           0       -1.621110   -0.842280   -0.358140
      2          6           0       -0.392625    0.001278    0.005106
      3          6           0       -0.580118    1.449863   -0.454940
      4          7           0       -0.112331    0.020061    1.448379
      5          6           0        0.874341   -0.598200   -0.633945
      6          8           0        2.027316   -0.014144   -0.107901
      7          1           0       -1.789400   -0.870236   -1.454932
      8          1           0       -2.534227   -0.425722    0.115027
      9          1           0       -1.502252   -1.888700   -0.006748
     10          1           0       -1.439262    1.923442    0.065935
     11          1           0       -0.782254    1.490427   -1.543564
     12          1           0        0.330278    2.042516   -0.249011
     13          1           0       -0.162021   -0.923892    1.840755
     14          1           0       -0.782967    0.597905    1.958594
     15          1           0        0.862735   -0.443352   -1.730071
     16          1           0        0.863391   -1.701682   -0.458981
     17          1           0        1.820839    0.108054    0.839066
 ---------------------------------------------------------------------
 Rotational constants (GHZ):           4.5398022           2.7068890           2.6646434
   106 basis functions,   194 primitive gaussians,   112 cartesian basis functions
    25 alpha electrons       25 beta electrons
       nuclear repulsion energy       270.7928362523 Hartrees.
 NAtoms=   17 NActive=   17 NUniq=   17 SFac= 1.00D+00 NAtFMM=   60 NAOKFM=F Big=F
 Nuclear repulsion after empirical dispersion term =      270.7825122458 Hartrees.
   1 Symmetry operations used in ECPInt.
 ECPInt:  NShTT=    1711 NPrTT=    6897 LenC2=    1709 LenP2D=    5752.
 LDataN:  DoStor=T MaxTD1= 4 Len=   56
 Initial guess from the checkpoint file:  "monomer.chk"
 B after Tr=    -0.000000   -0.000000   -0.000000
         Rot=    0.999569    0.005620   -0.018784   -0.021837 Ang=   3.36 deg.
 ExpMin= 1.22D-01 ExpMax= 2.27D+03 ExpMxC= 3.41D+02 IAcc=3 IRadAn=         5 AccDes= 0.00D+00
 Harris functional with IExCor= 4639 and IRadAn=       5 diagonalized for initial guess.
 HarFok:  IExCor= 4639 AccDes= 0.00D+00 IRadAn=         5 IDoV= 1 UseB2=F ITyADJ=14
 ICtDFT=  3500011 ScaDFX=  1.000000  1.000000  1.000000  1.000000
 FoFCou: FMM=F IPFlag=           0 FMFlag=      100000 FMFlg1=           0
         NFxFlg=           0 DoJE=T BraDBF=F KetDBF=T FulRan=T
         wScrn=  0.000000 ICntrl=       500 IOpCl=  0 I1Cent=   200000004 NGrid=           0
         NMat0=    1 NMatS0=      1 NMatT0=    0 NMatD0=    1 NMtDS0=    0 NMtDT0=    0
 Petite list used in FoFCou.
     Minimum is close to point  4 DX=  7.99D-02 DF= -2.87D-05 DXR=  6.24D-02 DFR=  3.92D-03 which will be used.
     Accept linear search using points  2 and  3.
     Accept linear search using points  1 and  2.
     Minimum is close to point  2 DX= -7.95D-02 DF= -4.58D-06 DXR=  7.79D-02 DFR=  7.12D-03 which will be used.
     Accept linear search using points  1 and  2.
     Accept linear search using points  1 and  2.
     Accept linear search using points  1 and  2.
     Minimum is close to point  2 DX= -3.70D-04 DF= -9.04D-12 DXR=  3.70D-04 DFR=  1.37D-07 which will be used.
 SCF Done:  E(RwB97XD) =  -288.692172496     a.u. after    9 cycles
            Convg  =    0.2464D-08                    36 Fock formations.
              S**2 =  0.0000                  -V/T =  2.0098
   1 Symmetry operations used in ECPInt.
 ECPInt:  NShTT=    1711 NPrTT=    6897 LenC2=    1709 LenP2D=    5752.
 LDataN:  DoStor=T MaxTD1= 5 Len=  102
 Calling FoFJK, ICntrl=      2127 FMM=F ISym2X=0 I1Cent= 0 IOpClX= 0 NMat=1 NMatS=1 NMatT=0.

 GradGradGradGradGradGradGradGradGradGradGradGradGradGradGradGradGradGrad
 Using GEDIIS/GDIIS optimizer.
 FormGI is forming the generalized inverse of G from B-inverse, IUseBI=4.
 Internal  Forces:  Max     0.003338999 RMS     0.001348716
 Step number   3 out of a maximum of   90
 All quantities printed in internal units (Hartrees-Bohrs-Radians)
 Mixed Optimization -- RFO/linear search
 Trust test=-1.09D+00 RLast= 4.40D-01 DXMaxT set to 2.52D-01
 ITU= -1  1  0
 Use linear search instead of GDIIS.
     Eigenvalues ---    0.00317   0.00387   0.00626   0.00893   0.02267
     Eigenvalues ---    0.04033   0.04410   0.05057   0.05415   0.05443
     Eigenvalues ---    0.05540   0.05552   0.05619   0.05790   0.06352
     Eigenvalues ---    0.11529   0.14091   0.15260   0.15497   0.15688
     Eigenvalues ---    0.16000   0.16000   0.16000   0.16000   0.16000
     Eigenvalues ---    0.16000   0.16040   0.16351   0.22036   0.28162
     Eigenvalues ---    0.28832   0.29510   0.33285   0.34570   0.34925
     Eigenvalues ---    0.34978   0.35059   0.35201   0.35225   0.36008
     Eigenvalues ---    0.36569   0.44683   0.45197   0.45692   0.52974
 Quartic linear search produced a step of -0.69156.
 Iteration  1 RMS(Cart)=  0.05076130 RMS(Int)=  0.00144041
 Iteration  2 RMS(Cart)=  0.00187619 RMS(Int)=  0.00001205
 Iteration  3 RMS(Cart)=  0.00000150 RMS(Int)=  0.00001194
 Iteration  4 RMS(Cart)=  0.00000000 RMS(Int)=  0.00001194
 Variable       Old X    -DE/DX   Delta X   Delta X   Delta X     New X
                                 (Linear)    (Quad)   (Total)
    R1        2.89857  -0.00142   0.00261  -0.00581  -0.00321   2.89536
    R2        2.09756  -0.00334  -0.00686  -0.00195  -0.00881   2.08875
    R3        2.09682  -0.00295  -0.00645  -0.00120  -0.00765   2.08917
    R4        2.09802  -0.00306  -0.00647  -0.00140  -0.00787   2.09015
    R5        2.89393  -0.00127   0.00073  -0.00380  -0.00307   2.89087
    R6        2.77858   0.00019  -0.00109  -0.00088  -0.00197   2.77660
    R7        2.91101   0.00311  -0.00120   0.00601   0.00481   2.91582
    R8        2.09897  -0.00315  -0.00698  -0.00135  -0.00833   2.09064
    R9        2.09377  -0.00311  -0.00647  -0.00165  -0.00812   2.08565
   R10        2.08938  -0.00239  -0.00515  -0.00208  -0.00723   2.08215
   R11        1.93406  -0.00111  -0.00215  -0.00083  -0.00298   1.93109
   R12        1.93083  -0.00187  -0.00239  -0.00097  -0.00336   1.92747
   R13        2.63696  -0.00149   0.00408  -0.00525  -0.00117   2.63579
   R14        2.09206  -0.00214  -0.00507  -0.00025  -0.00533   2.08673
   R15        2.11143  -0.00131  -0.00498   0.00047  -0.00451   2.10692
   R16        1.84605  -0.00020  -0.00423   0.00332  -0.00092   1.84514
    A1        1.94904  -0.00075  -0.00399   0.00014  -0.00385   1.94519
    A2        1.93012   0.00025  -0.00270   0.00383   0.00114   1.93126
    A3        1.93655   0.00011  -0.00158   0.00135  -0.00023   1.93632
    A4        1.88184   0.00021   0.00294  -0.00172   0.00123   1.88307
    A5        1.88099   0.00019   0.00264  -0.00210   0.00055   1.88153
    A6        1.88281   0.00002   0.00313  -0.00178   0.00135   1.88416
    A7        1.92945   0.00077   0.00115  -0.00240  -0.00123   1.92822
    A8        1.97377  -0.00191  -0.00177  -0.00320  -0.00497   1.96881
    A9        1.92459   0.00041  -0.00225   0.00329   0.00105   1.92564
   A10        1.88192   0.00076   0.00370  -0.00253   0.00115   1.88308
   A11        1.92217  -0.00141  -0.00419   0.00329  -0.00090   1.92127
   A12        1.82905   0.00135   0.00338   0.00182   0.00519   1.83424
   A13        1.93600   0.00035  -0.00132   0.00147   0.00016   1.93615
   A14        1.93064  -0.00001  -0.00092  -0.00006  -0.00097   1.92967
   A15        1.92866  -0.00113  -0.00548   0.00331  -0.00217   1.92649
   A16        1.87972   0.00002   0.00476  -0.00305   0.00170   1.88143
   A17        1.89760   0.00029   0.00045  -0.00000   0.00046   1.89806
   A18        1.88977   0.00052   0.00285  -0.00190   0.00095   1.89073
   A19        1.93401  -0.00062  -0.00224  -0.00046  -0.00270   1.93131
   A20        1.95224  -0.00028  -0.00299  -0.00131  -0.00430   1.94794
   A21        1.87371   0.00015   0.00072   0.00003   0.00075   1.87445
   A22        1.93938   0.00087  -0.00212   0.00613   0.00403   1.94341
   A23        1.92591   0.00075   0.00098  -0.00063   0.00041   1.92632
   A24        1.88737  -0.00047   0.00348  -0.00041   0.00307   1.89045
   A25        1.90009  -0.00238  -0.01180   0.00374  -0.00804   1.89204
   A26        1.94168   0.00125   0.00350  -0.00399  -0.00051   1.94117
   A27        1.86824  -0.00001   0.00632  -0.00534   0.00098   1.86922
   A28        1.81641   0.00111   0.00767  -0.00326   0.00441   1.82082
    D1        1.06553  -0.00026   0.00050   0.00646   0.00696   1.07249
    D2       -3.10560  -0.00005   0.00489  -0.00076   0.00413  -3.10147
    D3       -1.06422   0.00072   0.00652   0.00170   0.00822  -1.05600
    D4       -1.03010  -0.00020   0.00124   0.00596   0.00719  -1.02291
    D5        1.08195   0.00001   0.00562  -0.00126   0.00437   1.08632
    D6        3.12334   0.00078   0.00725   0.00120   0.00845   3.13179
    D7       -3.11874  -0.00046   0.00010   0.00481   0.00490  -3.11384
    D8       -1.00669  -0.00025   0.00448  -0.00241   0.00208  -1.00461
    D9        1.03470   0.00052   0.00612   0.00005   0.00616   1.04086
   D10        1.09666  -0.00032   0.00820  -0.00970  -0.00150   1.09516
   D11       -0.98809  -0.00057   0.00370  -0.00680  -0.00310  -0.99119
   D12       -3.08065  -0.00048   0.00428  -0.00653  -0.00226  -3.08291
   D13       -1.06910   0.00105   0.00717  -0.00248   0.00470  -1.06439
   D14        3.12934   0.00081   0.00267   0.00043   0.00310   3.13244
   D15        1.03678   0.00089   0.00325   0.00069   0.00394   1.04072
   D16       -3.05535  -0.00023   0.00333  -0.00494  -0.00161  -3.05696
   D17        1.14308  -0.00048  -0.00117  -0.00204  -0.00321   1.13988
   D18       -0.94948  -0.00039  -0.00059  -0.00177  -0.00237  -0.95184
   D19        0.80716  -0.00073   0.02421  -0.04343  -0.01923   0.78793
   D20       -1.28294  -0.00032   0.02679  -0.04228  -0.01550  -1.29844
   D21        2.94592  -0.00047   0.02715  -0.05036  -0.02321   2.92271
   D22        0.85582  -0.00005   0.02973  -0.04921  -0.01948   0.83634
   D23       -1.28973  -0.00106   0.02576  -0.04686  -0.02110  -1.31083
   D24        2.90336  -0.00064   0.02833  -0.04571  -0.01738   2.88599
   D25       -2.93466  -0.00204  -0.10524   0.00961  -0.09565  -3.03031
   D26        1.23911  -0.00013  -0.08969   0.00125  -0.08845   1.15066
   D27       -0.79891  -0.00025  -0.09990   0.00825  -0.09165  -0.89057
   D28        1.21448  -0.00235  -0.10242   0.00823  -0.09419   1.12028
   D29       -0.89494  -0.00043  -0.08687  -0.00013  -0.08700  -0.98193
   D30       -2.93296  -0.00056  -0.09708   0.00687  -0.09020  -3.02316
   D31       -0.80533  -0.00329  -0.10655   0.00866  -0.09790  -0.90322
   D32       -2.91474  -0.00137  -0.09100   0.00030  -0.09070  -3.00544
   D33        1.33042  -0.00150  -0.10121   0.00730  -0.09390   1.23652
   D34        0.66459  -0.00144  -0.00767  -0.00994  -0.01758   0.64700
   D35        2.78913  -0.00153  -0.01549  -0.00431  -0.01985   2.76928
   D36       -1.43939  -0.00228  -0.01303  -0.01089  -0.02390  -1.46329
         Item               Value     Threshold  Converged?
 Maximum Force            0.003339     0.000015     NO 
 RMS     Force            0.001349     0.000010     NO 
 Maximum Displacement     0.217708     0.000060     NO 
 RMS     Displacement     0.050745     0.000040     NO 
 GradGradGradGradGradGradGradGradGradGradGradGradGradGradGradGradGradGrad

                    Distance matrix (angstroms):
                    1          2          3          4          5
     1  C    0.000000
     2  C    1.532159   0.000000
     3  C    2.515513   1.529781   0.000000
     4  N    2.500295   1.469314   2.424921   0.000000
     5  C    2.524104   1.542986   2.518313   2.391747   0.000000
     6  O    3.759508   2.427603   2.960117   2.709178   1.394800
     7  H    1.105320   2.192694   2.794929   3.457867   2.792706
     8  H    1.105540   2.182799   2.760044   2.794191   3.492802
     9  H    1.106062   2.186859   3.485033   2.763249   2.778282
    10  H    2.797608   2.184840   1.106321   2.696077   3.489724
    11  H    2.742764   2.178143   1.103676   3.394698   2.811693
    12  H    3.476641   2.174446   1.101828   2.674749   2.720219
    13  H    2.622609   2.064569   3.322690   1.021887   2.716867
    14  H    2.849765   2.074376   2.554813   1.019975   3.301531
    15  H    2.823575   2.187768   2.738429   3.366012   1.104252
    16  H    2.674965   2.169118   3.471953   2.706948   1.114936
    17  H    3.801773   2.371160   2.948750   2.109387   1.890177
                    6          7          8          9         10
     6  O    0.000000
     7  H    4.112636   0.000000
     8  H    4.593288   1.787397   0.000000
     9  H    4.036385   1.786819   1.788707   0.000000
    10  H    3.936251   3.193302   2.584372   3.802243   0.000000
    11  H    3.415544   2.563824   3.070393   3.773176   1.785631
    12  H    2.602711   3.788411   3.787271   4.333058   1.794895
    13  H    3.174522   3.654915   2.954179   2.457889   3.575884
    14  H    3.581898   3.839871   2.739743   3.245551   2.388052
    15  H    2.034080   2.642379   3.829475   3.204391   3.783248
    16  H    2.077096   3.013932   3.705891   2.460553   4.326957
    17  H    0.976404   4.386377   4.477801   4.051504   3.736156
                   11         12         13         14         15
    11  H    0.000000
    12  H    1.788023   0.000000
    13  H    4.192698   3.659534   0.000000
    14  H    3.598187   2.846516   1.645576   0.000000
    15  H    2.578336   3.003775   3.739729   4.177593   0.000000
    16  H    3.777479   3.769688   2.598827   3.686459   1.785057
    17  H    3.680755   2.529285   2.610133   2.919498   2.789245
                   16         17
    16  H    0.000000
    17  H    2.434259   0.000000
 Framework group  C1[X(C4H11NO)]
 Deg. of freedom    45
                         Standard orientation:                         
 ---------------------------------------------------------------------
 Center     Atomic      Atomic             Coordinates (Angstroms)
 Number     Number       Type             X           Y           Z
 ---------------------------------------------------------------------
      1          6           0       -1.634386   -0.804683   -0.390325
      2          6           0       -0.392640    0.001269    0.004669
      3          6           0       -0.506187    1.440972   -0.499902
      4          7           0       -0.182366    0.047584    1.458121
      5          6           0        0.879588   -0.660780   -0.564483
      6          8           0        2.032524   -0.027850   -0.100152
      7          1           0       -1.748371   -0.859354   -1.488392
      8          1           0       -2.548455   -0.340377    0.023335
      9          1           0       -1.573173   -1.839547   -0.004731
     10          1           0       -1.366018    1.956946   -0.032562
     11          1           0       -0.656236    1.457853   -1.593200
     12          1           0        0.412843    2.002596   -0.267549
     13          1           0       -0.306484   -0.879337    1.870025
     14          1           0       -0.845031    0.675006    1.913715
     15          1           0        0.876483   -0.614111   -1.667744
     16          1           0        0.869655   -1.739284   -0.281971
     17          1           0        1.822895    0.208653    0.823691
 ---------------------------------------------------------------------
 Rotational constants (GHZ):           4.5447229           2.7021635           2.6616140
   106 basis functions,   194 primitive gaussians,   112 cartesian basis functions
    25 alpha electrons       25 beta electrons
       nuclear repulsion energy       270.8275656908 Hartrees.
 NAtoms=   17 NActive=   17 NUniq=   17 SFac= 1.00D+00 NAtFMM=   60 NAOKFM=F Big=F
 Nuclear repulsion after empirical dispersion term =      270.8172333687 Hartrees.
   1 Symmetry operations used in ECPInt.
 ECPInt:  NShTT=    1711 NPrTT=    6897 LenC2=    1709 LenP2D=    5758.
 LDataN:  DoStor=T MaxTD1= 4 Len=   56
 Lowest energy guess from the checkpoint file:  "monomer.chk"
 B after Tr=     0.000000   -0.000000   -0.000000
         Rot=    0.999716    0.021246   -0.004702   -0.009712 Ang=   2.73 deg.
 B after Tr=     0.000000    0.000000    0.000000
         Rot=    0.999706    0.015524    0.014457    0.011721 Ang=   2.78 deg.
     Minimum is close to point  4 DX=  3.34D-02 DF= -2.22D-07 DXR=  2.71D-02 DFR=  7.34D-04 which will be used.
     Accept linear search using points  1 and  2.
     Minimum is close to point  2 DX= -1.07D-04 DF= -5.12D-13 DXR=  1.07D-04 DFR=  1.09D-08 which will be used.
 SCF Done:  E(RwB97XD) =  -288.692945832     a.u. after    5 cycles
            Convg  =    0.2278D-08                    29 Fock formations.
              S**2 =  0.0000                  -V/T =  2.0096
   1 Symmetry operations used in ECPInt.
 ECPInt:  NShTT=    1711 NPrTT=    6897 LenC2=    1709 LenP2D=    5758.
 LDataN:  DoStor=T MaxTD1= 5 Len=  102
 Calling FoFJK, ICntrl=      2127 FMM=F ISym2X=0 I1Cent= 0 IOpClX= 0 NMat=1 NMatS=1 NMatT=0.

 GradGradGradGradGradGradGradGradGradGradGradGradGradGradGradGradGradGrad
 Using GEDIIS/GDIIS optimizer.
 FormGI is forming the generalized inverse of G from B-inverse, IUseBI=4.
 Internal  Forces:  Max     0.001763256 RMS     0.000329669
 Step number   4 out of a maximum of   90
 All quantities printed in internal units (Hartrees-Bohrs-Radians)
 Mixed Optimization -- En-DIIS/RFO-DIIS
 Trust test= 8.97D-01 RLast= 2.10D-01 DXMaxT set to 4.24D-01
 ITU=  1 -1  1  0
 Use linear search instead of GDIIS.
     Eigenvalues ---    0.00316   0.00385   0.00481   0.00865   0.02260
     Eigenvalues ---    0.04084   0.04500   0.05242   0.05449   0.05488
     Eigenvalues ---    0.05532   0.05618   0.05704   0.05850   0.06437
     Eigenvalues ---    0.11673   0.14116   0.15206   0.15472   0.15693
     Eigenvalues ---    0.16000   0.16000   0.16000   0.16000   0.16000
     Eigenvalues ---    0.16029   0.16117   0.16418   0.23906   0.28610
     Eigenvalues ---    0.29449   0.30633   0.33327   0.34569   0.34926
     Eigenvalues ---    0.34991   0.35114   0.35212   0.35269   0.36371
     Eigenvalues ---    0.36924   0.44037   0.45158   0.45562   0.52905
 Quartic linear search produced a step of -0.01506.
 Iteration  1 RMS(Cart)=  0.00866882 RMS(Int)=  0.00007536
 Iteration  2 RMS(Cart)=  0.00007998 RMS(Int)=  0.00000327
 Iteration  3 RMS(Cart)=  0.00000001 RMS(Int)=  0.00000327
 Variable       Old X    -DE/DX   Delta X   Delta X   Delta X     New X
                                 (Linear)    (Quad)   (Total)
    R1        2.89536  -0.00006   0.00011  -0.00157  -0.00147   2.89389
    R2        2.08875  -0.00039  -0.00002  -0.00081  -0.00083   2.08792
    R3        2.08917  -0.00047  -0.00003  -0.00096  -0.00099   2.08818
    R4        2.09015  -0.00037  -0.00002  -0.00070  -0.00072   2.08943
    R5        2.89087   0.00001   0.00006  -0.00076  -0.00070   2.89016
    R6        2.77660   0.00052   0.00001   0.00137   0.00138   2.77798
    R7        2.91582  -0.00098  -0.00010  -0.00213  -0.00223   2.91360
    R8        2.09064  -0.00047  -0.00003  -0.00093  -0.00095   2.08969
    R9        2.08565  -0.00039  -0.00002  -0.00080  -0.00082   2.08483
   R10        2.08215  -0.00010  -0.00000  -0.00019  -0.00019   2.08196
   R11        1.93109  -0.00032  -0.00000  -0.00065  -0.00066   1.93043
   R12        1.92747  -0.00029  -0.00000  -0.00059  -0.00059   1.92688
   R13        2.63579  -0.00066   0.00011  -0.00283  -0.00273   2.63306
   R14        2.08673  -0.00017  -0.00003  -0.00005  -0.00008   2.08665
   R15        2.10692  -0.00018  -0.00004   0.00004  -0.00000   2.10692
   R16        1.84514   0.00013  -0.00008   0.00126   0.00118   1.84632
    A1        1.94519   0.00002  -0.00003   0.00039   0.00036   1.94555
    A2        1.93126  -0.00014  -0.00008   0.00025   0.00017   1.93143
    A3        1.93632   0.00011  -0.00003   0.00110   0.00107   1.93739
    A4        1.88307   0.00006   0.00005  -0.00027  -0.00022   1.88285
    A5        1.88153  -0.00009   0.00005  -0.00138  -0.00133   1.88021
    A6        1.88416   0.00004   0.00005  -0.00018  -0.00013   1.88403
    A7        1.92822   0.00020   0.00004   0.00264   0.00268   1.93090
    A8        1.96881   0.00011   0.00004   0.00251   0.00254   1.97135
    A9        1.92564   0.00004  -0.00006   0.00011   0.00005   1.92569
   A10        1.88308   0.00011   0.00006   0.00097   0.00102   1.88409
   A11        1.92127  -0.00031  -0.00008  -0.00324  -0.00332   1.91795
   A12        1.83424  -0.00018  -0.00000  -0.00339  -0.00339   1.83085
   A13        1.93615  -0.00003  -0.00003   0.00042   0.00039   1.93655
   A14        1.92967   0.00014  -0.00001   0.00102   0.00102   1.93068
   A15        1.92649  -0.00016  -0.00009  -0.00020  -0.00029   1.92620
   A16        1.88143   0.00001   0.00008  -0.00043  -0.00035   1.88107
   A17        1.89806   0.00008   0.00000   0.00029   0.00029   1.89834
   A18        1.89073  -0.00003   0.00005  -0.00115  -0.00110   1.88962
   A19        1.93131   0.00041  -0.00001   0.00363   0.00362   1.93493
   A20        1.94794  -0.00010  -0.00000   0.00041   0.00041   1.94835
   A21        1.87445  -0.00000   0.00000   0.00179   0.00179   1.87624
   A22        1.94341  -0.00176  -0.00011  -0.00721  -0.00732   1.93609
   A23        1.92632   0.00026   0.00002  -0.00043  -0.00042   1.92590
   A24        1.89045   0.00024   0.00003   0.00047   0.00051   1.89096
   A25        1.89204   0.00058  -0.00014   0.00288   0.00273   1.89477
   A26        1.94117   0.00081   0.00008   0.00404   0.00412   1.94528
   A27        1.86922  -0.00006   0.00012   0.00054   0.00066   1.86988
   A28        1.82082  -0.00007   0.00010  -0.00178  -0.00167   1.81915
    D1        1.07249  -0.00018  -0.00009  -0.00014  -0.00024   1.07225
    D2       -3.10147   0.00017   0.00004   0.00470   0.00474  -3.09673
    D3       -1.05600   0.00004   0.00002   0.00210   0.00212  -1.05388
    D4       -1.02291  -0.00018  -0.00008  -0.00023  -0.00031  -1.02322
    D5        1.08632   0.00018   0.00006   0.00461   0.00467   1.09099
    D6        3.13179   0.00005   0.00003   0.00202   0.00205   3.13383
    D7       -3.11384  -0.00021  -0.00007  -0.00088  -0.00096  -3.11479
    D8       -1.00461   0.00015   0.00007   0.00396   0.00403  -1.00058
    D9        1.04086   0.00002   0.00004   0.00137   0.00141   1.04226
   D10        1.09516   0.00014   0.00020  -0.00135  -0.00114   1.09402
   D11       -0.99119   0.00007   0.00013  -0.00175  -0.00162  -0.99281
   D12       -3.08291   0.00012   0.00013  -0.00084  -0.00071  -3.08362
   D13       -1.06439  -0.00019   0.00009  -0.00679  -0.00671  -1.07110
   D14        3.13244  -0.00027   0.00001  -0.00719  -0.00718   3.12526
   D15        1.04072  -0.00021   0.00001  -0.00629  -0.00628   1.03445
   D16       -3.05696   0.00012   0.00010  -0.00163  -0.00153  -3.05849
   D17        1.13988   0.00005   0.00002  -0.00203  -0.00201   1.13787
   D18       -0.95184   0.00010   0.00002  -0.00112  -0.00110  -0.95294
   D19        0.78793  -0.00014   0.00082  -0.02332  -0.02250   0.76543
   D20       -1.29844  -0.00034   0.00082  -0.02828  -0.02746  -1.32590
   D21        2.92271   0.00026   0.00094  -0.01768  -0.01673   2.90598
   D22        0.83634   0.00006   0.00094  -0.02264  -0.02170   0.81464
   D23       -1.31083  -0.00013   0.00088  -0.02266  -0.02178  -1.33261
   D24        2.88599  -0.00034   0.00088  -0.02762  -0.02675   2.85924
   D25       -3.03031  -0.00009  -0.00085   0.00620   0.00535  -3.02497
   D26        1.15066   0.00017  -0.00062   0.00762   0.00700   1.15766
   D27       -0.89057  -0.00005  -0.00080   0.00693   0.00614  -0.88443
   D28        1.12028  -0.00017  -0.00081   0.00497   0.00416   1.12445
   D29       -0.98193   0.00009  -0.00058   0.00640   0.00582  -0.97612
   D30       -3.02316  -0.00013  -0.00076   0.00571   0.00496  -3.01820
   D31       -0.90322  -0.00005  -0.00085   0.00721   0.00637  -0.89685
   D32       -3.00544   0.00021  -0.00062   0.00864   0.00802  -2.99742
   D33        1.23652  -0.00001  -0.00079   0.00795   0.00716   1.24369
   D34        0.64700   0.00002   0.00010  -0.00082  -0.00072   0.64628
   D35        2.76928  -0.00039  -0.00004  -0.00400  -0.00405   2.76523
   D36       -1.46329   0.00036   0.00008   0.00075   0.00084  -1.46245
         Item               Value     Threshold  Converged?
 Maximum Force            0.001763     0.000015     NO 
 RMS     Force            0.000330     0.000010     NO 
 Maximum Displacement     0.044868     0.000060     NO 
 RMS     Displacement     0.008684     0.000040     NO 
 GradGradGradGradGradGradGradGradGradGradGradGradGradGradGradGradGradGrad

                    Distance matrix (angstroms):
                    1          2          3          4          5
     1  C    0.000000
     2  C    1.531382   0.000000
     3  C    2.516906   1.529409   0.000000
     4  N    2.502348   1.470042   2.426096   0.000000
     5  C    2.522542   1.541809   2.514116   2.388262   0.000000
     6  O    3.752520   2.419393   2.949430   2.692356   1.393357
     7  H    1.104880   2.191933   2.796928   3.459154   2.790477
     8  H    1.105017   2.181845   2.762154   2.798558   3.490822
     9  H    1.105680   2.186658   3.485986   2.764757   2.778340
    10  H    2.799255   2.184415   1.105817   2.700537   3.486022
    11  H    2.746403   2.178227   1.103243   3.395769   2.806752
    12  H    3.477153   2.173834   1.101726   2.672741   2.715600
    13  H    2.620708   2.067414   3.323107   1.021540   2.726591
    14  H    2.864852   2.075063   2.548080   1.019661   3.295358
    15  H    2.825103   2.186394   2.730402   3.362772   1.104209
    16  H    2.671268   2.168473   3.468700   2.707039   1.114935
    17  H    3.788348   2.358873   2.937728   2.085137   1.888197
                    6          7          8          9         10
     6  O    0.000000
     7  H    4.108297   0.000000
     8  H    4.584541   1.786473   0.000000
     9  H    4.030742   1.785290   1.787888   0.000000
    10  H    3.924574   3.194803   2.587505   3.803909   0.000000
    11  H    3.406880   2.568941   3.074717   3.776044   1.784643
    12  H    2.590777   3.790094   3.788634   4.332867   1.794588
    13  H    3.174452   3.654143   2.948193   2.457342   3.574041
    14  H    3.553785   3.852108   2.761171   3.263492   2.387400
    15  H    2.034769   2.643787   3.829124   3.209243   3.775553
    16  H    2.078714   3.006899   3.702983   2.458715   4.324937
    17  H    0.977030   4.376379   4.462350   4.038394   3.722925
                   11         12         13         14         15
    11  H    0.000000
    12  H    1.786877   0.000000
    13  H    4.194413   3.660049   0.000000
    14  H    3.594828   2.828446   1.646124   0.000000
    15  H    2.568747   2.994431   3.749469   4.171289   0.000000
    16  H    3.772088   3.766482   2.614145   3.689214   1.785455
    17  H    3.672273   2.520639   2.601697   2.882026   2.788706
                   16         17
    16  H    0.000000
    17  H    2.434802   0.000000
 Framework group  C1[X(C4H11NO)]
 Deg. of freedom    45
                         Standard orientation:                         
 ---------------------------------------------------------------------
 Center     Atomic      Atomic             Coordinates (Angstroms)
 Number     Number       Type             X           Y           Z
 ---------------------------------------------------------------------
      1          6           0       -1.638963   -0.799521   -0.382942
      2          6           0       -0.392967    0.001771    0.005075
      3          6           0       -0.499385    1.441587   -0.499600
      4          7           0       -0.169215    0.046086    1.457313
      5          6           0        0.872896   -0.663771   -0.570964
      6          8           0        2.023775   -0.033262   -0.102585
      7          1           0       -1.758416   -0.855503   -1.479918
      8          1           0       -2.549016   -0.331492    0.033969
      9          1           0       -1.580746   -1.834161    0.002621
     10          1           0       -1.354476    1.962866   -0.030643
     11          1           0       -0.651667    1.460091   -1.592126
     12          1           0        0.423725    1.997475   -0.270127
     13          1           0       -0.311894   -0.874873    1.875669
     14          1           0       -0.808808    0.693924    1.916589
     15          1           0        0.866810   -0.610176   -1.673854
     16          1           0        0.858281   -1.743776   -0.294459
     17          1           0        1.811018    0.198718    0.822352
 ---------------------------------------------------------------------
 Rotational constants (GHZ):           4.5448678           2.7130146           2.6729370
   106 basis functions,   194 primitive gaussians,   112 cartesian basis functions
    25 alpha electrons       25 beta electrons
       nuclear repulsion energy       271.0925098533 Hartrees.
 NAtoms=   17 NActive=   17 NUniq=   17 SFac= 1.00D+00 NAtFMM=   60 NAOKFM=F Big=F
 Nuclear repulsion after empirical dispersion term =      271.0821787159 Hartrees.
   1 Symmetry operations used in ECPInt.
 ECPInt:  NShTT=    1711 NPrTT=    6897 LenC2=    1709 LenP2D=    5759.
 LDataN:  DoStor=T MaxTD1= 4 Len=   56
 Initial guess from the checkpoint file:  "monomer.chk"
 B after Tr=     0.000000    0.000000   -0.000000
         Rot=    0.999996    0.000121   -0.002047    0.002106 Ang=   0.34 deg.
 ExpMin= 1.22D-01 ExpMax= 2.27D+03 ExpMxC= 3.41D+02 IAcc=3 IRadAn=         5 AccDes= 0.00D+00
 Harris functional with IExCor= 4639 and IRadAn=       5 diagonalized for initial guess.
 HarFok:  IExCor= 4639 AccDes= 0.00D+00 IRadAn=         5 IDoV= 1 UseB2=F ITyADJ=14
 ICtDFT=  3500011 ScaDFX=  1.000000  1.000000  1.000000  1.000000
 FoFCou: FMM=F IPFlag=           0 FMFlag=      100000 FMFlg1=           0
         NFxFlg=           0 DoJE=T BraDBF=F KetDBF=T FulRan=T
         wScrn=  0.000000 ICntrl=       500 IOpCl=  0 I1Cent=   200000004 NGrid=           0
         NMat0=    1 NMatS0=      1 NMatT0=    0 NMatD0=    1 NMtDS0=    0 NMtDT0=    0
 Petite list used in FoFCou.
     Minimum is close to point  4 DX=  4.66D-02 DF= -1.58D-07 DXR=  3.74D-02 DFR=  1.40D-03 which will be used.
     Accept linear search using points  1 and  2.
     Minimum is close to point  2 DX= -1.34D-04 DF= -7.96D-13 DXR=  1.34D-04 DFR=  1.77D-08 which will be used.
 SCF Done:  E(RwB97XD) =  -288.692970263     a.u. after    4 cycles
            Convg  =    0.2004D-08                    26 Fock formations.
              S**2 =  0.0000                  -V/T =  2.0096
   1 Symmetry operations used in ECPInt.
 ECPInt:  NShTT=    1711 NPrTT=    6897 LenC2=    1709 LenP2D=    5759.
 LDataN:  DoStor=T MaxTD1= 5 Len=  102
 Calling FoFJK, ICntrl=      2127 FMM=F ISym2X=0 I1Cent= 0 IOpClX= 0 NMat=1 NMatS=1 NMatT=0.

 GradGradGradGradGradGradGradGradGradGradGradGradGradGradGradGradGradGrad
 Using GEDIIS/GDIIS optimizer.
 FormGI is forming the generalized inverse of G from B-inverse, IUseBI=4.
 Internal  Forces:  Max     0.000894065 RMS     0.000161219
 Step number   5 out of a maximum of   90
 All quantities printed in internal units (Hartrees-Bohrs-Radians)
 Mixed Optimization -- En-DIIS/RFO-DIIS
 Swapping is turned off.
 Trust test= 8.48D-01 RLast= 6.28D-02 DXMaxT set to 4.24D-01
 ITU=  1  1 -1  1  0
     Eigenvalues ---    0.00314   0.00379   0.00437   0.00836   0.02289
     Eigenvalues ---    0.03993   0.04499   0.05326   0.05442   0.05498
     Eigenvalues ---    0.05519   0.05617   0.05669   0.05845   0.06703
     Eigenvalues ---    0.11657   0.14071   0.15148   0.15390   0.15748
     Eigenvalues ---    0.15981   0.16000   0.16000   0.16000   0.16000
     Eigenvalues ---    0.16095   0.16168   0.16571   0.24437   0.28959
     Eigenvalues ---    0.29681   0.33167   0.34405   0.34834   0.34867
     Eigenvalues ---    0.35010   0.35095   0.35183   0.35221   0.36129
     Eigenvalues ---    0.37446   0.44904   0.45290   0.45489   0.52929
 En-DIIS/RFO-DIIS/Sim-DIIS IScMMF=       -3 using points:     5    4
 RFO step:  Lambda=-8.86548860D-06.
 DidBck=F Rises=F RFO-DIIS coefs:    1.17235   -0.17235
 Iteration  1 RMS(Cart)=  0.00227917 RMS(Int)=  0.00000426
 Iteration  2 RMS(Cart)=  0.00000427 RMS(Int)=  0.00000086
[...]
   aniso      0.126221D+01      0.187040D+00      0.208110D+00
   xx         0.525759D+02      0.779095D+01      0.866860D+01
   yx         0.306907D+00      0.454789D-01      0.506021D-01
   yy         0.538154D+02      0.797461D+01      0.887295D+01
   zx        -0.203557D+00     -0.301641D-01     -0.335621D-01
   zy         0.549591D-01      0.814410D-02      0.906153D-02
   zz         0.533541D+02      0.790626D+01      0.879690D+01

 ----------------------------------------------------------------------
 1\1\GINC-C200\Freq\RwB97XD\def2SVPP\C4H11N1O1\PETERCHAO1\29-Mar-2024\0
 \\#T Geom=AllCheck Guess=TCheck SCRF=Check GenChk RwB97XD/def2SVPP Fre
 q\\Monomer\\0,1\C,-1.6686351766,-0.8391748437,-0.4011038216\C,-0.44239
 92261,-0.0081914937,-0.0114612974\C,-0.5523408772,1.4109885858,-0.5717
 172076\N,-0.2584392839,0.0918595073,1.44367203\C,0.8462719426,-0.67871
 28675,-0.5318200243\O,1.9787209796,-0.0157691892,-0.0619356885\H,-1.75
 71770709,-0.9368167629,-1.4979246033\H,-2.5946011298,-0.3676644677,-0.
 0257954474\H,-1.6075269903,-1.857804149,0.0239914826\H,-1.4258886697,1
 .9380217178,-0.1456262294\H,-0.6739068181,1.3867215872,-1.6677470758\H
 ,0.3580787413,1.9854931275,-0.3377866145\H,-0.4069973915,-0.8127652664
 ,1.8935635541\H,-0.9107195648,0.7547043469,1.8613397553\H,0.866404262,
 -0.6663834356,-1.6355777639\H,0.838515183,-1.7471170301,-0.2143102059\
 H,1.7431339398,0.2433994612,0.8500263873\\Version=ES64L-G16RevB.01\Sta
 te=1-A\HF=-288.6929754\RMSD=4.984e-10\RMSF=5.170e-07\ZeroPoint=0.15545
 78\Thermal=0.1627431\Dipole=-1.1719959,-0.154693,0.3999993\DipoleDeriv
 =-0.0484907,-0.0583956,-0.0619024,-0.0516799,0.0044785,-0.0413827,-0.0
 050617,0.0066933,-0.011829,0.2645234,0.0787289,-0.02259,0.1321529,0.19
 19495,0.001444,0.124938,0.0509228,0.4939322,0.0056555,-0.0377438,-0.03
 11379,-0.0401802,-0.0455973,0.04274,-0.0112926,-0.0099726,0.0088571,-0
 .6089233,-0.1109771,-0.1576184,-0.0695844,-0.3196852,-0.0772145,-0.132
 5442,-0.089872,-0.6711324,0.5725028,0.1887603,0.1594354,0.0984907,0.50
 43273,0.029034,0.0838566,0.0620884,0.3278517,-0.9518819,-0.1499698,-0.
 1457435,-0.0682361,-0.616491,-0.0806163,-0.1437245,-0.08727,-0.4703251
 ,0.0497874,-0.0157998,0.0011784,-0.0223863,0.0637082,-0.0090123,-0.046
 4853,-0.0356502,-0.1351146,-0.0939157,0.0339301,0.0363837,0.086602,0.0
 147716,-0.0457288,0.0758695,-0.0406227,0.0397441,0.0415368,0.0247402,-
 0.0304894,-0.0260804,-0.1207927,0.0625885,-0.0119776,0.0935317,0.02746
 74,-0.0729119,0.107971,0.066783,0.0627087,-0.0118949,-0.0028928,0.0901
 07,-0.0435432,0.0209717,0.0757604,0.0126021,-0.0216007,-0.0005208,0.04
 9113,-0.0364743,-0.0235143,0.0219709,-0.1174824,-0.013885,-0.102619,-0
 .0231311,-0.0590662,0.0185182,-0.0005435,-0.0392564,-0.0253974,0.06591
 35,0.2461872,-0.0494453,0.1030155,-0.0157591,0.0332161,0.070683,0.0308
 951,0.0102197,0.1496068,0.0955968,0.1354402,0.1250006,0.0633311,0.1700
 062,0.0157023,0.0207462,0.018514,0.15874,0.0182089,-0.0045424,-0.01001
 7,-0.0192916,0.0371544,0.0267861,-0.0042996,-0.0278449,-0.1591302,-0.0
 385477,-0.0270334,-0.0099551,-0.0153346,-0.2604926,0.0298839,0.0007807
 ,0.0982666,-0.0051523,0.4587971,-0.0256465,0.022389,-0.0551658,0.28771
 07,0.0150033,-0.0090368,-0.0020342,0.2770815\Polar=53.3899291,0.026850
 4,53.7272405,-0.1106315,0.4484483,52.6281899\Quadrupole=-3.798036,1.13
 03193,2.6677167,-0.3806656,-0.2489571,-0.1291557\PG=C01 [X(C4H11N1O1)]
 \NImag=0\\0.52372285,-0.04560498,0.55688166,-0.02280229,-0.01531496,0.
 58323390,-0.15916986,-0.04879874,-0.01243468,0.52375303,-0.04942228,-0
 .11723486,-0.01034283,0.00248036,0.55624219,-0.01906787,-0.01474944,-0
 .08288273,0.00497566,-0.00446554,0.51628598,0.00025006,-0.02835170,0.0
 1023663,-0.08302022,0.00756587,-0.00425505,0.59658758,-0.00258389,-0.0
 2386265,0.00560164,0.00419472,-0.18452930,0.04336796,0.00972515,0.5035
 2112,0.00208955,-0.00483169,0.00442502,-0.00079713,0.03324242,-0.09406
 772,0.00136345,0.03471973,0.58767668,-0.00226273,-0.00369615,-0.036474
 09,-0.07266922,0.00837354,0.00755235,0.00046048,0.00090368,-0.00492660
 ,0.30433943,-0.00222370,-0.00060676,-0.02202633,0.00945409,-0.10546345
 ,-0.00617718,0.00479505,-0.00180025,0.04074121,-0.13740359,0.66639406,
 -0.00627604,-0.00394241,-0.02926603,-0.04089576,-0.01745698,-0.2069289
 2,-0.00153206,0.00387123,-0.02819402,-0.12977873,-0.03006383,0.5350583
 8,-0.02897246,0.00616779,0.00443138,-0.13292584,0.04265093,0.03468733,
 -0.00358492,0.01084590,-0.00109097,-0.00723769,0.00065782,0.01007096,0
 .47561104,-0.01713642,0.00852776,0.00737921,0.03844021,-0.10618360,-0.
 01553908,0.03010304,-0.02126538,-0.01082872,0.00140326,-0.00238964,-0.
 00478099,0.02549321,0.56886275,-0.00660554,0.00486390,0.00578634,0.019
 92282,-0.01051400,-0.08577227,-0.00918138,0.00414148,0.00503518,0.0271
 4525,-0.02621705,-0.03366994,0.01562915,-0.00745017,0.65566002,-0.0060
 4070,0.00602017,0.00518516,-0.04695169,-0.02189944,-0.01355504,0.00066
 374,-0.00182768,-0.00005895,-0.00203318,-0.00079270,0.00094017,-0.2082
 4702,-0.06826003,-0.02128437,0.35146714,0.00167289,0.00002451,-0.00024
 453,0.00167160,0.00564127,0.00226765,-0.00004610,-0.00186391,0.0004895
 7,0.00321863,0.00413465,-0.00310639,-0.08976260,-0.12364015,-0.0294556
 1,0.10057739,0.17536167,0.00138349,-0.00000109,0.00144054,-0.00132229,
 0.00262876,-0.00148593,-0.00024265,-0.00073644,0.00130712,0.01279835,-
 0.00140937,-0.00333202,-0.06297881,-0.04147568,-0.11829540,-0.04243660
 ,0.16662568,0.51087544,-0.05099934,-0.00181067,-0.01783467,0.00195286,
 0.00106079,-0.02506836,0.00066534,0.00084606,-0.00016811,-0.00498980,-
 0.00389709,-0.00420896,0.00004691,0.00013300,-0.00089816,0.00063378,0.
 00040818,0.00092413,0.05023192,-0.00175671,-0.05111835,-0.02070612,0.0
 0238785,-0.00104732,-0.01664169,0.00040347,0.00039766,-0.00079094,-0.0
 0478229,-0.00153337,-0.00277799,0.00040224,0.00033497,-0.00003308,0.00
 018176,-0.00014715,0.00031417,0.00405948,0.04941326,-0.01961180,-0.022
 17064,-0.31244670,0.00185445,0.00132744,-0.00734823,0.00041371,0.00060
 347,0.00022373,-0.00333725,-0.00188147,-0.00051217,0.00052866,-0.00005
 838,-0.00043144,-0.00033166,0.00009464,0.00063222,0.02210512,0.0244129
 3,0.33404167,-0.23178208,0.09722866,0.07648431,-0.02321845,0.01321369,
 0.01111340,0.00091475,0.00147715,-0.00005693,0.00332679,0.00020154,0.0
 0041857,-0.00110411,-0.00473738,-0.00279441,-0.00262005,0.00009279,-0.
 00012469,0.00393697,-0.00260022,-0.00190516,0.25036818,0.09831691,-0.0
 9913999,-0.04034291,-0.01710044,0.00763880,0.00712902,-0.00081619,0.00
 141094,0.00040944,0.00102129,0.00062122,0.00166242,-0.00123818,-0.0027
 9510,-0.00132172,-0.00172416,0.00063180,-0.00015659,0.00059551,-0.0012
 3575,0.00028133,-0.10287657,0.10272032,0.07744638,-0.03973928,-0.08011
 262,-0.00823488,0.00374617,0.00141077,0.00033022,0.00031286,-0.0000584
 1,0.00049821,0.00115473,0.00147669,-0.00097050,-0.00074789,-0.00063594
 ,-0.00072495,-0.00014261,0.00039974,0.02640772,-0.01358502,-0.00745133
 ,-0.08229950,0.04407588,0.07978262,-0.04974157,0.01728935,-0.00763275,
 0.00211401,-0.02449533,0.01126505,-0.00425803,-0.00187477,-0.00158370,
 0.00109128,0.00091577,0.00208145,0.00074980,-0.00212318,0.00042682,0.0
 0038266,0.00073337,0.00002140,-0.00106936,0.00179494,-0.00037081,-0.00
 004484,0.02310727,-0.01206477,0.05127832,0.01621336,-0.27122960,0.0945
 0176,0.00255356,-0.01645876,0.00834735,-0.00446286,-0.00111470,-0.0019
 6873,0.00087729,0.00173118,0.00023010,0.00159082,-0.00038000,-0.000282
 20,-0.00006211,0.00078371,-0.00039628,-0.00056480,0.00506073,-0.002374
 24,-0.00083815,-0.00994346,0.00501469,-0.01472785,0.29143686,-0.006256
 36,0.09506038,-0.08966111,0.00017265,-0.00835764,0.00105614,-0.0010194
 0,-0.00080460,-0.00013238,0.00093791,-0.00105126,0.00168159,0.00027489
 ,0.00074080,-0.00007009,0.00006598,-0.00040050,-0.00013364,-0.00212065
 ,0.02903357,-0.00868124,-0.00020276,-0.01140757,0.00463246,0.00869236,
 -0.10248964,0.09044360,0.00080175,-0.00077262,-0.00047466,-0.00251350,
 -0.00040659,0.00127150,-0.21485696,0.09755768,0.08196430,0.00052961,-0
 .00042918,-0.00027736,0.00047055,-0.00026072,-0.00082848,0.00003067,0.
 00119457,-0.00015171,-0.00003438,-0.00006485,-0.00010170,0.00035392,0.
 00003795,0.00018778,0.00009997,0.00009324,-0.00011388,0.22670859,0.001
 38003,0.00123731,-0.00042170,0.02577081,-0.01453273,-0.01355911,0.0962
 6414,-0.10524634,-0.04777981,-0.00077327,0.00142610,-0.00192768,-0.002
 32050,-0.00629236,0.00296579,0.00013867,0.00147943,0.00026522,-0.00002
 978,-0.00007019,0.00004092,-0.00097257,-0.00034725,0.00018302,-0.00020
 782,0.00038187,0.00018098,-0.10751611,0.11402020,-0.00030898,-0.000602
 15,-0.00004880,-0.01019505,0.00595101,0.00287507,0.08201681,-0.0490208
 5,-0.08978293,-0.00083169,0.00058436,0.00170596,-0.00022209,0.00192838
 ,-0.00098387,0.00001546,0.00020880,0.00012362,0.00013454,-0.00003402,-
 0.00001125,-0.00002223,-0.00026977,0.00017539,-0.00020276,-0.00004529,
 -0.00004368,-0.08923483,0.05053246,0.09125605,-0.00002020,-0.00034058,
 0.00049245,-0.00230696,-0.00048752,-0.00171594,-0.05190237,-0.00100251
 ,-0.02979345,0.00032746,0.00112162,-0.00012028,0.00014119,-0.00004562,
 -0.00135126,-0.00042670,0.00031576,0.00053932,0.00013709,-0.00046636,0
 .00004959,-0.00003974,0.00006190,0.00014040,-0.00011545,0.00013117,-0.
 00005326,0.00442916,-0.00054806,0.02545241,0.04885570,0.00019561,0.000
 89393,0.00057540,0.00324601,0.00368072,0.02951623,-0.00116007,-0.04900
 893,-0.01156316,0.00071584,-0.00655200,0.00297331,-0.00042959,0.001337
 63,0.00110768,0.00001148,-0.00004872,-0.00036672,-0.00042045,-0.000666
 41,-0.00022875,-0.00007190,-0.00004148,-0.00011140,0.00021966,0.000309
 82,-0.00020143,-0.00324195,-0.00066471,-0.01432658,0.00040666,0.051538
 15,-0.00014567,-0.00086484,0.00024643,-0.00119968,-0.00366992,-0.01091
 881,-0.02974874,-0.00730283,-0.31635367,-0.00002987,0.00369058,-0.0003
 2997,0.00048484,-0.00094504,-0.00006014,-0.00025699,0.00040933,0.00028
 085,0.00028297,0.00031646,0.00055676,-0.00004368,0.00008578,-0.0000854
 4,0.00001057,-0.00002082,0.00036396,-0.00236550,0.00041298,-0.00882002
 ,0.03240562,0.00741409,0.33766866,0.00044195,0.00017853,0.00025776,0.0
 0344952,0.00126689,0.00025473,-0.23866106,-0.11943930,-0.04891166,0.00
 031584,0.00063836,0.00027790,-0.00030958,0.00022722,0.00057218,-0.0013
 2817,0.00165986,-0.00000013,-0.00004507,0.00009141,-0.00004931,0.00029
 100,0.00017061,-0.00011977,0.00018532,0.00013755,-0.00011984,-0.016248
 38,-0.01253726,-0.00615048,0.00014382,0.00053184,0.00088931,0.25219268
 ,0.00191175,-0.00548770,0.00310547,-0.02652315,-0.01573641,-0.00833430
 ,-0.11599177,-0.12031034,-0.03063674,0.00070501,0.00229730,-0.00110377
 ,-0.00286172,-0.00086386,-0.00117714,0.00102892,0.00235404,0.00030416,
 0.00026206,0.00018548,-0.00001260,0.00004095,0.00017281,0.00015493,-0.
 00157327,-0.00121716,-0.00024961,0.01341133,0.00916218,0.00484373,0.00
 099230,-0.00030593,0.00050586,0.12752944,0.13023021,-0.00046631,0.0017
 8992,-0.00073745,0.01096619,0.00568422,0.00193511,-0.04911783,-0.03191
 083,-0.06299773,0.00042520,-0.00024627,0.00083973,-0.00038520,-0.00073
 050,0.00020033,-0.00008239,0.00034596,-0.00060119,0.00010956,0.0002187
 4,0.00027351,-0.00026575,-0.00001952,-0.00008200,0.00032537,0.00052078
 ,0.00059196,0.01085449,0.00840034,0.00279427,-0.02595282,-0.01616261,-
 0.00342675,0.05368993,0.03151140,0.06134197,0.00035630,0.00176737,0.00
 078502,-0.00281725,0.00464087,-0.00813995,-0.00020797,0.00016716,-0.00
 117655,-0.03274568,-0.06994184,0.05208100,0.00061846,-0.00191920,0.001
 00682,-0.00176595,0.00164103,-0.00021376,0.00021605,0.00007735,0.00056
 995,-0.00041995,0.00018601,-0.00024340,0.00018470,-0.00059099,-0.00044
 688,0.00016323,-0.00026549,-0.00003179,0.00079573,0.00024548,-0.000145
 01,0.00019283,0.00030904,-0.00010177,0.03288659,-0.00000390,0.00193242
 ,-0.00222634,-0.00168834,0.00252070,-0.00315505,0.00001073,0.00123361,
 0.00017128,-0.02962598,-0.34917017,0.14155361,-0.00013873,0.00135556,0
 .00013549,-0.00030920,-0.00019285,-0.00009905,-0.00028792,-0.00013856,
 -0.00030303,0.00013967,-0.00015504,0.00024528,0.00034355,-0.00008661,0
 .00013314,-0.00019209,0.00019961,-0.00019408,-0.00007040,0.00018582,0.
 00002722,0.00008357,0.00011813,-0.00023088,0.04176891,0.36332480,0.000
 17909,0.00145778,0.00218566,0.00603766,0.03658218,-0.01553595,-0.00052
 129,-0.00218779,-0.00737771,0.03050080,0.12886805,-0.12418848,0.000044
 47,0.00159261,0.00050562,-0.00042777,-0.00035311,-0.00022099,0.0006066
 5,-0.00005280,0.00062151,-0.00019258,-0.00017817,-0.00005973,-0.000715
 99,-0.00129192,-0.00030789,-0.00022268,-0.00014313,0.00023208,-0.00018
 145,0.00207965,-0.00066856,0.00013816,-0.00024623,0.00015208,-0.032233
 53,-0.14885127,0.13596701,0.00149381,-0.00073432,-0.00129450,-0.001101
 59,-0.00668550,-0.00727832,0.00124902,-0.00053615,-0.00059976,-0.18903
 198,0.19474165,0.11813546,-0.00102756,-0.00066889,0.00094509,-0.000237
 02,0.00027854,0.00280552,-0.00057008,0.00010070,0.00000636,-0.00034309
 ,0.00034513,-0.00002324,-0.00002716,-0.00000267,-0.00001577,0.00002954
 ,0.00001604,0.00016582,-0.00014929,-0.00009813,-0.00024711,-0.00052871
 ,-0.00011828,0.00049903,0.00187099,-0.00952596,-0.00374272,0.18595776,
 0.00035344,-0.00066155,0.00048631,0.00158782,-0.00090711,-0.00145814,-
 0.00131594,0.00158887,0.00188490,0.15600165,-0.20379086,-0.08494086,-0
 .00168200,0.00039787,0.00052077,-0.00069902,0.00014452,0.00167658,-0.0
 0019939,0.00031210,0.00027598,-0.00046311,0.00001666,-0.00041715,0.000
 05972,-0.00008492,-0.00010856,0.00079529,0.00024962,0.00018773,-0.0001
 7838,-0.00048244,-0.00009579,-0.00044594,-0.00011269,0.00011067,0.0236
 5010,-0.02019134,-0.01578683,-0.17879025,0.22243590,0.00058669,0.00009
 974,0.00028103,0.02731896,-0.02496099,-0.01489139,0.00133452,-0.001170
 15,0.00138360,0.09557973,-0.08539820,-0.11443994,-0.00270110,0.0002595
 5,-0.00777967,-0.00069157,0.00016684,0.00129904,-0.00022234,0.00028264
 ,0.00019369,-0.00082713,-0.00018072,0.00008449,-0.00008316,0.00009735,
 -0.00002818,-0.00098865,0.00129509,-0.00052347,-0.00041719,-0.00015033
 ,0.00064257,0.00004547,0.00013299,-0.00004981,-0.01290830,0.01195628,0
 .00858420,-0.10831318,0.09806815,0.12608103,0.00055760,-0.00008118,0.0
 0023762,0.00277822,-0.00303980,0.02452791,0.00100863,-0.00081282,0.000
 26745,-0.00340617,0.00470158,0.00319440,-0.05109042,0.00092076,0.01848
 591,-0.00361390,-0.00781670,-0.03670354,-0.00069461,-0.00008730,-0.000
 24057,0.00016398,0.00007643,-0.00029884,-0.00012094,0.00007798,-0.0000
 1413,0.00009866,-0.00031787,-0.00011530,-0.00018396,0.00041833,-0.0003
 4879,-0.00011579,0.00027160,-0.00004621,-0.00002773,-0.00005374,-0.000
 12390,-0.00036474,-0.00026185,0.00169901,0.05895138,-0.00048553,-0.000
 18869,0.00022689,0.00093196,-0.00002419,-0.01434639,-0.00029817,0.0004
 5000,-0.00106941,0.00193380,-0.00098140,-0.00134755,-0.00018276,-0.053
 05525,0.01811376,-0.00251181,-0.00094449,-0.02267137,-0.00016691,0.000
 30470,0.00009773,-0.00001897,-0.00007013,0.00004192,0.00010256,0.00008
 929,0.00007979,-0.00014384,0.00016207,0.00016920,0.00047232,-0.0002702
 6,0.00019705,-0.00012429,0.00003395,-0.00007109,0.00042469,-0.00013759
 ,-0.00044564,0.00007824,0.00032425,-0.00090653,0.00508557,0.05465811,0
 .00000659,-0.00016568,-0.00013914,-0.00191550,0.00187784,-0.00924756,-
 0.00094586,0.00087343,0.00045084,0.00224635,-0.00169416,0.00002504,0.0
 1243709,0.00935300,-0.31227492,-0.00514277,-0.00712701,-0.00977806,0.0
 0041686,0.00018141,0.00047027,0.00021619,-0.00000317,0.00033064,-0.000
 00901,-0.00014473,0.00004926,0.00002474,0.00010948,0.00034921,0.000217
 81,-0.00049521,0.00054147,0.00003289,0.00004049,-0.00007696,-0.0002437
 7,0.00006924,0.00019510,0.00019380,0.00012607,-0.00043322,-0.00647181,
 -0.00493373,0.33674007,0.00101774,0.00166281,-0.00022912,-0.00239886,0
 .02635570,-0.00946193,-0.00474707,0.00163908,0.00293280,0.00144084,-0.
 00127343,-0.00122163,-0.04886454,0.01203521,-0.00172101,-0.01038980,-0
 .03859419,0.00169604,0.00000588,-0.00004129,-0.00009903,0.00027895,-0.
 00021641,0.00003407,-0.00075590,-0.00045001,0.00036161,-0.00009644,0.0
 0182143,-0.00045528,-0.00000384,-0.00023885,0.00000867,0.00004830,0.00
 012840,0.00005851,-0.00010522,-0.00013238,0.00046314,0.00018040,-0.000
 05730,-0.00015167,0.00214314,-0.00187524,0.00165896,0.06308559,-0.0012
 3257,0.00029943,0.00001208,0.00109724,-0.01617439,0.00792647,0.0027053
 9,0.00005081,-0.00217020,-0.00000870,0.00166653,0.00026086,0.01360042,
 -0.25657659,0.07031965,-0.01713281,-0.01712068,-0.00582900,0.00012972,
 -0.00002613,-0.00009394,0.00003152,0.00049276,-0.00026799,0.00057238,0
 .00095258,-0.00016526,0.00019206,-0.00096895,0.00015313,0.00000614,0.0
 0021687,0.00000983,-0.00033017,0.00049080,0.00001893,0.00083878,-0.000
 39618,-0.00102307,-0.00004594,0.00016771,-0.00013269,0.00139995,0.0003
 3892,0.00077696,-0.00068516,0.28743072,-0.00064738,-0.00011127,0.00024
 875,0.00331021,-0.01097816,0.00282416,0.00101402,-0.00024988,-0.000580
 44,-0.00036864,-0.00059702,0.00145189,-0.00258544,0.07162770,-0.082880
 86,-0.00299751,-0.01649859,0.00935916,0.00013256,0.00012802,-0.0000164
 5,-0.00014472,-0.00009064,-0.00013518,-0.00021399,0.00008026,0.0001553
 3,-0.00002005,-0.00040398,0.00056262,0.00020544,-0.00021754,0.00038672
 ,-0.00009254,-0.00004755,-0.00008168,0.00027489,0.00024641,-0.00003141
 ,-0.00017133,0.00014839,0.00016444,-0.00227561,0.02971930,-0.00773888,
 0.00441996,-0.07186226,0.07582611,0.00034688,-0.00012371,0.00106645,-0
 .00495420,-0.00117218,-0.00710546,-0.00056100,0.00072053,0.00054627,0.
 00254473,-0.00126592,-0.00288910,0.00572621,-0.01360447,-0.03946941,-0
 .06952380,0.02275497,0.12400594,0.00057582,0.00029982,0.00051945,-0.00
 006223,0.00005292,-0.00006494,0.00004720,0.00002448,-0.00014249,0.0000
 3400,0.00009762,-0.00001454,0.00031835,-0.00032998,0.00044905,-0.00002
 449,0.00047738,-0.00051001,0.00080489,-0.00031776,0.00039194,0.0025997
 0,0.00164518,0.00073991,-0.00608336,-0.00322161,-0.00272255,-0.0008391
 6,-0.00113825,0.00016013,0.06905045,0.00040600,-0.00026688,-0.00026304
 ,0.00029444,0.00256844,-0.00012876,0.00086994,0.00034878,-0.00001914,0
 .00113599,-0.00598313,0.00089693,-0.00279304,-0.00737460,-0.02571756,0
 .00726058,-0.04659762,-0.09867297,-0.00011779,-0.00002565,-0.00001139,
 0.00015291,0.00002289,0.00008185,-0.00013634,-0.00023082,0.00000740,-0
 .00025417,-0.00019587,-0.00006606,-0.00036844,-0.00012205,-0.00016995,
 0.00036170,-0.00101079,0.00077071,-0.00299926,-0.00040231,-0.00002032,
 0.00164578,0.00059341,0.00054099,-0.00048092,-0.00068930,0.00115578,-0
 .00007838,-0.00084421,-0.00089320,-0.00489900,0.06020973,0.00049646,-0
 .00077826,-0.00255310,0.00243637,-0.00029397,0.00269228,-0.00014508,-0
 .00010844,-0.00095717,-0.00193729,0.00172319,-0.00137779,-0.00765466,-
 0.01032479,-0.02433295,0.08178380,-0.11328011,-0.39187048,-0.00059885,
 -0.00026629,-0.00011454,0.00064708,0.00032691,0.00032785,0.00005392,0.
 00022155,0.00008392,0.00047671,-0.00015088,0.00013976,0.00008262,0.000
 15737,-0.00002406,-0.00071459,0.00120891,-0.00007539,0.00116703,0.0005
 2175,-0.00005253,-0.00106514,-0.00067821,-0.00056840,-0.00177361,-0.00
 285393,0.00053683,0.00170589,0.00206648,0.00048572,-0.07496065,0.12250
 872,0.41766004\\0.00000032,-0.00000013,-0.00000067,0.00000052,0.000000
 02,0.00000112,0.00000016,-0.00000050,-0.00000048,-0.00000095,0.0000001
 6,-0.00000119,-0.00000035,0.00000022,0.00000064,0.00000050,0.00000041,
 0.00000050,0.00000063,-0.00000051,-0.00000008,0.00000006,-0.00000045,-
 0.00000071,0.00000015,-0.00000015,-0.00000004,-0.00000030,-0.00000017,
 -0.00000091,0.00000031,-0.00000022,-0.00000032,-0.00000040,0.00000011,
 -0.00000026,-0.00000048,0.00000050,0.00000026,-0.00000065,0.00000026,-
 0.00000031,0.00000061,-0.00000027,0.00000062,0.00000034,0.00000003,0.0
 0000063,-0.00000047,0.00000069,0.00000120\\\@


 LIFE IS A CONTINUAL STRUGGLE AGAINST THE TENDENCY TO PRODUCE ENTROPY.
 File lengths (MBytes):  RWF=     28 Int=      0 D2E=      0 Chk=      2 Scr=      1
 Normal termination of Gaussian 16 at Fri Mar 29 15:39:14 2024.
real 313.35
user 1190.33
sys 10.85
