 Entering Gaussian System, Link 0=g16
 Input=gaussian_test.inp
 Output=gaussian_test.log
 Initial command:
 /sw/restricted/lms/sw/Gaussian/g16_B01/g16/l1.exe "/scratch/user/peterchao1/peterchao1/6113322_1660079103000000687098386/Gau-36367.inp" -scrdir="/scratch/user/peterchao1/peterchao1/6113322_1660079103000000687098386/"
 Entering Link 1 = /sw/restricted/lms/sw/Gaussian/g16_B01/g16/l1.exe PID=     36368.
  
 Copyright (c) 1988-2017, Gaussian, Inc.  All Rights Reserved.
  
 This is part of the Gaussian(R) 16 program.  It is based on
 the Gaussian(R) 09 system (copyright 2009, Gaussian, Inc.),
 the Gaussian(R) 03 system (copyright 2003, Gaussian, Inc.),
 the Gaussian(R) 98 system (copyright 1998, Gaussian, Inc.),
 the Gaussian(R) 94 system (copyright 1995, Gaussian, Inc.),
 the Gaussian 92(TM) system (copyright 1992, Gaussian, Inc.),
 the Gaussian 90(TM) system (copyright 1990, Gaussian, Inc.),
 the Gaussian 88(TM) system (copyright 1988, Gaussian, Inc.),
 the Gaussian 86(TM) system (copyright 1986, Carnegie Mellon
 University), and the Gaussian 82(TM) system (copyright 1983,
 Carnegie Mellon University). Gaussian is a federally registered
 trademark of Gaussian, Inc.
  
 This software contains proprietary and confidential information,
 including trade secrets, belonging to Gaussian, Inc.
  
 This software is provided under written license and may be
 used, copied, transmitted, or stored only in accord with that
 written license.
  
 The following legend is applicable only to US Government
 contracts under FAR:
  
                    RESTRICTED RIGHTS LEGEND
  
 Use, reproduction and disclosure by the US Government is
 subject to restrictions as set forth in subparagraphs (a)
 and (c) of the Commercial Computer Software - Restricted
 Rights clause in FAR 52.227-19.
  
 Gaussian, Inc.
 340 Quinnipiac St., Bldg. 40, Wallingford CT 06492
  
  
 ---------------------------------------------------------------
 Warning -- This program may not be used in any manner that
 competes with the business of Gaussian, Inc. or will provide
 assistance to any competitor of Gaussian, Inc.  The licensee
 of this program is prohibited from giving any competitor of
 Gaussian, Inc. access to this program.  By using this program,
 the user acknowledges that Gaussian, Inc. is engaged in the
 business of creating and licensing software in the field of
 computational chemistry and represents and warrants to the
 licensee that it is not a competitor of Gaussian, Inc. and that
 it will not use this program in any manner prohibited above.
 ---------------------------------------------------------------
  

 Cite this work as:
 Gaussian 16, Revision B.01,
 M. J. Frisch, G. W. Trucks, H. B. Schlegel, G. E. Scuseria, 
 M. A. Robb, J. R. Cheeseman, G. Scalmani, V. Barone, 
 G. A. Petersson, H. Nakatsuji, X. Li, M. Caricato, A. V. Marenich, 
 J. Bloino, B. G. Janesko, R. Gomperts, B. Mennucci, H. P. Hratchian, 
 J. V. Ortiz, A. F. Izmaylov, J. L. Sonnenberg, D. Williams-Young, 
 F. Ding, F. Lipparini, F. Egidi, J. Goings, B. Peng, A. Petrone, 
 T. Henderson, D. Ranasinghe, V. G. Zakrzewski, J. Gao, N. Rega, 
 G. Zheng, W. Liang, M. Hada, M. Ehara, K. Toyota, R. Fukuda, 
 J. Hasegawa, M. Ishida, T. Nakajima, Y. Honda, O. Kitao, H. Nakai, 
 T. Vreven, K. Throssell, J. A. Montgomery, Jr., J. E. Peralta, 
 F. Ogliaro, M. J. Bearpark, J. J. Heyd, E. N. Brothers, K. N. Kudin, 
 V. N. Staroverov, T. A. Keith, R. Kobayashi, J. Normand, 
 K. Raghavachari, A. P. Rendell, J. C. Burant, S. S. Iyengar, 
 J. Tomasi, M. Cossi, J. M. Millam, M. Klene, C. Adamo, R. Cammi, 
 J. W. Ochterski, R. L. Martin, K. Morokuma, O. Farkas, 
 J. B. Foresman, and D. J. Fox, Gaussian, Inc., Wallingford CT, 2016.
 
 ******************************************
 Gaussian 16:  ES64L-G16RevB.01 20-Dec-2017
                 9-Aug-2022 
 ******************************************
 %nprocshared=4
 Will use up to    4 processors via shared memory.
 %mem=8000mb
 ----------------------------------------------------------------------
 #T wB97XD/def2svpp opt=tight freq int(grid=ultrafine) scf=(verytight,q
 c)
 ----------------------------------------------------------------------
 -----
 dimer
 -----
 Symbolic Z-matrix:
 Charge =  0 Multiplicity = 1
 C                    -3.3483   -0.99148   1.26191 
 C                    -2.72077  -0.15432   0.14978 
 C                    -3.6261   -0.02002  -1.06132 
 C                    -2.31399   1.24348   0.70589 
 O                    -1.91827   2.13855  -0.2809 
 N                    -1.46715  -0.83449  -0.2466 
 O                    -0.67614  -1.08566   0.64718 
 O                    -1.27136  -1.1016   -1.40367 
 H                    -2.64665  -1.11944   2.08309 
 H                    -3.63103  -1.97244   0.88441 
 H                    -4.23901  -0.49618   1.63733 
 H                    -3.16871   0.6326   -1.80086 
 H                    -4.57282   0.41605  -0.75609 
 H                    -3.81061  -0.99044  -1.5157 
 H                    -1.5378    1.09965   1.46995 
 H                    -3.1972    1.67831   1.18124 
 H                    -1.01327   1.92457  -0.56876 
 C                     3.62219   0.0163    1.06625 
 C                     2.72107   0.15441  -0.14755 
 C                     3.35292   0.99438  -1.25515 
 C                     2.31537  -1.24151  -0.70904 
 O                     1.9181   -2.14002   0.27399 
 N                     1.4667    0.83479   0.24628 
 O                     0.67782   1.08649  -0.64921 
 O                     1.26803   1.10083   1.40312 
 H                     3.16189  -0.63794   1.80254 
 H                     3.80582   0.98542   1.52375 
 H                     4.56964  -0.41966   0.76314 
 H                     4.24458   0.49958  -1.62895 
 H                     3.635     1.97406  -0.87384 
 H                     2.65414   1.12518  -2.07833 
 H                     3.19927  -1.67478  -1.1845 
 H                     1.54036  -1.09515  -1.47384 
 H                     1.01326  -1.9259    0.5623 
 
 Add virtual bond connecting atoms O24        and H17        Dist= 3.57D+00.
 Add virtual bond connecting atoms H34        and O7         Dist= 3.57D+00.

 GradGradGradGradGradGradGradGradGradGradGradGradGradGradGradGradGradGrad
 Initialization pass.
                           ----------------------------
                           !    Initial Parameters    !
                           ! (Angstroms and Degrees)  !
 --------------------------                            --------------------------
 ! Name  Definition              Value          Derivative Info.                !
 --------------------------------------------------------------------------------
 ! R1    R(1,2)                  1.5269         estimate D2E/DX2                !
 ! R2    R(1,9)                  1.0877         estimate D2E/DX2                !
 ! R3    R(1,10)                 1.0885         estimate D2E/DX2                !
 ! R4    R(1,11)                 1.0861         estimate D2E/DX2                !
 ! R5    R(2,3)                  1.518          estimate D2E/DX2                !
 ! R6    R(2,4)                  1.5584         estimate D2E/DX2                !
 ! R7    R(2,6)                  1.4803         estimate D2E/DX2                !
 ! R8    R(3,12)                 1.0872         estimate D2E/DX2                !
 ! R9    R(3,13)                 1.0861         estimate D2E/DX2                !
 ! R10   R(3,14)                 1.0873         estimate D2E/DX2                !
 ! R11   R(4,5)                  1.3898         estimate D2E/DX2                !
 ! R12   R(4,15)                 1.0986         estimate D2E/DX2                !
 ! R13   R(4,16)                 1.0932         estimate D2E/DX2                !
 ! R14   R(5,17)                 0.9735         estimate D2E/DX2                !
 ! R15   R(6,7)                  1.2197         estimate D2E/DX2                !
 ! R16   R(6,8)                  1.2035         estimate D2E/DX2                !
 ! R17   R(7,34)                 1.8887         estimate D2E/DX2                !
 ! R18   R(17,24)                1.8891         estimate D2E/DX2                !
 ! R19   R(18,19)                1.518          estimate D2E/DX2                !
 ! R20   R(18,26)                1.0872         estimate D2E/DX2                !
 ! R21   R(18,27)                1.0873         estimate D2E/DX2                !
 ! R22   R(18,28)                1.0861         estimate D2E/DX2                !
 ! R23   R(19,20)                1.5269         estimate D2E/DX2                !
 ! R24   R(19,21)                1.5584         estimate D2E/DX2                !
 ! R25   R(19,23)                1.4804         estimate D2E/DX2                !
 ! R26   R(20,29)                1.0861         estimate D2E/DX2                !
 ! R27   R(20,30)                1.0885         estimate D2E/DX2                !
 ! R28   R(20,31)                1.0877         estimate D2E/DX2                !
 ! R29   R(21,22)                1.3898         estimate D2E/DX2                !
 ! R30   R(21,32)                1.0932         estimate D2E/DX2                !
 ! R31   R(21,33)                1.0986         estimate D2E/DX2                !
 ! R32   R(22,34)                0.9735         estimate D2E/DX2                !
 ! R33   R(23,24)                1.2197         estimate D2E/DX2                !
 ! R34   R(23,25)                1.2035         estimate D2E/DX2                !
 ! A1    A(2,1,9)              110.4436         estimate D2E/DX2                !
 ! A2    A(2,1,10)             110.3814         estimate D2E/DX2                !
 ! A3    A(2,1,11)             109.8024         estimate D2E/DX2                !
 ! A4    A(9,1,10)             108.8674         estimate D2E/DX2                !
 ! A5    A(9,1,11)             108.767          estimate D2E/DX2                !
 ! A6    A(10,1,11)            108.5334         estimate D2E/DX2                !
 ! A7    A(1,2,3)              112.6123         estimate D2E/DX2                !
 ! A8    A(1,2,4)              109.824          estimate D2E/DX2                !
 ! A9    A(1,2,6)              106.9273         estimate D2E/DX2                !
 ! A10   A(3,2,4)              111.1627         estimate D2E/DX2                !
 ! A11   A(3,2,6)              109.3951         estimate D2E/DX2                !
 ! A12   A(4,2,6)              106.656          estimate D2E/DX2                !
 ! A13   A(2,3,12)             110.175          estimate D2E/DX2                !
 ! A14   A(2,3,13)             109.3391         estimate D2E/DX2                !
 ! A15   A(2,3,14)             110.8328         estimate D2E/DX2                !
 ! A16   A(12,3,13)            108.4737         estimate D2E/DX2                !
 ! A17   A(12,3,14)            108.8373         estimate D2E/DX2                !
 ! A18   A(13,3,14)            109.1391         estimate D2E/DX2                !
 ! A19   A(2,4,5)              113.4917         estimate D2E/DX2                !
 ! A20   A(2,4,15)             108.3716         estimate D2E/DX2                !
 ! A21   A(2,4,16)             107.5209         estimate D2E/DX2                !
 ! A22   A(5,4,15)             112.1451         estimate D2E/DX2                !
 ! A23   A(5,4,16)             106.4155         estimate D2E/DX2                !
 ! A24   A(15,4,16)            108.6914         estimate D2E/DX2                !
 ! A25   A(4,5,17)             109.4571         estimate D2E/DX2                !
 ! A26   A(2,6,7)              116.5916         estimate D2E/DX2                !
 ! A27   A(2,6,8)              119.8131         estimate D2E/DX2                !
 ! A28   A(7,6,8)              123.5936         estimate D2E/DX2                !
 ! A29   A(6,7,34)             129.7007         estimate D2E/DX2                !
 ! A30   A(5,17,24)            160.4448         estimate D2E/DX2                !
 ! A31   A(19,18,26)           110.1775         estimate D2E/DX2                !
 ! A32   A(19,18,27)           110.83           estimate D2E/DX2                !
 ! A33   A(19,18,28)           109.3416         estimate D2E/DX2                !
 ! A34   A(26,18,27)           108.8384         estimate D2E/DX2                !
 ! A35   A(26,18,28)           108.4697         estimate D2E/DX2                !
 ! A36   A(27,18,28)           109.1398         estimate D2E/DX2                !
 ! A37   A(18,19,20)           112.6071         estimate D2E/DX2                !
 ! A38   A(18,19,21)           111.1702         estimate D2E/DX2                !
 ! A39   A(18,19,23)           109.3957         estimate D2E/DX2                !
 ! A40   A(20,19,21)           109.8243         estimate D2E/DX2                !
 ! A41   A(20,19,23)           106.9045         estimate D2E/DX2                !
 ! A42   A(21,19,23)           106.6758         estimate D2E/DX2                !
 ! A43   A(19,20,29)           109.8012         estimate D2E/DX2                !
 ! A44   A(19,20,30)           110.3806         estimate D2E/DX2                !
 ! A45   A(19,20,31)           110.4434         estimate D2E/DX2                !
 ! A46   A(29,20,30)           108.5333         estimate D2E/DX2                !
 ! A47   A(29,20,31)           108.7682         estimate D2E/DX2                !
 ! A48   A(30,20,31)           108.8685         estimate D2E/DX2                !
 ! A49   A(19,21,22)           113.4961         estimate D2E/DX2                !
 ! A50   A(19,21,32)           107.5317         estimate D2E/DX2                !
 ! A51   A(19,21,33)           108.3691         estimate D2E/DX2                !
 ! A52   A(22,21,32)           106.4111         estimate D2E/DX2                !
 ! A53   A(22,21,33)           112.1409         estimate D2E/DX2                !
 ! A54   A(32,21,33)           108.6878         estimate D2E/DX2                !
 ! A55   A(21,22,34)           109.4491         estimate D2E/DX2                !
 ! A56   A(19,23,24)           116.5886         estimate D2E/DX2                !
 ! A57   A(19,23,25)           119.8131         estimate D2E/DX2                !
 ! A58   A(24,23,25)           123.5962         estimate D2E/DX2                !
 ! A59   A(17,24,23)           129.7392         estimate D2E/DX2                !
 ! A60   A(7,34,22)            160.482          estimate D2E/DX2                !
 ! D1    D(9,1,2,3)            176.2901         estimate D2E/DX2                !
 ! D2    D(9,1,2,4)            -59.2474         estimate D2E/DX2                !
 ! D3    D(9,1,2,6)             56.1055         estimate D2E/DX2                !
 ! D4    D(10,1,2,3)            55.8487         estimate D2E/DX2                !
 ! D5    D(10,1,2,4)          -179.6888         estimate D2E/DX2                !
 ! D6    D(10,1,2,6)           -64.3359         estimate D2E/DX2                !
 ! D7    D(11,1,2,3)           -63.7665         estimate D2E/DX2                !
 ! D8    D(11,1,2,4)            60.6961         estimate D2E/DX2                !
 ! D9    D(11,1,2,6)           176.049          estimate D2E/DX2                !
 ! D10   D(1,2,3,12)           176.4597         estimate D2E/DX2                !
 ! D11   D(1,2,3,13)            57.3342         estimate D2E/DX2                !
 ! D12   D(1,2,3,14)           -63.0185         estimate D2E/DX2                !
 ! D13   D(4,2,3,12)            52.7364         estimate D2E/DX2                !
 ! D14   D(4,2,3,13)           -66.3891         estimate D2E/DX2                !
 ! D15   D(4,2,3,14)           173.2582         estimate D2E/DX2                !
 ! D16   D(6,2,3,12)           -64.7886         estimate D2E/DX2                !
 ! D17   D(6,2,3,13)           176.0859         estimate D2E/DX2                !
 ! D18   D(6,2,3,14)            55.7332         estimate D2E/DX2                !
 ! D19   D(1,2,4,5)           -170.9779         estimate D2E/DX2                !
 ! D20   D(1,2,4,15)            63.7514         estimate D2E/DX2                !
 ! D21   D(1,2,4,16)           -53.5684         estimate D2E/DX2                !
 ! D22   D(3,2,4,5)            -45.68           estimate D2E/DX2                !
 ! D23   D(3,2,4,15)          -170.9507         estimate D2E/DX2                !
 ! D24   D(3,2,4,16)            71.7296         estimate D2E/DX2                !
 ! D25   D(6,2,4,5)             73.4971         estimate D2E/DX2                !
 ! D26   D(6,2,4,15)           -51.7736         estimate D2E/DX2                !
 ! D27   D(6,2,4,16)          -169.0933         estimate D2E/DX2                !
 ! D28   D(1,2,6,7)            -53.3683         estimate D2E/DX2                !
 ! D29   D(1,2,6,8)            127.0958         estimate D2E/DX2                !
 ! D30   D(3,2,6,7)           -175.5924         estimate D2E/DX2                !
 ! D31   D(3,2,6,8)              4.8717         estimate D2E/DX2                !
 ! D32   D(4,2,6,7)             64.0876         estimate D2E/DX2                !
 ! D33   D(4,2,6,8)           -115.4482         estimate D2E/DX2                !
 ! D34   D(2,4,5,17)           -77.1182         estimate D2E/DX2                !
 ! D35   D(15,4,5,17)           46.1062         estimate D2E/DX2                !
 ! D36   D(16,4,5,17)          164.8306         estimate D2E/DX2                !
 ! D37   D(4,5,17,24)           -4.8236         estimate D2E/DX2                !
 ! D38   D(2,6,7,34)          -179.7743         estimate D2E/DX2                !
 ! D39   D(8,6,7,34)            -0.2577         estimate D2E/DX2                !
 ! D40   D(6,7,34,22)           48.2994         estimate D2E/DX2                !
 ! D41   D(5,17,24,23)         -47.806          estimate D2E/DX2                !
 ! D42   D(26,18,19,20)       -176.4746         estimate D2E/DX2                !
 ! D43   D(26,18,19,21)        -52.7491         estimate D2E/DX2                !
 ! D44   D(26,18,19,23)         64.8051         estimate D2E/DX2                !
 ! D45   D(27,18,19,20)         63.0025         estimate D2E/DX2                !
 ! D46   D(27,18,19,21)       -173.272          estimate D2E/DX2                !
 ! D47   D(27,18,19,23)        -55.7178         estimate D2E/DX2                !
 ! D48   D(28,18,19,20)        -57.351          estimate D2E/DX2                !
 ! D49   D(28,18,19,21)         66.3745         estimate D2E/DX2                !
 ! D50   D(28,18,19,23)       -176.0713         estimate D2E/DX2                !
 ! D51   D(18,19,20,29)         63.7756         estimate D2E/DX2                !
 ! D52   D(18,19,20,30)        -55.8383         estimate D2E/DX2                !
 ! D53   D(18,19,20,31)       -176.2803         estimate D2E/DX2                !
 ! D54   D(21,19,20,29)        -60.6931         estimate D2E/DX2                !
 ! D55   D(21,19,20,30)        179.693          estimate D2E/DX2                !
 ! D56   D(21,19,20,31)         59.251          estimate D2E/DX2                !
 ! D57   D(23,19,20,29)       -176.0571         estimate D2E/DX2                !
 ! D58   D(23,19,20,30)         64.329          estimate D2E/DX2                !
 ! D59   D(23,19,20,31)        -56.113          estimate D2E/DX2                !
 ! D60   D(18,19,21,22)         45.5676         estimate D2E/DX2                !
 ! D61   D(18,19,21,32)        -71.8461         estimate D2E/DX2                !
 ! D62   D(18,19,21,33)        170.834          estimate D2E/DX2                !
 ! D63   D(20,19,21,22)        170.8644         estimate D2E/DX2                !
 ! D64   D(20,19,21,32)         53.4508         estimate D2E/DX2                !
 ! D65   D(20,19,21,33)        -63.8692         estimate D2E/DX2                !
 ! D66   D(23,19,21,22)        -73.6265         estimate D2E/DX2                !
 ! D67   D(23,19,21,32)        168.9598         estimate D2E/DX2                !
 ! D68   D(23,19,21,33)         51.6399         estimate D2E/DX2                !
 ! D69   D(18,19,23,24)        175.7326         estimate D2E/DX2                !
 ! D70   D(18,19,23,25)         -4.7749         estimate D2E/DX2                !
 ! D71   D(20,19,23,24)         53.5283         estimate D2E/DX2                !
 ! D72   D(20,19,23,25)       -126.9793         estimate D2E/DX2                !
 ! D73   D(21,19,23,24)        -63.9266         estimate D2E/DX2                !
 ! D74   D(21,19,23,25)        115.5658         estimate D2E/DX2                !
 ! D75   D(19,21,22,34)         77.0017         estimate D2E/DX2                !
 ! D76   D(32,21,22,34)       -164.9343         estimate D2E/DX2                !
 ! D77   D(33,21,22,34)        -46.2195         estimate D2E/DX2                !
 ! D78   D(21,22,34,7)           4.6927         estimate D2E/DX2                !
 ! D79   D(19,23,24,17)        179.6588         estimate D2E/DX2                !
 ! D80   D(25,23,24,17)          0.1875         estimate D2E/DX2                !
 --------------------------------------------------------------------------------
 Number of steps in this run=    184 maximum allowed number of steps=    204.
 GradGradGradGradGradGradGradGradGradGradGradGradGradGradGradGradGradGrad

                    Distance matrix (angstroms):
                    1          2          3          4          5
     1  C    0.000000
     2  C    1.526916   0.000000
     3  C    2.533443   1.518032   0.000000
     4  C    2.524674   1.558385   2.537931   0.000000
     5  O    3.771248   2.467129   2.860969   1.389784   0.000000
     6  N    2.416402   1.480309   2.447082   2.437684   3.007259
     7  O    2.743579   2.301158   3.571674   2.847960   3.577670
     8  O    3.380998   2.326229   2.613777   3.322155   3.489652
     9  H    1.087669   2.162099   3.472091   2.755130   4.090661
    10  H    1.088452   2.161903   2.756424   3.479738   4.603445
    11  H    1.086100   2.152842   2.808049   2.756752   4.000903
    12  H    3.471377   2.150553   1.087212   2.717996   2.478254
    13  H    2.748253   2.139153   1.086086   2.815017   3.199909
    14  H    2.815821   2.158854   1.087297   3.487936   3.859562
    15  H    2.773808   2.171338   3.467273   1.098607   2.071116
    16  H    2.675279   2.156253   2.845585   1.093202   1.996324
    17  H    4.160183   2.784542   3.294081   1.944356   0.973493
    18  C    7.045689   6.411107   7.554185   6.072409   6.084040
    19  C    6.335374   5.458699   6.414984   5.221712   5.047581
    20  C    7.428704   6.339014   7.055023   6.001801   5.481218
    21  C    6.002028   5.223244   6.075955   5.441339   5.434318
    22  O    5.479977   5.047534   6.084051   5.435550   5.773371
    23  N    5.248906   4.303785   5.327019   3.830389   3.665475
    24  O    4.917319   3.705192   4.462956   3.288146   2.825278
    25  O    5.070326   4.365410   5.593058   3.652035   3.750374
    26  H    6.542159   6.129536   7.393264   5.893014   6.152854
    27  H    7.426855   6.766332   7.932654   6.179612   6.111606
    28  H    7.954220   7.320982   8.405867   7.081929   7.051770
    29  H    8.260280   7.218561   7.908213   7.001409   6.517991
    30  H    7.881779   6.780392   7.532276   6.198375   5.587264
    31  H    7.187961   5.957456   6.464305   5.696334   5.016437
    32  H    7.023006   6.256123   7.024186   6.518123   6.445716
    33  H    5.603044   4.656022   5.293242   5.007634   4.882828
    34  H    4.515071   4.153519   5.271838   4.597413   5.081794
                    6          7          8          9         10
     6  N    0.000000
     7  O    1.219682   0.000000
     8  O    1.203535   2.135539   0.000000
     9  H    2.626767   2.438426   3.748235   0.000000
    10  H    2.693793   3.094196   3.400254   1.770151   0.000000
    11  H    3.368509   3.744585   4.291988   1.767129   1.765180
    12  H    2.731921   3.893359   2.600995   4.292703   3.769706
    13  H    3.386528   4.405493   3.690828   3.758830   3.046815
    14  H    2.669599   3.809466   2.544152   3.784539   2.599444
    15  H    2.586968   2.488973   3.629625   2.555364   3.763270
    16  H    3.368373   3.778954   4.256585   2.990633   3.688401
    17  H    2.814640   3.263993   3.149829   4.355035   4.914380
    18  C    5.324362   4.457085   5.594383   6.451537   7.523126
    19  C    4.304523   3.702758   4.369775   5.950711   6.777733
    20  C    5.253095   4.917189   5.079293   7.183802   7.883867
    21  C    3.832357   3.288273   3.656052   5.694960   6.199437
    22  O    3.665428   2.825072   3.750406   5.015119   5.585121
    23  N    3.411286   2.905272   3.737502   4.910458   5.854453
    24  O    2.907429   2.869157   3.025935   4.835676   5.502298
    25  O    3.734730   3.021912   4.379186   4.551561   5.806446
    26  H    5.066122   4.033084   5.490763   5.835213   6.983380
    27  H    5.852385   5.014550   6.221193   6.810121   8.028976
    28  H    6.134697   5.289162   6.267172   7.369323   8.347269
    29  H    6.026150   5.648649   5.748057   7.993099   8.628624
    30  H    5.857759   5.501031   5.814884   7.600819   8.453497
    31  H    4.917372   4.838074   4.563255   7.103111   7.607659
    32  H    4.833350   4.326772   4.512555   6.720153   7.142975
    33  H    3.258706   3.067844   2.812605   5.493945   5.751025
    34  H    2.828067   1.888729   3.124745   4.044525   4.655685
                   11         12         13         14         15
    11  H    0.000000
    12  H    3.773706   0.000000
    13  H    2.583037   1.763501   0.000000
    14  H    3.220157   1.768507   1.770916   0.000000
    15  H    3.141848   3.684586   3.825425   4.295138   0.000000
    16  H    2.453939   3.160254   2.690517   3.843429   1.780955
    17  H    4.596991   2.798787   3.870549   4.149594   2.260965
    18  C    7.898561   7.397068   8.404698   7.932631   5.287929
    19  C    7.214692   6.136095   7.323903   6.770924   4.652717
    20  C    8.259879   6.554420   7.962465   7.437987   5.599677
    21  C    7.001487   5.897418   7.084969   6.183963   5.007589
    22  O    6.516969   6.153710   7.051706   6.110868   4.885596
    23  N    6.021761   5.071359   6.136433   5.855428   3.254925
    24  O    5.648748   4.040813   5.294350   5.021006   3.065940
    25  O    5.738706   5.492668   6.264710   6.219767   2.806628
    26  H    7.404095   7.394274   8.214811   7.729860   5.021645
    27  H    8.180911   7.734446   8.701921   8.435185   5.345116
    28  H    8.852253   8.219702   9.305429   8.703309   6.333147
    29  H    9.145021   7.416481   8.860888   8.192627   6.587807
    30  H    8.626016   6.996390   8.355214   8.039744   5.745942
    31  H    7.996903   5.850237   7.381063   6.825354   5.492112
    32  H    8.042381   6.801118   8.059806   7.050997   6.097826
    33  H    6.590844   5.026674   6.337964   5.352163   4.791459
    34  H    5.548526   5.442372   6.198965   5.335070   4.060262
                   16         17         18         19         20
    16  H    0.000000
    17  H    2.809396   0.000000
    18  C    7.019946   5.272786   0.000000
    19  C    6.254108   4.154051   1.518033   0.000000
    20  C    7.021951   4.516631   2.533388   1.526941   0.000000
    21  C    6.518199   4.596038   2.538020   1.558356   2.524675
    22  O    6.447407   5.081738   2.860300   2.467163   3.771136
    23  N    4.830901   2.828801   2.447135   1.480362   2.416108
    24  O    4.326267   1.889084   3.571756   2.301147   2.744410
    25  O    4.507881   3.125888   2.613767   2.326287   3.380011
    26  H    6.796250   5.442557   1.087210   2.150583   3.471371
    27  H    7.045546   5.337060   1.087298   2.158820   2.815574
    28  H    8.056060   6.199856   1.086090   2.139189   2.748342
    29  H    8.041557   5.549733   2.808034   2.152850   1.086101
    30  H    7.140714   4.658533   2.756259   2.161918   1.088456
    31  H    6.720782   4.045701   3.472050   2.162118   1.087671
    32  H    7.599660   5.574942   2.846843   2.156364   2.674519
    33  H    6.098029   4.056953   3.467189   2.171292   2.774769
    34  H    5.576866   4.495806   3.291295   2.783561   4.159950
                   21         22         23         24         25
    21  C    0.000000
    22  O    1.389781   0.000000
    23  N    2.438015   3.008996   0.000000
    24  O    2.846879   3.577842   1.219657   0.000000
    25  O    3.323355   3.492938   1.203549   2.135556   0.000000
    26  H    2.718260   2.477846   2.732136   3.892980   2.601833
    27  H    3.487982   3.859242   2.669481   3.810031   2.543277
    28  H    2.815050   3.198373   3.386600   4.405615   3.690812
    29  H    2.756720   4.000150   3.368305   3.745144   4.291247
    30  H    3.479730   4.603364   2.693352   3.095668   3.398477
    31  H    2.755166   4.091050   2.626429   2.439203   3.747316
    32  H    1.093196   1.996262   3.368520   3.777416   4.257876
    33  H    1.098624   2.071077   2.586287   2.486667   3.629509
    34  H    1.944267   0.973499   2.815477   3.264165   3.151661
                   26         27         28         29         30
    26  H    0.000000
    27  H    1.768518   0.000000
    28  H    1.763458   1.770928   0.000000
    29  H    3.773767   3.219949   2.583167   0.000000
    30  H    3.769534   2.599043   3.046822   1.765184   0.000000
    31  H    4.292729   3.784292   3.758933   1.767145   1.770167
    32  H    3.162101   3.844373   2.691943   2.453174   3.687879
    33  H    3.684161   4.294949   3.825819   3.143251   3.763984
    34  H    2.795288   4.147113   3.867421   4.596299   4.913832
                   31         32         33         34
    31  H    0.000000
    32  H    2.989293   0.000000
    33  H    2.556513   1.780923   0.000000
    34  H    4.355972   2.809453   2.261381   0.000000
 Framework group  C1[X(C8H18N2O6)]
 Deg. of freedom    96
                         Standard orientation:                         
 ---------------------------------------------------------------------
 Center     Atomic      Atomic             Coordinates (Angstroms)
 Number     Number       Type             X           Y           Z
 ---------------------------------------------------------------------
      1          6           0       -3.365242   -1.015287    1.196188
      2          6           0       -2.722866   -0.144104    0.119219
      3          6           0       -3.616045    0.036627   -1.094861
      4          6           0       -2.313944    1.231545    0.726621
      5          8           0       -1.904236    2.157618   -0.225235
      6          7           0       -1.469185   -0.817330   -0.288661
      7          8           0       -0.687953   -1.103365    0.603239
      8          8           0       -1.263943   -1.045800   -1.452350
      9          1           0       -2.672031   -1.175204    2.018934
     10          1           0       -3.649593   -1.981160    0.782713
     11          1           0       -4.256804   -0.528139    1.580136
     12          1           0       -3.148279    0.711592   -1.807355
     13          1           0       -4.563267    0.467294   -0.783606
     14          1           0       -3.801407   -0.916630   -1.583897
     15          1           0       -1.545743    1.057315    1.492421
     16          1           0       -3.199269    1.654810    1.208427
     17          1           0       -0.997706    1.948545   -0.511906
     18          6           0        3.612019   -0.040513    1.099414
     19          6           0        2.723090    0.144100   -0.117199
     20          6           0        3.369760    1.017915   -1.189493
     21          6           0        2.315307   -1.229503   -0.729898
     22          8           0        1.904069   -2.158874    0.218069
     23          7           0        1.468686    0.817632    0.288133
     24          8           0        0.689608    1.104235   -0.605433
     25          8           0        1.260560    1.045042    1.451533
     26          1           0        3.141357   -0.716961    1.808582
     27          1           0        3.796460    0.911344    1.591519
     28          1           0        4.559956   -0.471146    0.790283
     29          1           0        4.262264    0.531198   -1.571800
     30          1           0        3.653423    1.982378   -0.772261
     31          1           0        2.679452    1.180710   -2.014115
     32          1           0        3.201340   -1.651203   -1.211762
     33          1           0        1.548309   -1.052714   -1.496341
     34          1           0        0.997706   -1.949673    0.505195
 ---------------------------------------------------------------------
 Rotational constants (GHZ):           0.9580743           0.3313192           0.3036238
   260 basis functions,   472 primitive gaussians,   276 cartesian basis functions
    64 alpha electrons       64 beta electrons
       nuclear repulsion energy      1328.5634045673 Hartrees.
 NAtoms=   34 NActive=   34 NUniq=   34 SFac= 1.00D+00 NAtFMM=   60 NAOKFM=F Big=F
 Nuclear repulsion after empirical dispersion term =     1328.5362267100 Hartrees.
   1 Symmetry operations used in ECPInt.
 ECPInt:  NShTT=    8778 NPrTT=   35242 LenC2=    8437 LenP2D=   23679.
 LDataN:  DoStor=T MaxTD1= 4 Len=   56
 ExpMin= 1.22D-01 ExpMax= 2.27D+03 ExpMxC= 3.41D+02 IAcc=3 IRadAn=         5 AccDes= 0.00D+00
 Harris functional with IExCor= 4639 and IRadAn=       5 diagonalized for initial guess.
 HarFok:  IExCor= 4639 AccDes= 0.00D+00 IRadAn=         5 IDoV= 1 UseB2=F ITyADJ=14
 ICtDFT=  3500011 ScaDFX=  1.000000  1.000000  1.000000  1.000000
 FoFCou: FMM=F IPFlag=           0 FMFlag=      100000 FMFlg1=           0
         NFxFlg=           0 DoJE=T BraDBF=F KetDBF=T FulRan=T
         wScrn=  0.000000 ICntrl=       500 IOpCl=  0 I1Cent=   200000004 NGrid=           0
         NMat0=    1 NMatS0=      1 NMatT0=    0 NMatD0=    1 NMtDS0=    0 NMtDT0=    0
 Petite list used in FoFCou.
     Accept linear search using points  2 and  3.
     Accept linear search using points  1 and  2.
     Minimum is close to point  3 DX=  9.02D-02 DF= -2.73D-06 DXR=  7.58D-02 DFR=  5.77D-03 which will be used.
     Minimum is close to point  2 DX=  6.19D-04 DF= -1.99D-11 DXR=  6.19D-04 DFR=  3.83D-07 which will be used.
 SCF Done:  E(RwB97XD) =  -875.404823805     a.u. after    8 cycles
            Convg  =    0.2212D-09                    48 Fock formations.
              S**2 =  0.0000                  -V/T =  2.0076

 **********************************************************************

            Population analysis using the SCF Density.

 **********************************************************************

 Orbital symmetries:
       Occupied  (A) (A) (A) (A) (A) (A) (A) (A) (A) (A) (A) (A)
                 (A) (A) (A) (A) (A) (A) (A) (A) (A) (A) (A) (A)
                 (A) (A) (A) (A) (A) (A) (A) (A) (A) (A) (A) (A)
                 (A) (A) (A) (A) (A) (A) (A) (A) (A) (A) (A) (A)
                 (A) (A) (A) (A) (A) (A) (A) (A) (A) (A) (A) (A)
                 (A) (A) (A) (A)
       Virtual   (A) (A) (A) (A) (A) (A) (A) (A) (A) (A) (A) (A)
                 (A) (A) (A) (A) (A) (A) (A) (A) (A) (A) (A) (A)
                 (A) (A) (A) (A) (A) (A) (A) (A) (A) (A) (A) (A)
                 (A) (A) (A) (A) (A) (A) (A) (A) (A) (A) (A) (A)
                 (A) (A) (A) (A) (A) (A) (A) (A) (A) (A) (A) (A)
                 (A) (A) (A) (A) (A) (A) (A) (A) (A) (A) (A) (A)
                 (A) (A) (A) (A) (A) (A) (A) (A) (A) (A) (A) (A)
                 (A) (A) (A) (A) (A) (A) (A) (A) (A) (A) (A) (A)
                 (A) (A) (A) (A) (A) (A) (A) (A) (A) (A) (A) (A)
                 (A) (A) (A) (A) (A) (A) (A) (A) (A) (A) (A) (A)
                 (A) (A) (A) (A) (A) (A) (A) (A) (A) (A) (A) (A)
                 (A) (A) (A) (A) (A) (A) (A) (A) (A) (A) (A) (A)
                 (A) (A) (A) (A) (A) (A) (A) (A) (A) (A) (A) (A)
                 (A) (A) (A) (A) (A) (A) (A) (A) (A) (A) (A) (A)
                 (A) (A) (A) (A) (A) (A) (A) (A) (A) (A) (A) (A)
                 (A) (A) (A) (A) (A) (A) (A) (A) (A) (A) (A) (A)
                 (A) (A) (A) (A)
 The electronic state is 1-A.
 Alpha  occ. eigenvalues --  -19.30826 -19.30824 -19.30379 -19.30377 -19.24368
 Alpha  occ. eigenvalues --  -19.24365 -14.69199 -14.69198 -10.36619 -10.36617
 Alpha  occ. eigenvalues --  -10.34884 -10.34883 -10.30544 -10.30540 -10.29097
 Alpha  occ. eigenvalues --  -10.29096  -1.35678  -1.35348  -1.17322  -1.17293
 Alpha  occ. eigenvalues --   -1.11539  -1.11433  -0.96401  -0.96202  -0.81130
 Alpha  occ. eigenvalues --   -0.80971  -0.80296  -0.80217  -0.78166  -0.78099
 Alpha  occ. eigenvalues --   -0.68620  -0.67291  -0.66279  -0.65557  -0.63031
 Alpha  occ. eigenvalues --   -0.62534  -0.61587  -0.61442  -0.59495  -0.59424
 Alpha  occ. eigenvalues --   -0.55491  -0.55084  -0.53315  -0.53053  -0.51345
 Alpha  occ. eigenvalues --   -0.51214  -0.50294  -0.50191  -0.49274  -0.49209
 Alpha  occ. eigenvalues --   -0.46003  -0.45865  -0.45406  -0.45143  -0.42639
 Alpha  occ. eigenvalues --   -0.42198  -0.41913  -0.41637  -0.40583  -0.39657
 Alpha  occ. eigenvalues --   -0.39451  -0.38885  -0.35774  -0.35508
 Alpha virt. eigenvalues --   -0.00670  -0.00575   0.13296   0.13571   0.15891
 Alpha virt. eigenvalues --    0.16238   0.17862   0.18054   0.19423   0.19671
 Alpha virt. eigenvalues --    0.20443   0.20521   0.21755   0.22388   0.23251
 Alpha virt. eigenvalues --    0.23427   0.23502   0.24050   0.25714   0.25869
 Alpha virt. eigenvalues --    0.27195   0.27378   0.27732   0.27807   0.28716
 Alpha virt. eigenvalues --    0.29442   0.29873   0.30177   0.31909   0.33354
 Alpha virt. eigenvalues --    0.38103   0.38811   0.45503   0.46541   0.47412
 Alpha virt. eigenvalues --    0.47652   0.50815   0.52899   0.53244   0.53744
 Alpha virt. eigenvalues --    0.53984   0.57278   0.59216   0.59273   0.60662
 Alpha virt. eigenvalues --    0.60670   0.61402   0.62604   0.63066   0.63363
 Alpha virt. eigenvalues --    0.65968   0.68443   0.69635   0.70043   0.71303
 Alpha virt. eigenvalues --    0.71641   0.74523   0.75112   0.75500   0.75648
 Alpha virt. eigenvalues --    0.76542   0.77545   0.77598   0.77708   0.78806
 Alpha virt. eigenvalues --    0.78837   0.79638   0.80075   0.80471   0.80899
 Alpha virt. eigenvalues --    0.81068   0.81708   0.82150   0.82201   0.82869
 Alpha virt. eigenvalues --    0.82980   0.84798   0.85757   0.86502   0.88905
 Alpha virt. eigenvalues --    0.91842   0.92718   0.97434   0.97871   1.02354
 Alpha virt. eigenvalues --    1.02969   1.03977   1.05757   1.09030   1.09242
 Alpha virt. eigenvalues --    1.09278   1.09732   1.12446   1.13542   1.17041
 Alpha virt. eigenvalues --    1.18164   1.18763   1.21375   1.21712   1.22003
 Alpha virt. eigenvalues --    1.24155   1.26173   1.26557   1.28323   1.33516
 Alpha virt. eigenvalues --    1.33566   1.39005   1.40082   1.40319   1.41990
 Alpha virt. eigenvalues --    1.45144   1.50129   1.54078   1.54648   1.60990
 Alpha virt. eigenvalues --    1.62428   1.67519   1.69164   1.70395   1.72741
 Alpha virt. eigenvalues --    1.78633   1.78912   1.83562   1.83772   1.85544
 Alpha virt. eigenvalues --    1.85883   1.87797   1.88488   1.89977   1.90758
 Alpha virt. eigenvalues --    1.92965   1.94831   2.02246   2.02467   2.09173
 Alpha virt. eigenvalues --    2.09475   2.11505   2.12276   2.17587   2.18029
 Alpha virt. eigenvalues --    2.18256   2.19430   2.20127   2.20611   2.22767
 Alpha virt. eigenvalues --    2.23284   2.24143   2.24435   2.30618   2.30644
 Alpha virt. eigenvalues --    2.33929   2.34016   2.38907   2.40040   2.49633
 Alpha virt. eigenvalues --    2.51747   2.55201   2.55574   2.57573   2.57750
 Alpha virt. eigenvalues --    2.63952   2.64351   2.67670   2.68473   2.69719
 Alpha virt. eigenvalues --    2.71156   2.72054   2.72879   2.72962   2.73164
 Alpha virt. eigenvalues --    2.73850   2.74632   2.75908   2.75921   2.89023
 Alpha virt. eigenvalues --    2.90368   2.93140   2.93705   3.08968   3.09085
 Alpha virt. eigenvalues --    3.13567   3.14221   3.15654   3.17665   3.23653
 Alpha virt. eigenvalues --    3.24042   3.37163   3.37188   3.50524   3.50544
 Alpha virt. eigenvalues --    3.53332   3.53626   3.83052   3.83718   3.86441
 Alpha virt. eigenvalues --    3.87347
          Condensed to atoms (all electrons):
 Mulliken charges:
               1
     1  C   -0.251385
     2  C   -0.267078
     3  C   -0.212401
     4  C    0.069386
     5  O   -0.491809
     6  N    0.270678
     7  O   -0.292517
     8  O   -0.209005
     9  H    0.152747
    10  H    0.132726
    11  H    0.133976
    12  H    0.144215
    13  H    0.121861
    14  H    0.126477
    15  H    0.130115
    16  H    0.110155
    17  H    0.331806
    18  C   -0.212275
    19  C   -0.267298
    20  C   -0.251412
    21  C    0.069590
    22  O   -0.491758
    23  N    0.270747
    24  O   -0.292468
    25  O   -0.208980
    26  H    0.144114
    27  H    0.126488
    28  H    0.121894
    29  H    0.134020
    30  H    0.132731
    31  H    0.152712
    32  H    0.110141
    33  H    0.130080
    34  H    0.331728
 Sum of Mulliken charges =   0.00000
 Mulliken charges with hydrogens summed into heavy atoms:
               1
     1  C    0.168064
     2  C   -0.267078
     3  C    0.180152
     4  C    0.309656
     5  O   -0.160003
     6  N    0.270678
     7  O   -0.292517
     8  O   -0.209005
    18  C    0.180220
    19  C   -0.267298
    20  C    0.168051
    21  C    0.309811
    22  O   -0.160030
    23  N    0.270747
    24  O   -0.292468
    25  O   -0.208980
 Electronic spatial extent (au):  <R**2>=           3987.2803
 Charge=              0.0000 electrons
 Dipole moment (field-independent basis, Debye):
    X=              0.0037    Y=              0.0043    Z=              0.0107  Tot=              0.0121
   1 Symmetry operations used in ECPInt.
 ECPInt:  NShTT=    8778 NPrTT=   35242 LenC2=    8437 LenP2D=   23679.
 LDataN:  DoStor=T MaxTD1= 5 Len=  102
 Calling FoFJK, ICntrl=      2127 FMM=F ISym2X=0 I1Cent= 0 IOpClX= 0 NMat=1 NMatS=1 NMatT=0.

 GradGradGradGradGradGradGradGradGradGradGradGradGradGradGradGradGradGrad
 FormGI is forming the generalized inverse of G from B-inverse, IUseBI=4.
 Internal  Forces:  Max     0.021837260 RMS     0.003762829
 Step number   1 out of a maximum of  184
 All quantities printed in internal units (Hartrees-Bohrs-Radians)
 Mixed Optimization -- RFO/linear search
 Second derivative matrix not updated -- first step.
 ITU=  0
     Eigenvalues ---    0.00391   0.00410   0.00410   0.00527   0.00527
     Eigenvalues ---    0.00539   0.00555   0.00578   0.01020   0.01037
     Eigenvalues ---    0.01722   0.01743   0.02249   0.03127   0.04179
     Eigenvalues ---    0.04183   0.04554   0.04562   0.05206   0.05250
     Eigenvalues ---    0.05286   0.05507   0.05657   0.05657   0.05711
     Eigenvalues ---    0.05711   0.05737   0.05737   0.05870   0.05870
     Eigenvalues ---    0.05928   0.05998   0.06070   0.06303   0.10172
     Eigenvalues ---    0.11174   0.11699   0.11730   0.12668   0.14254
     Eigenvalues ---    0.14615   0.14906   0.15437   0.15712   0.16000
     Eigenvalues ---    0.16000   0.16000   0.16000   0.16000   0.16000
     Eigenvalues ---    0.16000   0.16000   0.16000   0.16000   0.16000
     Eigenvalues ---    0.16000   0.17961   0.20288   0.20994   0.21159
     Eigenvalues ---    0.22974   0.24439   0.24999   0.25000   0.26532
     Eigenvalues ---    0.26952   0.29708   0.29710   0.30557   0.30557
     Eigenvalues ---    0.33168   0.33835   0.33837   0.34445   0.34446
     Eigenvalues ---    0.34531   0.34992   0.34992   0.35083   0.35083
     Eigenvalues ---    0.35127   0.35127   0.35137   0.35137   0.35267
     Eigenvalues ---    0.35267   0.35268   0.35269   0.46369   0.47357
     Eigenvalues ---    0.50821   0.52669   0.90983   0.95530   1.03060
     Eigenvalues ---    1.03067
 Linear search not attempted -- first point.
 Iteration  1 RMS(Cart)=  0.04396664 RMS(Int)=  0.00052600
 Iteration  2 RMS(Cart)=  0.00075334 RMS(Int)=  0.00008525
 Iteration  3 RMS(Cart)=  0.00000039 RMS(Int)=  0.00008525
 Variable       Old X    -DE/DX   Delta X   Delta X   Delta X     New X
                                 (Linear)    (Quad)   (Total)
    R1        2.88545   0.00324   0.00000   0.01061   0.01061   2.89606
    R2        2.05540   0.00878   0.00000   0.02445   0.02445   2.07985
    R3        2.05688   0.01006   0.00000   0.02808   0.02808   2.08496
    R4        2.05243   0.01059   0.00000   0.02933   0.02933   2.08176
    R5        2.86867   0.00232   0.00000   0.00739   0.00739   2.87606
    R6        2.94492  -0.00014   0.00000  -0.00053  -0.00053   2.94440
    R7        2.79738   0.02184   0.00000   0.06177   0.06177   2.85915
    R8        2.05453   0.00793   0.00000   0.02204   0.02204   2.07657
    R9        2.05241   0.01097   0.00000   0.03039   0.03039   2.08279
   R10        2.05469   0.00956   0.00000   0.02658   0.02658   2.08128
   R11        2.62631   0.00005   0.00000   0.00010   0.00011   2.62642
   R12        2.07607   0.00520   0.00000   0.01501   0.01501   2.09108
   R13        2.06585   0.00624   0.00000   0.01768   0.01768   2.08353
   R14        1.83963   0.00060   0.00000   0.00112   0.00112   1.84075
   R15        2.30487   0.00404   0.00000   0.00420   0.00421   2.30907
   R16        2.27435   0.00362   0.00000   0.00348   0.00348   2.27783
   R17        3.56918  -0.00029   0.00000  -0.00484  -0.00484   3.56434
   R18        3.56985  -0.00031   0.00000  -0.00512  -0.00513   3.56472
   R19        2.86867   0.00232   0.00000   0.00738   0.00738   2.87605
   R20        2.05453   0.00792   0.00000   0.02203   0.02203   2.07656
   R21        2.05470   0.00955   0.00000   0.02656   0.02656   2.08126
   R22        2.05241   0.01096   0.00000   0.03038   0.03038   2.08279
   R23        2.88550   0.00326   0.00000   0.01067   0.01067   2.89617
   R24        2.94487  -0.00013   0.00000  -0.00047  -0.00047   2.94440
   R25        2.79748   0.02182   0.00000   0.06173   0.06173   2.85921
   R26        2.05243   0.01058   0.00000   0.02932   0.02932   2.08176
   R27        2.05688   0.01005   0.00000   0.02808   0.02808   2.08496
   R28        2.05540   0.00879   0.00000   0.02447   0.02447   2.07988
   R29        2.62631   0.00006   0.00000   0.00013   0.00013   2.62643
   R30        2.06584   0.00623   0.00000   0.01767   0.01767   2.08351
   R31        2.07610   0.00519   0.00000   0.01497   0.01497   2.09107
   R32        1.83965   0.00062   0.00000   0.00116   0.00116   1.84081
   R33        2.30482   0.00404   0.00000   0.00419   0.00419   2.30901
   R34        2.27438   0.00361   0.00000   0.00347   0.00347   2.27785
    A1        1.92760   0.00165   0.00000   0.01206   0.01204   1.93964
    A2        1.92652   0.00104   0.00000   0.00627   0.00621   1.93273
    A3        1.91641  -0.00198   0.00000  -0.01404  -0.01401   1.90240
    A4        1.90009  -0.00082   0.00000  -0.00051  -0.00060   1.89949
    A5        1.89834   0.00017   0.00000   0.00095   0.00100   1.89934
    A6        1.89426  -0.00010   0.00000  -0.00499  -0.00499   1.88927
    A7        1.96545  -0.00106   0.00000  -0.00968  -0.00972   1.95574
    A8        1.91679   0.00022   0.00000  -0.00432  -0.00437   1.91242
    A9        1.86623   0.00057   0.00000   0.00496   0.00499   1.87123
   A10        1.94016   0.00013   0.00000  -0.00198  -0.00207   1.93809
   A11        1.90930   0.00073   0.00000   0.00894   0.00896   1.91826
   A12        1.86150  -0.00054   0.00000   0.00320   0.00320   1.86470
   A13        1.92292   0.00135   0.00000   0.01031   0.01025   1.93317
   A14        1.90833  -0.00222   0.00000  -0.01687  -0.01684   1.89149
   A15        1.93440   0.00134   0.00000   0.00935   0.00928   1.94368
   A16        1.89322   0.00008   0.00000  -0.00225  -0.00221   1.89101
   A17        1.89957  -0.00045   0.00000   0.00425   0.00410   1.90367
   A18        1.90484  -0.00011   0.00000  -0.00506  -0.00504   1.89979
   A19        1.98080   0.00292   0.00000   0.01912   0.01907   1.99987
   A20        1.89144  -0.00033   0.00000   0.00046   0.00027   1.89171
   A21        1.87659  -0.00353   0.00000  -0.02876  -0.02879   1.84781
   A22        1.95730  -0.00083   0.00000   0.00357   0.00346   1.96076
   A23        1.85730   0.00118   0.00000   0.00901   0.00919   1.86649
   A24        1.89702   0.00040   0.00000  -0.00587  -0.00604   1.89098
   A25        1.91039  -0.00021   0.00000   0.00653   0.00651   1.91690
   A26        2.03491  -0.00082   0.00000  -0.00387  -0.00421   2.03069
   A27        2.09113   0.00061   0.00000   0.00257   0.00219   2.09333
   A28        2.15711   0.00020   0.00000   0.00094   0.00057   2.15769
   A29        2.26370  -0.00154   0.00000  -0.00780  -0.00783   2.25588
   A30        2.80029   0.00207   0.00000   0.01272   0.01269   2.81298
   A31        1.92296   0.00135   0.00000   0.01036   0.01029   1.93325
   A32        1.93435   0.00134   0.00000   0.00938   0.00930   1.94365
   A33        1.90837  -0.00223   0.00000  -0.01691  -0.01689   1.89149
   A34        1.89959  -0.00046   0.00000   0.00422   0.00406   1.90365
   A35        1.89315   0.00008   0.00000  -0.00225  -0.00221   1.89094
   A36        1.90485  -0.00011   0.00000  -0.00505  -0.00504   1.89981
   A37        1.96536  -0.00107   0.00000  -0.00970  -0.00974   1.95562
   A38        1.94029   0.00014   0.00000  -0.00193  -0.00201   1.93827
   A39        1.90932   0.00072   0.00000   0.00889   0.00890   1.91822
   A40        1.91680   0.00021   0.00000  -0.00440  -0.00445   1.91234
   A41        1.86584   0.00060   0.00000   0.00514   0.00518   1.87102
   A42        1.86184  -0.00056   0.00000   0.00313   0.00313   1.86497
   A43        1.91639  -0.00197   0.00000  -0.01395  -0.01393   1.90246
   A44        1.92650   0.00104   0.00000   0.00627   0.00622   1.93272
   A45        1.92760   0.00165   0.00000   0.01202   0.01199   1.93959
   A46        1.89426  -0.00011   0.00000  -0.00498  -0.00499   1.88928
   A47        1.89836   0.00017   0.00000   0.00092   0.00096   1.89933
   A48        1.90011  -0.00082   0.00000  -0.00052  -0.00061   1.89950
   A49        1.98088   0.00297   0.00000   0.01940   0.01935   2.00023
   A50        1.87678  -0.00357   0.00000  -0.02902  -0.02905   1.84773
   A51        1.89140  -0.00033   0.00000   0.00047   0.00028   1.89168
   A52        1.85722   0.00118   0.00000   0.00904   0.00924   1.86646
   A53        1.95723  -0.00085   0.00000   0.00354   0.00341   1.96064
   A54        1.89696   0.00041   0.00000  -0.00592  -0.00610   1.89086
   A55        1.91025  -0.00021   0.00000   0.00663   0.00661   1.91685
   A56        2.03485  -0.00080   0.00000  -0.00381  -0.00411   2.03075
   A57        2.09113   0.00060   0.00000   0.00251   0.00218   2.09331
   A58        2.15716   0.00020   0.00000   0.00092   0.00059   2.15775
   A59        2.26438  -0.00154   0.00000  -0.00781  -0.00784   2.25653
   A60        2.80094   0.00204   0.00000   0.01268   0.01267   2.81361
    D1        3.07684   0.00091   0.00000   0.03547   0.03549   3.11233
    D2       -1.03406   0.00048   0.00000   0.02264   0.02269  -1.01137
    D3        0.97923   0.00026   0.00000   0.02690   0.02695   1.00617
    D4        0.97474   0.00017   0.00000   0.02419   0.02414   0.99889
    D5       -3.13616  -0.00026   0.00000   0.01135   0.01134  -3.12482
    D6       -1.12287  -0.00047   0.00000   0.01562   0.01560  -1.10727
    D7       -1.11293   0.00090   0.00000   0.03530   0.03527  -1.07767
    D8        1.05935   0.00047   0.00000   0.02247   0.02247   1.08181
    D9        3.07263   0.00025   0.00000   0.02674   0.02673   3.09936
   D10        3.07980  -0.00066   0.00000  -0.00008  -0.00011   3.07969
   D11        1.00067  -0.00020   0.00000   0.00682   0.00684   1.00751
   D12       -1.09988   0.00053   0.00000   0.01812   0.01818  -1.08170
   D13        0.92042  -0.00026   0.00000   0.01430   0.01424   0.93466
   D14       -1.15871   0.00020   0.00000   0.02120   0.02119  -1.13751
   D15        3.02393   0.00093   0.00000   0.03250   0.03253   3.05646
   D16       -1.13077  -0.00012   0.00000   0.00602   0.00595  -1.12482
   D17        3.07328   0.00034   0.00000   0.01292   0.01291   3.08619
   D18        0.97273   0.00107   0.00000   0.02422   0.02425   0.99698
   D19       -2.98413   0.00048   0.00000   0.01747   0.01756  -2.96657
   D20        1.11267  -0.00027   0.00000  -0.00119  -0.00115   1.11152
   D21       -0.93494   0.00133   0.00000   0.02092   0.02081  -0.91413
   D22       -0.79727  -0.00063   0.00000   0.00042   0.00050  -0.79677
   D23       -2.98365  -0.00138   0.00000  -0.01824  -0.01821  -3.00186
   D24        1.25192   0.00021   0.00000   0.00387   0.00375   1.25567
   D25        1.28277  -0.00002   0.00000   0.01207   0.01215   1.29492
   D26       -0.90362  -0.00077   0.00000  -0.00659  -0.00656  -0.91018
   D27       -2.95124   0.00083   0.00000   0.01552   0.01541  -2.93583
   D28       -0.93145  -0.00056   0.00000  -0.00553  -0.00550  -0.93696
   D29        2.21824   0.00082   0.00000   0.04268   0.04270   2.26094
   D30       -3.06467  -0.00005   0.00000  -0.00204  -0.00204  -3.06671
   D31        0.08503   0.00133   0.00000   0.04617   0.04616   0.13119
   D32        1.11854  -0.00028   0.00000  -0.00647  -0.00646   1.11208
   D33       -2.01495   0.00109   0.00000   0.04174   0.04174  -1.97321
   D34       -1.34597  -0.00133   0.00000  -0.03244  -0.03244  -1.37841
   D35        0.80471  -0.00017   0.00000  -0.01428  -0.01422   0.79048
   D36        2.87684   0.00059   0.00000  -0.01378  -0.01384   2.86300
   D37       -0.08419  -0.00011   0.00000   0.02739   0.02736  -0.05682
   D38       -3.13765   0.00274   0.00000   0.05032   0.05031  -3.08735
   D39       -0.00450   0.00130   0.00000   0.00011   0.00015  -0.00435
   D40        0.84298   0.00119   0.00000   0.01631   0.01636   0.85934
   D41       -0.83437  -0.00123   0.00000  -0.01897  -0.01900  -0.85337
   D42       -3.08006   0.00066   0.00000  -0.00009  -0.00006  -3.08012
   D43       -0.92065   0.00026   0.00000  -0.01456  -0.01450  -0.93514
   D44        1.13106   0.00011   0.00000  -0.00636  -0.00630   1.12476
   D45        1.09960  -0.00053   0.00000  -0.01829  -0.01835   1.08125
   D46       -3.02417  -0.00093   0.00000  -0.03276  -0.03280  -3.05696
   D47       -0.97246  -0.00109   0.00000  -0.02456  -0.02460  -0.99706
   D48       -1.00096   0.00021   0.00000  -0.00699  -0.00701  -1.00797
   D49        1.15845  -0.00020   0.00000  -0.02146  -0.02145   1.13700
   D50       -3.07302  -0.00035   0.00000  -0.01326  -0.01326  -3.08628
   D51        1.11309  -0.00090   0.00000  -0.03538  -0.03535   1.07775
   D52       -0.97456  -0.00018   0.00000  -0.02432  -0.02427  -0.99884
   D53       -3.07667  -0.00090   0.00000  -0.03557  -0.03558  -3.11225
   D54       -1.05929  -0.00047   0.00000  -0.02253  -0.02253  -1.08183
   D55        3.13623   0.00025   0.00000  -0.01147  -0.01146   3.12477
   D56        1.03412  -0.00048   0.00000  -0.02272  -0.02277   1.01135
   D57       -3.07278  -0.00025   0.00000  -0.02677  -0.02676  -3.09954
   D58        1.12275   0.00047   0.00000  -0.01571  -0.01569   1.10706
   D59       -0.97936  -0.00026   0.00000  -0.02696  -0.02700  -1.00636
   D60        0.79530   0.00065   0.00000   0.00088   0.00081   0.79611
   D61       -1.25395  -0.00021   0.00000  -0.00260  -0.00248  -1.25643
   D62        2.98162   0.00140   0.00000   0.01971   0.01968   3.00129
   D63        2.98215  -0.00047   0.00000  -0.01622  -0.01631   2.96584
   D64        0.93289  -0.00133   0.00000  -0.01971  -0.01960   0.91330
   D65       -1.11473   0.00029   0.00000   0.00260   0.00256  -1.11216
   D66       -1.28502   0.00004   0.00000  -0.01070  -0.01076  -1.29579
   D67        2.94891  -0.00082   0.00000  -0.01418  -0.01406   2.93485
   D68        0.90129   0.00080   0.00000   0.00813   0.00811   0.90939
   D69        3.06711   0.00001   0.00000   0.00078   0.00079   3.06791
   D70       -0.08334  -0.00130   0.00000  -0.04463  -0.04463  -0.12796
   D71        0.93424   0.00052   0.00000   0.00422   0.00421   0.93845
   D72       -2.21621  -0.00079   0.00000  -0.04119  -0.04121  -2.25742
   D73       -1.11573   0.00026   0.00000   0.00521   0.00521  -1.11052
   D74        2.01700  -0.00106   0.00000  -0.04021  -0.04021   1.97679
   D75        1.34393   0.00136   0.00000   0.03343   0.03344   1.37737
   D76       -2.87865  -0.00058   0.00000   0.01463   0.01470  -2.86395
   D77       -0.80668   0.00018   0.00000   0.01506   0.01501  -0.79167
   D78        0.08190   0.00008   0.00000  -0.02800  -0.02795   0.05395
   D79        3.13564  -0.00272   0.00000  -0.04928  -0.04927   3.08637
   D80        0.00327  -0.00136   0.00000  -0.00198  -0.00201   0.00127
         Item               Value     Threshold  Converged?
 Maximum Force            0.021837     0.000015     NO 
 RMS     Force            0.003763     0.000010     NO 
 Maximum Displacement     0.175127     0.000060     NO 
 RMS     Displacement     0.043839     0.000040     NO 
 GradGradGradGradGradGradGradGradGradGradGradGradGradGradGradGradGradGrad

                    Distance matrix (angstroms):
                    1          2          3          4          5
     1  C    0.000000
     2  C    1.532530   0.000000
     3  C    2.533109   1.521944   0.000000
     4  C    2.525135   1.558107   2.539107   0.000000
     5  O    3.781231   2.482175   2.881453   1.389840   0.000000
     6  N    2.451565   1.512996   2.484691   2.466314   3.053850
     7  O    2.781678   2.328813   3.604856   2.874097   3.616960
     8  O    3.431630   2.358485   2.665854   3.334545   3.516315
     9  H    1.100610   2.185462   3.491804   2.760172   4.107063
    10  H    1.103312   2.182514   2.775316   3.496863   4.635563
    11  H    1.101621   2.159046   2.783585   2.761702   3.999827
    12  H    3.488777   2.170153   1.098876   2.738766   2.517095
    13  H    2.739015   2.142105   1.102167   2.798375   3.197075
    14  H    2.818471   2.179589   1.101364   3.507505   3.906026
    15  H    2.775349   2.177119   3.477749   1.106551   2.079760
    16  H    2.640358   2.140787   2.828099   1.102558   2.010070
    17  H    4.193886   2.821433   3.341241   1.949107   0.974083
    18  C    7.140226   6.483566   7.633181   6.120938   6.123678
    19  C    6.416454   5.519496   6.485449   5.252884   5.073612
    20  C    7.523133   6.418257   7.144731   6.059226   5.538511
    21  C    6.059471   5.253856   6.122991   5.439334   5.434136
    22  O    5.537871   5.073589   6.123758   5.434612   5.774237
    23  N    5.326320   4.362723   5.390485   3.846687   3.665171
    24  O    4.995589   3.769607   4.532846   3.306060   2.825871
    25  O    5.125804   4.407531   5.638136   3.663619   3.748662
    26  H    6.637178   6.202207   7.475044   5.936340   6.188212
    27  H    7.569299   6.888031   8.055905   6.281186   6.196103
    28  H    8.039851   7.382989   8.473384   7.129168   7.094083
    29  H    8.357251   7.303537   8.011175   7.065528   6.590377
    30  H    7.993011   6.876970   7.634025   6.275011   5.657066
    31  H    7.300336   6.055497   6.570662   5.776787   5.098907
    32  H    7.093532   6.296210   7.080674   6.523941   6.450626
    33  H    5.663827   4.687670   5.341016   5.004203   4.879764
    34  H    4.570596   4.177939   5.305854   4.602281   5.089812
                    6          7          8          9         10
     6  N    0.000000
     7  O    1.221908   0.000000
     8  O    1.205378   2.139452   0.000000
     9  H    2.684270   2.501671   3.820818   0.000000
    10  H    2.727867   3.127901   3.465126   1.792379   0.000000
    11  H    3.413531   3.801403   4.342659   1.790907   1.786623
    12  H    2.776208   3.937229   2.640864   4.332721   3.801503
    13  H    3.431527   4.440427   3.756069   3.757042   3.070205
    14  H    2.727138   3.864666   2.639373   3.816427   2.609530
    15  H    2.614331   2.514008   3.642897   2.554078   3.777668
    16  H    3.392498   3.800742   4.272316   2.953910   3.672652
    17  H    2.881868   3.320183   3.196062   4.396689   4.972561
    18  C    5.389306   4.530264   5.637536   6.564456   7.629822
    19  C    4.363124   3.768632   4.408000   6.052145   6.875784
    20  C    5.328404   4.995777   5.128109   7.298299   7.994116
    21  C    3.847903   3.306432   3.664805   5.776135   6.275813
    22  O    3.665130   2.825831   3.748353   5.098165   5.656122
    23  N    3.490526   2.998961   3.794052   5.006256   5.954647
    24  O    2.999760   2.965568   3.094543   4.931871   5.606170
    25  O    3.794737   3.095286   4.417802   4.619610   5.879239
    26  H    5.131948   4.104483   5.544159   5.944796   7.091304
    27  H    5.968652   5.140472   6.306255   6.968248   8.182006
    28  H    6.179564   5.342505   6.287051   7.477228   8.439972
    29  H    6.100015   5.718647   5.803207   8.107200   8.740276
    30  H    5.956187   5.605754   5.880980   7.731069   8.580861
    31  H    5.009639   4.933257   4.623008   7.237766   7.734449
    32  H    4.855374   4.352122   4.526897   6.815558   7.233541
    33  H    3.276662   3.091152   2.821355   5.580963   5.833819
    34  H    2.822633   1.886169   3.116541   4.128189   4.718789
                   11         12         13         14         15
    11  H    0.000000
    12  H    3.767899   0.000000
    13  H    2.531595   1.784590   0.000000
    14  H    3.190530   1.792053   1.792253   0.000000
    15  H    3.158978   3.717342   3.815691   4.325130   0.000000
    16  H    2.412892   3.174332   2.641744   3.832324   1.791112
    17  H    4.619518   2.860145   3.894084   4.233164   2.269634
    18  C    8.006424   7.476833   8.472811   8.055889   5.337699
    19  C    7.301567   6.205402   7.384441   6.890158   4.685389
    20  C    8.357022   6.643122   8.043889   7.574498   5.661628
    21  C    7.065666   5.938920   7.130970   6.283519   5.003725
    22  O    6.589820   6.188780   7.094127   6.195738   4.880687
    23  N    6.097753   5.134305   6.180363   5.969930   3.274135
    24  O    5.718400   4.107948   5.344883   5.143167   3.089491
    25  O    5.800356   5.545781   6.287022   6.307033   2.819063
    26  H    7.515127   7.478562   8.284655   7.855855   5.059571
    27  H    8.337226   7.857932   8.811089   8.599737   5.451643
    28  H    8.954557   8.287032   9.367542   8.811735   6.384901
    29  H    9.247327   7.521269   8.958845   8.342807   6.650829
    30  H    8.738865   7.097316   8.443664   8.186844   5.830693
    31  H    8.109064   5.952161   7.483035   6.975399   5.579628
    32  H    8.119400   6.847621   8.117810   7.162183   6.102760
    33  H    6.652851   5.062877   6.387983   5.455606   4.789766
    34  H    5.621180   5.474400   6.236729   5.407142   4.063112
                   16         17         18         19         20
    16  H    0.000000
    17  H    2.824616   0.000000
    18  C    7.078064   5.306448   0.000000
    19  C    6.294876   4.178324   1.521939   0.000000
    20  C    7.092789   4.571443   2.533053   1.532586   0.000000
    21  C    6.523943   4.601753   2.539265   1.558109   2.525110
    22  O    6.451288   5.089861   2.881787   2.482465   3.781345
    23  N    4.853773   2.823207   2.484672   1.513026   2.451444
    24  O    4.351512   1.886369   3.604871   2.328850   2.782215
    25  O    4.524986   3.117558   2.665574   2.358510   3.430317
    26  H    6.844548   5.474589   1.098866   2.170203   3.488796
    27  H    7.159049   5.408349   1.101353   2.179557   2.818146
    28  H    8.115474   6.237264   1.102166   2.142100   2.739131
    29  H    8.118808   5.621865   2.783603   2.159139   1.101619
    30  H    7.232004   4.720182   2.775204   2.182553   1.103313
    31  H    6.815826   4.128813   3.491759   2.185487   1.100623
    32  H    7.613707   5.584409   2.828596   2.140721   2.639838
    33  H    6.103349   4.061811   3.477806   2.177096   2.775589
    34  H    5.585193   4.513180   3.340645   2.821276   4.193956
                   21         22         23         24         25
    21  C    0.000000
    22  O    1.389848   0.000000
    23  N    2.466588   3.054985   0.000000
    24  O    2.873671   3.617063   1.221874   0.000000
    25  O    3.336350   3.520187   1.205387   2.139468   0.000000
    26  H    2.739257   2.517934   2.776213   3.936968   2.641654
    27  H    3.507616   3.906591   2.727109   3.864950   2.637931
    28  H    2.798315   3.196684   3.431524   4.440490   3.755814
    29  H    2.761723   3.999690   3.413486   3.801840   4.341662
    30  H    3.496845   4.635787   2.727589   3.128646   3.462615
    31  H    2.760087   4.107191   2.684150   2.502226   3.819764
    32  H    1.102549   2.010047   3.392567   3.800114   4.273703
    33  H    1.106546   2.079682   2.614277   2.513174   3.644308
    34  H    1.949105   0.974112   2.882649   3.320205   3.199840
                   26         27         28         29         30
    26  H    0.000000
    27  H    1.792028   0.000000
    28  H    1.784539   1.792257   0.000000
    29  H    3.768067   3.190191   2.531788   0.000000
    30  H    3.801342   2.609098   3.070388   1.786623   0.000000
    31  H    4.332772   3.816149   3.757131   1.790907   1.792396
    32  H    3.175425   3.832560   2.642130   2.412440   3.672244
    33  H    3.717551   4.325114   3.815754   3.159408   3.777816
    34  H    2.859564   4.232873   3.893014   4.619410   4.972585
                   31         32         33         34
    31  H    0.000000
    32  H    2.953117   0.000000
    33  H    2.554297   1.791023   0.000000
    34  H    4.397067   2.824691   2.269853   0.000000
 Framework group  C1[X(C8H18N2O6)]
 Deg. of freedom    96
                         Standard orientation:                         
 ---------------------------------------------------------------------
 Center     Atomic      Atomic             Coordinates (Angstroms)
 Number     Number       Type             X           Y           Z
 ---------------------------------------------------------------------
      1          6           0       -3.425910   -0.977409    1.205439
      2          6           0       -2.754020   -0.137544    0.113725
      3          6           0       -3.655659    0.051961   -1.097658
      4          6           0       -2.317089    1.235656    0.706272
      5          8           0       -1.895260    2.164721   -0.237419
      6          7           0       -1.489430   -0.861524   -0.293489
      7          8           0       -0.714766   -1.148274    0.606915
      8          8           0       -1.265425   -1.071853   -1.459044
      9          1           0       -2.750430   -1.129873    2.060905
     10          1           0       -3.728052   -1.962221    0.810276
     11          1           0       -4.329916   -0.453963    1.555221
     12          1           0       -3.178990    0.708005   -1.839225
     13          1           0       -4.591323    0.528825   -0.763134
     14          1           0       -3.897501   -0.911893   -1.572526
     15          1           0       -1.554016    1.052285    1.486368
     16          1           0       -3.214726    1.654447    1.190520
     17          1           0       -0.981351    1.966903   -0.510321
     18          6           0        3.653533   -0.053714    1.100067
     19          6           0        2.753981    0.137278   -0.112628
     20          6           0        3.427985    0.978371   -1.202168
     21          6           0        2.317829   -1.235060   -0.707744
     22          8           0        1.894917   -2.165915    0.233708
     23          7           0        1.489003    0.861398    0.293238
     24          8           0        0.715283    1.148186   -0.607920
     25          8           0        1.264827    1.073650    1.458422
     26          1           0        3.175429   -0.710195    1.840308
     27          1           0        3.895019    0.909613    1.576159
     28          1           0        4.589522   -0.530724    0.766665
     29          1           0        4.332503    0.455216   -1.551052
     30          1           0        3.729606    1.962642   -0.805262
     31          1           0        2.753996    1.132001   -2.058618
     32          1           0        3.216056   -1.652925   -1.191677
     33          1           0        1.555696   -1.050532   -1.488479
     34          1           0        0.980945   -1.968100    0.506507
 ---------------------------------------------------------------------
 Rotational constants (GHZ):           0.9446781           0.3248744           0.2973294
   260 basis functions,   472 primitive gaussians,   276 cartesian basis functions
    64 alpha electrons       64 beta electrons
       nuclear repulsion energy      1317.0369672236 Hartrees.
 NAtoms=   34 NActive=   34 NUniq=   34 SFac= 1.00D+00 NAtFMM=   60 NAOKFM=F Big=F
 Nuclear repulsion after empirical dispersion term =     1317.0098355810 Hartrees.
   1 Symmetry operations used in ECPInt.
 ECPInt:  NShTT=    8778 NPrTT=   35242 LenC2=    8421 LenP2D=   23561.
 LDataN:  DoStor=T MaxTD1= 4 Len=   56
 Initial guess from the checkpoint file:  "/scratch/user/peterchao1/peterchao1/6113322_1660079103000000687098386/Gau-36368.chk"
 B after Tr=     0.000000   -0.000000    0.000000
         Rot=    0.999989    0.003771    0.000892    0.002544 Ang=   0.53 deg.
 ExpMin= 1.22D-01 ExpMax= 2.27D+03 ExpMxC= 3.41D+02 IAcc=3 IRadAn=         5 AccDes= 0.00D+00
 Harris functional with IExCor= 4639 and IRadAn=       5 diagonalized for initial guess.
 HarFok:  IExCor= 4639 AccDes= 0.00D+00 IRadAn=         5 IDoV= 1 UseB2=F ITyADJ=14
 ICtDFT=  3500011 ScaDFX=  1.000000  1.000000  1.000000  1.000000
 FoFCou: FMM=F IPFlag=           0 FMFlag=      100000 FMFlg1=           0
         NFxFlg=           0 DoJE=T BraDBF=F KetDBF=T FulRan=T
         wScrn=  0.000000 ICntrl=       500 IOpCl=  0 I1Cent=   200000004 NGrid=           0
         NMat0=    1 NMatS0=      1 NMatT0=    0 NMatD0=    1 NMtDS0=    0 NMtDT0=    0
 Petite list used in FoFCou.
     Minimum is close to point  4 DX=  1.20D-02 DF= -2.91D-07 DXR=  9.90D-03 DFR=  9.80D-05 which will be used.
     Accept linear search using points  1 and  2.
     Minimum is close to point  2 DX= -8.28D-02 DF= -2.24D-06 DXR=  9.03D-02 DFR=  8.22D-03 which will be used.
     Accept linear search using points  1 and  2.
     Accept linear search using points  2 and  3.
     Accept linear search using points  1 and  2.
     Minimum is close to point  2 DX=  8.40D-05 DF= -5.68D-13 DXR=  8.40D-05 DFR=  7.62D-09 which will be used.
 SCF Done:  E(RwB97XD) =  -875.408937001     a.u. after    9 cycles
            Convg  =    0.3906D-09                    47 Fock formations.
              S**2 =  0.0000                  -V/T =  2.0081
   1 Symmetry operations used in ECPInt.
 ECPInt:  NShTT=    8778 NPrTT=   35242 LenC2=    8421 LenP2D=   23561.
 LDataN:  DoStor=T MaxTD1= 5 Len=  102
 Calling FoFJK, ICntrl=      2127 FMM=F ISym2X=0 I1Cent= 0 IOpClX= 0 NMat=1 NMatS=1 NMatT=0.

 GradGradGradGradGradGradGradGradGradGradGradGradGradGradGradGradGradGrad
 Using GEDIIS/GDIIS optimizer.
 FormGI is forming the generalized inverse of G from B-inverse, IUseBI=4.
 Internal  Forces:  Max     0.003686058 RMS     0.001010080
 Step number   2 out of a maximum of  184
 All quantities printed in internal units (Hartrees-Bohrs-Radians)
 Mixed Optimization -- RFO/linear search
 Trust test= 9.40D-01 RLast= 2.56D-01 DXMaxT set to 5.05D-01
 ITU=  1  0
 Use linear search instead of GDIIS.
     Eigenvalues ---    0.00388   0.00409   0.00410   0.00526   0.00527
     Eigenvalues ---    0.00540   0.00544   0.00585   0.01022   0.01035
     Eigenvalues ---    0.01736   0.01890   0.02253   0.03152   0.04268
     Eigenvalues ---    0.04448   0.04538   0.04593   0.05162   0.05194
     Eigenvalues ---    0.05221   0.05503   0.05560   0.05563   0.05600
     Eigenvalues ---    0.05611   0.05798   0.05800   0.05944   0.05944
     Eigenvalues ---    0.06000   0.06011   0.06097   0.06247   0.10151
     Eigenvalues ---    0.11126   0.11706   0.11779   0.12768   0.14340
     Eigenvalues ---    0.14604   0.14873   0.15504   0.15690   0.15851
     Eigenvalues ---    0.16000   0.16000   0.16000   0.16000   0.16000
     Eigenvalues ---    0.16000   0.16000   0.16000   0.16000   0.16000
     Eigenvalues ---    0.16006   0.18183   0.20029   0.20286   0.21243
     Eigenvalues ---    0.22768   0.24425   0.24467   0.24979   0.26545
     Eigenvalues ---    0.26621   0.29612   0.29709   0.30355   0.30557
     Eigenvalues ---    0.32524   0.33216   0.33836   0.33862   0.34446
     Eigenvalues ---    0.34462   0.34992   0.35024   0.35083   0.35098
     Eigenvalues ---    0.35127   0.35131   0.35137   0.35193   0.35267
     Eigenvalues ---    0.35268   0.35269   0.36484   0.46380   0.48339
     Eigenvalues ---    0.50900   0.52688   0.91129   0.95823   1.03063
     Eigenvalues ---    1.03479
 Quartic linear search produced a step of  0.02356.
 Iteration  1 RMS(Cart)=  0.04609459 RMS(Int)=  0.00093628
 Iteration  2 RMS(Cart)=  0.00110672 RMS(Int)=  0.00028172
 Iteration  3 RMS(Cart)=  0.00000113 RMS(Int)=  0.00028171
 Iteration  4 RMS(Cart)=  0.00000000 RMS(Int)=  0.00028171
 Variable       Old X    -DE/DX   Delta X   Delta X   Delta X     New X
                                 (Linear)    (Quad)   (Total)
    R1        2.89606  -0.00151   0.00025  -0.00274  -0.00249   2.89357
    R2        2.07985   0.00014   0.00058   0.00589   0.00646   2.08631
    R3        2.08496  -0.00008   0.00066   0.00607   0.00673   2.09169
    R4        2.08176   0.00006   0.00069   0.00676   0.00745   2.08921
    R5        2.87606  -0.00147   0.00017  -0.00320  -0.00303   2.87303
    R6        2.94440  -0.00245  -0.00001  -0.00931  -0.00932   2.93508
    R7        2.85915   0.00342   0.00146   0.02387   0.02533   2.88448
    R8        2.07657   0.00003   0.00052   0.00504   0.00556   2.08213
    R9        2.08279   0.00007   0.00072   0.00702   0.00773   2.09053
   R10        2.08128   0.00023   0.00063   0.00662   0.00725   2.08853
   R11        2.62642  -0.00369   0.00000  -0.00786  -0.00786   2.61856
   R12        2.09108   0.00020   0.00035   0.00397   0.00432   2.09540
   R13        2.08353   0.00034   0.00042   0.00498   0.00540   2.08893
   R14        1.84075  -0.00029   0.00003  -0.00029  -0.00026   1.84049
   R15        2.30907  -0.00125   0.00010  -0.00039  -0.00028   2.30879
   R16        2.27783  -0.00166   0.00008  -0.00085  -0.00077   2.27706
   R17        3.56434  -0.00058  -0.00011  -0.01207  -0.01218   3.55216
   R18        3.56472  -0.00057  -0.00012  -0.01168  -0.01181   3.55292
   R19        2.87605  -0.00147   0.00017  -0.00322  -0.00304   2.87301
   R20        2.07656   0.00004   0.00052   0.00507   0.00559   2.08215
   R21        2.08126   0.00023   0.00063   0.00662   0.00724   2.08850
   R22        2.08279   0.00007   0.00072   0.00702   0.00774   2.09053
   R23        2.89617  -0.00152   0.00025  -0.00278  -0.00253   2.89364
   R24        2.94440  -0.00248  -0.00001  -0.00939  -0.00940   2.93499
   R25        2.85921   0.00344   0.00145   0.02395   0.02540   2.88461
   R26        2.08176   0.00006   0.00069   0.00675   0.00744   2.08920
   R27        2.08496  -0.00008   0.00066   0.00607   0.00673   2.09169
   R28        2.07988   0.00013   0.00058   0.00588   0.00646   2.08634
   R29        2.62643  -0.00368   0.00000  -0.00785  -0.00785   2.61858
   R30        2.08351   0.00035   0.00042   0.00500   0.00541   2.08893
   R31        2.09107   0.00020   0.00035   0.00396   0.00432   2.09539
   R32        1.84081  -0.00031   0.00003  -0.00036  -0.00032   1.84048
   R33        2.30901  -0.00124   0.00010  -0.00036  -0.00027   2.30874
   R34        2.27785  -0.00167   0.00008  -0.00086  -0.00078   2.27707
    A1        1.93964   0.00020   0.00028   0.00445   0.00473   1.94437
    A2        1.93273   0.00029   0.00015   0.00308   0.00322   1.93595
    A3        1.90240  -0.00018  -0.00033  -0.00462  -0.00495   1.89745
    A4        1.89949  -0.00018  -0.00001  -0.00064  -0.00067   1.89882
    A5        1.89934   0.00003   0.00002   0.00071   0.00074   1.90008
    A6        1.88927  -0.00017  -0.00012  -0.00320  -0.00331   1.88596
    A7        1.95574   0.00070  -0.00023   0.00823   0.00781   1.96355
    A8        1.91242  -0.00008  -0.00010   0.00723   0.00712   1.91955
    A9        1.87123  -0.00009   0.00012  -0.00292  -0.00272   1.86850
   A10        1.93809   0.00050  -0.00005   0.00743   0.00731   1.94540
   A11        1.91826  -0.00105   0.00021  -0.01346  -0.01309   1.90517
   A12        1.86470  -0.00004   0.00008  -0.00768  -0.00781   1.85689
   A13        1.93317   0.00012   0.00024   0.00369   0.00392   1.93708
   A14        1.89149  -0.00028  -0.00040  -0.00665  -0.00704   1.88445
   A15        1.94368   0.00024   0.00022   0.00406   0.00426   1.94794
   A16        1.89101  -0.00004  -0.00005  -0.00173  -0.00177   1.88924
   A17        1.90367   0.00006   0.00010   0.00335   0.00341   1.90707
   A18        1.89979  -0.00011  -0.00012  -0.00307  -0.00319   1.89661
   A19        1.99987  -0.00127   0.00045  -0.00390  -0.00366   1.99621
   A20        1.89171   0.00024   0.00001  -0.00145  -0.00156   1.89015
   A21        1.84781   0.00023  -0.00068  -0.00274  -0.00319   1.84462
   A22        1.96076   0.00044   0.00008   0.00042   0.00061   1.96137
   A23        1.86649   0.00062   0.00022   0.00968   0.00991   1.87640
   A24        1.89098  -0.00023  -0.00014  -0.00199  -0.00217   1.88881
   A25        1.91690  -0.00247   0.00015  -0.01954  -0.01947   1.89743
   A26        2.03069  -0.00127  -0.00010  -0.00382  -0.00563   2.02507
   A27        2.09333  -0.00168   0.00005  -0.00527  -0.00631   2.08701
   A28        2.15769   0.00305   0.00001   0.01395   0.01283   2.17052
   A29        2.25588  -0.00141  -0.00018  -0.01234  -0.01193   2.24395
   A30        2.81298   0.00241   0.00030   0.00916   0.00936   2.82234
   A31        1.93325   0.00012   0.00024   0.00366   0.00388   1.93713
   A32        1.94365   0.00024   0.00022   0.00411   0.00431   1.94796
   A33        1.89149  -0.00028  -0.00040  -0.00667  -0.00707   1.88442
   A34        1.90365   0.00006   0.00010   0.00334   0.00340   1.90705
   A35        1.89094  -0.00003  -0.00005  -0.00172  -0.00177   1.88918
   A36        1.89981  -0.00011  -0.00012  -0.00305  -0.00316   1.89665
   A37        1.95562   0.00072  -0.00023   0.00829   0.00788   1.96350
   A38        1.93827   0.00047  -0.00005   0.00721   0.00710   1.94537
   A39        1.91822  -0.00104   0.00021  -0.01336  -0.01300   1.90522
   A40        1.91234  -0.00008  -0.00010   0.00721   0.00710   1.91945
   A41        1.87102  -0.00012   0.00012  -0.00307  -0.00286   1.86816
   A42        1.86497  -0.00002   0.00007  -0.00746  -0.00759   1.85738
   A43        1.90246  -0.00019  -0.00033  -0.00467  -0.00499   1.89747
   A44        1.93272   0.00029   0.00015   0.00307   0.00321   1.93593
   A45        1.93959   0.00020   0.00028   0.00445   0.00473   1.94432
   A46        1.88928  -0.00017  -0.00012  -0.00317  -0.00328   1.88599
   A47        1.89933   0.00003   0.00002   0.00073   0.00076   1.90009
   A48        1.89950  -0.00018  -0.00001  -0.00063  -0.00066   1.89884
   A49        2.00023  -0.00134   0.00046  -0.00416  -0.00392   1.99630
   A50        1.84773   0.00026  -0.00068  -0.00268  -0.00314   1.84459
   A51        1.89168   0.00024   0.00001  -0.00147  -0.00158   1.89011
   A52        1.86646   0.00062   0.00022   0.00956   0.00979   1.87626
   A53        1.96064   0.00048   0.00008   0.00071   0.00090   1.96153
   A54        1.89086  -0.00023  -0.00014  -0.00193  -0.00212   1.88875
   A55        1.91685  -0.00244   0.00016  -0.01960  -0.01953   1.89732
   A56        2.03075  -0.00129  -0.00010  -0.00395  -0.00566   2.02509
   A57        2.09331  -0.00166   0.00005  -0.00530  -0.00625   2.08707
   A58        2.15775   0.00304   0.00001   0.01376   0.01274   2.17049
[...]
 000139,0.00007300,-0.00006143,0.00001283,-0.00013870,0.00041444,-0.000
 25461,-0.01612787,0.00728114,0.00381496,0.10528362,-0.09931965,-0.0287
 3318,-0.00101775,0.00024873,0.00015966,0.00041860,0.00018542,-0.000266
 73,-0.00108316,-0.00344947,0.00292013,-0.00054733,0.00099508,-0.000513
 56,-0.00074154,0.00118852,0.00055609,-0.00014458,0.00000642,-0.0002039
 9,0.00017169,-0.00003526,-0.00002002,0.00001844,0.00007150,0.00036187,
 -0.11085143,0.10316894,0.00000160,0.00000080,0.00000733,-0.00002110,-0
 .00000592,-0.00000149,0.00000196,0.00000779,-0.00000115,-0.00003368,-0
 .00004683,0.00001824,0.00011544,0.00001205,-0.00001768,-0.00006490,-0.
 00002361,-0.00004159,0.00003884,0.00006067,0.00002308,0.00000556,0.000
 01098,0.00001776,-0.00000206,-0.00000378,0.00000180,0.00000190,0.00000
 389,-0.00000015,0.00000127,-0.00000038,-0.00000134,-0.00000309,-0.0000
 0060,-0.00000617,0.00000111,-0.00000167,-0.00000086,0.00000128,0.00000
 197,0.00000318,-0.00001828,-0.00000446,0.00001582,0.00001526,0.0000036
 6,-0.00000242,-0.00020288,0.00004975,-0.00001401,0.00023468,-0.0007240
 9,0.00060448,0.02105927,-0.01040080,-0.00621928,0.05452191,-0.02766504
 ,-0.06285662,-0.00042835,-0.00115535,0.00030287,-0.00033963,0.00003499
 ,-0.00012892,-0.00000466,0.00524521,-0.00433558,0.00000491,-0.00106213
 ,0.00144054,0.00107812,-0.00157250,-0.00034931,-0.00013148,0.00002675,
 0.00031370,0.00002310,-0.00004953,-0.00014508,-0.00021661,0.00069799,-
 0.00076551,-0.06268902,0.02726592,0.06470158,-0.00000756,0.00001432,0.
 00000449,0.00001120,0.00000451,-0.00000275,-0.00000860,0.00001297,0.00
 000649,-0.00007990,-0.00011353,0.00005791,0.00013184,0.00010732,-0.000
 06427,0.00007954,-0.00005746,0.00000702,-0.00010002,0.00009432,0.00000
 976,-0.00005776,0.00002265,0.00000087,0.00000151,-0.00000556,-0.000002
 82,0.00000612,0.00000553,-0.00000102,-0.00000443,-0.00000187,0.0000019
 0,-0.00000246,-0.00000875,-0.00000690,-0.00000544,-0.00000102,-0.00000
 255,0.00000611,0.00000536,0.00000172,-0.00000661,0.00000152,0.00000133
 ,0.00001547,0.00001259,-0.00000392,-0.00014501,-0.00006370,0.00002223,
 -0.00006343,0.00091395,-0.00063233,-0.00571170,-0.01489321,-0.00438352
 ,-0.05748454,-0.04448722,-0.01730310,-0.00110389,0.00023290,0.00295355
 ,-0.00005296,-0.00157151,0.00002882,0.00147656,-0.00210745,-0.00070660
 ,-0.00042295,0.00073787,-0.00034320,-0.00006825,0.00023117,0.00024845,
 -0.00016406,0.00002677,-0.00006076,0.00039769,0.00016317,0.00001750,0.
 00001590,0.00014668,0.00002714,0.00797116,0.02592576,0.00901764,0.0568
 5032,-0.00001096,0.00001482,-0.00000554,0.00003543,0.00000212,-0.00000
 196,-0.00001274,0.00000810,0.00000848,-0.00002995,-0.00004674,0.000012
 32,0.00000844,0.00005955,-0.00001364,0.00014858,-0.00005468,0.00008174
 ,-0.00020525,0.00009578,-0.00002201,-0.00007782,0.00001862,-0.00002975
 ,0.00000527,-0.00000308,-0.00000598,0.00000553,0.00000009,-0.00000020,
 -0.00000751,-0.00000028,0.00000389,0.00000351,-0.00000592,0.00000063,-
 0.00000828,0.00000225,-0.00000175,0.00000549,0.00000076,-0.00000044,0.
 00000541,-0.00000487,-0.00000934,-0.00000265,0.00001053,0.00000162,-0.
 00000135,-0.00006590,0.00000561,0.00006701,0.00058341,-0.00095087,-0.0
 0277427,-0.01514381,-0.00633198,-0.04563555,-0.28144988,-0.08344611,-0
 .00090862,0.00049892,0.00311177,-0.00084374,-0.00112130,0.00011406,0.0
 0167984,-0.00003412,-0.00062345,-0.00061885,0.00030604,-0.00020274,-0.
 00050314,0.00018052,0.00076443,-0.00002531,0.00029684,0.00007081,0.000
 27978,0.00015599,0.00077366,-0.00007350,-0.00005184,0.00004457,-0.0037
 2493,-0.00924364,-0.00300745,0.05176571,0.30025491,0.00000230,-0.00000
 183,0.00000124,0.00000302,0.00000577,0.00000556,0.00000335,-0.00000285
 ,-0.00000281,0.00000715,-0.00000074,0.00000894,-0.00001880,0.00001960,
 -0.00001135,-0.00004304,0.00001565,-0.00014144,0.00011763,-0.00005714,
 0.00004102,-0.00001054,-0.00000194,0.00007745,-0.00000055,0.00000111,0
 .00000127,-0.00000102,-0.00000020,-0.00000056,0.00000073,-0.00000003,-
 0.00000015,0.00000236,-0.00000305,-0.00000071,-0.00000010,-0.00000091,
 0.00000310,0.00000024,0.00000091,-0.00000175,0.00000316,0.00000540,-0.
 00000435,-0.00000192,-0.00000178,-0.00000017,0.00004349,-0.00003630,0.
 00001714,0.00019540,0.00046407,0.00166884,0.00510192,0.02429804,0.0076
 0497,-0.01751549,-0.08631697,-0.07974618,0.00142684,0.00003007,-0.0039
 0003,0.00090907,0.00203745,0.00013997,-0.00091069,0.00076719,0.0022468
 3,-0.00017302,0.00018988,-0.00001273,-0.00028824,-0.00021084,-0.000480
 16,0.00006488,-0.00021404,0.00009802,-0.00007862,-0.00016119,-0.000467
 76,-0.00006445,0.00002656,-0.00007625,-0.00225517,-0.00527350,-0.00277
 619,0.01532043,0.08793409,0.08175295,0.00000047,-0.00000133,0.00000771
 ,-0.00002597,-0.00000008,-0.00000459,0.00000133,-0.00000076,0.00000119
 ,-0.00004370,-0.00006928,0.00005461,0.00014454,0.00001518,-0.00007481,
 -0.00002898,-0.00001878,0.00009364,0.00000048,0.00004600,-0.00004001,0
 .00004157,0.00003012,-0.00006404,-0.00000223,-0.00000195,0.00000134,0.
 00000151,0.00000527,-0.00000055,0.00000246,-0.00000076,-0.00000206,-0.
 00001138,-0.00000098,-0.00000620,0.00000402,-0.00000122,-0.00000353,0.
 00000099,0.00000483,0.00000080,-0.00000917,0.00000793,0.00000419,0.000
 01682,0.00000376,-0.00000794,-0.00017720,0.00004474,0.00004923,-0.0015
 0948,-0.00128220,0.00160237,0.00889385,-0.00042679,0.01351468,-0.14066
 684,0.00822968,-0.13361662,0.00077026,0.00001816,0.00043686,-0.0000119
 3,0.00021173,-0.00010101,0.00163117,0.00037018,0.00065700,-0.00265388,
 -0.00005089,0.00111178,-0.00006224,0.00000302,-0.00045763,0.00054787,-
 0.00030722,0.00067523,-0.00010924,0.00003741,0.00004501,0.00015337,-0.
 00022622,0.00004049,-0.01170712,-0.00086658,-0.02173757,-0.00223062,0.
 00111450,-0.00170330,0.14714866,0.00000997,-0.00001487,0.00000167,-0.0
 0003359,-0.00001139,-0.00000975,0.00001004,-0.00000840,-0.00000835,0.0
 0006215,0.00008813,-0.00003672,-0.00007228,-0.00008622,0.00005940,-0.0
 0005207,0.00005086,0.00020234,0.00002807,-0.00004798,-0.00009828,0.000
 10570,-0.00002536,-0.00013522,-0.00000195,0.00000383,0.00000334,-0.000
 00556,-0.00000308,0.00000111,0.00000583,0.00000177,-0.00000378,-0.0000
 0068,0.00001191,0.00000344,0.00000734,-0.00000059,0.00000037,-0.000007
 94,-0.00000493,0.00000087,0.00000389,-0.00000407,0.00000346,-0.0000090
 1,-0.00001359,0.00000064,0.00006229,0.00006434,-0.00004584,-0.00236847
 ,-0.00182748,0.00211630,0.01200463,-0.00128570,0.01381871,0.00655543,-
 0.05128125,0.00983674,0.00090724,0.00022779,0.00141057,0.00018953,0.00
 030234,-0.00087360,0.00023824,0.00008830,-0.00051342,0.00047089,-0.000
 49246,-0.00049496,0.00003149,0.00028683,0.00012662,0.00046034,0.000272
 50,0.00103834,0.00004980,0.00013215,0.00027873,-0.00026972,0.00007756,
 -0.00023153,0.00624218,-0.00076165,0.01215949,-0.01725753,0.00449013,-
 0.02383945,-0.00665886,0.05021985,-0.00000096,-0.00000231,-0.00001130,
 0.00002633,0.00000098,0.00000821,-0.00000062,-0.00000488,-0.00000008,0
 .00006364,0.00009599,-0.00007440,-0.00019313,-0.00003072,0.00007815,0.
 00003388,0.00002888,-0.00009794,0.00001241,-0.00006494,0.00004553,-0.0
 0003964,-0.00002071,0.00006312,0.00000134,0.00000334,-0.00000117,-0.00
 000282,-0.00000598,0.00000127,-0.00000144,0.00000065,0.00000180,0.0000
 0853,0.00000348,0.00000935,-0.00000177,0.00000206,0.00000201,-0.000002
 02,-0.00000507,-0.00000142,0.00001053,-0.00001009,-0.00000642,-0.00002
 042,-0.00000594,0.00000793,0.00025143,-0.00005736,-0.00002394,0.003765
 47,0.00272063,-0.00247403,-0.01288995,0.00096462,-0.01865220,-0.129304
 11,0.01040020,-0.23355804,-0.00095182,-0.00157247,0.00039813,0.0003682
 1,-0.00019502,0.00037461,-0.00350045,0.00102217,-0.00342169,0.00047441
 ,-0.00088532,0.00285537,0.00052414,0.00000548,0.00138332,-0.00101561,0
 .00009995,-0.00097587,0.00009187,-0.00005077,0.00031395,-0.00005394,-0
 .00001073,0.00024841,0.00614647,-0.00005588,0.00964396,-0.00396553,0.0
 0173198,-0.00608572,0.13978342,-0.01486209,0.24952733,-0.00003627,0.00
 005726,-0.00001918,0.00012610,-0.00000353,-0.00001340,-0.00004910,0.00
 003697,0.00003427,-0.00011690,-0.00013692,0.00002503,0.00007114,0.0000
 9952,-0.00004743,0.00062914,-0.00019593,0.00026656,-0.00080039,0.00039
 715,-0.00016056,-0.00042829,0.00000127,-0.00012322,0.00001682,-0.00000
 901,-0.00002042,0.00001547,-0.00000265,-0.00000192,-0.00002494,-0.0000
 0297,0.00001526,0.00001233,-0.00001460,0.00000517,-0.00002884,0.000007
 91,-0.00001046,0.00001452,-0.00000064,0.00000210,-0.00000635,-0.000015
 97,-0.00001108,-0.00000169,0.00003912,0.00000865,-0.00005083,-0.000041
 46,0.00000150,0.00021888,-0.00015375,-0.00015225,0.00465137,-0.0050030
 1,-0.00325002,0.00047519,-0.00045554,-0.00027238,-0.23100039,0.0956315
 7,0.07650872,-0.01283737,-0.00411191,0.01070061,-0.00204167,-0.0023210
 1,-0.00176003,0.00106660,0.00076535,0.00102645,0.00110939,0.00025345,-
 0.00021365,-0.00006441,-0.00005779,-0.00020921,0.00017429,0.00002314,0
 .00012093,0.00014588,-0.00020415,-0.00003247,0.00019066,-0.00027662,-0
 .00011998,0.00026279,0.00004082,-0.00018600,-0.00002611,0.00017984,0.0
 0012095,0.24863624,-0.00001721,0.00002920,0.00000851,-0.00002134,-0.00
 003359,-0.00004436,-0.00003028,0.00003578,0.00002076,-0.00016299,-0.00
 019466,0.00006135,0.00033347,0.00005163,-0.00010561,0.00002436,-0.0001
 1348,0.00043040,-0.00073354,0.00060240,-0.00018232,-0.00001127,0.00004
 596,-0.00018789,0.00000376,-0.00001359,-0.00000594,0.00001259,0.000010
 53,-0.00000178,-0.00000874,-0.00000274,0.00000366,-0.00000901,-0.00001
 115,-0.00001435,-0.00001142,0.00000111,-0.00001193,0.00001212,0.000008
 07,0.00000631,-0.00003908,-0.00000195,0.00003689,0.00003912,0.00002652
 ,-0.00000233,-0.00044589,0.00016475,0.00001806,0.00035184,0.00094166,0
 .00076977,0.02381673,-0.01481607,-0.00961484,0.00110440,0.00072734,-0.
 00033014,0.09981937,-0.09796350,-0.04524732,-0.02860231,0.00754099,0.0
 1531901,-0.00452862,-0.00513230,-0.00133111,0.00126308,-0.00002201,-0.
 00008225,0.00207205,-0.00004222,-0.00151920,-0.00007893,-0.00009545,-0
 .00005631,-0.00009190,0.00012748,0.00026657,-0.00060433,0.00009690,-0.
 00043351,-0.00096502,-0.00072112,0.00023321,-0.00018353,0.00039368,0.0
 0008471,0.00008981,-0.00010532,0.00010597,-0.09278066,0.10988546,0.000
 00869,-0.00001056,0.00000692,0.00001511,0.00001393,0.00007450,0.000025
 02,-0.00001043,-0.00001245,-0.00000380,0.00001512,-0.00000732,0.000040
 63,-0.00002613,0.00001111,-0.00005048,-0.00005366,-0.00116783,0.001095
 07,-0.00050994,0.00041279,-0.00034309,0.00002601,0.00055235,-0.0000079
 4,0.00000064,0.00000793,-0.00000392,0.00000162,-0.00000017,0.00000597,
 -0.00000139,-0.00000242,-0.00000031,-0.00000073,-0.00000167,0.00000797
 ,-0.00000305,0.00000859,-0.00000154,0.00000253,0.00000198,-0.00001423,
 0.00000464,0.00001910,0.00000865,-0.00000233,-0.00000071,-0.00005825,0
 .00004711,-0.00001445,0.00073224,0.00010382,0.00025620,0.01243017,-0.0
 1122903,-0.00587426,0.00036207,0.00140586,0.00045210,0.07186326,-0.038
 39800,-0.08395923,0.02902234,-0.00135729,-0.01350694,-0.00424832,-0.00
 186433,-0.00123425,0.00095220,0.00088429,0.00119519,0.00106390,0.00021
 651,-0.00035969,0.00006269,0.00001982,-0.00003008,-0.00015676,0.000140
 15,0.00021426,-0.00052915,-0.00021668,-0.00035336,-0.00018568,0.000238
 44,0.00050792,-0.00020865,0.00020183,-0.00019098,-0.00024975,-0.000084
 99,0.00000171,-0.09300449,0.03896452,0.09487687,0.00003473,-0.00005434
 ,0.00001326,-0.00017690,-0.00003502,-0.00009750,0.00001369,-0.00001683
 ,-0.00003056,0.00013208,0.00012198,-0.00004324,-0.00006743,-0.00009260
 ,0.00005323,0.00016568,0.00008174,0.00132369,-0.00004939,-0.00003534,-
 0.00072112,0.00028841,-0.00007303,-0.00082581,-0.00000917,0.00000389,0
 .00001052,-0.00000661,0.00000541,0.00000316,0.00002131,0.00000719,-0.0
 0001828,-0.00000773,0.00001384,-0.00000470,0.00002164,-0.00000632,0.00
 000390,-0.00001385,0.00000121,0.00000021,-0.00000031,0.00000298,0.0000
 1047,-0.00000635,-0.00003908,-0.00001423,0.00007096,0.00004463,-0.0000
 0572,0.00000403,-0.00203550,-0.00036594,-0.00502529,0.00368486,-0.0049
 8961,-0.00016586,0.00017953,-0.00040636,-0.17575677,0.02128748,-0.1275
 4872,0.01498017,-0.00560017,0.01572095,-0.00045260,0.00048520,-0.00099
 773,0.00005103,0.00163896,0.00178142,0.00014652,-0.00002677,0.00061068
 ,-0.00004538,-0.00004052,-0.00002251,-0.00002687,0.00003189,-0.0005312
 2,0.00037950,-0.00003960,0.00024765,0.00006659,-0.00007627,-0.00012581
 ,0.00018733,-0.00001697,0.00025077,-0.00010832,-0.00076579,0.00033996,
 -0.01330265,0.00089526,-0.01765739,0.17646880,0.00001008,-0.00000378,-
 0.00001030,0.00001311,0.00002206,-0.00011470,-0.00002399,0.00002070,0.
 00000375,0.00003306,0.00004491,-0.00004549,-0.00013464,0.00002298,0.00
 004525,0.00050199,0.00009851,0.00129332,-0.00105711,0.00022399,-0.0004
 9690,0.00010485,-0.00037829,-0.00068584,0.00000793,-0.00000407,-0.0000
 1009,0.00000152,-0.00000487,0.00000540,-0.00000370,0.00000445,-0.00000
 446,0.00000719,0.00000654,0.00000539,-0.00000798,-0.00000112,-0.000007
 62,-0.00000722,-0.00000677,0.00000217,0.00000298,-0.00001949,-0.000009
 58,-0.00001597,-0.00000195,0.00000464,0.00018102,-0.00009368,-0.000018
 13,-0.00031034,-0.00566100,-0.00117538,-0.01996432,0.00005235,-0.02207
 535,0.00020706,0.00144848,-0.00105101,0.02176025,-0.05351493,0.0229406
 0,0.00946709,-0.00811607,0.02746908,-0.00274727,0.00174896,-0.00175765
 ,0.00126907,-0.00116466,0.00088979,0.00037825,0.00000185,0.00030393,0.
 00008338,-0.00001650,-0.00015573,-0.00091104,0.00024666,-0.00155893,0.
 00000104,0.00001606,0.00024345,-0.00002851,-0.00005155,0.00006198,0.00
 030972,0.00004101,0.00015851,-0.00029239,-0.00046732,0.00063358,0.0088
 0052,0.00015632,0.00955363,-0.01998025,0.06521701,-0.00002143,0.000037
 99,-0.00002890,0.00022844,0.00011113,0.00012390,-0.00000665,0.00000182
 ,0.00002452,-0.00008302,-0.00002984,-0.00001856,-0.00007574,0.00005712
 ,0.00002011,0.00052256,-0.00016806,-0.00198024,0.00075287,-0.00048603,
 0.00073993,-0.00091399,-0.00001665,0.00105454,0.00000419,0.00000346,-0
 .00000642,0.00000133,-0.00000934,-0.00000435,-0.00001752,-0.00000692,0
 .00001582,0.00001439,-0.00001258,0.00001338,-0.00001831,0.00000846,0.0
 0000258,0.00001387,-0.00000188,-0.00000181,0.00001047,-0.00000958,-0.0
 0001738,-0.00001108,0.00003689,0.00001909,0.00014063,-0.00011209,-0.00
 001293,0.00021288,-0.00236988,0.00020224,-0.01080165,-0.00206644,-0.01
 088139,0.00086681,0.00022119,0.00024397,-0.11987095,0.02143729,-0.1837
 0125,-0.00733312,0.01332193,-0.02553929,-0.00376958,0.00159896,-0.0031
 8706,0.00148399,0.00113595,0.00236802,0.00031839,-0.00014563,0.0010883
 8,0.00015266,0.00034612,0.00027050,-0.00045209,0.00008652,-0.00042459,
 -0.00010123,0.00008917,0.00006393,0.00011482,0.00003032,0.00006129,0.0
 0007649,-0.00014020,0.00015272,-0.00006133,0.00005630,0.00051442,0.008
 13636,-0.00142597,0.01175930,0.13337500,-0.03279939,0.20610441,0.00050
 002,-0.00073583,0.00023299,-0.00094620,0.00083640,0.00109743,0.0008440
 0,-0.00054091,-0.00052159,0.00149117,0.00187970,-0.00033231,-0.0014098
 9,-0.00116748,0.00071369,-0.00850426,0.00224305,-0.01701199,0.00297115
 ,-0.00443202,0.00832946,-0.00005758,0.00032407,0.00747631,-0.00017719,
 0.00006229,0.00025143,-0.00014501,-0.00000135,0.00004349,0.00028631,0.
 00007299,-0.00020288,-0.00006983,0.00016319,-0.00001495,0.00035165,-0.
 00009029,0.00022503,-0.00016947,-0.00001514,-0.00001347,0.00007096,0.0
 0018101,0.00014062,-0.00005083,-0.00044588,-0.00005825,0.00151122,0.00
 014711,-0.00014266,-0.00050364,0.00020162,0.00011254,0.00047097,0.0019
 8578,-0.00098922,-0.00004336,0.00081167,0.00053233,-0.01526208,-0.0046
 0588,0.00810875,-0.42493738,0.08152583,0.08170838,0.00535356,-0.002140
 03,0.00083465,-0.00346432,0.00027465,-0.00064007,-0.00175324,0.0002070
 8,0.00000655,-0.00050856,-0.00051847,-0.00073077,0.00027539,0.00026540
 ,0.00004728,-0.00002716,-0.00002115,-0.00013842,-0.00008956,-0.0000751
 5,0.00001522,0.00030668,0.00031605,-0.00020180,0.00002504,-0.00012145,
 -0.00007878,0.00299942,-0.00051191,-0.00097223,0.00218904,0.00234460,-
 0.00288845,0.43847302,0.00005498,0.00019811,-0.00017615,0.00084815,0.0
 0079396,-0.00071760,-0.00029708,0.00022044,0.00019390,-0.00043486,-0.0
 0021464,0.00011453,-0.00005468,0.00021309,-0.00007826,0.00313993,0.001
 00231,0.00747001,-0.00317357,-0.00473474,-0.00337046,-0.00029834,-0.00
 207042,-0.00321957,0.00004474,0.00006434,-0.00005736,-0.00006369,-0.00
 006590,-0.00003630,-0.00008302,-0.00006143,0.00004975,0.00004693,-0.00
 004229,0.00003639,-0.00012102,0.00003882,-0.00008633,0.00002881,-0.000
 01586,-0.00002319,0.00004462,-0.00009368,-0.00011209,-0.00004146,0.000
 16475,0.00004711,0.00014711,-0.00027647,0.00002964,0.00020445,-0.00027
 758,0.00009704,-0.00257290,-0.00056832,0.00121544,0.00014411,-0.000873
 10,-0.00006656,-0.03102946,0.00386755,0.00698416,0.11218450,-0.0533226
 1,-0.00086382,-0.00176426,-0.00180341,0.00118552,0.00071377,0.00014914
 ,0.00004637,0.00078306,-0.00010747,-0.00119835,-0.00039942,0.00004587,
 -0.00016061,0.00000485,-0.00000374,-0.00006721,0.00025477,0.00009212,0
 .00001954,0.00021449,0.00008763,-0.00015296,0.00001753,-0.00018800,0.0
 0008376,-0.00002604,0.00012338,0.00002032,-0.00054578,-0.00157661,0.00
 192808,0.00044833,0.00013318,0.00121989,-0.07841952,0.05910157,-0.0000
 0335,0.00002956,0.00002576,-0.00002160,-0.00018379,-0.00072155,-0.0001
 7157,0.00011524,0.00008264,-0.00006330,-0.00018079,0.00012506,0.000151
 77,0.00010626,-0.00016846,-0.00311526,0.00274965,0.00832013,0.00155067
 ,-0.00089515,-0.00904609,0.00189002,-0.00146963,-0.00360359,0.00004923
 ,-0.00004584,-0.00002394,0.00002223,0.00000561,0.00001714,-0.00002315,
 0.00001283,-0.00001400,-0.00000297,0.00001186,-0.00000510,-0.00004158,
 0.00000017,-0.00006100,-0.00001100,-0.00001154,0.00000547,-0.00000572,
 -0.00001813,-0.00001293,0.00000149,0.00001806,-0.00001445,-0.00014267,
 0.00002964,0.00006892,0.00010289,-0.00053027,-0.00000871,-0.00067940,-
 0.00018901,0.00071347,-0.00009015,-0.00039075,-0.00013037,0.03521427,-
 0.00228550,-0.01254423,0.04755052,0.01036550,-0.03672348,0.00002808,0.
 00065533,0.00359120,-0.00055541,-0.00041177,-0.00114237,0.00051708,0.0
 0008816,-0.00167285,-0.00058434,-0.00002082,0.00003119,-0.00001480,-0.
 00002960,-0.00013370,0.00022818,0.00016456,-0.00011292,-0.00007454,-0.
 00001624,-0.00000017,-0.00011584,-0.00006805,0.00007923,0.00005138,0.0
 0011955,-0.00009439,0.00263559,0.00426750,-0.00364300,0.00066156,-0.00
 163794,0.00096113,-0.08493832,-0.01035462,0.05585595\\0.00000008,-0.00
 000002,0.00000053,-0.00000023,0.00000129,0.00000056,-0.00000038,-0.000
 00055,0.00000013,-0.00000057,-0.00000074,0.00000032,0.00000045,0.00000
 049,-0.00000091,0.00000053,-0.00000036,0.00000024,0.00000024,0.0000001
 7,-0.00000004,0.00000005,-0.00000071,0.00000125,0.00000024,0.00000088,
 0.00000069,0.00000005,0.00000040,0.00000096,0.00000018,0.00000062,0.00
 000068,-0.00000022,-0.00000075,0.00000005,-0.00000007,-0.00000031,0.00
 000020,-0.00000009,-0.00000052,0.00000079,0.00000010,0.00000074,-0.000
 00036,0.00000026,0.00000056,-0.00000036,-0.00000030,-0.00000046,-0.000
 00121,-0.00000014,0.00000070,-0.00000018,0.00000040,-0.00000129,-0.000
 00081,0.00000012,0.00000003,-0.00000073,0.00000031,0.00000071,-0.00000
 034,-0.00000019,-0.00000004,0.00000148,-0.00000075,0.00000036,0.000000
 20,-0.00000027,-0.00000016,-0.00000011,0.00000057,0.00000034,-0.000001
 07,0.00000008,0.00000069,0.00000003,0.00000006,0.00000061,-0.00000075,
 -0.00000002,0.00000036,-0.00000028,-0.00000013,-0.00000057,-0.00000072
 ,-0.00000002,-0.00000039,-0.00000099,-0.00000013,-0.00000086,-0.000000
 63,-0.00000027,-0.00000056,0.00000035,-0.00000011,-0.00000069,0.000000
 37,0.00000017,0.,0.00000067\\\@


 Money is a good servant but a bad master.
                        -- French Proverb
 Job cpu time:       0 days  0 hours 42 minutes 20.0 seconds.
 Elapsed time:       0 days  0 hours 10 minutes 37.8 seconds.
 File lengths (MBytes):  RWF=    291 Int=      0 D2E=      0 Chk=      7 Scr=      1
 Normal termination of Gaussian 16 at Tue Aug  9 17:51:11 2022.
real 6366.99
user 25277.59
sys 22.59
