 Entering Gaussian System, Link 0=g16
 Input=gaussian_test.inp
 Output=gaussian_test.log
 Initial command:
 /sw/restricted/lms/sw/Gaussian/g16_B01/g16/l1.exe "/scratch/user/peterchao1/peterchao1/10002166_1712083097000000042043359/Gau-261142.inp" -scrdir="/scratch/user/peterchao1/peterchao1/10002166_1712083097000000042043359/"
 Entering Link 1 = /sw/restricted/lms/sw/Gaussian/g16_B01/g16/l1.exe PID=    261143.
  
 Copyright (c) 1988-2017, Gaussian, Inc.  All Rights Reserved.
  
 This is part of the Gaussian(R) 16 program.  It is based on
 the Gaussian(R) 09 system (copyright 2009, Gaussian, Inc.),
 the Gaussian(R) 03 system (copyright 2003, Gaussian, Inc.),
 the Gaussian(R) 98 system (copyright 1998, Gaussian, Inc.),
 the Gaussian(R) 94 system (copyright 1995, Gaussian, Inc.),
 the Gaussian 92(TM) system (copyright 1992, Gaussian, Inc.),
 the Gaussian 90(TM) system (copyright 1990, Gaussian, Inc.),
 the Gaussian 88(TM) system (copyright 1988, Gaussian, Inc.),
 the Gaussian 86(TM) system (copyright 1986, Carnegie Mellon
 University), and the Gaussian 82(TM) system (copyright 1983,
 Carnegie Mellon University). Gaussian is a federally registered
 trademark of Gaussian, Inc.
  
 This software contains proprietary and confidential information,
 including trade secrets, belonging to Gaussian, Inc.
  
 This software is provided under written license and may be
 used, copied, transmitted, or stored only in accord with that
 written license.
  
 The following legend is applicable only to US Government
 contracts under FAR:
  
                    RESTRICTED RIGHTS LEGEND
  
 Use, reproduction and disclosure by the US Government is
 subject to restrictions as set forth in subparagraphs (a)
 and (c) of the Commercial Computer Software - Restricted
 Rights clause in FAR 52.227-19.
  
 Gaussian, Inc.
 340 Quinnipiac St., Bldg. 40, Wallingford CT 06492
  
  
 ---------------------------------------------------------------
 Warning -- This program may not be used in any manner that
 competes with the business of Gaussian, Inc. or will provide
 assistance to any competitor of Gaussian, Inc.  The licensee
 of this program is prohibited from giving any competitor of
 Gaussian, Inc. access to this program.  By using this program,
 the user acknowledges that Gaussian, Inc. is engaged in the
 business of creating and licensing software in the field of
 computational chemistry and represents and warrants to the
 licensee that it is not a competitor of Gaussian, Inc. and that
 it will not use this program in any manner prohibited above.
 ---------------------------------------------------------------
  

 Cite this work as:
 Gaussian 16, Revision B.01,
 M. J. Frisch, G. W. Trucks, H. B. Schlegel, G. E. Scuseria, 
 M. A. Robb, J. R. Cheeseman, G. Scalmani, V. Barone, 
 G. A. Petersson, H. Nakatsuji, X. Li, M. Caricato, A. V. Marenich, 
 J. Bloino, B. G. Janesko, R. Gomperts, B. Mennucci, H. P. Hratchian, 
 J. V. Ortiz, A. F. Izmaylov, J. L. Sonnenberg, D. Williams-Young, 
 F. Ding, F. Lipparini, F. Egidi, J. Goings, B. Peng, A. Petrone, 
 T. Henderson, D. Ranasinghe, V. G. Zakrzewski, J. Gao, N. Rega, 
 G. Zheng, W. Liang, M. Hada, M. Ehara, K. Toyota, R. Fukuda, 
 J. Hasegawa, M. Ishida, T. Nakajima, Y. Honda, O. Kitao, H. Nakai, 
 T. Vreven, K. Throssell, J. A. Montgomery, Jr., J. E. Peralta, 
 F. Ogliaro, M. J. Bearpark, J. J. Heyd, E. N. Brothers, K. N. Kudin, 
 V. N. Staroverov, T. A. Keith, R. Kobayashi, J. Normand, 
 K. Raghavachari, A. P. Rendell, J. C. Burant, S. S. Iyengar, 
 J. Tomasi, M. Cossi, J. M. Millam, M. Klene, C. Adamo, R. Cammi, 
 J. W. Ochterski, R. L. Martin, K. Morokuma, O. Farkas, 
 J. B. Foresman, and D. J. Fox, Gaussian, Inc., Wallingford CT, 2016.
 
 ******************************************
 Gaussian 16:  ES64L-G16RevB.01 20-Dec-2017
                 2-Apr-2024 
 ******************************************
 %chk=monomer.chk
 %nprocshared=4
 Will use up to    4 processors via shared memory.
 %mem=8000mb
 --------------------------------------------------------------
 #T wB97XD//def2svpp Volume=tight Geom=AllCheckpoint Guess=Read
 --------------------------------------------------------------
 Structure from the checkpoint file:  "monomer.chk"
 -------
 Monomer
 -------
 Charge =  0 Multiplicity = 1
 Redundant internal coordinates found in file.  (old form).
 C,0,-2.2801038446,0.9327521148,-0.0245741836
 C,0,-0.8385013277,0.8219258562,-0.5166810417
 C,0,-0.0237239449,-0.3820482799,0.0025516277
 C,0,-0.0363335101,-0.4371575897,1.537455472
 C,0,-0.5626050427,-1.7023237581,-0.5620672598
 C,0,1.4314944896,-0.2261064153,-0.4871280252
 O,0,2.082094791,0.9298520824,-0.0249619422
 H,0,-2.8746832472,0.0351950052,-0.2690515722
 H,0,-2.7796083297,1.7956871338,-0.4972627567
 H,0,-2.3317001805,1.0843733235,1.0673485586
 H,0,-0.2884820209,1.7402992319,-0.2460609323
 H,0,-0.8372497661,0.7823674568,-1.6226409741
 H,0,0.6645241966,-1.2074633779,1.9105869139
 H,0,-1.0370661351,-0.6927155975,1.9251755524
 H,0,0.2450438287,0.5349530609,1.9822101026
 H,0,-0.5394714131,-1.7018382976,-1.6669680805
 H,0,-1.6047393475,-1.882344147,-0.2472841663
 H,0,0.0395485918,-2.5602958799,-0.2114200296
 H,0,1.4390842795,-0.1547931229,-1.5883323985
 H,0,2.0035524221,-1.1393200123,-0.2146505387
 H,0,2.224811505,0.8487695348,0.9269499102
 Recover connectivity data from disk.
                           ----------------------------
                           !    Current Parameters    !
                           ! (Angstroms and Degrees)  !
 --------------------------                            --------------------------
 ! Name  Definition              Value                                          !
 --------------------------------------------------------------------------------
 ! R1    R(1,2)                  1.5273                                         !
 ! R2    R(1,8)                  1.104                                          !
 ! R3    R(1,9)                  1.1034                                         !
 ! R4    R(1,10)                 1.1036                                         !
 ! R5    R(2,3)                  1.5437                                         !
 ! R6    R(2,11)                 1.1042                                         !
 ! R7    R(2,12)                 1.1067                                         !
 ! R8    R(3,4)                  1.5359                                         !
 ! R9    R(3,5)                  1.5337                                         !
 ! R10   R(3,6)                  1.5433                                         !
 ! R11   R(4,13)                 1.1063                                         !
 ! R12   R(4,14)                 1.1032                                         !
 ! R13   R(4,15)                 1.1054                                         !
 ! R14   R(5,16)                 1.1051                                         !
 ! R15   R(5,17)                 1.1034                                         !
 ! R16   R(5,18)                 1.1053                                         !
 ! R17   R(6,7)                  1.4047                                         !
 ! R18   R(6,19)                 1.1035                                         !
 ! R19   R(6,20)                 1.1115                                         !
 ! R20   R(7,21)                 0.966                                          !
 ! A1    A(2,1,8)              112.2091                                         !
 ! A2    A(2,1,9)              110.2426                                         !
 ! A3    A(2,1,10)             111.8941                                         !
 ! A4    A(8,1,9)              107.2852                                         !
 ! A5    A(8,1,10)             107.7948                                         !
 ! A6    A(9,1,10)             107.1716                                         !
 ! A7    A(1,2,3)              116.5134                                         !
 ! A8    A(1,2,11)             109.3208                                         !
 ! A9    A(1,2,12)             109.0056                                         !
 ! A10   A(3,2,11)             107.6583                                         !
 ! A11   A(3,2,12)             107.9185                                         !
 ! A12   A(11,2,12)            105.9085                                         !
 ! A13   A(2,3,4)              111.0866                                         !
 ! A14   A(2,3,5)              111.2299                                         !
 ! A15   A(2,3,6)              108.189                                          !
 ! A16   A(4,3,5)              109.5187                                         !
 ! A17   A(4,3,6)              109.1745                                         !
 ! A18   A(5,3,6)              107.5463                                         !
 ! A19   A(3,4,13)             110.9067                                         !
 ! A20   A(3,4,14)             111.5284                                         !
 ! A21   A(3,4,15)             111.6183                                         !
 ! A22   A(13,4,14)            107.1483                                         !
 ! A23   A(13,4,15)            108.3833                                         !
 ! A24   A(14,4,15)            107.0499                                         !
 ! A25   A(3,5,16)             111.12                                           !
 ! A26   A(3,5,17)             111.5467                                         !
 ! A27   A(3,5,18)             111.1007                                         !
 ! A28   A(16,5,17)            107.7617                                         !
 ! A29   A(16,5,18)            107.8251                                         !
 ! A30   A(17,5,18)            107.3008                                         !
 ! A31   A(3,6,7)              114.5502                                         !
 ! A32   A(3,6,19)             109.2469                                         !
 ! A33   A(3,6,20)             108.935                                          !
 ! A34   A(7,6,19)             105.7808                                         !
 ! A35   A(7,6,20)             110.9215                                         !
 ! A36   A(19,6,20)            107.1082                                         !
 ! A37   A(6,7,21)             108.8801                                         !
 ! D1    D(8,1,2,3)            -57.5866                                         !
 ! D2    D(8,1,2,11)          -179.8715                                         !
 ! D3    D(8,1,2,12)            64.7897                                         !
 ! D4    D(9,1,2,3)           -177.1001                                         !
 ! D5    D(9,1,2,11)            60.615                                          !
 ! D6    D(9,1,2,12)           -54.7237                                         !
 ! D7    D(10,1,2,3)            63.7346                                         !
 ! D8    D(10,1,2,11)          -58.5503                                         !
 ! D9    D(10,1,2,12)         -173.8891                                         !
 ! D10   D(1,2,3,4)            -54.2547                                         !
 ! D11   D(1,2,3,5)             68.0187                                         !
 ! D12   D(1,2,3,6)           -174.0716                                         !
 ! D13   D(11,2,3,4)            68.8956                                         !
 ! D14   D(11,2,3,5)          -168.831                                          !
 ! D15   D(11,2,3,6)           -50.9213                                         !
 ! D16   D(12,2,3,4)          -177.1973                                         !
 ! D17   D(12,2,3,5)           -54.9239                                         !
 ! D18   D(12,2,3,6)            62.9858                                         !
 ! D19   D(2,3,4,13)          -171.7223                                         !
 ! D20   D(2,3,4,14)            68.9379                                         !
 ! D21   D(2,3,4,15)           -50.7566                                         !
 ! D22   D(5,3,4,13)            65.0168                                         !
 ! D23   D(5,3,4,14)           -54.3229                                         !
 ! D24   D(5,3,4,15)          -174.0174                                         !
 ! D25   D(6,3,4,13)           -52.4939                                         !
 ! D26   D(6,3,4,14)          -171.8336                                         !
 ! D27   D(6,3,4,15)            68.4719                                         !
 ! D28   D(2,3,5,16)            58.3663                                         !
 ! D29   D(2,3,5,17)           -61.9062                                         !
 ! D30   D(2,3,5,18)           178.4189                                         !
 ! D31   D(4,3,5,16)          -178.4576                                         !
 ! D32   D(4,3,5,17)            61.2699                                         !
 ! D33   D(4,3,5,18)           -58.405                                          !
 ! D34   D(6,3,5,16)           -59.9313                                         !
 ! D35   D(6,3,5,17)           179.7961                                         !
 ! D36   D(6,3,5,18)            60.1212                                         !
 ! D37   D(2,3,6,7)             61.1932                                         !
 ! D38   D(2,3,6,19)           -57.2427                                         !
 ! D39   D(2,3,6,20)          -173.9351                                         !
 ! D40   D(4,3,6,7)            -59.8176                                         !
 ! D41   D(4,3,6,19)          -178.2536                                         !
 ! D42   D(4,3,6,20)            65.0541                                         !
 ! D43   D(5,3,6,7)           -178.5652                                         !
 ! D44   D(5,3,6,19)            62.9988                                         !
 ! D45   D(5,3,6,20)           -53.6935                                         !
 ! D46   D(3,6,7,21)            68.4382                                         !
 ! D47   D(19,6,7,21)         -171.1848                                         !
 ! D48   D(20,6,7,21)          -55.3794                                         !
 --------------------------------------------------------------------------------
                    Distance matrix (angstroms):
                    1          2          3          4          5
     1  C    0.000000
     2  C    1.527308   0.000000
     3  C    2.611644   1.543703   0.000000
     4  C    3.057956   2.539339   1.535945   0.000000
     5  C    3.190976   2.539688   1.533726   2.507110   0.000000
     6  C    3.915721   2.500425   1.543297   2.509582   2.482190
     7  O    4.362200   2.963666   2.481192   2.966075   3.769784
     8  H    1.104039   2.196885   2.894102   3.397472   2.906980
     9  H    1.103447   2.171747   3.547851   4.080592   4.141906
    10  H    1.103606   2.192640   2.934440   2.793701   3.681083
    11  H    2.160497   1.104159   2.153199   2.825921   3.467947
    12  H    2.158300   1.106668   2.158458   3.480649   2.715499
    13  H    4.122645   3.502733   2.189885   1.106255   2.804416
    14  H    2.826449   2.880318   2.195418   1.103224   2.725949
    15  H    3.249892   2.738774   2.198221   1.105432   3.482966
    16  H    3.559259   2.789617   2.189780   3.481508   1.105143
    17  H    2.903530   2.823610   2.193836   2.780963   1.103422
    18  H    4.197271   3.507646   2.189646   2.751734   1.105287
    19  H    4.178571   2.699965   2.173100   3.468016   2.730354
    20  H    4.762281   3.466263   2.174968   2.779216   2.650063
    21  H    4.605075   3.386543   2.724947   2.671910   4.061396
                    6          7          8          9         10
     6  C    0.000000
     7  O    1.404677   0.000000
     8  H    4.319607   5.042781   0.000000
     9  H    4.671310   4.960735   1.777766   0.000000
    10  H    4.277311   4.549572   1.783696   1.776119   0.000000
    11  H    2.623582   2.515024   3.097797   2.504372   2.515954
    12  H    2.730130   3.331201   2.557656   2.462935   3.092027
    13  H    2.701914   3.213094   4.338319   5.165143   3.865350
    14  H    3.482919   4.020563   2.953189   3.885461   2.360083
    15  H    2.843327   2.749444   3.879515   4.109228   2.788986
    16  H    2.730296   4.061353   3.228726   4.314986   4.295526
    17  H    3.466896   4.642265   2.300041   3.869202   3.325379
    18  H    2.731660   4.048196   3.902902   5.196532   4.532293
    19  H    1.103537   2.008493   4.514996   4.774115   4.775666
    20  H    1.111509   2.079333   5.017931   5.618965   5.038130
    21  H    1.945335   0.965960   5.300676   5.288596   4.564758
                   11         12         13         14         15
    11  H    0.000000
    12  H    1.764583   0.000000
    13  H    3.774739   4.324171   0.000000
    14  H    3.345775   3.847441   1.777804   0.000000
    15  H    2.588958   3.771939   1.793630   1.776015   0.000000
    16  H    3.732330   2.502382   3.806956   3.764230   4.351460
    17  H    3.854359   3.095373   3.203346   2.541073   3.773018
    18  H    4.313226   3.732790   2.593003   3.035127   3.799317
    19  H    2.894400   2.461939   3.735036   4.331907   3.827565
    20  H    3.680573   3.707489   2.512822   3.744819   3.274407
    21  H    2.913318   3.985103   2.762269   3.743324   2.265289
                   16         17         18         19         20
    16  H    0.000000
    17  H    1.784063   0.000000
    18  H    1.786290   1.778929   0.000000
    19  H    2.512810   3.748027   3.105001   0.000000
    20  H    2.982050   3.684144   2.424148   1.781830   0.000000
    21  H    4.568946   4.848017   4.206303   2.819778   2.303195
                   21
    21  H    0.000000
 Framework group  C1[X(C6H14O)]
 Deg. of freedom    57
                         Standard orientation:                         
 ---------------------------------------------------------------------
 Center     Atomic      Atomic             Coordinates (Angstroms)
 Number     Number       Type             X           Y           Z
 ---------------------------------------------------------------------
      1          6           0        2.274972   -0.838995   -0.026311
      2          6           0        0.838312   -0.782275   -0.541542
      3          6           0       -0.043656    0.362631    0.000989
      4          6           0       -0.060116    0.367249    1.536838
      5          6           0        0.439044    1.725638   -0.510409
      6          6           0       -1.480794    0.152303   -0.520702
      7          8           0       -2.081409   -1.048714   -0.108466
      8          1           0        2.828655    0.094105   -0.230422
      9          1           0        2.824475   -1.660371   -0.517213
     10          1           0        2.315244   -1.024126    1.060911
     11          1           0        0.329707   -1.734852   -0.311144
     12          1           0        0.854085   -0.706092   -1.645471
     13          1           0       -0.804420    1.089650    1.921477
     14          1           0        0.919992    0.658255    1.951335
     15          1           0       -0.300783   -0.631665    1.944551
     16          1           0        0.434922    1.760746   -1.614987
     17          1           0        1.465474    1.945680   -0.170465
     18          1           0       -0.210630    2.541112   -0.143550
     19          1           0       -1.465963    0.117341   -1.623586
     20          1           0       -2.101797    1.026987   -0.229606
     21          1           0       -2.244262   -1.006364    0.842725
 ---------------------------------------------------------------------
 Rotational constants (GHZ):           3.2099569           1.8948850           1.6630806
   126 basis functions,   231 primitive gaussians,   133 cartesian basis functions
    29 alpha electrons       29 beta electrons
       nuclear repulsion energy       342.1276836023 Hartrees.
 NAtoms=   21 NActive=   21 NUniq=   21 SFac= 1.00D+00 NAtFMM=   60 NAOKFM=F Big=F
 Nuclear repulsion after empirical dispersion term =      342.1125862239 Hartrees.
   1 Symmetry operations used in ECPInt.
 ECPInt:  NShTT=    2485 NPrTT=   10003 LenC2=    2478 LenP2D=    8163.
 LDataN:  DoStor=T MaxTD1= 4 Len=   56
 Initial guess from the checkpoint file:  "monomer.chk"
 B after Tr=     0.000000    0.000000   -0.000000
         Rot=    1.000000   -0.000000   -0.000000   -0.000000 Ang=   0.00 deg.
 Skip diagonalization as Alpha Fock matrix is already diagonal.
 SCF Done:  E(RwB97XD) =  -311.943156790     A.U. after    1 cycles
            NFock=  1  Conv=0.00D+00     -V/T= 2.0106

 **********************************************************************

            Population analysis using the SCF Density.

 **********************************************************************

 Orbital symmetries:
       Occupied  (A) (A) (A) (A) (A) (A) (A) (A) (A) (A) (A) (A)
                 (A) (A) (A) (A) (A) (A) (A) (A) (A) (A) (A) (A)
                 (A) (A) (A) (A) (A)
       Virtual   (A) (A) (A) (A) (A) (A) (A) (A) (A) (A) (A) (A)
                 (A) (A) (A) (A) (A) (A) (A) (A) (A) (A) (A) (A)
                 (A) (A) (A) (A) (A) (A) (A) (A) (A) (A) (A) (A)
                 (A) (A) (A) (A) (A) (A) (A) (A) (A) (A) (A) (A)
                 (A) (A) (A) (A) (A) (A) (A) (A) (A) (A) (A) (A)
                 (A) (A) (A) (A) (A) (A) (A) (A) (A) (A) (A) (A)
                 (A) (A) (A) (A) (A) (A) (A) (A) (A) (A) (A) (A)
                 (A) (A) (A) (A) (A) (A) (A) (A) (A) (A) (A) (A)
                 (A)
 The electronic state is 1-A.
 Alpha  occ. eigenvalues --  -19.24738 -10.33093 -10.30404 -10.28646 -10.28277
 Alpha  occ. eigenvalues --  -10.28176 -10.27901  -1.11097  -0.91569  -0.82551
 Alpha  occ. eigenvalues --   -0.78055  -0.76209  -0.71074  -0.62946  -0.59164
 Alpha  occ. eigenvalues --   -0.55060  -0.54159  -0.52986  -0.51656  -0.47390
 Alpha  occ. eigenvalues --   -0.46813  -0.46677  -0.46017  -0.43149  -0.42979
 Alpha  occ. eigenvalues --   -0.40894  -0.39917  -0.38637  -0.34619
 Alpha virt. eigenvalues --    0.12311   0.14606   0.16522   0.17525   0.18951
 Alpha virt. eigenvalues --    0.19524   0.20088   0.21484   0.22543   0.23790
 Alpha virt. eigenvalues --    0.24184   0.25424   0.26168   0.27802   0.28606
 Alpha virt. eigenvalues --    0.30671   0.31590   0.32657   0.33844   0.35146
 Alpha virt. eigenvalues --    0.48618   0.49738   0.50858   0.52990   0.56814
 Alpha virt. eigenvalues --    0.57830   0.58919   0.63770   0.67409   0.67461
 Alpha virt. eigenvalues --    0.69801   0.70611   0.73091   0.74035   0.76240
 Alpha virt. eigenvalues --    0.76744   0.77424   0.78348   0.79498   0.80045
 Alpha virt. eigenvalues --    0.80654   0.81237   0.81581   0.82477   0.84010
 Alpha virt. eigenvalues --    0.84478   0.84841   0.85420   0.86252   0.86919
 Alpha virt. eigenvalues --    0.88995   0.97279   1.00124   1.05854   1.12472
 Alpha virt. eigenvalues --    1.15017   1.18353   1.23744   1.26406   1.28282
 Alpha virt. eigenvalues --    1.37816   1.45632   1.53548   1.62251   1.71715
 Alpha virt. eigenvalues --    1.76645   1.79296   1.86301   1.90708   1.93554
 Alpha virt. eigenvalues --    1.95502   1.97655   2.01855   2.08140   2.11643
 Alpha virt. eigenvalues --    2.12485   2.13752   2.15031   2.20165   2.23450
 Alpha virt. eigenvalues --    2.25192   2.27125   2.28728   2.29922   2.36934
 Alpha virt. eigenvalues --    2.38052   2.52267   2.58766   2.71376   2.72857
 Alpha virt. eigenvalues --    2.74258   2.79009   2.82173   2.92973   3.08651
 Alpha virt. eigenvalues --    3.10574   3.48367
          Condensed to atoms (all electrons):
 Mulliken charges:
               1
     1  C   -0.315786
     2  C   -0.176262
     3  C   -0.263497
     4  C   -0.321864
     5  C   -0.284396
     6  C    0.075119
     7  O   -0.484273
     8  H    0.114112
     9  H    0.121537
    10  H    0.116511
    11  H    0.113999
    12  H    0.094312
    13  H    0.112944
    14  H    0.129819
    15  H    0.113792
    16  H    0.115595
    17  H    0.123008
    18  H    0.112749
    19  H    0.097597
    20  H    0.086929
    21  H    0.318056
 Sum of Mulliken charges =  -0.00000
 Mulliken charges with hydrogens summed into heavy atoms:
               1
     1  C    0.036373
     2  C    0.032048
     3  C   -0.263497
     4  C    0.034691
     5  C    0.066957
     6  C    0.259645
     7  O   -0.166217
 Electronic spatial extent (au):  <R**2>=            904.6298
 Charge=             -0.0000 electrons
 Dipole moment (field-independent basis, Debye):
    X=              0.4084    Y=              1.0602    Z=              1.1002  Tot=              1.5815
 Evaluate density.
 Using the total density.
 Monte-Carlo method of calculating molar volume:
 based on  0.001 e/bohr**3 density envelope.
 Number of points per bohr**3 =  100 CutOff= 1.00D-04
 Using the SCF density.
 There are      1826 points.  Will hold      1826 in memory.
 LenV=  1048308926 MDV=  1048576000.
 Box volume = 6096.921 fraction occupied=0.187
 Integrated density= 5.6980342210768683D+01 error=-1.0196577892313172D+00
 Molar volume = 1138.582 bohr**3/mol (101.606 cm**3/mol)
 Recommended a0 for SCRF calculation =  4.27 angstrom (  8.07 bohr)
 1\1\GINC-C419\SP\RwB97XD\def2SVPP\C6H14O1\PETERCHAO1\02-Apr-2024\0\\#T
  wB97XD//def2svpp Volume=tight Geom=AllCheckpoint Guess=Read\\Monomer\
 \0,1\C,0,-2.2801038446,0.9327521148,-0.0245741836\C,0,-0.8385013277,0.
 8219258562,-0.5166810417\C,0,-0.0237239449,-0.3820482799,0.0025516277\
 C,0,-0.0363335101,-0.4371575897,1.537455472\C,0,-0.5626050427,-1.70232
 37581,-0.5620672598\C,0,1.4314944896,-0.2261064153,-0.4871280252\O,0,2
 .082094791,0.9298520824,-0.0249619422\H,0,-2.8746832472,0.0351950052,-
 0.2690515722\H,0,-2.7796083297,1.7956871338,-0.4972627567\H,0,-2.33170
 01805,1.0843733235,1.0673485586\H,0,-0.2884820209,1.7402992319,-0.2460
 609323\H,0,-0.8372497661,0.7823674568,-1.6226409741\H,0,0.6645241966,-
 1.2074633779,1.9105869139\H,0,-1.0370661351,-0.6927155975,1.9251755524
 \H,0,0.2450438287,0.5349530609,1.9822101026\H,0,-0.5394714131,-1.70183
 82976,-1.6669680805\H,0,-1.6047393475,-1.882344147,-0.2472841663\H,0,0
 .0395485918,-2.5602958799,-0.2114200296\H,0,1.4390842795,-0.1547931229
 ,-1.5883323985\H,0,2.0035524221,-1.1393200123,-0.2146505387\H,0,2.2248
 11505,0.8487695348,0.9269499102\\Version=ES64L-G16RevB.01\State=1-A\HF
 =-311.9431568\RMSD=0.000e+00\Dipole=-0.1889099,-0.4224576,0.4159213\Qu
 adrupole=-0.9974786,-0.8069963,1.8044749,-1.8056801,2.3280111,1.011279
 9\PG=C01 [X(C6H14O1)]\\@


 Everywhere is walking distance if you have the time.
                                    -- Steven Wright
 File lengths (MBytes):  RWF=     10 Int=      0 D2E=      0 Chk=      3 Scr=      1
 Normal termination of Gaussian 16 at Tue Apr  2 13:51:48 2024.
