 Entering Gaussian System, Link 0=g16
 Input=gaussian_test.inp
 Output=gaussian_test.log
 Initial command:
 /sw/restricted/lms/sw/Gaussian/g16_B01/g16/l1.exe "/scratch/user/peterchao1/peterchao1/6097799_1659647585000000525322498/Gau-212039.inp" -scrdir="/scratch/user/peterchao1/peterchao1/6097799_1659647585000000525322498/"
 Entering Link 1 = /sw/restricted/lms/sw/Gaussian/g16_B01/g16/l1.exe PID=    212040.
  
 Copyright (c) 1988-2017, Gaussian, Inc.  All Rights Reserved.
  
 This is part of the Gaussian(R) 16 program.  It is based on
 the Gaussian(R) 09 system (copyright 2009, Gaussian, Inc.),
 the Gaussian(R) 03 system (copyright 2003, Gaussian, Inc.),
 the Gaussian(R) 98 system (copyright 1998, Gaussian, Inc.),
 the Gaussian(R) 94 system (copyright 1995, Gaussian, Inc.),
 the Gaussian 92(TM) system (copyright 1992, Gaussian, Inc.),
 the Gaussian 90(TM) system (copyright 1990, Gaussian, Inc.),
 the Gaussian 88(TM) system (copyright 1988, Gaussian, Inc.),
 the Gaussian 86(TM) system (copyright 1986, Carnegie Mellon
 University), and the Gaussian 82(TM) system (copyright 1983,
 Carnegie Mellon University). Gaussian is a federally registered
 trademark of Gaussian, Inc.
  
 This software contains proprietary and confidential information,
 including trade secrets, belonging to Gaussian, Inc.
  
 This software is provided under written license and may be
 used, copied, transmitted, or stored only in accord with that
 written license.
  
 The following legend is applicable only to US Government
 contracts under FAR:
  
                    RESTRICTED RIGHTS LEGEND
  
 Use, reproduction and disclosure by the US Government is
 subject to restrictions as set forth in subparagraphs (a)
 and (c) of the Commercial Computer Software - Restricted
 Rights clause in FAR 52.227-19.
  
 Gaussian, Inc.
 340 Quinnipiac St., Bldg. 40, Wallingford CT 06492
  
  
 ---------------------------------------------------------------
 Warning -- This program may not be used in any manner that
 competes with the business of Gaussian, Inc. or will provide
 assistance to any competitor of Gaussian, Inc.  The licensee
 of this program is prohibited from giving any competitor of
 Gaussian, Inc. access to this program.  By using this program,
 the user acknowledges that Gaussian, Inc. is engaged in the
 business of creating and licensing software in the field of
 computational chemistry and represents and warrants to the
 licensee that it is not a competitor of Gaussian, Inc. and that
 it will not use this program in any manner prohibited above.
 ---------------------------------------------------------------
  

 Cite this work as:
 Gaussian 16, Revision B.01,
 M. J. Frisch, G. W. Trucks, H. B. Schlegel, G. E. Scuseria, 
 M. A. Robb, J. R. Cheeseman, G. Scalmani, V. Barone, 
 G. A. Petersson, H. Nakatsuji, X. Li, M. Caricato, A. V. Marenich, 
 J. Bloino, B. G. Janesko, R. Gomperts, B. Mennucci, H. P. Hratchian, 
 J. V. Ortiz, A. F. Izmaylov, J. L. Sonnenberg, D. Williams-Young, 
 F. Ding, F. Lipparini, F. Egidi, J. Goings, B. Peng, A. Petrone, 
 T. Henderson, D. Ranasinghe, V. G. Zakrzewski, J. Gao, N. Rega, 
 G. Zheng, W. Liang, M. Hada, M. Ehara, K. Toyota, R. Fukuda, 
 J. Hasegawa, M. Ishida, T. Nakajima, Y. Honda, O. Kitao, H. Nakai, 
 T. Vreven, K. Throssell, J. A. Montgomery, Jr., J. E. Peralta, 
 F. Ogliaro, M. J. Bearpark, J. J. Heyd, E. N. Brothers, K. N. Kudin, 
 V. N. Staroverov, T. A. Keith, R. Kobayashi, J. Normand, 
 K. Raghavachari, A. P. Rendell, J. C. Burant, S. S. Iyengar, 
 J. Tomasi, M. Cossi, J. M. Millam, M. Klene, C. Adamo, R. Cammi, 
 J. W. Ochterski, R. L. Martin, K. Morokuma, O. Farkas, 
 J. B. Foresman, and D. J. Fox, Gaussian, Inc., Wallingford CT, 2016.
 
 ******************************************
 Gaussian 16:  ES64L-G16RevB.01 20-Dec-2017
                 4-Aug-2022 
 ******************************************
 %nprocshared=4
 Will use up to    4 processors via shared memory.
 %mem=8000mb
 ----------------------------------------------------------------------
 #T wB97XD/def2svpp opt=tight freq int(grid=ultrafine) scf=(verytight,q
 c)
 ----------------------------------------------------------------------
 --------------
 Comment gs min
 --------------
 Symbolic Z-matrix:
 Charge =  0 Multiplicity = 1
 C                     0.94492   0.07498   0.07283 
 C                     2.48228   0.07854   0.05457 
 C                     2.97462   1.50998  -0.21617 
 C                     3.00031  -0.38187   1.42763 
 C                     3.01884  -0.88304  -1.0271 
 O                     2.60008  -0.50981  -2.33445 
 H                     0.55896   0.71941   0.87133 
 H                     0.55553  -0.93478   0.24393 
 H                     0.52602   0.4416   -0.87079 
 H                     2.60877   2.2043    0.54909 
 H                     2.62773   1.87882  -1.18814 
 H                     4.06904   1.55779  -0.21161 
 H                     2.64334   0.27724   2.22692 
 H                     4.09523  -0.37959   1.45848 
 H                     2.6613   -1.39816   1.65698 
 H                     2.68892  -1.91203  -0.8437 
 H                     4.1143   -0.88647  -1.02646 
 H                     1.64454  -0.67825  -2.39766 
 

 GradGradGradGradGradGradGradGradGradGradGradGradGradGradGradGradGradGrad
 Initialization pass.
                           ----------------------------
                           !    Initial Parameters    !
                           ! (Angstroms and Degrees)  !
 --------------------------                            --------------------------
 ! Name  Definition              Value          Derivative Info.                !
 --------------------------------------------------------------------------------
 ! R1    R(1,2)                  1.5375         estimate D2E/DX2                !
 ! R2    R(1,7)                  1.0963         estimate D2E/DX2                !
 ! R3    R(1,8)                  1.0957         estimate D2E/DX2                !
 ! R4    R(1,9)                  1.0956         estimate D2E/DX2                !
 ! R5    R(2,3)                  1.5378         estimate D2E/DX2                !
 ! R6    R(2,4)                  1.5381         estimate D2E/DX2                !
 ! R7    R(2,5)                  1.5435         estimate D2E/DX2                !
 ! R8    R(3,10)                 1.0962         estimate D2E/DX2                !
 ! R9    R(3,11)                 1.0959         estimate D2E/DX2                !
 ! R10   R(3,12)                 1.0955         estimate D2E/DX2                !
 ! R11   R(4,13)                 1.0958         estimate D2E/DX2                !
 ! R12   R(4,14)                 1.0954         estimate D2E/DX2                !
 ! R13   R(4,15)                 1.0956         estimate D2E/DX2                !
 ! R14   R(5,6)                  1.4226         estimate D2E/DX2                !
 ! R15   R(5,16)                 1.096          estimate D2E/DX2                !
 ! R16   R(5,17)                 1.0955         estimate D2E/DX2                !
 ! R17   R(6,18)                 0.9723         estimate D2E/DX2                !
 ! A1    A(2,1,7)              111.0586         estimate D2E/DX2                !
 ! A2    A(2,1,8)              111.0602         estimate D2E/DX2                !
 ! A3    A(2,1,9)              111.7971         estimate D2E/DX2                !
 ! A4    A(7,1,8)              107.6303         estimate D2E/DX2                !
 ! A5    A(7,1,9)              107.2186         estimate D2E/DX2                !
 ! A6    A(8,1,9)              107.879          estimate D2E/DX2                !
 ! A7    A(1,2,3)              108.9286         estimate D2E/DX2                !
 ! A8    A(1,2,4)              108.9951         estimate D2E/DX2                !
 ! A9    A(1,2,5)              110.7609         estimate D2E/DX2                !
 ! A10   A(3,2,4)              109.1466         estimate D2E/DX2                !
 ! A11   A(3,2,5)              110.1953         estimate D2E/DX2                !
 ! A12   A(4,2,5)              108.7858         estimate D2E/DX2                !
 ! A13   A(2,3,10)             111.0909         estimate D2E/DX2                !
 ! A14   A(2,3,11)             111.5975         estimate D2E/DX2                !
 ! A15   A(2,3,12)             111.0849         estimate D2E/DX2                !
 ! A16   A(10,3,11)            107.4781         estimate D2E/DX2                !
 ! A17   A(10,3,12)            107.6311         estimate D2E/DX2                !
 ! A18   A(11,3,12)            107.7714         estimate D2E/DX2                !
 ! A19   A(2,4,13)             111.1862         estimate D2E/DX2                !
 ! A20   A(2,4,14)             111.1735         estimate D2E/DX2                !
 ! A21   A(2,4,15)             111.1206         estimate D2E/DX2                !
 ! A22   A(13,4,14)            107.6886         estimate D2E/DX2                !
 ! A23   A(13,4,15)            107.7254         estimate D2E/DX2                !
 ! A24   A(14,4,15)            107.7784         estimate D2E/DX2                !
 ! A25   A(2,5,6)              112.224          estimate D2E/DX2                !
 ! A26   A(2,5,16)             111.2822         estimate D2E/DX2                !
 ! A27   A(2,5,17)             110.4356         estimate D2E/DX2                !
 ! A28   A(6,5,16)             108.148          estimate D2E/DX2                !
 ! A29   A(6,5,17)             107.2005         estimate D2E/DX2                !
 ! A30   A(16,5,17)            107.3358         estimate D2E/DX2                !
 ! A31   A(5,6,18)             107.6722         estimate D2E/DX2                !
 ! D1    D(7,1,2,3)            -61.3834         estimate D2E/DX2                !
 ! D2    D(7,1,2,4)             57.613          estimate D2E/DX2                !
 ! D3    D(7,1,2,5)            177.2642         estimate D2E/DX2                !
 ! D4    D(8,1,2,3)            178.8779         estimate D2E/DX2                !
 ! D5    D(8,1,2,4)            -62.1258         estimate D2E/DX2                !
 ! D6    D(8,1,2,5)             57.5254         estimate D2E/DX2                !
 ! D7    D(9,1,2,3)             58.3265         estimate D2E/DX2                !
 ! D8    D(9,1,2,4)            177.3229         estimate D2E/DX2                !
 ! D9    D(9,1,2,5)            -63.0259         estimate D2E/DX2                !
 ! D10   D(1,2,3,10)            58.7923         estimate D2E/DX2                !
 ! D11   D(1,2,3,11)           -61.1346         estimate D2E/DX2                !
 ! D12   D(1,2,3,12)           178.57           estimate D2E/DX2                !
 ! D13   D(4,2,3,10)           -60.1093         estimate D2E/DX2                !
 ! D14   D(4,2,3,11)           179.9637         estimate D2E/DX2                !
 ! D15   D(4,2,3,12)            59.6683         estimate D2E/DX2                !
 ! D16   D(5,2,3,10)          -179.5109         estimate D2E/DX2                !
 ! D17   D(5,2,3,11)            60.5622         estimate D2E/DX2                !
 ! D18   D(5,2,3,12)           -59.7332         estimate D2E/DX2                !
 ! D19   D(1,2,4,13)           -59.2596         estimate D2E/DX2                !
 ! D20   D(1,2,4,14)          -179.2328         estimate D2E/DX2                !
 ! D21   D(1,2,4,15)            60.7246         estimate D2E/DX2                !
 ! D22   D(3,2,4,13)            59.6006         estimate D2E/DX2                !
 ! D23   D(3,2,4,14)           -60.3726         estimate D2E/DX2                !
 ! D24   D(3,2,4,15)           179.5848         estimate D2E/DX2                !
 ! D25   D(5,2,4,13)           179.872          estimate D2E/DX2                !
 ! D26   D(5,2,4,14)            59.8988         estimate D2E/DX2                !
 ! D27   D(5,2,4,15)           -60.1438         estimate D2E/DX2                !
 ! D28   D(1,2,5,6)             61.2091         estimate D2E/DX2                !
 ! D29   D(1,2,5,16)           -60.1397         estimate D2E/DX2                !
 ! D30   D(1,2,5,17)          -179.2436         estimate D2E/DX2                !
 ! D31   D(3,2,5,6)            -59.3935         estimate D2E/DX2                !
 ! D32   D(3,2,5,16)           179.2577         estimate D2E/DX2                !
 ! D33   D(3,2,5,17)            60.1538         estimate D2E/DX2                !
 ! D34   D(4,2,5,6)           -179.0141         estimate D2E/DX2                !
 ! D35   D(4,2,5,16)            59.6371         estimate D2E/DX2                !
 ! D36   D(4,2,5,17)           -59.4669         estimate D2E/DX2                !
 ! D37   D(2,5,6,18)           -69.9111         estimate D2E/DX2                !
 ! D38   D(16,5,6,18)           53.2188         estimate D2E/DX2                !
 ! D39   D(17,5,6,18)          168.6685         estimate D2E/DX2                !
 --------------------------------------------------------------------------------
 Number of steps in this run=     97 maximum allowed number of steps=    108.
 GradGradGradGradGradGradGradGradGradGradGradGradGradGradGradGradGradGrad

                    Distance matrix (angstroms):
                    1          2          3          4          5
     1  C    0.000000
     2  C    1.537473   0.000000
     3  C    2.502484   1.537764   0.000000
     4  C    2.503762   1.538059   2.506359   0.000000
     5  C    2.535506   1.543549   2.527075   2.505437   0.000000
     6  O    2.979351   2.463219   2.950753   3.785472   1.422612
     7  H    1.096293   2.185628   2.764610   2.735412   3.496125
     8  H    1.095680   2.185187   3.469948   2.771968   2.772380
     9  H    1.095585   2.194324   2.750565   3.476054   2.827235
    10  H    2.743943   2.186185   1.096152   2.759241   3.490587
    11  H    2.770511   2.192371   1.095948   3.477325   2.794060
    12  H    3.469835   2.185598   1.095473   2.755281   2.779495
    13  H    2.750571   2.187356   2.756462   1.095773   3.475039
    14  H    3.471471   2.186882   2.762371   1.095357   2.755029
    15  H    2.761455   2.186415   3.473347   1.095616   2.756351
    16  H    2.798173   2.193618   3.490784   2.756319   1.096040
    17  H    3.489670   2.182512   2.774601   2.741925   1.095466
    18  H    2.675845   2.699624   3.363980   4.069250   1.951685
                    6          7          8          9         10
     6  O    0.000000
     7  H    3.994268   0.000000
     8  H    3.317955   1.769177   0.000000
     9  H    2.710942   1.764439   1.771410   0.000000
    10  H    3.959959   2.551560   3.763342   3.075877   0.000000
    11  H    2.649593   3.140933   3.776398   2.565833   1.767559
    12  H    3.307456   3.767798   4.331879   3.772716   1.768906
    13  H    4.628976   2.525426   3.124131   3.755778   2.555361
    14  H    4.079062   3.749367   3.783232   4.340405   3.116575
    15  H    4.089551   3.085641   2.577925   3.785995   3.769337
    16  H    2.048524   3.795067   2.586370   3.196630   4.346316
    17  H    2.036068   4.338306   3.779030   3.829328   3.781777
    18  H    0.972329   3.717288   2.868754   2.199201   4.233458
                   11         12         13         14         15
    11  H    0.000000
    12  H    1.770324   0.000000
    13  H    3.771994   3.101428   0.000000
    14  H    3.776052   2.557993   1.769155   0.000000
    15  H    4.339866   3.769748   1.769779   1.770040   0.000000
    16  H    3.806958   3.787337   3.771430   3.102598   2.553082
    17  H    3.143702   2.576904   3.755320   2.536182   3.094170
    18  H    2.994697   3.956879   4.826728   4.578744   4.241719
                   16         17         18
    16  H    0.000000
    17  H    1.765470   0.000000
    18  H    2.242261   2.832536   0.000000
 Framework group  C1[X(C5H12O)]
 Deg. of freedom    48
                         Standard orientation:                         
 ---------------------------------------------------------------------
 Center     Atomic      Atomic             Coordinates (Angstroms)
 Number     Number       Type             X           Y           Z
 ---------------------------------------------------------------------
      1          6           0       -0.415291    1.466085   -0.458148
      2          6           0       -0.392823   -0.002057   -0.002212
      3          6           0       -0.482549   -0.049302    1.532205
      4          6           0       -1.607529   -0.730939   -0.601248
      5          6           0        0.894955   -0.704503   -0.482566
      6          8           0        2.067909   -0.100095    0.049126
      7          1           0       -1.349733    1.956515   -0.161240
      8          1           0       -0.332885    1.541170   -1.548142
      9          1           0        0.406858    2.041301   -0.018259
     10          1           0       -1.397042    0.438457    1.889057
     11          1           0        0.366787    0.459800    2.001827
     12          1           0       -0.494761   -1.083018    1.894620
     13          1           0       -2.546259   -0.264162   -0.282463
     14          1           0       -1.633957   -1.779944   -0.287089
     15          1           0       -1.579765   -0.710281   -1.696318
     16          1           0        0.970416   -0.692648   -1.575940
     17          1           0        0.899213   -1.753352   -0.166430
     18          1           0        2.167282    0.771224   -0.370817
 ---------------------------------------------------------------------
 Rotational constants (GHZ):           4.3727979           2.5849157           2.5708972
   108 basis functions,   198 primitive gaussians,   114 cartesian basis functions
    25 alpha electrons       25 beta electrons
       nuclear repulsion energy       267.1189841172 Hartrees.
 NAtoms=   18 NActive=   18 NUniq=   18 SFac= 1.00D+00 NAtFMM=   60 NAOKFM=F Big=F
 Nuclear repulsion after empirical dispersion term =      267.1074379653 Hartrees.
   1 Symmetry operations used in ECPInt.
 ECPInt:  NShTT=    1830 NPrTT=    7374 LenC2=    1828 LenP2D=    6150.
 LDataN:  DoStor=T MaxTD1= 4 Len=   56
 ExpMin= 1.22D-01 ExpMax= 2.27D+03 ExpMxC= 3.41D+02 IAcc=3 IRadAn=         5 AccDes= 0.00D+00
 Harris functional with IExCor= 4639 and IRadAn=       5 diagonalized for initial guess.
 HarFok:  IExCor= 4639 AccDes= 0.00D+00 IRadAn=         5 IDoV= 1 UseB2=F ITyADJ=14
 ICtDFT=  3500011 ScaDFX=  1.000000  1.000000  1.000000  1.000000
 FoFCou: FMM=F IPFlag=           0 FMFlag=      100000 FMFlg1=           0
         NFxFlg=           0 DoJE=T BraDBF=F KetDBF=T FulRan=T
         wScrn=  0.000000 ICntrl=       500 IOpCl=  0 I1Cent=   200000004 NGrid=           0
         NMat0=    1 NMatS0=      1 NMatT0=    0 NMatD0=    1 NMtDS0=    0 NMtDT0=    0
 Petite list used in FoFCou.
     Minimum is close to point  3 DX=  4.97D-03 DF= -3.40D-06 DXR=  8.22D-03 DFR=  6.72D-05 which will be used.
     Accept linear search using points  2 and  3.
     Accept linear search using points  1 and  2.
     Minimum is close to point  2 DX=  2.72D-04 DF= -2.61D-12 DXR=  2.72D-04 DFR=  7.40D-08 which will be used.
 SCF Done:  E(RwB97XD) =  -272.671762463     a.u. after    7 cycles
            Convg  =    0.1315D-08                    31 Fock formations.
              S**2 =  0.0000                  -V/T =  2.0101

 **********************************************************************

            Population analysis using the SCF Density.

 **********************************************************************

 Orbital symmetries:
       Occupied  (A) (A) (A) (A) (A) (A) (A) (A) (A) (A) (A) (A)
                 (A) (A) (A) (A) (A) (A) (A) (A) (A) (A) (A) (A)
                 (A)
       Virtual   (A) (A) (A) (A) (A) (A) (A) (A) (A) (A) (A) (A)
                 (A) (A) (A) (A) (A) (A) (A) (A) (A) (A) (A) (A)
                 (A) (A) (A) (A) (A) (A) (A) (A) (A) (A) (A) (A)
                 (A) (A) (A) (A) (A) (A) (A) (A) (A) (A) (A) (A)
                 (A) (A) (A) (A) (A) (A) (A) (A) (A) (A) (A) (A)
                 (A) (A) (A) (A) (A) (A) (A) (A) (A) (A) (A) (A)
                 (A) (A) (A) (A) (A) (A) (A) (A) (A) (A) (A)
 The electronic state is 1-A.
 Alpha  occ. eigenvalues --  -19.24473 -10.33108 -10.30659 -10.28392 -10.28056
 Alpha  occ. eigenvalues --  -10.27269  -1.10332  -0.91025  -0.78183  -0.77288
 Alpha  occ. eigenvalues --   -0.76131  -0.63516  -0.58851  -0.55283  -0.54308
 Alpha  occ. eigenvalues --   -0.52017  -0.49911  -0.47016  -0.46350  -0.44874
 Alpha  occ. eigenvalues --   -0.44322  -0.41577  -0.40833  -0.39497  -0.34720
 Alpha virt. eigenvalues --    0.12163   0.15143   0.17896   0.18345   0.19081
 Alpha virt. eigenvalues --    0.20371   0.20687   0.22970   0.24342   0.24738
 Alpha virt. eigenvalues --    0.26901   0.27230   0.27601   0.29757   0.31354
 Alpha virt. eigenvalues --    0.32199   0.33556   0.47927   0.48467   0.50996
 Alpha virt. eigenvalues --    0.51944   0.57227   0.61999   0.64499   0.66985
 Alpha virt. eigenvalues --    0.67343   0.70103   0.71679   0.76150   0.76756
 Alpha virt. eigenvalues --    0.77343   0.77643   0.78202   0.79073   0.81017
 Alpha virt. eigenvalues --    0.81315   0.82779   0.83736   0.84331   0.84996
 Alpha virt. eigenvalues --    0.85455   0.85638   0.87082   0.90387   0.94240
 Alpha virt. eigenvalues --    1.07235   1.11742   1.17724   1.23418   1.23793
 Alpha virt. eigenvalues --    1.25125   1.34352   1.46092   1.52829   1.64885
 Alpha virt. eigenvalues --    1.78342   1.80053   1.81006   1.88994   1.90655
 Alpha virt. eigenvalues --    1.94017   2.06766   2.09804   2.11332   2.12454
 Alpha virt. eigenvalues --    2.13332   2.19524   2.23384   2.25601   2.25954
 Alpha virt. eigenvalues --    2.26517   2.27619   2.30758   2.58209   2.61786
 Alpha virt. eigenvalues --    2.70628   2.72310   2.75736   2.77687   2.92020
 Alpha virt. eigenvalues --    3.06790   3.09312   3.46527
          Condensed to atoms (all electrons):
 Mulliken charges:
               1
     1  C   -0.299422
     2  C   -0.280340
     3  C   -0.257639
     4  C   -0.268936
     5  C    0.075549
     6  O   -0.496990
     7  H    0.120534
     8  H    0.110917
     9  H    0.108627
    10  H    0.108212
    11  H    0.123821
    12  H    0.108554
    13  H    0.115416
    14  H    0.114300
    15  H    0.110443
    16  H    0.087004
    17  H    0.102511
    18  H    0.317440
 Sum of Mulliken charges =   0.00000
 Mulliken charges with hydrogens summed into heavy atoms:
               1
     1  C    0.040656
     2  C   -0.280340
     3  C    0.082948
     4  C    0.071223
     5  C    0.265064
     6  O   -0.179550
 Electronic spatial extent (au):  <R**2>=            652.9536
 Charge=              0.0000 electrons
 Dipole moment (field-independent basis, Debye):
    X=             -1.0190    Y=              0.7982    Z=             -1.0705  Tot=              1.6797
   1 Symmetry operations used in ECPInt.
 ECPInt:  NShTT=    1830 NPrTT=    7374 LenC2=    1828 LenP2D=    6150.
 LDataN:  DoStor=T MaxTD1= 5 Len=  102
 Calling FoFJK, ICntrl=      2127 FMM=F ISym2X=0 I1Cent= 0 IOpClX= 0 NMat=1 NMatS=1 NMatT=0.

 GradGradGradGradGradGradGradGradGradGradGradGradGradGradGradGradGradGrad
 FormGI is forming the generalized inverse of G from B-inverse, IUseBI=4.
 Internal  Forces:  Max     0.009029742 RMS     0.002910289
 Step number   1 out of a maximum of   97
 All quantities printed in internal units (Hartrees-Bohrs-Radians)
 Mixed Optimization -- RFO/linear search
 Second derivative matrix not updated -- first step.
 ITU=  0
     Eigenvalues ---    0.00230   0.00262   0.00266   0.00270   0.01393
     Eigenvalues ---    0.04558   0.04731   0.04781   0.04934   0.05359
     Eigenvalues ---    0.05379   0.05423   0.05426   0.05439   0.05446
     Eigenvalues ---    0.05558   0.11765   0.13963   0.14276   0.14512
     Eigenvalues ---    0.16000   0.16000   0.16000   0.16000   0.16000
     Eigenvalues ---    0.16000   0.16000   0.16000   0.16000   0.16000
     Eigenvalues ---    0.22011   0.28207   0.28692   0.28718   0.28744
     Eigenvalues ---    0.34095   0.34111   0.34124   0.34134   0.34154
     Eigenvalues ---    0.34164   0.34172   0.34175   0.34188   0.34189
     Eigenvalues ---    0.34201   0.42069   0.52904
 Linear search not attempted -- first point.
 Iteration  1 RMS(Cart)=  0.02569124 RMS(Int)=  0.00061758
 Iteration  2 RMS(Cart)=  0.00071153 RMS(Int)=  0.00027397
 Iteration  3 RMS(Cart)=  0.00000061 RMS(Int)=  0.00027397
 Variable       Old X    -DE/DX   Delta X   Delta X   Delta X     New X
                                 (Linear)    (Quad)   (Total)
    R1        2.90540  -0.00097   0.00000  -0.00335  -0.00335   2.90206
    R2        2.07169   0.00486   0.00000   0.01412   0.01412   2.08582
    R3        2.07054   0.00710   0.00000   0.02058   0.02058   2.09112
    R4        2.07036   0.00618   0.00000   0.01791   0.01791   2.08827
    R5        2.90595  -0.00231   0.00000  -0.00795  -0.00795   2.89800
    R6        2.90651  -0.00144   0.00000  -0.00496  -0.00496   2.90155
    R7        2.91688  -0.00395   0.00000  -0.01384  -0.01384   2.90305
    R8        2.07143   0.00572   0.00000   0.01660   0.01660   2.08803
    R9        2.07104   0.00451   0.00000   0.01310   0.01310   2.08414
   R10        2.07014   0.00629   0.00000   0.01821   0.01821   2.08836
   R11        2.07071   0.00547   0.00000   0.01586   0.01586   2.08657
   R12        2.06992   0.00643   0.00000   0.01863   0.01863   2.08856
   R13        2.07041   0.00659   0.00000   0.01909   0.01909   2.08951
   R14        2.68835  -0.00674   0.00000  -0.01589  -0.01589   2.67245
   R15        2.07121   0.00903   0.00000   0.02620   0.02620   2.09742
   R16        2.07013   0.00467   0.00000   0.01353   0.01353   2.08366
   R17        1.83744  -0.00670   0.00000  -0.01259  -0.01259   1.82484
    A1        1.93834  -0.00100   0.00000  -0.00886  -0.00888   1.92946
    A2        1.93837   0.00055   0.00000   0.00593   0.00593   1.94430
    A3        1.95123  -0.00046   0.00000  -0.00265  -0.00268   1.94854
    A4        1.87850   0.00020   0.00000   0.00092   0.00094   1.87944
    A5        1.87132   0.00023   0.00000  -0.00340  -0.00345   1.86786
    A6        1.88284   0.00053   0.00000   0.00831   0.00830   1.89114
    A7        1.90116   0.00117   0.00000   0.01656   0.01630   1.91746
    A8        1.90232   0.00007   0.00000   0.00768   0.00735   1.90967
    A9        1.93314  -0.00067   0.00000  -0.01368  -0.01359   1.91955
   A10        1.90497   0.00083   0.00000   0.01501   0.01477   1.91974
   A11        1.92327  -0.00111   0.00000  -0.01464  -0.01451   1.90876
   A12        1.89867  -0.00025   0.00000  -0.01032  -0.01023   1.88844
   A13        1.93890  -0.00151   0.00000  -0.00727  -0.00728   1.93163
   A14        1.94774  -0.00194   0.00000  -0.01229  -0.01232   1.93543
   A15        1.93880   0.00017   0.00000  -0.00057  -0.00060   1.93820
   A16        1.87585   0.00217   0.00000   0.01626   0.01625   1.89209
   A17        1.87852   0.00080   0.00000   0.00565   0.00565   1.88417
   A18        1.88097   0.00053   0.00000  -0.00049  -0.00053   1.88043
   A19        1.94057  -0.00112   0.00000  -0.00789  -0.00789   1.93268
   A20        1.94034  -0.00016   0.00000  -0.00085  -0.00087   1.93948
   A21        1.93942   0.00060   0.00000   0.00457   0.00458   1.94400
   A22        1.87952   0.00048   0.00000   0.00123   0.00122   1.88074
   A23        1.88016   0.00025   0.00000   0.00127   0.00128   1.88144
   A24        1.88109  -0.00001   0.00000   0.00191   0.00190   1.88299
   A25        1.95868   0.00722   0.00000   0.03652   0.03627   1.99494
   A26        1.94224  -0.00620   0.00000  -0.02904  -0.03042   1.91182
   A27        1.92746  -0.00167   0.00000  -0.02509  -0.02524   1.90222
   A28        1.88754   0.00319   0.00000   0.05623   0.05618   1.94372
   A29        1.87100  -0.00451   0.00000  -0.03781  -0.03727   1.83374
   A30        1.87336   0.00191   0.00000  -0.00127  -0.00172   1.87165
   A31        1.87923   0.00156   0.00000   0.00955   0.00955   1.88878
    D1       -1.07134  -0.00073   0.00000  -0.01720  -0.01726  -1.08860
    D2        1.00554   0.00099   0.00000   0.01507   0.01508   1.02062
    D3        3.09384   0.00031   0.00000  -0.00116  -0.00116   3.09269
    D4        3.12201  -0.00069   0.00000  -0.01641  -0.01645   3.10555
    D5       -1.08430   0.00103   0.00000   0.01585   0.01589  -1.06841
    D6        1.00401   0.00035   0.00000  -0.00038  -0.00035   1.00366
    D7        1.01799  -0.00143   0.00000  -0.02931  -0.02935   0.98864
    D8        3.09487   0.00030   0.00000   0.00295   0.00299   3.09786
    D9       -1.10001  -0.00038   0.00000  -0.01327  -0.01324  -1.11325
   D10        1.02612   0.00067   0.00000  -0.00236  -0.00226   1.02386
   D11       -1.06700   0.00024   0.00000  -0.00979  -0.00969  -1.07669
   D12        3.11663   0.00078   0.00000  -0.00045  -0.00037   3.11627
   D13       -1.04911  -0.00058   0.00000  -0.03010  -0.03018  -1.07929
   D14        3.14096  -0.00101   0.00000  -0.03753  -0.03761   3.10335
   D15        1.04141  -0.00047   0.00000  -0.02818  -0.02828   1.01313
   D16       -3.13306  -0.00011   0.00000  -0.01786  -0.01786   3.13227
   D17        1.05701  -0.00053   0.00000  -0.02529  -0.02528   1.03173
   D18       -1.04254   0.00000   0.00000  -0.01594  -0.01596  -1.05850
   D19       -1.03428  -0.00105   0.00000  -0.02160  -0.02162  -1.05589
   D20       -3.12820  -0.00080   0.00000  -0.01730  -0.01732   3.13766
   D21        1.05984  -0.00108   0.00000  -0.02221  -0.02223   1.03761
   D22        1.04023   0.00090   0.00000   0.01169   0.01172   1.05195
   D23       -1.05370   0.00114   0.00000   0.01599   0.01601  -1.03769
   D24        3.13435   0.00086   0.00000   0.01108   0.01110  -3.13774
   D25        3.13936  -0.00012   0.00000  -0.00335  -0.00335   3.13601
   D26        1.04543   0.00013   0.00000   0.00096   0.00095   1.04638
   D27       -1.04971  -0.00015   0.00000  -0.00395  -0.00396  -1.05367
   D28        1.06830   0.00250   0.00000   0.03300   0.03296   1.10126
   D29       -1.04964  -0.00228   0.00000  -0.04450  -0.04409  -1.09373
   D30       -3.12839   0.00041   0.00000  -0.00784  -0.00812  -3.13651
   D31       -1.03661   0.00220   0.00000   0.03082   0.03073  -1.00588
   D32        3.12864  -0.00258   0.00000  -0.04668  -0.04632   3.08232
   D33        1.04988   0.00011   0.00000  -0.01002  -0.01035   1.03953
   D34       -3.12439   0.00201   0.00000   0.02761   0.02753  -3.09686
   D35        1.04086  -0.00276   0.00000  -0.04989  -0.04952   0.99134
   D36       -1.03789  -0.00007   0.00000  -0.01323  -0.01356  -1.05145
   D37       -1.22018  -0.00001   0.00000  -0.02436  -0.02542  -1.24559
   D38        0.92884  -0.00086   0.00000   0.00241   0.00374   0.93258
   D39        2.94382   0.00065   0.00000   0.00968   0.00941   2.95323
         Item               Value     Threshold  Converged?
 Maximum Force            0.009030     0.000015     NO 
 RMS     Force            0.002910     0.000010     NO 
 Maximum Displacement     0.114071     0.000060     NO 
 RMS     Displacement     0.025664     0.000040     NO 
 GradGradGradGradGradGradGradGradGradGradGradGradGradGradGradGradGradGrad

                    Distance matrix (angstroms):
                    1          2          3          4          5
     1  C    0.000000
     2  C    1.535702   0.000000
     3  C    2.512075   1.533557   0.000000
     4  C    2.506721   1.535436   2.513864   0.000000
     5  C    2.516104   1.536225   2.504804   2.488167   0.000000
     6  O    3.007731   2.479545   2.942359   3.780687   1.414201
     7  H    1.103766   2.183273   2.782094   2.742706   3.482328
     8  H    1.106570   2.196134   3.487976   2.779145   2.760645
     9  H    1.105064   2.198041   2.753023   3.484933   2.814526
    10  H    2.753523   2.183841   1.104939   2.781811   3.476386
    11  H    2.780647   2.185041   1.102878   3.482288   2.750295
    12  H    3.484514   2.188734   1.105111   2.756802   2.766183
    13  H    2.762122   2.185676   2.770042   1.104165   3.464062
    14  H    3.481569   2.191394   2.769782   1.105216   2.740650
    15  H    2.764045   2.195034   3.488620   1.105719   2.748226
    16  H    2.776051   2.175412   3.470641   2.692321   1.109906
    17  H    3.469143   2.162895   2.725541   2.709916   1.102623
    18  H    2.736756   2.737832   3.372094   4.095239   1.945873
                    6          7          8          9         10
     6  O    0.000000
     7  H    4.028470   0.000000
     8  H    3.350579   1.784609   0.000000
     9  H    2.749002   1.775821   1.793262   0.000000
    10  H    3.962148   2.564847   3.785930   3.072577   0.000000
    11  H    2.615183   3.171205   3.789519   2.563790   1.790782
    12  H    3.292775   3.789113   4.351853   3.785452   1.787456
    13  H    4.638041   2.536212   3.142694   3.772040   2.580119
    14  H    4.058877   3.766655   3.796500   4.353265   3.145021
    15  H    4.091195   3.092500   2.576513   3.798021   3.799068
    16  H    2.091794   3.770418   2.559686   3.206193   4.327892
    17  H    2.006575   4.317995   3.771942   3.814642   3.744734
    18  H    0.965666   3.785661   2.936621   2.264921   4.255301
                   11         12         13         14         15
    11  H    0.000000
    12  H    1.783362   0.000000
    13  H    3.793970   3.107249   0.000000
    14  H    3.777307   2.551715   1.784684   0.000000
    15  H    4.347606   3.780509   1.785551   1.787406   0.000000
    16  H    3.783178   3.766614   3.718929   3.039916   2.481406
    17  H    3.076787   2.523811   3.725982   2.495446   3.083514
    18  H    2.968955   3.957072   4.870923   4.587292   4.273824
                   16         17         18
    16  H    0.000000
    17  H    1.781285   0.000000
    18  H    2.297076   2.811504   0.000000
 Framework group  C1[X(C5H12O)]
 Deg. of freedom    48
                         Standard orientation:                         
 ---------------------------------------------------------------------
 Center     Atomic      Atomic             Coordinates (Angstroms)
 Number     Number       Type             X           Y           Z
 ---------------------------------------------------------------------
      1          6           0       -0.439562    1.538662   -0.043798
      2          6           0       -0.403081    0.004283    0.008436
      3          6           0       -0.449502   -0.468681    1.466499
      4          6           0       -1.602530   -0.561439   -0.765415
      5          6           0        0.882681   -0.513133   -0.654198
      6          8           0        2.073642   -0.113226   -0.004850
      7          1           0       -1.382972    1.918611    0.385056
      8          1           0       -0.370099    1.909009   -1.084239
      9          1           0        0.384737    1.986085    0.540590
     10          1           0       -1.362764   -0.099903    1.967343
     11          1           0        0.427027   -0.102532    2.026830
     12          1           0       -0.450289   -1.572188    1.526022
     13          1           0       -2.552542   -0.218865   -0.318984
     14          1           0       -1.601628   -1.666536   -0.749228
     15          1           0       -1.589523   -0.237255   -1.822463
     16          1           0        0.889972   -0.224638   -1.725930
     17          1           0        0.889528   -1.614941   -0.612362
     18          1           0        2.201378    0.830803   -0.162978
 ---------------------------------------------------------------------
 Rotational constants (GHZ):           4.3671631           2.5845087           2.5731954
   108 basis functions,   198 primitive gaussians,   114 cartesian basis functions
    25 alpha electrons       25 beta electrons
       nuclear repulsion energy       267.0960378951 Hartrees.
 NAtoms=   18 NActive=   18 NUniq=   18 SFac= 1.00D+00 NAtFMM=   60 NAOKFM=F Big=F
 Nuclear repulsion after empirical dispersion term =      267.0844338688 Hartrees.
   1 Symmetry operations used in ECPInt.
 ECPInt:  NShTT=    1830 NPrTT=    7374 LenC2=    1828 LenP2D=    6152.
 LDataN:  DoStor=T MaxTD1= 4 Len=   56
 Initial guess from the checkpoint file:  "/scratch/user/peterchao1/peterchao1/6097799_1659647585000000525322498/Gau-212040.chk"
 B after Tr=    -0.000000    0.000000    0.000000
         Rot=    0.990540   -0.137008   -0.006719   -0.003672 Ang= -15.77 deg.
 ExpMin= 1.22D-01 ExpMax= 2.27D+03 ExpMxC= 3.41D+02 IAcc=3 IRadAn=         5 AccDes= 0.00D+00
 Harris functional with IExCor= 4639 and IRadAn=       5 diagonalized for initial guess.
 HarFok:  IExCor= 4639 AccDes= 0.00D+00 IRadAn=         5 IDoV= 1 UseB2=F ITyADJ=14
 ICtDFT=  3500011 ScaDFX=  1.000000  1.000000  1.000000  1.000000
 FoFCou: FMM=F IPFlag=           0 FMFlag=      100000 FMFlg1=           0
         NFxFlg=           0 DoJE=T BraDBF=F KetDBF=T FulRan=T
         wScrn=  0.000000 ICntrl=       500 IOpCl=  0 I1Cent=   200000004 NGrid=           0
         NMat0=    1 NMatS0=      1 NMatT0=    0 NMatD0=    1 NMtDS0=    0 NMtDT0=    0
 Petite list used in FoFCou.
     Accept linear search using points  3 and  4.
     Accept linear search using points  2 and  3.
     Minimum is close to point  2 DX=  7.39D-02 DF= -4.67D-07 DXR=  7.59D-02 DFR=  5.80D-03 which will be used.
     Accept linear search using points  1 and  2.
     Minimum is close to point  2 DX= -6.25D-04 DF= -2.79D-11 DXR=  6.26D-04 DFR=  3.92D-07 which will be used.
 SCF Done:  E(RwB97XD) =  -272.673354626     a.u. after    6 cycles
            Convg  =    0.8221D-09                    31 Fock formations.
              S**2 =  0.0000                  -V/T =  2.0104
   1 Symmetry operations used in ECPInt.
 ECPInt:  NShTT=    1830 NPrTT=    7374 LenC2=    1828 LenP2D=    6152.
 LDataN:  DoStor=T MaxTD1= 5 Len=  102
 Calling FoFJK, ICntrl=      2127 FMM=F ISym2X=0 I1Cent= 0 IOpClX= 0 NMat=1 NMatS=1 NMatT=0.

 GradGradGradGradGradGradGradGradGradGradGradGradGradGradGradGradGradGrad
 Using GEDIIS/GDIIS optimizer.
 FormGI is forming the generalized inverse of G from B-inverse, IUseBI=4.
 Internal  Forces:  Max     0.005110891 RMS     0.000718700
 Step number   2 out of a maximum of   97
 All quantities printed in internal units (Hartrees-Bohrs-Radians)
 Mixed Optimization -- En-DIIS/RFO-DIIS
 Trust test= 9.17D-01 RLast= 1.80D-01 DXMaxT set to 5.05D-01
 ITU=  1  0
 Use linear search instead of GDIIS.
     Eigenvalues ---    0.00229   0.00262   0.00266   0.00271   0.01394
     Eigenvalues ---    0.04555   0.04712   0.04898   0.05220   0.05400
     Eigenvalues ---    0.05435   0.05460   0.05482   0.05486   0.05525
     Eigenvalues ---    0.05734   0.11748   0.13995   0.14297   0.14616
     Eigenvalues ---    0.15712   0.16000   0.16000   0.16000   0.16000
     Eigenvalues ---    0.16000   0.16000   0.16000   0.16000   0.16292
     Eigenvalues ---    0.22020   0.28421   0.28596   0.28741   0.28808
     Eigenvalues ---    0.32255   0.34101   0.34114   0.34138   0.34148
     Eigenvalues ---    0.34164   0.34169   0.34175   0.34183   0.34197
     Eigenvalues ---    0.34417   0.42127   0.53116
 Quartic linear search produced a step of -0.04907.
 Iteration  1 RMS(Cart)=  0.02430947 RMS(Int)=  0.00034041
 Iteration  2 RMS(Cart)=  0.00044096 RMS(Int)=  0.00001961
 Iteration  3 RMS(Cart)=  0.00000015 RMS(Int)=  0.00001961
 Variable       Old X    -DE/DX   Delta X   Delta X   Delta X     New X
                                 (Linear)    (Quad)   (Total)
    R1        2.90206  -0.00018   0.00016  -0.00101  -0.00084   2.90121
    R2        2.08582   0.00037  -0.00069   0.00282   0.00212   2.08794
    R3        2.09112  -0.00041  -0.00101   0.00147   0.00046   2.09158
    R4        2.08827   0.00004  -0.00088   0.00237   0.00149   2.08976
    R5        2.89800  -0.00007   0.00039  -0.00123  -0.00084   2.89717
    R6        2.90155  -0.00090   0.00024  -0.00361  -0.00337   2.89818
    R7        2.90305   0.00208   0.00068   0.00524   0.00592   2.90897
    R8        2.08803   0.00004  -0.00081   0.00220   0.00138   2.08941
    R9        2.08414  -0.00023  -0.00064   0.00102   0.00037   2.08451
   R10        2.08836  -0.00021  -0.00089   0.00173   0.00083   2.08919
   R11        2.08657   0.00011  -0.00078   0.00232   0.00154   2.08811
   R12        2.08856  -0.00014  -0.00091   0.00196   0.00105   2.08961
   R13        2.08951  -0.00021  -0.00094   0.00183   0.00089   2.09039
   R14        2.67245  -0.00511   0.00078  -0.01354  -0.01276   2.65970
   R15        2.09742   0.00058  -0.00129   0.00493   0.00365   2.10106
   R16        2.08366   0.00069  -0.00066   0.00364   0.00297   2.08663
   R17        1.82484   0.00046   0.00062  -0.00075  -0.00014   1.82471
    A1        1.92946   0.00086   0.00044   0.00472   0.00516   1.93461
    A2        1.94430  -0.00033  -0.00029  -0.00157  -0.00186   1.94244
    A3        1.94854  -0.00027   0.00013  -0.00237  -0.00224   1.94631
    A4        1.87944  -0.00020  -0.00005  -0.00027  -0.00032   1.87912
    A5        1.86786  -0.00024   0.00017  -0.00116  -0.00098   1.86688
    A6        1.89114   0.00017  -0.00041   0.00067   0.00026   1.89140
    A7        1.91746  -0.00038  -0.00080  -0.00065  -0.00143   1.91603
    A8        1.90967   0.00031  -0.00036   0.00190   0.00155   1.91123
    A9        1.91955  -0.00014   0.00067  -0.00394  -0.00328   1.91628
   A10        1.91974   0.00005  -0.00072   0.00343   0.00272   1.92246
   A11        1.90876   0.00049   0.00071   0.00240   0.00310   1.91186
   A12        1.88844  -0.00033   0.00050  -0.00318  -0.00269   1.88575
   A13        1.93163   0.00067   0.00036   0.00407   0.00443   1.93606
   A14        1.93543  -0.00042   0.00060  -0.00423  -0.00363   1.93180
   A15        1.93820  -0.00031   0.00003  -0.00276  -0.00274   1.93546
   A16        1.89209   0.00005  -0.00080   0.00393   0.00314   1.89523
   A17        1.88417  -0.00015  -0.00028   0.00014  -0.00014   1.88403
   A18        1.88043   0.00017   0.00003  -0.00102  -0.00100   1.87943
   A19        1.93268   0.00011   0.00039  -0.00053  -0.00014   1.93254
   A20        1.93948   0.00006   0.00004   0.00041   0.00046   1.93993
   A21        1.94400   0.00009  -0.00022   0.00110   0.00088   1.94487
   A22        1.88074  -0.00009  -0.00006  -0.00038  -0.00044   1.88030
   A23        1.88144  -0.00014  -0.00006  -0.00095  -0.00101   1.88043
   A24        1.88299  -0.00005  -0.00009   0.00028   0.00018   1.88317
   A25        1.99494  -0.00019  -0.00178   0.00355   0.00171   1.99665
   A26        1.91182   0.00001   0.00149  -0.01004  -0.00851   1.90331
   A27        1.90222   0.00028   0.00124   0.00503   0.00623   1.90845
   A28        1.94372  -0.00082  -0.00276  -0.00729  -0.01008   1.93364
   A29        1.83374   0.00093   0.00183   0.01070   0.01245   1.84619
   A30        1.87165  -0.00015   0.00008  -0.00094  -0.00079   1.87085
   A31        1.88878   0.00186  -0.00047   0.01222   0.01175   1.90053
    D1       -1.08860   0.00012   0.00085   0.00716   0.00801  -1.08059
    D2        1.02062   0.00014  -0.00074   0.01219   0.01145   1.03207
    D3        3.09269  -0.00016   0.00006   0.00709   0.00715   3.09983
    D4        3.10555   0.00001   0.00081   0.00539   0.00621   3.11176
    D5       -1.06841   0.00003  -0.00078   0.01042   0.00964  -1.05877
    D6        1.00366  -0.00026   0.00002   0.00533   0.00534   1.00900
    D7        0.98864   0.00021   0.00144   0.00729   0.00873   0.99737
    D8        3.09786   0.00023  -0.00015   0.01232   0.01217   3.11003
    D9       -1.11325  -0.00006   0.00065   0.00722   0.00787  -1.10539
   D10        1.02386   0.00008   0.00011  -0.02453  -0.02442   0.99944
   D11       -1.07669  -0.00015   0.00048  -0.02938  -0.02890  -1.10559
   D12        3.11627   0.00012   0.00002  -0.02347  -0.02347   3.09280
   D13       -1.07929  -0.00010   0.00148  -0.02865  -0.02716  -1.10644
   D14        3.10335  -0.00033   0.00185  -0.03350  -0.03164   3.07171
   D15        1.01313  -0.00005   0.00139  -0.02760  -0.02620   0.98692
   D16        3.13227  -0.00003   0.00088  -0.02828  -0.02740   3.10487
   D17        1.03173  -0.00026   0.00124  -0.03313  -0.03189   0.99984
   D18       -1.05850   0.00002   0.00078  -0.02723  -0.02645  -1.08495
   D19       -1.05589   0.00001   0.00106  -0.01070  -0.00964  -1.06553
   D20        3.13766   0.00001   0.00085  -0.01014  -0.00929   3.12837
   D21        1.03761  -0.00003   0.00109  -0.01152  -0.01043   1.02718
   D22        1.05195  -0.00023  -0.00058  -0.00814  -0.00871   1.04323
   D23       -1.03769  -0.00023  -0.00079  -0.00758  -0.00837  -1.04605
   D24       -3.13774  -0.00027  -0.00054  -0.00896  -0.00950   3.13595
   D25        3.13601   0.00019   0.00016  -0.00515  -0.00499   3.13103
   D26        1.04638   0.00019  -0.00005  -0.00459  -0.00464   1.04174
   D27       -1.05367   0.00015   0.00019  -0.00597  -0.00578  -1.05945
   D28        1.10126  -0.00104  -0.00162  -0.05083  -0.05246   1.04881
   D29       -1.09373   0.00019   0.00216  -0.03565  -0.03352  -1.12725
   D30       -3.13651   0.00020   0.00040  -0.03171  -0.03128   3.11539
   D31       -1.00588  -0.00080  -0.00151  -0.04909  -0.05059  -1.05647
   D32        3.08232   0.00044   0.00227  -0.03390  -0.03166   3.05065
   D33        1.03953   0.00045   0.00051  -0.02996  -0.02942   1.01011
   D34       -3.09686  -0.00095  -0.00135  -0.05274  -0.05408   3.13224
   D35        0.99134   0.00029   0.00243  -0.03755  -0.03515   0.95619
   D36       -1.05145   0.00030   0.00067  -0.03361  -0.03291  -1.08436
   D37       -1.24559   0.00068   0.00125   0.01834   0.01965  -1.22595
   D38        0.93258  -0.00013  -0.00018   0.00158   0.00137   0.93395
   D39        2.95323  -0.00018  -0.00046   0.00295   0.00246   2.95569
         Item               Value     Threshold  Converged?
 Maximum Force            0.005111     0.000015     NO 
 RMS     Force            0.000719     0.000010     NO 
 Maximum Displacement     0.078572     0.000060     NO 
 RMS     Displacement     0.024291     0.000040     NO 
 GradGradGradGradGradGradGradGradGradGradGradGradGradGradGradGradGradGrad

                    Distance matrix (angstroms):
                    1          2          3          4          5
     1  C    0.000000
     2  C    1.535255   0.000000
     3  C    2.510083   1.533114   0.000000
     4  C    2.506278   1.533653   2.514431   0.000000
     5  C    2.515413   1.539359   2.509755   2.486843   0.000000
     6  O    2.975978   2.478016   2.973901   3.774351   1.407451
     7  H    1.104890   2.187469   2.780979   2.753259   3.486227
     8  H    1.106815   2.194583   3.485820   2.773338   2.759378
     9  H    1.105853   2.196640   2.753031   3.483973   2.807291
    10  H    2.744221   2.187216   1.105670   2.800232   3.483299
    11  H    2.789119   2.182171   1.103076   3.479923   2.737404
    12  H    3.481686   2.186696   1.105552   2.744191   2.781505
    13  H    2.766761   2.184618   2.767344   1.104980   3.464517
    14  H    3.481603   2.190570   2.775428   1.105771   2.736369
    15  H    2.760051   2.194447   3.489527   1.106189   2.749252
    16  H    2.784823   2.173283   3.471148   2.667469   1.111835
    17  H    3.473043   2.171414   2.723699   2.730741   1.104196
    18  H    2.700984   2.735824   3.407226   4.077296   1.947657
                    6          7          8          9         10
     6  O    0.000000
     7  H    4.004501   0.000000
     8  H    3.304345   1.785506   0.000000
     9  H    2.708138   1.776712   1.794270   0.000000
    10  H    3.980516   2.555021   3.778281   3.060598   0.000000
    11  H    2.634915   3.185159   3.795721   2.575482   1.793558
    12  H    3.357559   3.782943   4.348383   3.789337   1.788316
    13  H    4.634698   2.552507   3.142540   3.778610   2.596786
    14  H    4.065016   3.778911   3.789904   4.352116   3.175619
    15  H    4.070874   3.098112   2.565845   3.792533   3.812556
    16  H    2.080366   3.779229   2.569022   3.217661   4.330005
    17  H    2.011308   4.329116   3.780640   3.803767   3.754760
    18  H    0.965594   3.754177   2.876793   2.229637   4.271266
                   11         12         13         14         15
    11  H    0.000000
    12  H    1.783223   0.000000
    13  H    3.797841   3.082910   0.000000
    14  H    3.772083   2.543553   1.785505   0.000000
    15  H    4.344876   3.773443   1.785930   1.788354   0.000000
    16  H    3.779056   3.767452   3.700153   3.003801   2.456725
    17  H    3.040157   2.533419   3.743318   2.514386   3.114435
    18  H    3.012407   4.018260   4.856330   4.581562   4.236061
                   16         17         18
    16  H    0.000000
    17  H    1.783583   0.000000
    18  H    2.292973   2.820216   0.000000
 Framework group  C1[X(C5H12O)]
 Deg. of freedom    48
                         Standard orientation:                         
 ---------------------------------------------------------------------
 Center     Atomic      Atomic             Coordinates (Angstroms)
 Number     Number       Type             X           Y           Z
 ---------------------------------------------------------------------
      1          6           0       -0.402406    1.533999   -0.120271
      2          6           0       -0.404441    0.004205    0.009085
      3          6           0       -0.495037   -0.391343    1.487521
      4          6           0       -1.594796   -0.573678   -0.766286
      5          6           0        0.886478   -0.572176   -0.599962
      6          8           0        2.070639   -0.116382    0.009081
      7          1           0       -1.341381    1.963108    0.273394
      8          1           0       -0.306931    1.847858   -1.177350
      9          1           0        0.425905    1.988507    0.454390
     10          1           0       -1.396465    0.042908    1.958009
     11          1           0        0.393266   -0.040966    2.039724
     12          1           0       -0.548141   -1.489958    1.599201
     13          1           0       -2.548916   -0.195602   -0.356784
     14          1           0       -1.614657   -1.677420   -0.702334
     15          1           0       -1.553541   -0.295834   -1.836219
     16          1           0        0.898036   -0.361981   -1.691686
     17          1           0        0.889767   -1.669706   -0.478857
     18          1           0        2.199161    0.814101   -0.214651
 ---------------------------------------------------------------------
 Rotational constants (GHZ):           4.3631337           2.5865412           2.5777241
   108 basis functions,   198 primitive gaussians,   114 cartesian basis functions
    25 alpha electrons       25 beta electrons
       nuclear repulsion energy       267.1878197183 Hartrees.
 NAtoms=   18 NActive=   18 NUniq=   18 SFac= 1.00D+00 NAtFMM=   60 NAOKFM=F Big=F
 Nuclear repulsion after empirical dispersion term =      267.1762273682 Hartrees.
   1 Symmetry operations used in ECPInt.
 ECPInt:  NShTT=    1830 NPrTT=    7374 LenC2=    1828 LenP2D=    6155.
 LDataN:  DoStor=T MaxTD1= 4 Len=   56
 Initial guess from the checkpoint file:  "/scratch/user/peterchao1/peterchao1/6097799_1659647585000000525322498/Gau-212040.chk"
 B after Tr=    -0.000000   -0.000000    0.000000
         Rot=    0.999626    0.025331    0.007323    0.007257 Ang=   3.13 deg.
 ExpMin= 1.22D-01 ExpMax= 2.27D+03 ExpMxC= 3.41D+02 IAcc=3 IRadAn=         5 AccDes= 0.00D+00
 Harris functional with IExCor= 4639 and IRadAn=       5 diagonalized for initial guess.
 HarFok:  IExCor= 4639 AccDes= 0.00D+00 IRadAn=         5 IDoV= 1 UseB2=F ITyADJ=14
 ICtDFT=  3500011 ScaDFX=  1.000000  1.000000  1.000000  1.000000
 FoFCou: FMM=F IPFlag=           0 FMFlag=      100000 FMFlg1=           0
         NFxFlg=           0 DoJE=T BraDBF=F KetDBF=T FulRan=T
         wScrn=  0.000000 ICntrl=       500 IOpCl=  0 I1Cent=   200000004 NGrid=           0
         NMat0=    1 NMatS0=      1 NMatT0=    0 NMatD0=    1 NMtDS0=    0 NMtDT0=    0
 Petite list used in FoFCou.
     Minimum is close to point  4 DX=  8.85D-02 DF= -3.69D-06 DXR=  6.87D-02 DFR=  4.74D-03 which will be used.
     Accept linear search using points  2 and  3.
     Accept linear search using points  1 and  2.
     Accept linear search using points  1 and  2.
     Minimum is close to point  2 DX= -2.02D-04 DF= -2.50D-12 DXR=  2.02D-04 DFR=  4.10D-08 which will be used.
 SCF Done:  E(RwB97XD) =  -272.673475449     a.u. after    6 cycles
            Convg  =    0.1428D-08                    30 Fock formations.
              S**2 =  0.0000                  -V/T =  2.0104
   1 Symmetry operations used in ECPInt.
 ECPInt:  NShTT=    1830 NPrTT=    7374 LenC2=    1828 LenP2D=    6155.
 LDataN:  DoStor=T MaxTD1= 5 Len=  102
 Calling FoFJK, ICntrl=      2127 FMM=F ISym2X=0 I1Cent= 0 IOpClX= 0 NMat=1 NMatS=1 NMatT=0.

 GradGradGradGradGradGradGradGradGradGradGradGradGradGradGradGradGradGrad
 Using GEDIIS/GDIIS optimizer.
 FormGI is forming the generalized inverse of G from B-inverse, IUseBI=4.
 Internal  Forces:  Max     0.001464601 RMS     0.000263168
 Step number   3 out of a maximum of   97
 All quantities printed in internal units (Hartrees-Bohrs-Radians)
 Mixed Optimization -- En-DIIS/RFO-DIIS
 Swapping is turned off.
 Trust test= 8.59D-01 RLast= 1.55D-01 DXMaxT set to 5.05D-01
 ITU=  1  1  0
     Eigenvalues ---    0.00243   0.00256   0.00265   0.00325   0.01389
     Eigenvalues ---    0.04557   0.04771   0.04907   0.05310   0.05393
     Eigenvalues ---    0.05432   0.05464   0.05474   0.05481   0.05619
     Eigenvalues ---    0.06087   0.11603   0.13805   0.14299   0.14650
     Eigenvalues ---    0.15369   0.16000   0.16000   0.16000   0.16000
     Eigenvalues ---    0.16000   0.16000   0.16000   0.16097   0.16273
     Eigenvalues ---    0.21809   0.26862   0.28671   0.28740   0.28751
     Eigenvalues ---    0.32820   0.34103   0.34128   0.34141   0.34154
     Eigenvalues ---    0.34169   0.34175   0.34183   0.34197   0.34335
     Eigenvalues ---    0.34758   0.38315   0.53079
 En-DIIS/RFO-DIIS/Sim-DIIS IScMMF=       -3 using points:     3    2
 RFO step:  Lambda=-6.17612963D-05.
 DidBck=T Rises=F RFO-DIIS coefs:    0.72674    0.27326
 Iteration  1 RMS(Cart)=  0.01598086 RMS(Int)=  0.00013212
 Iteration  2 RMS(Cart)=  0.00015678 RMS(Int)=  0.00000430
 Iteration  3 RMS(Cart)=  0.00000001 RMS(Int)=  0.00000430
 Variable       Old X    -DE/DX   Delta X   Delta X   Delta X     New X
                                 (Linear)    (Quad)   (Total)
    R1        2.90121  -0.00005   0.00023  -0.00060  -0.00037   2.90084
    R2        2.08794  -0.00041  -0.00058   0.00014  -0.00044   2.08750
    R3        2.09158  -0.00043  -0.00013  -0.00069  -0.00081   2.09076
    R4        2.08976  -0.00054  -0.00041  -0.00048  -0.00088   2.08888
    R5        2.89717   0.00010   0.00023  -0.00019   0.00004   2.89720
    R6        2.89818  -0.00006   0.00092  -0.00193  -0.00101   2.89718
    R7        2.90897   0.00099  -0.00162   0.00595   0.00433   2.91330
    R8        2.08941  -0.00054  -0.00038  -0.00055  -0.00093   2.08848
    R9        2.08451  -0.00014  -0.00010  -0.00005  -0.00015   2.08436
   R10        2.08919  -0.00040  -0.00023  -0.00044  -0.00066   2.08853
   R11        2.08811  -0.00031  -0.00042   0.00011  -0.00031   2.08780
   R12        2.08961  -0.00045  -0.00029  -0.00045  -0.00074   2.08887
   R13        2.09039  -0.00056  -0.00024  -0.00083  -0.00108   2.08932
   R14        2.65970  -0.00146   0.00349  -0.00964  -0.00616   2.65354
   R15        2.10106  -0.00023  -0.00100   0.00149   0.00050   2.10156
   R16        2.08663  -0.00041  -0.00081   0.00055  -0.00026   2.08637
   R17        1.82471   0.00006   0.00004  -0.00008  -0.00004   1.82467
    A1        1.93461   0.00007  -0.00141   0.00270   0.00129   1.93590
    A2        1.94244   0.00003   0.00051  -0.00059  -0.00008   1.94236
    A3        1.94631   0.00005   0.00061  -0.00074  -0.00013   1.94618
    A4        1.87912  -0.00008   0.00009  -0.00085  -0.00076   1.87836
    A5        1.86688  -0.00009   0.00027  -0.00122  -0.00096   1.86592
    A6        1.89140   0.00000  -0.00007   0.00064   0.00057   1.89198
    A7        1.91603  -0.00006   0.00039  -0.00168  -0.00129   1.91474
    A8        1.91123  -0.00001  -0.00042   0.00113   0.00071   1.91193
    A9        1.91628   0.00005   0.00090  -0.00130  -0.00041   1.91587
   A10        1.92246   0.00003  -0.00074   0.00153   0.00078   1.92324
   A11        1.91186  -0.00006  -0.00085   0.00070  -0.00015   1.91171
   A12        1.88575   0.00006   0.00073  -0.00035   0.00038   1.88614
   A13        1.93606   0.00031  -0.00121   0.00373   0.00252   1.93858
   A14        1.93180  -0.00014   0.00099  -0.00278  -0.00178   1.93001
   A15        1.93546   0.00004   0.00075  -0.00094  -0.00019   1.93527
   A16        1.89523  -0.00014  -0.00086   0.00059  -0.00027   1.89496
   A17        1.88403  -0.00016   0.00004  -0.00075  -0.00072   1.88332
   A18        1.87943   0.00007   0.00027   0.00012   0.00040   1.87983
   A19        1.93254   0.00026   0.00004   0.00136   0.00140   1.93394
   A20        1.93993   0.00005  -0.00012   0.00044   0.00032   1.94025
   A21        1.94487  -0.00003  -0.00024   0.00032   0.00008   1.94495
   A22        1.88030  -0.00016   0.00012  -0.00106  -0.00094   1.87936
   A23        1.88043  -0.00010   0.00028  -0.00092  -0.00065   1.87979
   A24        1.88317  -0.00004  -0.00005  -0.00026  -0.00031   1.88286
   A25        1.99665   0.00006  -0.00047   0.00192   0.00148   1.99813
   A26        1.90331   0.00001   0.00233  -0.00313  -0.00080   1.90252
   A27        1.90845  -0.00017  -0.00170   0.00002  -0.00166   1.90679
   A28        1.93364   0.00027   0.00275  -0.00015   0.00262   1.93625
   A29        1.84619  -0.00011  -0.00340   0.00353   0.00015   1.84633
   A30        1.87085  -0.00008   0.00022  -0.00228  -0.00207   1.86878
   A31        1.90053  -0.00008  -0.00321   0.00559   0.00238   1.90291
    D1       -1.08059  -0.00009  -0.00219  -0.01595  -0.01814  -1.09873
    D2        1.03207  -0.00010  -0.00313  -0.01441  -0.01754   1.01453
    D3        3.09983  -0.00000  -0.00195  -0.01494  -0.01689   3.08294
    D4        3.11176  -0.00005  -0.00170  -0.01629  -0.01798   3.09377
    D5       -1.05877  -0.00006  -0.00264  -0.01475  -0.01738  -1.07615
    D6        1.00900   0.00003  -0.00146  -0.01527  -0.01673   0.99227
    D7        0.99737  -0.00012  -0.00239  -0.01619  -0.01857   0.97880
    D8        3.11003  -0.00013  -0.00333  -0.01465  -0.01797   3.09206
    D9       -1.10539  -0.00003  -0.00215  -0.01517  -0.01732  -1.12271
   D10        0.99944  -0.00005   0.00667  -0.01874  -0.01207   0.98737
   D11       -1.10559   0.00001   0.00790  -0.02011  -0.01221  -1.11780
   D12        3.09280  -0.00003   0.00641  -0.01784  -0.01143   3.08137
   D13       -1.10644  -0.00002   0.00742  -0.02004  -0.01262  -1.11906
   D14        3.07171   0.00004   0.00865  -0.02140  -0.01276   3.05895
   D15        0.98692   0.00001   0.00716  -0.01914  -0.01198   0.97494
   D16        3.10487  -0.00007   0.00749  -0.02096  -0.01347   3.09140
   D17        0.99984  -0.00001   0.00871  -0.02233  -0.01361   0.98623
   D18       -1.08495  -0.00004   0.00723  -0.02006  -0.01283  -1.09778
   D19       -1.06553   0.00001   0.00263  -0.01607  -0.01344  -1.07897
   D20        3.12837   0.00001   0.00254  -0.01593  -0.01339   3.11497
   D21        1.02718   0.00003   0.00285  -0.01612  -0.01327   1.01392
   D22        1.04323  -0.00005   0.00238  -0.01647  -0.01409   1.02914
   D23       -1.04605  -0.00006   0.00229  -0.01633  -0.01405  -1.06010
   D24        3.13595  -0.00003   0.00260  -0.01652  -0.01392   3.12203
   D25        3.13103  -0.00008   0.00136  -0.01494  -0.01358   3.11744
   D26        1.04174  -0.00009   0.00127  -0.01480  -0.01353   1.02820
   D27       -1.05945  -0.00006   0.00158  -0.01499  -0.01341  -1.07285
   D28        1.04881   0.00026   0.01433   0.01277   0.02710   1.07591
   D29       -1.12725  -0.00015   0.00916   0.01402   0.02319  -1.10406
   D30        3.11539   0.00004   0.00855   0.01852   0.02707  -3.14073
   D31       -1.05647   0.00034   0.01383   0.01522   0.02905  -1.02743
   D32        3.05065  -0.00007   0.00865   0.01647   0.02513   3.07578
   D33        1.01011   0.00013   0.00804   0.02097   0.02901   1.03911
   D34        3.13224   0.00031   0.01478   0.01317   0.02795  -3.12299
   D35        0.95619  -0.00010   0.00961   0.01443   0.02404   0.98023
   D36       -1.08436   0.00010   0.00899   0.01893   0.02792  -1.05644
   D37       -1.22595  -0.00016  -0.00537   0.00676   0.00138  -1.22456
   D38        0.93395   0.00011  -0.00037   0.00392   0.00354   0.93749
   D39        2.95569   0.00009  -0.00067   0.00314   0.00248   2.95817
         Item               Value     Threshold  Converged?
 Maximum Force            0.001465     0.000015     NO 
 RMS     Force            0.000263     0.000010     NO 
 Maximum Displacement     0.053121     0.000060     NO 
 RMS     Displacement     0.015978     0.000040     NO 
 GradGradGradGradGradGradGradGradGradGradGradGradGradGradGradGradGradGrad

                    Distance matrix (angstroms):
                    1          2          3          4          5
     1  C    0.000000
     2  C    1.535059   0.000000
     3  C    2.508799   1.533135   0.000000
     4  C    2.506309   1.533120   2.514697   0.000000
     5  C    2.516768   1.541651   2.511516   2.488616   0.000000
     6  O    2.991841   2.478467   2.959920   3.773234   1.404192
     7  H    1.104656   2.188053   2.789013   2.746458   3.487900
     8  H    1.106384   2.194026   3.484135   2.781531   2.752249
     9  H    1.105385   2.196020   2.742734   3.483020   2.816046
    10  H    2.739204   2.188683   1.105177   2.808667   3.485705
    11  H    2.791920   2.180834   1.102995   3.478659   2.730778
    12  H    3.480015   2.186313   1.105201   2.739062   2.788608
    13  H    2.774451   2.185041   2.762381   1.104817   3.466824
    14  H    3.481179   2.190032   2.782452   1.105382   2.731391
    15  H    2.753971   2.193602   3.489111   1.105620   2.756855
    16  H    2.774304   2.174892   3.473392   2.680365   1.112098
    17  H    3.473453   2.172094   2.737721   2.717695   1.104059
    18  H    2.718635   2.737210   3.385180   4.086388   1.946331
                    6          7          8          9         10
     6  O    0.000000
     7  H    4.021742   0.000000
     8  H    3.314160   1.784472   0.000000
     9  H    2.736425   1.775519   1.793911   0.000000
    10  H    3.966736   2.561019   3.778367   3.037536   0.000000
    11  H    2.611095   3.204337   3.791737   2.570195   1.792919
    12  H    3.343587   3.785387   4.346965   3.783187   1.787168
    13  H    4.634761   2.554175   3.165349   3.779356   2.601336
    14  H    4.050837   3.776935   3.792206   4.350987   3.196171
    15  H    4.081734   3.076678   2.569108   3.791227   3.815505
    16  H    2.079585   3.767199   2.548060   3.213339   4.333197
    17  H    2.008548   4.329701   3.768599   3.816583   3.768567
    18  H    0.965572   3.772506   2.895824   2.253591   4.248261
                   11         12         13         14         15
    11  H    0.000000
    12  H    1.783135   0.000000
    13  H    3.796423   3.065161   0.000000
    14  H    3.772961   2.546346   1.784448   0.000000
    15  H    4.342959   3.772262   1.784917   1.787376   0.000000
    16  H    3.768884   3.780130   3.713598   3.013146   2.477091
    17  H    3.050856   2.554702   3.730313   2.492847   3.103962
    18  H    2.973555   3.998941   4.867866   4.577939   4.260194
                   16         17         18
    16  H    0.000000
    17  H    1.782320   0.000000
    18  H    2.295469   2.819018   0.000000
 Framework group  C1[X(C5H12O)]
 Deg. of freedom    48
                         Standard orientation:                         
 ---------------------------------------------------------------------
 Center     Atomic      Atomic             Coordinates (Angstroms)
 Number     Number       Type             X           Y           Z
 ---------------------------------------------------------------------
      1          6           0       -0.422884    1.516859   -0.254668
      2          6           0       -0.405181    0.004634    0.008525
      3          6           0       -0.476786   -0.258402    1.517228
      4          6           0       -1.594671   -0.653346   -0.700439
      5          6           0        0.889619   -0.608646   -0.560747
      6          8           0        2.070412   -0.114414    0.016503
      7          1           0       -1.370252    1.966561    0.092501
      8          1           0       -0.322977    1.737918   -1.334130
      9          1           0        0.393716    2.031552    0.283970
     10          1           0       -1.371184    0.215298    1.961162
     11          1           0        0.419052    0.139290    2.023108
     12          1           0       -0.527368   -1.342494    1.726162
     13          1           0       -2.550619   -0.262895   -0.307585
     14          1           0       -1.592521   -1.748547   -0.550775
     15          1           0       -1.574128   -0.459417   -1.788725
     16          1           0        0.899809   -0.473023   -1.664497
     17          1           0        0.893031   -1.695690   -0.367691
     18          1           0        2.199561    0.800163   -0.264919
 ---------------------------------------------------------------------
 Rotational constants (GHZ):           4.3632027           2.5861853           2.5768546
   108 basis functions,   198 primitive gaussians,   114 cartesian basis functions
    25 alpha electrons       25 beta electrons
       nuclear repulsion energy       267.2020360476 Hartrees.
 NAtoms=   18 NActive=   18 NUniq=   18 SFac= 1.00D+00 NAtFMM=   60 NAOKFM=F Big=F
 Nuclear repulsion after empirical dispersion term =      267.1904387231 Hartrees.
   1 Symmetry operations used in ECPInt.
 ECPInt:  NShTT=    1830 NPrTT=    7374 LenC2=    1828 LenP2D=    6157.
 LDataN:  DoStor=T MaxTD1= 4 Len=   56
 Initial guess from the checkpoint file:  "/scratch/user/peterchao1/peterchao1/6097799_1659647585000000525322498/Gau-212040.chk"
 B after Tr=    -0.000000   -0.000000   -0.000000
         Rot=    0.999044    0.043469   -0.002829   -0.003738 Ang=   5.01 deg.
 ExpMin= 1.22D-01 ExpMax= 2.27D+03 ExpMxC= 3.41D+02 IAcc=3 IRadAn=         5 AccDes= 0.00D+00
 Harris functional with IExCor= 4639 and IRadAn=       5 diagonalized for initial guess.
 HarFok:  IExCor= 4639 AccDes= 0.00D+00 IRadAn=         5 IDoV= 1 UseB2=F ITyADJ=14
 ICtDFT=  3500011 ScaDFX=  1.000000  1.000000  1.000000  1.000000
 FoFCou: FMM=F IPFlag=           0 FMFlag=      100000 FMFlg1=           0
         NFxFlg=           0 DoJE=T BraDBF=F KetDBF=T FulRan=T
         wScrn=  0.000000 ICntrl=       500 IOpCl=  0 I1Cent=   200000004 NGrid=           0
         NMat0=    1 NMatS0=      1 NMatT0=    0 NMatD0=    1 NMtDS0=    0 NMtDT0=    0
 Petite list used in FoFCou.
     Minimum is close to point  2 DX=  4.20D-05 DF= -1.14D-13 DXR=  4.20D-05 DFR=  2.57D-09 which will be used.
 SCF Done:  E(RwB97XD) =  -272.673495352     a.u. after    5 cycles
            Convg  =    0.7301D-09                    30 Fock formations.
              S**2 =  0.0000                  -V/T =  2.0104
   1 Symmetry operations used in ECPInt.
 ECPInt:  NShTT=    1830 NPrTT=    7374 LenC2=    1828 LenP2D=    6157.
 LDataN:  DoStor=T MaxTD1= 5 Len=  102
 Calling FoFJK, ICntrl=      2127 FMM=F ISym2X=0 I1Cent= 0 IOpClX= 0 NMat=1 NMatS=1 NMatT=0.

 GradGradGradGradGradGradGradGradGradGradGradGradGradGradGradGradGradGrad
 Using GEDIIS/GDIIS optimizer.
 FormGI is forming the generalized inverse of G from B-inverse, IUseBI=4.
 Internal  Forces:  Max     0.000406110 RMS     0.000117586
 Step number   4 out of a maximum of   97
 All quantities printed in internal units (Hartrees-Bohrs-Radians)
 Mixed Optimization -- En-DIIS/RFO-DIIS
 Swapping is turned off.
 Trust test= 6.37D-01 RLast= 1.12D-01 DXMaxT set to 5.05D-01
 ITU=  1  1  1  0
     Eigenvalues ---    0.00233   0.00264   0.00274   0.00447   0.01370
     Eigenvalues ---    0.04441   0.04762   0.04905   0.05310   0.05391
     Eigenvalues ---    0.05448   0.05461   0.05465   0.05478   0.05567
     Eigenvalues ---    0.06033   0.11273   0.13979   0.14312   0.14642
     Eigenvalues ---    0.15718   0.16000   0.16000   0.16000   0.16000
     Eigenvalues ---    0.16000   0.16000   0.16016   0.16105   0.16695
     Eigenvalues ---    0.22279   0.27330   0.28661   0.28727   0.28796
     Eigenvalues ---    0.33373   0.34103   0.34138   0.34143   0.34161
     Eigenvalues ---    0.34170   0.34183   0.34191   0.34219   0.34349
     Eigenvalues ---    0.34600   0.36155   0.53048
 En-DIIS/RFO-DIIS/Sim-DIIS IScMMF=       -3 using points:     4    3    2
 RFO step:  Lambda=-1.34656918D-05.
 DidBck=T Rises=F RFO-DIIS coefs:    0.72298    0.36052   -0.08350
 Iteration  1 RMS(Cart)=  0.00639228 RMS(Int)=  0.00002739
 Iteration  2 RMS(Cart)=  0.00003233 RMS(Int)=  0.00000136
 Iteration  3 RMS(Cart)=  0.00000000 RMS(Int)=  0.00000136
 Variable       Old X    -DE/DX   Delta X   Delta X   Delta X     New X
                                 (Linear)    (Quad)   (Total)
    R1        2.90084   0.00013   0.00003   0.00028   0.00031   2.90116
    R2        2.08750  -0.00023   0.00030  -0.00093  -0.00063   2.08686
    R3        2.09076  -0.00018   0.00026  -0.00080  -0.00054   2.09023
    R4        2.08888  -0.00013   0.00037  -0.00083  -0.00046   2.08841
    R5        2.89720   0.00004  -0.00008   0.00025   0.00017   2.89737
    R6        2.89718   0.00007  -0.00000   0.00022   0.00022   2.89740
    R7        2.91330  -0.00021  -0.00071   0.00043  -0.00028   2.91302
    R8        2.08848  -0.00024   0.00037  -0.00106  -0.00068   2.08780
    R9        2.08436  -0.00014   0.00007  -0.00042  -0.00035   2.08401
   R10        2.08853  -0.00014   0.00025  -0.00070  -0.00044   2.08808
   R11        2.08780  -0.00020   0.00021  -0.00076  -0.00055   2.08725
   R12        2.08887  -0.00020   0.00029  -0.00087  -0.00058   2.08829
   R13        2.08932  -0.00016   0.00037  -0.00089  -0.00052   2.08880
   R14        2.65354   0.00041   0.00064   0.00004   0.00068   2.65422
   R15        2.10156  -0.00030   0.00017  -0.00096  -0.00079   2.10077
   R16        2.08637  -0.00024   0.00032  -0.00099  -0.00067   2.08569
   R17        1.82467   0.00017   0.00000   0.00027   0.00027   1.82494
    A1        1.93590  -0.00010   0.00007  -0.00056  -0.00048   1.93542
    A2        1.94236   0.00009  -0.00013   0.00051   0.00038   1.94274
    A3        1.94618   0.00010  -0.00015   0.00066   0.00051   1.94669
    A4        1.87836   0.00000   0.00018  -0.00028  -0.00009   1.87826
    A5        1.86592   0.00001   0.00018  -0.00013   0.00005   1.86598
    A6        1.89198  -0.00010  -0.00014  -0.00025  -0.00039   1.89158
    A7        1.91474   0.00010   0.00024   0.00004   0.00028   1.91502
    A8        1.91193  -0.00004  -0.00007   0.00024   0.00018   1.91211
    A9        1.91587  -0.00005  -0.00016  -0.00010  -0.00026   1.91561
   A10        1.92324  -0.00001   0.00001   0.00005   0.00006   1.92331
   A11        1.91171  -0.00012   0.00030  -0.00129  -0.00099   1.91073
   A12        1.88614   0.00011  -0.00033   0.00105   0.00072   1.88686
   A13        1.93858  -0.00012  -0.00033  -0.00025  -0.00058   1.93800
   A14        1.93001   0.00008   0.00019   0.00022   0.00041   1.93043
   A15        1.93527   0.00012  -0.00018   0.00092   0.00074   1.93602
   A16        1.89496  -0.00003   0.00034  -0.00097  -0.00063   1.89433
   A17        1.88332  -0.00001   0.00019  -0.00037  -0.00018   1.88314
   A18        1.87983  -0.00005  -0.00019   0.00042   0.00022   1.88005
   A19        1.93394   0.00004  -0.00040   0.00073   0.00033   1.93427
   A20        1.94025   0.00002  -0.00005   0.00014   0.00009   1.94034
   A21        1.94495  -0.00001   0.00005  -0.00017  -0.00012   1.94483
   A22        1.87936  -0.00003   0.00022  -0.00037  -0.00015   1.87921
   A23        1.87979  -0.00001   0.00010  -0.00015  -0.00006   1.87973
   A24        1.88286  -0.00001   0.00010  -0.00022  -0.00012   1.88274
   A25        1.99813  -0.00029  -0.00027  -0.00062  -0.00089   1.99724
   A26        1.90252  -0.00002  -0.00049   0.00080   0.00031   1.90283
   A27        1.90679  -0.00008   0.00098  -0.00215  -0.00117   1.90561
   A28        1.93625   0.00025  -0.00157   0.00348   0.00191   1.93817
   A29        1.84633   0.00017   0.00100  -0.00090   0.00009   1.84642
   A30        1.86878  -0.00001   0.00051  -0.00081  -0.00030   1.86848
   A31        1.90291  -0.00022   0.00032  -0.00156  -0.00123   1.90167
    D1       -1.09873  -0.00004   0.00569  -0.00538   0.00031  -1.09842
    D2        1.01453  -0.00001   0.00581  -0.00513   0.00068   1.01521
    D3        3.08294   0.00007   0.00528  -0.00376   0.00152   3.08446
    D4        3.09377  -0.00003   0.00550  -0.00499   0.00051   3.09428
    D5       -1.07615  -0.00000   0.00562  -0.00475   0.00087  -1.07528
    D6        0.99227   0.00008   0.00508  -0.00337   0.00171   0.99397
    D7        0.97880  -0.00003   0.00587  -0.00548   0.00039   0.97919
    D8        3.09206  -0.00000   0.00599  -0.00524   0.00076   3.09282
    D9       -1.12271   0.00008   0.00546  -0.00386   0.00159  -1.12112
   D10        0.98737   0.00003   0.00130   0.00255   0.00386   0.99122
   D11       -1.11780   0.00009   0.00097   0.00379   0.00476  -1.11304
   D12        3.08137   0.00002   0.00121   0.00253   0.00374   3.08511
   D13       -1.11906   0.00002   0.00123   0.00219   0.00342  -1.11564
   D14        3.05895   0.00007   0.00089   0.00343   0.00432   3.06328
   D15        0.97494   0.00000   0.00113   0.00217   0.00330   0.97824
   D16        3.09140  -0.00004   0.00144   0.00165   0.00310   3.09449
   D17        0.98623   0.00002   0.00111   0.00289   0.00400   0.99023
   D18       -1.09778  -0.00005   0.00135   0.00163   0.00298  -1.09480
   D19       -1.07897  -0.00002   0.00292  -0.00068   0.00224  -1.07673
   D20        3.11497  -0.00003   0.00293  -0.00079   0.00215   3.11712
   D21        1.01392  -0.00002   0.00280  -0.00049   0.00231   1.01623
   D22        1.02914   0.00007   0.00318  -0.00044   0.00274   1.03188
   D23       -1.06010   0.00007   0.00319  -0.00055   0.00265  -1.05746
   D24        3.12203   0.00007   0.00306  -0.00025   0.00281   3.12484
   D25        3.11744  -0.00001   0.00335  -0.00133   0.00202   3.11946
   D26        1.02820  -0.00001   0.00336  -0.00144   0.00193   1.03013
   D27       -1.07285  -0.00001   0.00323  -0.00114   0.00209  -1.07076
   D28        1.07591  -0.00001  -0.01189  -0.00052  -0.01241   1.06350
   D29       -1.10406  -0.00011  -0.00922  -0.00531  -0.01453  -1.11860
   D30       -3.14073  -0.00004  -0.01011  -0.00358  -0.01369   3.12877
   D31       -1.02743  -0.00003  -0.01227   0.00029  -0.01198  -1.03941
   D32        3.07578  -0.00013  -0.00961  -0.00450  -0.01410   3.06168
   D33        1.03911  -0.00006  -0.01049  -0.00277  -0.01326   1.02586
   D34       -3.12299  -0.00002  -0.01226   0.00035  -0.01192  -3.13490
   D35        0.98023  -0.00012  -0.00959  -0.00444  -0.01404   0.96619
   D36       -1.05644  -0.00005  -0.01048  -0.00272  -0.01319  -1.06964
   D37       -1.22456   0.00002   0.00126   0.00021   0.00147  -1.22310
   D38        0.93749  -0.00003  -0.00087   0.00361   0.00274   0.94024
   D39        2.95817   0.00017  -0.00048   0.00388   0.00339   2.96156
         Item               Value     Threshold  Converged?
 Maximum Force            0.000406     0.000015     NO 
 RMS     Force            0.000118     0.000010     NO 
 Maximum Displacement     0.024918     0.000060     NO 
 RMS     Displacement     0.006393     0.000040     NO 
 GradGradGradGradGradGradGradGradGradGradGradGradGradGradGradGradGradGrad

                    Distance matrix (angstroms):
                    1          2          3          4          5
     1  C    0.000000
     2  C    1.535225   0.000000
     3  C    2.509256   1.533224   0.000000
     4  C    2.506694   1.533236   2.514922   0.000000
     5  C    2.516557   1.541506   2.510595   2.489244   0.000000
     6  O    2.984079   2.477930   2.964399   3.773719   1.404550
     7  H    1.104321   2.187595   2.788810   2.746623   3.487233
     8  H    1.106101   2.194231   3.484433   2.781730   2.753017
     9  H    1.105140   2.196344   2.743780   3.483368   2.815377
    10  H    2.740792   2.188069   1.104815   2.806611   3.484469
    11  H    2.790389   2.181073   1.102810   3.479034   2.731785
    12  H    3.480619   2.186751   1.104966   2.741336   2.786622
    13  H    2.773946   2.185165   2.764046   1.104527   3.467156
    14  H    3.481307   2.189968   2.781399   1.105075   2.733086
    15  H    2.755215   2.193412   3.489035   1.105347   2.756451
    16  H    2.781218   2.174684   3.472061   2.674611   1.111679
    17  H    3.472433   2.170835   2.729108   2.723716   1.103702
    18  H    2.708371   2.735072   3.391789   4.081602   1.945940
                    6          7          8          9         10
     6  O    0.000000
     7  H    4.014640   0.000000
     8  H    3.304368   1.783911   0.000000
     9  H    2.727107   1.775087   1.793230   0.000000
    10  H    3.970078   2.562219   3.779167   3.040871   0.000000
    11  H    2.618287   3.200973   3.790778   2.569127   1.792068
    12  H    3.349742   3.786197   4.347541   3.783381   1.786568
    13  H    4.634775   2.553612   3.163664   3.779247   2.600780
    14  H    4.055800   3.776220   3.792819   4.351171   3.191514
    15  H    4.078359   3.078616   2.570479   3.791910   3.814259
    16  H    2.080912   3.772261   2.557620   3.222424   4.331895
    17  H    2.008656   4.328231   3.771808   3.812032   3.760365
    18  H    0.965717   3.762988   2.879807   2.245463   4.253781
                   11         12         13         14         15
    11  H    0.000000
    12  H    1.782938   0.000000
    13  H    3.796866   3.070180   0.000000
    14  H    3.773452   2.547526   1.783869   0.000000
    15  H    4.343012   3.773275   1.784423   1.786832   0.000000
    16  H    3.772094   3.774337   3.708728   3.004845   2.470438
    17  H    3.041981   2.544450   3.734873   2.501167   3.111942
    18  H    2.986086   4.006175   4.862513   4.577594   4.250023
                   16         17         18
    16  H    0.000000
    17  H    1.781496   0.000000
    18  H    2.297228   2.818819   0.000000
 Framework group  C1[X(C5H12O)]
 Deg. of freedom    48
                         Standard orientation:                         
 ---------------------------------------------------------------------
 Center     Atomic      Atomic             Coordinates (Angstroms)
 Number     Number       Type             X           Y           Z
 ---------------------------------------------------------------------
      1          6           0       -0.413632    1.524700   -0.205322
      2          6           0       -0.405216    0.004467    0.008547
      3          6           0       -0.482904   -0.307574    1.507671
      4          6           0       -1.595920   -0.623635   -0.725294
      5          6           0        0.888648   -0.596696   -0.575198
      6          8           0        2.069814   -0.115299    0.012906
      7          1           0       -1.359273    1.967682    0.153918
      8          1           0       -0.309749    1.780542   -1.276402
      9          1           0        0.404086    2.017261    0.351504
     10          1           0       -1.377962    0.153187    1.962848
     11          1           0        0.411018    0.072257    2.029994
     12          1           0       -0.536354   -1.397444    1.681666
     13          1           0       -2.550963   -0.239467   -0.324935
     14          1           0       -1.601509   -1.722616   -0.609534
[...]
 .0391891,0.1124905,-0.0339329,0.4046652,0.0057667,0.1032273,-0.0283056
 ,0.7964918,-0.3107208,0.0952697,-0.1796846,0.0808425,-0.5403126,-0.046
 9667,-0.1393069,-0.0442125,-1.0382041,0.020645,0.0211411,0.0280628,0.0
 575195,0.0055338,-0.0917703,0.0780786,-0.091191,-0.0396985,0.0037802,-
 0.0405339,0.0033584,-0.1030497,-0.1262859,0.031173,0.0097677,0.0261333
 ,0.0683686,0.0085938,0.0081112,-0.0554158,0.0212072,0.0503949,0.062856
 6,-0.1089407,0.0682949,-0.0986392,0.0369727,0.0551742,0.0665733,0.0195
 71,-0.0524674,-0.0665371,0.0544764,-0.1152806,-0.0340354,0.0505754,0.0
 157896,-0.0615353,-0.0021478,0.0448696,0.0478545,-0.0381829,0.0926581,
 -0.0605892,-0.1543005,-0.0472133,-0.000254,0.0151087,0.0355713,0.00822
 39,-0.012243,0.0006916,0.0745439,0.0472399,0.0514014,0.0542628,0.04366
 25,-0.0108387,-0.1084597,0.0163777,-0.0582303,-0.0675817,-0.1504218,0.
 0177747,-0.0393828,-0.0025832,0.0694927,0.0158627,0.0194261,0.013807,0
 .0427709,0.041793,-0.0789618,0.0103182,-0.0506029,-0.1232294,0.0772396
 ,-0.011914,0.0249399,0.0341559,0.0184563,-0.0909159,0.0151908,-0.02602
 78,-0.2102006,0.0463296,-0.0136588,0.0526417,-0.0543709,-0.1572133,0.0
 236195,-0.0046903,-0.0243173,0.0504172,-0.0013673,0.0025478,-0.0071907
 ,0.0012445,0.1330617,-0.0326909,0.0168893,-0.0331904,0.3190435,0.09128
 37,0.0544578,0.07699,0.3475052\Polar=57.8236387,0.2620715,56.3902773,1
 .1113606,-0.2312069,57.3934052\Quadrupole=1.5713698,0.5778676,-2.14923
 75,0.5205942,2.3248997,0.3407531\PG=C01 [X(C5H12O1)]\NImag=0\\0.480624
 16,-0.00416413,0.58883832,0.00040455,-0.00041945,0.58377176,-0.1909286
 5,-0.00104521,0.00278208,0.52014170,-0.00175360,-0.08107973,-0.0005157
 5,-0.00141733,0.52416791,-0.00109584,-0.00010752,-0.08052417,0.0045144
 9,-0.01037040,0.51377057,-0.01822358,-0.03509284,0.00631265,-0.0927583
 9,-0.03484848,0.00771983,0.57847242,-0.00655667,-0.00406661,0.00075485
 ,-0.03474886,-0.17811131,0.02089487,-0.03306431,0.49891559,0.00089491,
 0.00044229,-0.00018332,0.00715480,0.01811491,-0.08526618,0.00717704,0.
 01881337,0.59079119,-0.01898760,0.01169864,-0.03338109,-0.09317152,0.0
 1320224,-0.03396942,0.00353490,-0.00252908,0.00951025,0.57501625,0.002
 42237,-0.00064398,0.00109557,0.01251411,-0.09185467,0.03009086,0.00943
 180,-0.01533266,0.03238367,0.01194825,0.57549091,-0.00517731,0.0007818
 9,-0.00256518,-0.03537418,0.03190108,-0.17063335,-0.00112553,0.0073558
 1,-0.00957402,-0.03227900,0.03014826,0.50864203,-0.01909547,0.02361024
 ,0.02860110,-0.09877216,0.02407786,0.02325052,0.00372745,-0.00557446,-
 0.00687657,0.00406046,-0.00832264,-0.00924682,0.63994964,0.00447329,-0
 .00083328,-0.00154530,0.02550852,-0.12706531,-0.04127478,0.00993749,-0
 .03065988,-0.02463566,-0.00498236,0.00778656,0.00622227,0.03968359,0.5
 5507058,0.00893907,-0.00198192,-0.00115410,0.02708779,-0.04326769,-0.1
 1096987,-0.00326737,-0.00359056,0.00587270,0.00554272,-0.01431372,-0.0
 3117850,0.00992429,-0.03737041,0.49147031,-0.00100469,0.00052208,-0.00
 029085,0.00491909,-0.00391981,0.00404962,0.00065533,0.00066901,-0.0007
 5420,0.00027844,0.00100080,0.00141883,-0.11431245,0.01120477,-0.067803
 85,0.59325630,0.00091885,-0.00060611,0.00105997,-0.00625710,0.00942163
 ,-0.01503358,-0.00018417,-0.00088315,0.00073034,0.00124579,-0.00214149
 ,-0.00262701,-0.00259720,-0.08430544,0.04688721,0.07576642,0.09794370,
 -0.00328750,0.00079481,0.00165891,-0.01321238,0.00951392,-0.04255210,0
 .00043938,0.00254508,0.00014089,0.00480247,-0.00748306,-0.00412962,-0.
 02351809,0.05405139,-0.23699343,0.10572755,-0.07272035,0.36169376,-0.0
 7784601,0.05238744,0.06825694,-0.01142796,0.01988906,0.02498365,0.0010
 7972,0.00138632,0.00038807,0.00137981,0.00031475,0.00144453,-0.0074754
 3,-0.00151846,-0.00233929,0.00094331,-0.00032192,0.00014149,0.08637983
 ,0.05340294,-0.13735761,-0.11516557,-0.00047317,-0.00083947,0.00092273
 ,-0.00061767,0.00067793,0.00084062,-0.00009588,-0.00000613,-0.00015111
 ,0.00057370,0.00042673,0.00080909,-0.00041192,0.00039499,-0.00003313,-
 0.05802092,0.14236732,0.06965363,-0.11493379,-0.19573323,-0.00111939,0
 .00054919,-0.00023211,-0.00018112,-0.00011577,-0.00008668,-0.00095257,
 0.00079853,0.00097703,-0.00069595,0.00079232,-0.00018926,0.00077768,-0
 .00046922,0.00034035,-0.07454272,0.12447058,0.20609310,-0.07844449,-0.
 08149643,0.01163092,-0.00943128,-0.03106314,0.00474891,-0.00701518,0.0
 0137756,-0.00037286,0.00113613,-0.00110779,0.00094518,0.00135672,-0.00
 208194,-0.00030805,0.00003407,0.00040464,0.00009296,0.00358312,0.01058
 988,-0.00281408,0.08529594,-0.08283502,-0.27592552,0.03398949,0.000733
 06,-0.00038690,0.00009591,-0.00080163,0.00117581,-0.00032069,0.0005052
 3,0.00046249,-0.00001412,0.00069337,0.00059047,-0.00083810,0.00005161,
 0.00032951,0.00059447,-0.00591388,-0.01386961,0.00422267,0.09100387,0.
 29408656,0.01188743,0.03427076,-0.05507175,0.00039415,0.00008916,-0.00
 180304,0.00032059,-0.00020940,0.00024086,-0.00041847,-0.00100165,0.000
 21288,0.00047822,0.00126028,0.00023600,-0.00005511,-0.00051219,-0.0002
 2105,-0.00940991,-0.02182385,0.00507080,-0.01374954,-0.03744092,0.0519
 5344,-0.08293408,0.03333090,-0.08291235,-0.00908885,0.01133540,-0.0288
 2362,0.00131481,0.00107877,-0.00093667,-0.00702001,-0.00038513,0.00174
 094,0.00006069,0.00039251,-0.00269107,0.00173561,-0.00112331,0.0012903
 2,0.00390289,-0.00512089,0.00964932,0.00388451,-0.00282472,0.01064693,
 0.08944020,0.03451522,-0.08378642,0.08223591,-0.00053348,-0.00123546,-
 0.00111122,-0.00058761,0.00041943,-0.00093762,-0.00003236,0.00021830,-
 0.00037749,0.00074594,-0.00041743,0.00174761,-0.00087631,0.00035721,-0
 .00066627,-0.00806435,0.00782378,-0.01620810,0.01180604,-0.00738694,0.
 02497778,-0.03781873,0.08365212,-0.08353980,0.08102984,-0.24299372,0.0
 0031031,-0.00024657,0.00122621,0.00038414,0.00004506,0.00049015,-0.000
 89753,-0.00034632,0.00074099,-0.00049050,-0.00045781,-0.00125772,0.001
 33018,-0.00089801,-0.00014932,-0.00882794,0.00987471,-0.01770156,-0.00
 002733,-0.00057217,-0.00114140,0.09087750,-0.08804925,0.26013299,0.000
 73957,-0.00077953,-0.00083086,0.00285839,-0.00719841,-0.00802227,-0.08
 520127,0.06348367,0.06648955,-0.00011196,0.00044018,-0.00018433,-0.000
 74258,-0.00183347,0.00035257,0.00014475,-0.00016703,0.00007421,-0.0001
 2583,-0.00024651,0.00032160,0.00013078,0.00021771,-0.00004714,-0.00002
 114,0.00005582,-0.00010645,0.08609525,0.00133733,0.00101077,-0.0005517
 1,0.01210391,-0.01915611,-0.02150895,0.06224802,-0.15510306,-0.1139517
 0,0.00030085,0.00102679,-0.00145325,-0.00284869,-0.00547975,0.00388292
 ,-0.00019130,0.00109268,-0.00039543,-0.00089256,0.00012798,0.00041118,
 0.00017097,0.00032444,0.00031097,-0.00008474,-0.00003797,0.00003278,-0
 .06609547,0.16894495,-0.00013990,0.00020491,0.00029234,-0.00271448,0.0
 0532177,0.00376266,0.06597445,-0.11529759,-0.17049568,-0.00041653,0.00
 064924,0.00109848,-0.00002037,0.00190532,-0.00074693,0.00015357,-0.001
 23946,0.00037850,-0.00022902,-0.00016401,0.00018379,-0.00022789,0.0001
 0410,0.00008220,0.00007755,-0.00014669,-0.00016901,-0.07271229,0.12413
 990,0.17825928,0.00087068,-0.00013455,0.00124673,0.00222698,-0.0020827
 0,0.01061880,-0.07232133,0.02329096,-0.07093581,-0.00047302,-0.0016795
 1,0.00019017,0.00015447,0.00055771,-0.00087582,-0.00041352,-0.00035673
 ,0.00018587,-0.00001183,-0.00001491,0.00003448,0.00009245,0.00018765,-
 0.00013700,-0.00043864,-0.00030223,-0.00014844,0.00356377,-0.00514471,
 0.01176945,0.07215266,0.00131135,0.00082629,0.00009916,0.00992209,-0.0
 0793086,0.02819509,0.02223147,-0.06974736,0.07011936,-0.00275198,-0.00
 598751,-0.00012840,0.00130608,0.00002634,0.00277188,-0.00070204,0.0014
 6299,-0.00129602,-0.00004392,-0.00002253,-0.00015127,0.00016534,0.0000
 6881,-0.00029179,-0.00086831,0.00019630,-0.00018949,-0.00766675,0.0071
 0908,-0.01857808,-0.02244912,0.07485829,-0.00032896,-0.00042508,0.0001
 7217,-0.00188967,0.00161111,-0.00407098,-0.07097593,0.07309890,-0.2758
 9725,0.00112743,0.00149274,0.00052478,0.00029108,-0.00022161,-0.001080
 44,0.00016434,-0.00189033,0.00002652,-0.00007435,0.00006353,-0.0000771
 8,0.00008723,-0.00008156,0.00025736,0.00054513,0.00017810,0.00025508,-
 0.00638163,0.00682699,-0.01522226,0.07671047,-0.07995714,0.29307548,0.
 00054614,-0.00320394,0.00053778,-0.01049720,0.00104765,-0.00066948,-0.
 31326718,-0.00806220,-0.01151623,0.00059038,0.00093574,-0.00049674,0.0
 0011069,0.00101901,0.00044443,0.00023059,-0.00041960,-0.00032057,0.000
 29140,0.00013468,-0.00007807,-0.00077708,-0.00023248,0.00003374,0.0002
 8952,0.00016049,0.00002850,-0.00837236,-0.00107246,-0.00159437,-0.0061
 3053,-0.00036676,0.00127772,0.33542576,-0.00115561,-0.00604399,0.00103
 974,-0.03060091,-0.00027336,-0.00166150,-0.00574966,-0.04862055,-0.000
 73323,-0.00092818,0.00122744,-0.00079416,-0.00170194,0.00138943,0.0003
 5815,0.00030823,-0.00001329,-0.00003365,0.00001650,0.00003747,0.000240
 20,-0.00202820,-0.00000792,0.00016615,0.00017312,-0.00007303,-0.000160
 42,0.01998544,0.00115914,0.00295609,0.00912122,-0.00038830,-0.00085175
 ,0.01068213,0.05187344,0.00030138,0.00138592,-0.00007054,0.00628114,-0
 .00017833,-0.00141938,-0.01215447,-0.00071210,-0.04965214,0.00113941,-
 0.00007941,0.00024874,-0.00114974,-0.00036182,0.00017330,0.00053864,-0
 .00033261,-0.00027669,-0.00035168,0.00006095,0.00014914,0.00043845,0.0
 0012910,0.00054100,0.00026787,-0.00004850,0.00019311,0.02162868,0.0022
 4918,0.00201713,-0.02893099,-0.00152634,0.00192053,0.01204692,-0.00073
 500,0.04621629,0.00095388,-0.00100074,-0.00093784,0.00238795,-0.007883
 87,-0.00896454,0.00007983,-0.00029753,0.00041524,-0.07326116,0.0501646
 4,0.06083336,-0.00138883,0.00092464,-0.00111331,0.00072589,-0.00019071
 ,-0.00116810,-0.00024999,0.00038209,-0.00005403,-0.00004814,-0.0000391
 8,-0.00000201,0.00011327,-0.00000198,0.00025096,0.00018872,-0.00002212
 ,0.00022360,-0.00012820,-0.00018959,-0.00003031,-0.00011772,0.00014967
 ,0.00011221,0.07367971,-0.00045712,0.00026172,0.00010504,-0.00371272,0
 .00611919,0.00919256,-0.00037819,0.00122431,0.00083291,0.04990208,-0.1
 4856038,-0.12079118,0.00062861,-0.00110468,0.00107861,0.00000884,0.000
 74620,0.00083449,-0.00018297,0.00013997,-0.00023851,0.00010044,-0.0000
 9865,-0.00010363,-0.00022086,0.00004319,0.00007724,0.00028468,-0.00006
 982,-0.00004994,-0.00005595,0.00014316,-0.00014045,-0.00007270,-0.0000
 4238,-0.00006893,-0.05510511,0.15510915,0.00131434,-0.00050213,0.00089
 672,0.00971421,-0.01875167,-0.02178873,0.00033618,-0.00138994,0.001041
 95,0.05992490,-0.11941466,-0.18902957,-0.00341358,0.00432396,-0.002274
 47,0.00019587,-0.00098608,-0.00284511,-0.00095714,0.00030584,0.0002763
 1,-0.00002404,0.00009068,-0.00001283,0.00013002,0.00026864,0.00036397,
 -0.00009441,0.00103148,0.00004939,-0.00021536,-0.00001014,0.00036211,0
 .00000621,0.00006936,-0.00005600,-0.06304055,0.12818032,0.20544769,0.0
 0026172,0.00132880,-0.00332082,-0.01087547,-0.00067676,0.00098936,0.00
 054463,-0.00061221,0.00071714,-0.31364394,0.00416046,0.00015860,-0.000
 19482,0.00025993,0.00124136,0.00059471,-0.00005804,-0.00025798,0.00035
 257,-0.00012901,0.00010111,0.00027118,-0.00002202,0.00014396,-0.000883
 89,0.00003756,-0.00007014,-0.00003867,-0.00005336,-0.00005383,0.000329
 78,-0.00001650,-0.00005006,0.00048508,0.00054997,-0.00018758,-0.006733
 70,-0.00091054,-0.00092437,0.33617181,0.00046584,-0.00063035,0.0019428
 0,0.01023056,-0.00141821,-0.00101861,0.00132673,0.00043970,-0.00036760
 ,0.00339724,-0.04945863,-0.00016730,-0.00056209,0.00020100,-0.00057462
 ,0.00005050,-0.00021470,0.00007486,-0.00034121,0.00004539,0.00012739,0
 .00028329,0.00025031,0.00005344,0.00068285,0.00053622,0.00018001,0.000
 05955,-0.00004935,0.00001268,-0.00021007,0.00007423,-0.00011320,-0.000
 32538,-0.00026627,0.00048258,0.01969663,0.00047432,0.00165008,-0.00520
 664,0.04661580,-0.00102327,0.00189340,-0.00535169,-0.02902354,-0.00037
 057,0.00109082,-0.00063494,-0.00106168,0.00103053,0.00169704,0.0000242
 2,-0.04848636,-0.00206521,0.00022218,0.00053518,0.00066929,-0.00003781
 ,0.00057829,-0.00000153,0.00024162,0.00007248,0.00016852,-0.00012975,-
 0.00008041,-0.00188797,0.00010442,-0.00004225,0.00013987,0.00004208,-0
 .00005738,0.00015374,-0.00028720,0.00005002,0.00049483,0.00042592,-0.0
 0003823,0.02299104,0.00172777,0.00103434,0.00186956,-0.00177420,0.0510
 9440,0.00088087,0.00122753,-0.00010576,0.00274435,0.01120351,-0.001354
 37,-0.00059751,0.00051131,-0.00188946,-0.07921871,-0.08187656,0.017917
 99,0.00003684,-0.00036354,0.00030921,-0.00014105,0.00028362,0.00004563
 ,-0.00003863,0.00005331,0.00008259,-0.00020492,-0.00021111,-0.00034160
 ,0.00011862,-0.00010339,0.00019047,-0.00006633,-0.00022391,-0.00003308
 ,0.00064514,0.00048542,-0.00027317,0.00035483,0.00018582,-0.00014078,0
 .00341186,0.01005581,-0.00314900,-0.00717614,-0.02934005,0.00576768,0.
 07902348,-0.00060768,0.00034083,-0.00059230,-0.00362154,-0.00941904,0.
 00091257,0.00172707,0.00033344,0.00306322,-0.08117256,-0.27272253,0.04
 817730,0.00007386,-0.00008100,-0.00138763,0.00023614,0.00056644,0.0001
 2593,-0.00001715,-0.00014986,0.00005932,0.00067725,0.00029339,0.000211
 20,0.00011217,0.00031190,-0.00007022,-0.00002608,0.00037552,-0.0001701
 3,-0.00034449,-0.00078539,0.00014891,0.00000061,0.00019273,-0.00020160
 ,-0.00669599,-0.01470143,0.00510726,0.00150737,0.00320967,-0.00093290,
 0.08825151,0.29170090,0.00124231,0.00014957,0.00091926,0.01106361,0.02
 625258,-0.00431130,-0.00243864,0.00060415,-0.00540488,0.01706270,0.047
 15749,-0.05880686,0.00051522,0.00239722,0.00030851,-0.00002295,-0.0007
 9795,0.00063922,-0.00011580,-0.00013297,-0.00003859,-0.00063245,-0.000
 32298,0.00006066,0.00020991,-0.00027909,0.00002869,-0.00018460,0.00012
 935,0.00012416,0.00033427,0.00183185,-0.00025667,-0.00001867,-0.000305
 35,-0.00001119,-0.00946711,-0.02088680,0.00599737,-0.00009913,-0.00032
 219,-0.00094192,-0.01720268,-0.05461430,0.06243030,0.00119313,0.001249
 81,-0.00051581,0.00294586,0.01191419,0.00021274,-0.00040542,0.00061042
 ,0.00114261,0.00013023,-0.00014532,-0.00051875,-0.07910505,-0.06873518
 ,0.01426811,0.00656734,0.01317729,-0.00745389,0.00014866,-0.00018975,-
 0.00007094,-0.00011589,-0.00018448,0.00015138,-0.00009669,0.00000784,-
 0.00003803,0.00056510,0.00041202,-0.00012111,-0.00008008,-0.00004986,-
 0.00009868,0.00036899,0.00030394,0.00008268,-0.00014790,0.00003789,-0.
 00013838,-0.00003475,-0.00012567,0.00015978,0.00021225,-0.00018642,-0.
 00016957,0.07208383,-0.00123224,0.00057542,0.00090526,-0.00873281,-0.0
 2109550,0.00406342,0.00273801,-0.00136098,-0.00409616,-0.00011849,0.00
 019991,0.00121245,-0.06618885,-0.26175611,0.04031354,0.00363875,-0.003
 18160,0.01148412,0.00004489,0.00042329,-0.00010178,0.00115826,0.000345
 86,-0.00031604,-0.00008887,0.00008285,-0.00003783,-0.00030799,-0.00145
 892,0.00018198,-0.00000431,0.00042379,0.00019162,-0.00002594,0.0002938
 3,-0.00003661,0.00020051,0.00046530,-0.00014246,0.00004321,-0.00005207
 ,-0.00008958,0.00004753,0.00069901,-0.00090612,0.06909466,0.28409255,-
 0.00102911,0.00018836,0.00050112,-0.00588941,-0.02006753,0.00417181,0.
 00210207,-0.00256272,-0.00362746,-0.00016753,-0.00146519,0.00111887,0.
 01124160,0.03953410,-0.05685188,0.00319581,0.03734636,-0.02446617,-0.0
 0015391,0.00010320,0.00005252,0.00024458,0.00032636,0.00002316,0.00028
 709,-0.00011394,0.00001052,-0.00037049,-0.00149617,0.00038534,0.000117
 83,-0.00016020,0.00001944,0.00001591,0.00021578,-0.00004928,0.00002872
 ,0.00017789,0.00025365,-0.00005283,0.00008688,0.00002473,0.00025639,0.
 00016804,-0.00069314,-0.01273969,-0.05247899,0.07638144,0.00063543,0.0
 0194577,0.00217816,-0.01243418,-0.00144511,0.00047864,0.00071416,-0.00
 103595,-0.00066422,0.00036942,-0.00020419,-0.00064827,-0.31336490,-0.0
 1153617,0.00855099,-0.01003856,0.00041324,-0.00772766,-0.00073862,0.00
 022054,0.00007648,0.00029111,-0.00001670,-0.00008301,0.00011174,-0.000
 08486,-0.00008137,0.00034039,-0.00008399,0.00002623,-0.00006550,-0.000
 04061,0.00004034,0.00045723,0.00070668,0.00004649,0.00038682,0.0000652
 8,0.00008378,0.00053538,-0.00009140,0.00061080,-0.00001969,0.00010189,
 -0.00001110,-0.00573710,0.00001624,0.00098275,0.33706238,0.00037724,-0
 .00220948,-0.00296220,0.02189002,-0.00004651,-0.00243285,0.00151449,0.
 00100062,0.00024112,0.00004673,0.00023454,0.00102710,-0.01695978,-0.05
 457535,0.00087777,0.01073401,0.00238192,0.00202725,0.00127234,0.000232
 17,-0.00003296,0.00024392,0.00023862,-0.00014946,-0.00011819,0.0000555
 3,0.00018452,-0.00023036,0.00025611,0.00008795,-0.00001140,-0.00006021
 ,0.00007159,-0.00043950,-0.00045772,-0.00029832,-0.00009053,-0.0001209
 8,0.00018517,-0.00031414,0.00031691,-0.00009210,-0.00013565,-0.0000207
 2,-0.00011414,-0.02878918,0.00080185,0.00064530,0.00938235,0.05177232,
 0.00100430,-0.00331192,-0.00374793,0.02169673,0.00110480,-0.00032877,-
 0.00002743,0.00096890,0.00055630,0.00146733,-0.00004654,0.00086734,0.0
 1934922,0.00178055,-0.04760808,-0.04262173,-0.00058003,-0.01086141,0.0
 0156877,-0.00025808,0.00013564,-0.00038433,0.00000050,-0.00000764,-0.0
 0001430,-0.00013152,0.00018043,-0.00009126,0.00025383,-0.00002673,-0.0
 0006215,-0.00017651,-0.00002541,-0.00039852,-0.00034962,0.00007517,-0.
 00026901,0.00006302,0.00020295,-0.00050907,-0.00022498,-0.00072503,-0.
 00002491,-0.00002283,-0.00001551,0.00548374,-0.00093824,0.00149451,-0.
 00260868,-0.00093182,0.06551729,0.00075899,-0.00038382,0.00034447,0.00
 116134,-0.00038070,0.00133299,-0.00033338,0.00007326,0.00005642,-0.000
 60809,0.00038802,0.00040132,-0.01500526,-0.00291034,0.00173822,-0.4841
 7516,-0.08053404,-0.05585368,-0.00014701,-0.00003652,-0.00018802,-0.00
 003901,-0.00031130,0.00018741,-0.00048855,0.00107640,0.00085547,0.0000
 5341,0.00014021,0.00003802,0.00002674,-0.00027631,-0.00014098,0.000011
 45,-0.00001823,0.00003135,0.00014770,0.00001253,0.00025132,0.00003454,
 0.00000932,-0.00008568,0.00003474,-0.00001596,-0.00006531,0.00150749,-
 0.00028258,0.00193022,0.00149449,0.00162763,-0.00355870,0.49556557,-0.
 00046235,0.00132974,-0.00147552,-0.00175914,0.00020372,0.00015138,0.00
 016948,-0.00030126,-0.00053913,0.00036383,0.00006103,-0.00032216,0.013
 36240,0.00078710,0.00459787,-0.09808977,-0.02335151,0.00058160,0.00000
 605,-0.00045181,0.00058002,-0.00020399,-0.00049071,0.00050920,0.001548
 02,-0.00075959,-0.00039608,0.00002454,-0.00007248,0.00008196,-0.000366
 86,-0.00026712,-0.00000239,0.00024065,0.00001334,0.00027185,-0.0000008
 4,-0.00002820,-0.00001570,0.00011192,-0.00007398,0.00009417,-0.0000511
 7,-0.00014389,0.00015968,0.00159778,0.00050153,-0.00044753,0.00168701,
 0.00020037,0.00280049,0.08182243,0.02284371,-0.00002023,0.00054006,-0.
 00081665,-0.00177626,-0.00069000,-0.00012208,0.00003908,-0.00014120,0.
 00002305,0.00020789,0.00030997,-0.00002768,-0.04617442,-0.00662218,-0.
 00829133,-0.00667267,0.01210074,-0.04296153,0.00021986,0.00003585,0.00
 070744,0.00018384,0.00016700,-0.00034025,0.00154342,-0.00144277,-0.000
 16715,0.00001927,0.00004655,0.00008471,-0.00005626,-0.00026476,-0.0000
 3329,0.00020660,0.00015327,0.00003906,0.00019170,0.00000957,0.00008025
 ,0.00030473,-0.00004801,0.00021247,-0.00005514,0.00001816,-0.00002812,
 0.00036379,0.00079140,0.00125081,-0.00125035,0.00166608,-0.00568310,0.
 05272515,-0.00662973,0.05607339\\-0.00000008,-0.00000017,-0.00000080,-
 0.00000005,-0.00000010,-0.00000006,-0.00000012,0.00000018,0.00000102,-
 0.00000075,-0.00000070,0.00000013,0.00000047,0.00000049,-0.00000005,0.
 00000132,0.00000109,-0.00000017,-0.00000057,-0.00000060,-0.00000071,-0
 .00000007,-0.00000026,-0.00000148,0.00000039,0.00000022,-0.00000082,-0
 .00000046,-0.00000031,0.00000109,0.00000049,0.00000054,0.00000097,-0.0
 0000009,0.00000015,0.00000159,-0.00000125,-0.00000110,0.00000025,-0.00
 000080,-0.00000059,0.00000069,-0.00000081,-0.00000078,-0.00000056,0.00
 000052,0.00000034,-0.00000079,0.00000053,0.00000057,0.00000040,0.00000
 133,0.00000103,-0.00000071\\\@


 I SUPPOSE A BABY LLAMA HAS A MMAMA AND A PPOPA.
     -- RICHARD AMOUR
 File lengths (MBytes):  RWF=     30 Int=      0 D2E=      0 Chk=      2 Scr=      1
 Normal termination of Gaussian 16 at Thu Aug  4 16:18:30 2022.
real 324.76
user 1238.63
sys 10.64
