You are running Q-Chem version: 5.3.2

#
# job setting
#
local host:  tnxt-0601.cluster
current dir: /scratch/user/peterli3819/peterli3819/12613596_1663277315000000664167281
input file:  qchem_test.inp
output file: 
nprocs     : 0
nthreads   : 8
#
# qchem installation setting
#
QC:          /sw/restricted/qchem/sw/5.3.2
QCAUX:       /sw/restricted/qchem/sw/5.3.2/qcaux
QCPROG:      /sw/restricted/qchem/sw/5.3.2/exe/qcprog.exe_s
QCPROG_S:    /sw/restricted/qchem/sw/5.3.2/exe/qcprog.exe_s
PARALLEL:    -DSERIAL
QCMPI:       seq
#
# qchem directory setting
#
qcrun:       qchem11870
QCSCRATCH:   /scratch/user/peterli3819/peterli3819/12613596_1663277315000000664167281
QCLOCALSCR:  
QCTMPDIR:    /scratch/user/peterli3819/peterli3819/12613596_1663277315000000664167281
QCFILEPREF:  /scratch/user/peterli3819/peterli3819/12613596_1663277315000000664167281/qchem11870
QCSAVEDIR:   
workdirs:    /scratch/user/peterli3819/peterli3819/12613596_1663277315000000664167281/qchem11870
workdir0:    /scratch/user/peterli3819/peterli3819/12613596_1663277315000000664167281/qchem11870
partmpdirs =  
#
# parallel setting
#
QCRSH:           ssh
QCMPI:           seq
QCMPIRUN:        
QCMACHINEFILE:   /scratch/user/peterli3819/peterli3819/12613596_1663277315000000664167281/qchem11870/hostfile

#
# env setting
#
exported envs:   QC QCAUX QCSCRATCH QCRUNNAME QCFILEPREF QCPROG QCPROG_S GUIFILE

Running Job 1 of 1 qchem_test.inp
qchem qchem_test.inp_11870.0 /scratch/user/peterli3819/peterli3819/12613596_1663277315000000664167281/qchem11870/ 0
/sw/restricted/qchem/sw/5.3.2/exe/qcprog.exe_s qchem_test.inp_11870.0 /scratch/user/peterli3819/peterli3819/12613596_1663277315000000664167281/qchem11870/
                  Welcome to Q-Chem
     A Quantum Leap Into The Future Of Chemistry


 Q-Chem 5.3, Q-Chem, Inc., Pleasanton, CA (2020)

 License issued to: MRG Daniel Tabor and Mike Hall, Texas A&M University

 Yihan Shao,  Zhengting Gan,  E. Epifanovsky,  A. T. B. Gilbert,  M. Wormit,  
 J. Kussmann,  A. W. Lange,  A. Behn,  Jia Deng,  Xintian Feng,  D. Ghosh,  
 M. Goldey,  P. R. Horn,  L. D. Jacobson,  I. Kaliman,  T. Kus,  A. Landau,  
 Jie Liu,  E. I. Proynov,  R. M. Richard,  R. P. Steele,  E. J. Sundstrom,  
 H. L. Woodcock III,  P. M. Zimmerman,  D. Zuev,  B. Alam,  B. Albrecht,  
 A. Aldossary,  E. Alguire,  S. A. Baeppler,  D. Barton,  Z. Benda,  
 Y. A. Bernard,  E. J. Berquist,  K. B. Bravaya,  H. Burton,  K. Carter-Fenk,  
 D. Casanova,  Chun-Min Chang,  Yunqing Chen,  A. Chien,  K. D. Closser,  
 M. P. Coons,  S. Coriani,  S. Dasgupta,  A. L. Dempwolff,  M. Diedenhofen,  
 Hainam Do,  R. G. Edgar,  Po-Tung Fang,  S. Faraji,  S. Fatehi,  
 Qingguo Feng,  J. Fosso-Tande,  J. Gayvert,  Qinghui Ge,  A. Ghysels,  
 G. Gidofalvi,  J. Gomes,  J. Gonthier,  S. Gulania,  A. Gunina,  D. Hait,  
 M. W. D. Hanson-Heine,  S. Hammes-Schiffer,  P. H. P. Harbach,  
 A. W. Hauser,  M. F. Herbst,  J. E. Herr,  E. G. Hohenstein,  Z. C. Holden,  
 S. Houck,  Kerwin Hui,  B. C. Huynh,  M. Ivanov,  T.-C. Jagau,  Hyunjun Ji,  
 B. Kaduk,  K. Khistyaev,  Jaehoon Kim,  P. Klunzinger,  K. Koh,  
 D. Kosenkov,  L. Koulias,  T. Kowalczyk,  C. M. Krauter,  A. Kunitsa,  
 Ka Un Lao,  A. Laurent,  K. V. Lawler,  Joonho Lee,  D. Lefrancois,  
 S. Lehtola,  D. S. Levine,  Yi-Pei Li,  You-Sheng Lin,  Fenglai Liu,  
 Kuan-Yu Liu,  E. Livshits,  M. Loipersberger,  A. Luenser,  A. Manjanath,  
 P. Manohar,  E. Mansoor,  S. F. Manzer,  Shan-Ping Mao,  Yuezhi Mao,  
 N. Mardirossian,  A. V. Marenich,  T. Markovich,  L. A. Martinez-Martinez,  
 S. A. Maurer,  N. J. Mayhall,  S. C. McKenzie,  J.-M. Mewes,  P. Morgante,  
 A. F. Morrison,  J. W. Mullinax,  K. Nanda,  T. S. Nguyen-Beck,  
 R. Olivares-Amaya,  K. J. Oosterbaan,  J. A. Parkhill,  S. K. Paul,  
 F. Pavosevic,  Zheng Pei,  T. M. Perrine,  F. Plasser,  P. Pokhilko,  
 S. Prager,  A. Prociuk,  E. Ramos,  B. Rana,  D. R. Rehn,  F. Rob,  
 E. Rossomme,  M. Scheurer,  M. Schneider,  N. Sergueev,  S. M. Sharada,  
 S. Sharma,  W. Skomorowski,  D. W. Small,  T. Stauch,  C. J. Stein,  
 T. Stein,  Yu-Chuan Su,  S. P. Veccham,  Zhen Tao,  A. J. W. Thom,  
 A. Tkatchenko,  T. Tsuchimochi,  N. M. Tubman,  L. Vogt,  M. L. Vidal,  
 O. Vydrov,  M. A. Watson,  J. Wenzel,  M. de Wergifosse,  T. A. Wesolowski,  
 A. White,  J. Witte,  A. Yamada,  Jun Yang,  K. Yao,  S. Yeganeh,  
 S. R. Yost,  Zhi-Qiang You,  A. Zech,  Igor Ying Zhang,  Xing Zhang,  
 Yan Zhao,  Ying Zhu,  B. R. Brooks,  G. K. L. Chan,  C. J. Cramer,  
 M. S. Gordon,  W. J. Hehre,  A. Klamt,  M. W. Schmidt,  C. D. Sherrill,  
 D. G. Truhlar,  A. Aspuru-Guzik,  R. Baer,  A. T. Bell,  N. A. Besley,  
 Jeng-Da Chai,  A. E. DePrince, III,  R. A. DiStasio Jr.,  A. Dreuw,  
 B. D. Dunietz,  T. R. Furlani,  Chao-Ping Hsu,  Yousung Jung,  Jing Kong,  
 D. S. Lambrecht,  WanZhen Liang,  C. Ochsenfeld,  V. A. Rassolov,  
 L. V. Slipchenko,  J. E. Subotnik,  T. Van Voorhis,  J. M. Herbert,  
 A. I. Krylov,  P. M. W. Gill,  M. Head-Gordon

 Contributors to earlier versions of Q-Chem not listed above: 
 R. D. Adamson,  B. Austin,  J. Baker,  G. J. O. Beran,  K. Brandhorst,  
 S. T. Brown,  E. F. C. Byrd,  A. K. Chakraborty,  C.-L. Cheng,  
 Siu Hung Chien,  D. M. Chipman,  D. L. Crittenden,  H. Dachsel,  
 R. J. Doerksen,  A. D. Dutoi,  L. Fusti-Molnar,  W. A. Goddard III,  
 A. Golubeva-Zadorozhnaya,  S. R. Gwaltney,  G. Hawkins,  A. Heyden,  
 S. Hirata,  G. Kedziora,  F. J. Keil,  C. Kelley,  Jihan Kim,  R. A. King,  
 R. Z. Khaliullin,  P. P. Korambath,  W. Kurlancheek,  A. M. Lee,  M. S. Lee,  
 S. V. Levchenko,  Ching Yeh Lin,  D. Liotard,  R. C. Lochan,  I. Lotan,  
 P. E. Maslen,  N. Nair,  D. P. O'Neill,  D. Neuhauser,  E. Neuscamman,  
 C. M. Oana,  R. Olson,  B. Peters,  R. Peverati,  P. A. Pieniazek,  
 Y. M. Rhee,  J. Ritchie,  M. A. Rohrdanz,  E. Rosta,  N. J. Russ,  
 H. F. Schaefer III,  N. E. Schultz,  N. Shenvi,  A. C. Simmonett,  A. Sodt,  
 D. Stuck,  K. S. Thanthiriwatte,  V. Vanovschi,  Tao Wang,  A. Warshel,  
 C. F. Williams,  Q. Wu,  X. Xu,  W. Zhang

 Please cite Q-Chem as follows:
 Y. Shao et al., Mol. Phys. 113, 184-215 (2015)
 DOI: 10.1080/00268976.2014.952696

 Q-Chem 5.3.2 for Intel X86 EM64T Linux

 Parts of Q-Chem use Armadillo 9.800.1 (Horizon Scraper).
 http://arma.sourceforge.net/

 Q-Chem begins on Thu Sep 15 16:28:54 2022  

Host: 
0

     Scratch files written to /scratch/user/peterli3819/peterli3819/12613596_1663277315000000664167281/qchem11870//
 Dec820 |scratch|qcdevops|jenkins|workspace|build_RNUM 7711   
Processing $rem in /sw/restricted/qchem/sw/5.3.2/config/preferences:
Processing $rem in /home/peterli3819/.qchemrc:

 Q-Chem warning in module libgen/rem_setup.C, line 2945:

 Neither GIA nor STOLL is specified by user. Use STOLL as the default


Checking the input file for inconsistencies... 	...done.

--------------------------------------------------------------
User input:
--------------------------------------------------------------
$molecule
0 1
--
0 1
N       -1.612252    0.302367   -1.186207
C       -2.221771   -0.552157   -0.149186
C       -3.738783   -0.639954   -0.398628
O       -4.301523    0.639264   -0.522540
C       -1.565435   -1.937253   -0.190603
O       -0.186532   -1.908770    0.029365
C       -1.976720    0.088044    1.233451
O       -2.292829    1.458830    1.260698
H       -2.282549    1.050235   -1.389713
H       -1.506738   -0.224843   -2.055276
H       -4.217154   -1.224470    0.415091
H       -3.939224   -1.169819   -1.347788
H       -3.960651    1.190077    0.207438
H       -1.803645   -2.411654   -1.168665
H       -2.013501   -2.576307    0.589980
H        0.274949   -1.249844   -0.565208
H       -0.931367   -0.084576    1.529297
H       -2.618026   -0.418031    1.976392
H       -1.492419    1.952585    0.996218
--
0 1
N        1.612345   -0.302405   -1.186076
C        2.221782    0.552152   -0.149034
C        3.738812    0.639945   -0.398361
O        4.301565   -0.639276   -0.522194
C        1.565447    1.937246   -0.190543
O        0.186527    1.908770    0.029321
C        1.976626   -0.088008    1.233604
O        2.292735   -1.458793    1.260916
H        2.282657   -1.050279   -1.389504
H        1.506901    0.224778   -2.055170
H        4.217120    1.224485    0.415378
H        3.939326    1.169783   -1.347521
H        3.960638   -1.190069    0.207774
H        1.803731    2.411617   -1.168601
H        2.013454    2.576324    0.590055
H       -0.274910    1.249827   -0.565267
H        0.931251    0.084618    1.529366
H        2.617875    0.418091    1.976579
H        1.492346   -1.952558    0.996392
$end

$rem
JOBTYPE           eda
EDA2              2
METHOD            wB97X-D
BASIS             def2-SV(P)
SCF_CONVERGENCE   8
THRESH            14
SYMMETRY          false
DISP_FREE_X       wB97X-D
DISP_FREE_C       none
EDA_BSSE          true
$end
--------------------------------------------------------------
 ----------------------------------------------------------------
             Standard Nuclear Orientation (Angstroms)
    I     Atom           X                Y                Z
 ----------------------------------------------------------------
    1      N      -1.6122971665    -0.3023853435     1.1861409709
    2      C      -2.2217767462     0.5521545832     0.1491099260
    3      C      -3.7387982373     0.6399476945     0.3984955663
    4      O      -4.3015429057    -0.6392722304     0.5223664861
    5      C      -1.5654423710     1.9372499688     0.1905731948
    6      O      -0.1865310031     1.9087703994    -0.0293427873
    7      C      -1.9766731260    -0.0880251453    -1.2335275961
    8      O      -2.2927810409    -1.4588107371    -1.2608077021
    9      H      -2.2826018813    -1.0502564962     1.3896099704
   10      H      -1.5068162459     0.2248112951     2.0552220918
   11      H      -4.2171383024     1.2244761917    -0.4152326420
   12      H      -3.9392753635     1.1697980908     1.3476560890
   13      H      -3.9606431169    -1.1900739925    -0.2076070166
   14      H      -1.8036895947     2.4116359194     1.1686334277
   15      H      -2.0134786986     2.5763159575    -0.5900170220
   16      H       0.2749274013     1.2498352718     0.5652376344
   17      H      -0.9313088784     0.0845994406    -1.5293311742
   18      H      -2.6179508807     0.4180612578    -1.9764852091
   19      H      -1.4923810853    -1.9525697766    -0.9963048466
   20      N       1.6122998149     0.3023867703     1.1861419404
   21      C       2.2217762953    -0.5521542603     0.1491099834
   22      C       3.7387968125    -0.6399510420     0.3984933433
   23      O       4.3015450562     0.6392680730     0.5223674239
   24      C       1.5654397656    -1.9372489212     0.1905727145
   25      O       0.1865281295    -1.9087695878    -0.0293433038
   26      C       1.9766728708     0.0880269941    -1.2335274969
   27      O       2.2927828612     1.4588124249    -1.2608063909
   28      H       2.2826040493     1.0502576650     1.3896069412
   29      H       1.5068227718    -0.2248095987     2.0552238210
   30      H       4.2171357887    -1.2244785112    -0.4152364497
   31      H       3.9392747234    -1.1698036317     1.3476528223
   32      H       3.9606458062     1.1900722870    -0.2076050746
   33      H       1.8036865752    -2.4116349540     1.1686324833
   34      H       2.0134764830    -2.5763149012    -0.5900180700
   35      H      -0.2749315125    -1.2498357478     0.5652372755
   36      H       0.9313091289    -0.0845944937    -1.5293319192
   37      H       2.6179501521    -0.4180605577    -1.9764858852
   38      H       1.4923837814     1.9525733291    -0.9963052458
 ----------------------------------------------------------------
 Molecular Point Group                 C1    NOp =  1
 Largest Abelian Subgroup              C1    NOp =  1
 Nuclear Repulsion Energy =        1372.93353335 hartrees
 There are       66 alpha and       66 beta electrons
 Requested basis set is def2-SV(P)
 There are 140 shells and 268 basis functions

 Total QAlloc Memory Limit  56000 MB
 Mega-Array Size       188 MB
 MEM_STATIC part       192 MB
 A cutoff of  1.0D-14 yielded   8678 shell pairs
 There are     30934 function pairs (     34460 Cartesian)
 Smallest overlap matrix eigenvalue = 1.22E-03

 Scale SEOQF with 1.000000e-01/1.000000e-01/1.000000e-01

 Standard Electronic Orientation quadrupole field applied
 Nucleus-field energy     =     0.0000000341 hartrees

 -----------------------------------------------------------------------
  General SCF calculation program by
  Eric Jon Sundstrom, Paul Horn, Yuezhi Mao, Dmitri Zuev, Alec White,
  David Stuck, Shaama M.S., Shane Yost, Joonho Lee, David Small,
  Daniel Levine, Susi Lehtola, Hugh Burton, Evgeny Epifanovsky,
  Bang C. Huynh
 -----------------------------------------------------------------------
================================================================
                 ALMO-EDA with the EDA2 driver                  
================================================================
 The second-generation ALMO-EDA (for DFT):                      
 P. R. Horn, Y. Mao and M. Head-Gordon, PCCP, 18, 23067 (2016)  
 Decomposition of the frozen energy:                            
 P. R. Horn, Y. Mao and M. Head-Gordon, JCP, 144, 114107 (2016) 
Using eda2 option set 2
Option set summary: Frozen orbital wavefunction, initial wavefunction decomposition, and traditional AO-based POL.
--------------------------------
Printing EDA Options
--------------------------------
eda_child_super_basis      0
fragmo_guess_mode          0
child_mp                   0
child_mp_orders            0
cls_elec                   1
cls_disp                   0
scfmi_mode                 1
scfmi_occs                 0
scfmi_virts                0
frz_relax                  0
frz_relax_method           0
dc_pen_start               0
dc_pen_conv                0
dc_pen_increment           0
dc_pen_steps               0
dc_pen_thresh_factor       0
dc_pen_pre_newton_thresh   0
frz_ortho_decomp           1
frz_ortho_decomp_conv      6
plot_mo_ortho_frz          0
frgm_method                2
scfmi_freeze_ss            0
separate_rehyb             0
plot_diff_den              0
eda_nocv                   0
eda_vct_relax              1
disp_free_x                -110
disp_free_c                0
eda_bsse                   1
eda_pct_a                  0
eda_covp                   0
--------------------------------
Attempting to make child job directory: /scratch/user/peterli3819/peterli3819/12613596_1663277315000000664167281/qchem11870//Frg1/
Attempting to make child job directory: /scratch/user/peterli3819/peterli3819/12613596_1663277315000000664167281/qchem11870//Frg2/
Creating input file /scratch/user/peterli3819/peterli3819/12613596_1663277315000000664167281/qchem11870/Frg1.input
using default PutDataFrgm: nothing
calling putenv with: QCSCRATCH=/scratch/user/peterli3819/peterli3819/12613596_1663277315000000664167281/qchem11870/ 
Spawning Job For Fragment 0
Done Job For Fragment 0
calling putenv with: QCSCRATCH=/scratch/user/peterli3819/peterli3819/12613596_1663277315000000664167281 
calling putenv with: QCTHREADS=8 
Creating input file /scratch/user/peterli3819/peterli3819/12613596_1663277315000000664167281/qchem11870/Frg2.input
using default PutDataFrgm: nothing
calling putenv with: QCSCRATCH=/scratch/user/peterli3819/peterli3819/12613596_1663277315000000664167281/qchem11870/ 
Spawning Job For Fragment 1
Done Job For Fragment 1
calling putenv with: QCSCRATCH=/scratch/user/peterli3819/peterli3819/12613596_1663277315000000664167281 
calling putenv with: QCTHREADS=8 
Doing General SCFMI
 Exchange:     0.2220 Hartree-Fock + 1.0000 wB97X-D + LR-HF
 Correlation:  1.0000 wB97X-D
 Using SG-2 standard quadrature grid
 Dispersion:   Grimme D
performing fock build before subrot guess so that all methods have access
Printing subrot_rss_gen Method Specification:
Occupied Subspace Method is 0
Virtual Subspace Method is 0
Energy of the unrelaxed supersystem initial determinant -877.880137032145
write pseudocanon occs and virts to disk
write pseudocanon orbital energies to disk
Tolerance of ortho_decomp_scf: 1.00e-06
GDM subspace size: 20
Beginning the Orthogonal Decomposition of the Initial Supersystem Wavefunction
    1    -877.6623755673      7.65e-02     ortho_decomp Preconditoned Steepest Descent
    2    -877.6856352404      1.33e-03     ortho_decomp BFGS Step
    3    -877.6856704206      9.12e-05     ortho_decomp BFGS Step
    4    -877.6856705176      3.58e-06     ortho_decomp BFGS Step
    5    -877.6856705177      5.74e-08     ortho_decomp 00000 Convergence criterion met
 Exchange:     0.2220 Hartree-Fock + 1.0000 wB97X-D + LR-HF
 Correlation:  1.0000 wB97X-D
 Using SG-2 standard quadrature grid
 Dispersion:   Grimme D
 Long-range K will be added via erf
 Coulomb attenuation parameter = 0.2 bohr**(-1)
 Exchange:     0.2220 Hartree-Fock + 1.0000 wB97X-D + LR-HF
 Correlation:  1.0000 wB97X-D
 Using SG-2 standard quadrature grid
 Dispersion:   Grimme D
 Long-range K will be added via erf
 Coulomb attenuation parameter = 0.2 bohr**(-1)
 Exchange:     0.2220 Hartree-Fock + 1.0000 wB97X-D + LR-HF
 Correlation:  1.0000 wB97X-D
 Using SG-2 standard quadrature grid
 Dispersion:   Grimme D
 Long-range K will be added via erf
 Coulomb attenuation parameter = 0.2 bohr**(-1)
Doing General SCFMI
 Exchange:     0.2220 Hartree-Fock + 1.0000 wB97X-D + LR-HF
 Correlation:  1.0000 wB97X-D
 Using SG-2 standard quadrature grid
 Dispersion:   Grimme D
performing fock build at end of subrot_r(subrot) constructor so that all methods have access
<S^2> of initial wavefunction before polarization iterations 0.0000000000
Beginning iterations for the determination of the polarized wavefunction
Energy prior to optimization (guess energy) = -877.880137032146
Begin Timing: Total SCF Calculation
begin iterations for algorithm: DIIS         
the SCF tolerance is set to 1.00e-08
    1    -877.8801370321      5.67e-04     00000 
    2    -877.8906057934      1.52e-04     00000 
    3    -877.8914976681      8.01e-05     00000 
    4    -877.8916595258      3.48e-05     00000 
    5    -877.8916929453      1.41e-05     00000 
    6    -877.8916988832      5.07e-06     00000 
    7    -877.8916993459      1.45e-06     00000 
    8    -877.8916993891      5.21e-07     00000 
    9    -877.8916993939      2.15e-07     00000 
   10    -877.8916993949      5.52e-08     00000 
   11    -877.8916993950      1.79e-08     00000 
   12    -877.8916993950      7.74e-09     00000 Convergence criterion met
write pseudocanon occs and virts to disk
write pseudocanon orbital energies to disk
Timing for Total SCF: 53.00s (wall), 395.79s (cpu)
<S^2> of polarized wavefunction after polarization iterations 0.0000000000
relaxing scfmi constraint to allow all rotations in the entire AO span
Doing General SCFMI
 Exchange:     0.2220 Hartree-Fock + 1.0000 wB97X-D + LR-HF
 Correlation:  1.0000 wB97X-D
 Using SG-2 standard quadrature grid
 Dispersion:   Grimme D
performing fock build at end of subrot_r(subrot) constructor so that all methods have access
<S^2> of polarized wavefunction before ct-allowed iterations 0.0000000000
Beginning iterations for the determination of the CT-Allowed wavefunction
Energy prior to optimization (guess energy) = -877.891699394964
Begin Timing: Total SCF Calculation
begin iterations for algorithm: DIIS         
the SCF tolerance is set to 1.00e-08
    1    -877.8916993950      7.78e-04     00000 
    2    -877.9300695625      1.56e-04     00000 
    3    -877.9321111643      6.25e-05     00000 
    4    -877.9322595879      3.02e-05     00000 
    5    -877.9322959570      6.60e-06     00000 
    6    -877.9322979223      1.63e-06     00000 
    7    -877.9322980538      6.85e-07     00000 
    8    -877.9322980710      1.75e-07     00000 
    9    -877.9322980721      5.95e-08     00000 
   10    -877.9322980723      1.16e-08     00000 
   11    -877.9322980723      3.84e-09     00000 Convergence criterion met
write pseudocanon occs and virts to disk
write pseudocanon orbital energies to disk
Timing for Total SCF: 47.00s (wall), 367.50s (cpu)
<S^2> of ct_allowed wavefunction after ct-allowed iterations 0.0000000000
Attempting to make child job directory: /scratch/user/peterli3819/peterli3819/12613596_1663277315000000664167281/qchem11870//FrgBSSE1/
Attempting to make child job directory: /scratch/user/peterli3819/peterli3819/12613596_1663277315000000664167281/qchem11870//FrgBSSE2/
Creating input file /scratch/user/peterli3819/peterli3819/12613596_1663277315000000664167281/qchem11870/FrgBSSE1.input
calling putenv with: QCSCRATCH=/scratch/user/peterli3819/peterli3819/12613596_1663277315000000664167281/qchem11870/ 
Spawning Job For Fragment 0
Done Job For Fragment 0
calling putenv with: QCSCRATCH=/scratch/user/peterli3819/peterli3819/12613596_1663277315000000664167281 
calling putenv with: QCTHREADS=8 
Creating input file /scratch/user/peterli3819/peterli3819/12613596_1663277315000000664167281/qchem11870/FrgBSSE2.input
calling putenv with: QCSCRATCH=/scratch/user/peterli3819/peterli3819/12613596_1663277315000000664167281/qchem11870/ 
Spawning Job For Fragment 1
Done Job For Fragment 1
calling putenv with: QCSCRATCH=/scratch/user/peterli3819/peterli3819/12613596_1663277315000000664167281 
calling putenv with: QCTHREADS=8 
====================================================================
   Evaluating the BSSE with fragment SCF in the supersystem basis
   Fragment contributions (kJ/mol) 
   Frgm 1: 19.2891
   Frgm 2: 19.2892
   BSSE (kJ/mol) = 38.5783
====================================================================

================================
        Results of EDA2         
================================
Basic EDA Quantities
--------------------
Fragment Energies (Ha):
1 -438.9374305615
2 -438.9374305389
--------------------
  E_prp (kJ/mol) = -0.0000
  E_frz (kJ/mol) = -13.8521
  E_pol (kJ/mol) = -30.3573
  E_vct (kJ/mol) = -68.0148 (CP-corrected)
  E_int (kJ/mol) = -112.2243 (CP-corrected)
--------------------


Decomposition of frozen interaction energy
--------------------
  --------------------
  Orthogonal Frozen Decomposition:
  --------------------
     E_elec   (ELEC)   (kJ/mol) = -368.2573
     E_pauli  (PAULI)  (kJ/mol) = 383.1065
     E_disp   (DISP)   (kJ/mol) = -28.7013
  --------------------
  Classical Frozen Decomposition:
  --------------------
     E_cls_elec  (CLS ELEC)  (kJ/mol) = -205.8917
     E_mod_pauli (MOD PAULI) (kJ/mol) = 220.7408 (FRZ - CLS ELEC - DISP)
     E_disp      (DISP)      (kJ/mol) = -28.7013
  --------------------
--------------------

Simplified EDA Summary (kJ/mol)
--------------------
 PREPARATION      -0.0000
 FROZEN           -13.8521 (ELEC + PAULI + DISP)
[ELEC + PAULI = 14.8491, DISP = -28.7013]
 POLARIZATION    -30.3573
 CHARGE TRANSFER -68.0148     (counterpoise-corrected)
 TOTAL           -112.2243     (PRP + FRZ + POL + CT)
--------------------
 
 --------------------------------------------------------------
 
                    Orbital Energies (a.u.)
 --------------------------------------------------------------
 
 Alpha MOs
 -- Occupied --
-19.2558 -19.2558 -19.2480 -19.2480 -19.2469 -19.2469 -14.4522 -14.4522
-10.3518 -10.3518 -10.3431 -10.3431 -10.3411 -10.3411 -10.3400 -10.3400
 -1.1329  -1.1282  -1.1143  -1.1127  -1.1054  -1.1054  -1.0051  -1.0021
 -0.8685  -0.8596  -0.7764  -0.7742  -0.7653  -0.7634  -0.6810  -0.6792
 -0.6396  -0.6385  -0.6286  -0.6231  -0.6078  -0.5969  -0.5820  -0.5695
 -0.5535  -0.5468  -0.5411  -0.5342  -0.5273  -0.5265  -0.5183  -0.5119
 -0.4957  -0.4941  -0.4858  -0.4806  -0.4598  -0.4460  -0.4335  -0.4268
 -0.4090  -0.3967  -0.3787  -0.3785  -0.3703  -0.3693  -0.3555  -0.3527
 -0.3438  -0.3365
 -- Virtual --
  0.1092   0.1270   0.1440   0.1518   0.1533   0.1605   0.1732   0.1792
  0.1876   0.1985   0.1993   0.2088   0.2158   0.2169   0.2247   0.2325
  0.2346   0.2385   0.2443   0.2471   0.2667   0.2793   0.2884   0.2921
  0.2929   0.3007   0.3135   0.3258   0.3272   0.3486   0.3487   0.3564
  0.3645   0.3935   0.3957   0.4019   0.5040   0.5308   0.5416   0.5526
  0.5629   0.5738   0.5784   0.5822   0.6012   0.6053   0.6086   0.6248
  0.6292   0.6292   0.6541   0.6691   0.6702   0.6852   0.6931   0.7007
  0.7074   0.7166   0.7179   0.7205   0.7245   0.7375   0.7403   0.7558
  0.7635   0.7640   0.7690   0.7808   0.7832   0.7896   0.8005   0.8023
  0.8151   0.8231   0.8297   0.8316   0.8384   0.8535   0.8574   0.8634
  0.9066   0.9071   0.9404   0.9793   0.9875   0.9904   1.0052   1.0356
  1.0457   1.0631   1.0717   1.0783   1.1185   1.1255   1.1444   1.1512
  1.1763   1.2010   1.2033   1.2165   1.2273   1.2606   1.2949   1.2979
  1.3031   1.3279   1.3337   1.3582   1.3668   1.3831   1.4137   1.4490
  1.4508   1.4587   1.4793   1.4853   1.5553   1.5642   1.5857   1.5997
  1.6243   1.6356   1.6884   1.7333   1.7615   1.7660   1.8099   1.8339
  1.8493   1.8572   1.8602   1.8823   1.9227   1.9234   1.9395   1.9529
  1.9556   1.9700   2.0121   2.0256   2.0514   2.0536   2.1057   2.1120
  2.1501   2.1505   2.1715   2.1837   2.2040   2.2045   2.2054   2.2137
  2.2845   2.2923   2.3260   2.3497   2.3880   2.3983   2.4107   2.4271
  2.5555   2.5670   2.5979   2.6212   2.6758   2.6838   2.7138   2.7175
  2.7262   2.7277   2.7384   2.7655   2.7665   2.7854   2.8037   2.8168
  2.9122   2.9139   2.9247   2.9271   2.9399   2.9476   3.0136   3.0153
  3.0445   3.0478   3.0730   3.0828   3.1085   3.1121   3.1211   3.1232
  3.1457   3.1615   3.1810   3.1825   3.4612   3.4800   3.4831   3.4873
  3.5100   3.5230
 --------------------------------------------------------------
 
          Ground-State Mulliken Net Atomic Charges

     Atom                 Charge (a.u.)
  ----------------------------------------
      1 N                    -0.531316
      2 C                    -0.251843
      3 C                     0.103237
      4 O                    -0.504779
      5 C                     0.088414
      6 O                    -0.549774
      7 C                     0.025110
      8 O                    -0.524272
      9 H                     0.251725
     10 H                     0.233496
     11 H                     0.091587
     12 H                     0.093554
     13 H                     0.336677
     14 H                     0.087312
     15 H                     0.105706
     16 H                     0.355933
     17 H                     0.140331
     18 H                     0.104070
     19 H                     0.344830
     20 N                    -0.531314
     21 C                    -0.251843
     22 C                     0.103237
     23 O                    -0.504780
     24 C                     0.088415
     25 O                    -0.549774
     26 C                     0.025110
     27 O                    -0.524272
     28 H                     0.251724
     29 H                     0.233496
     30 H                     0.091588
     31 H                     0.093554
     32 H                     0.336677
     33 H                     0.087312
     34 H                     0.105706
     35 H                     0.355933
     36 H                     0.140331
     37 H                     0.104070
     38 H                     0.344831
  ----------------------------------------
  Sum of atomic charges =     0.000000

 -----------------------------------------------------------------
                    Cartesian Multipole Moments
 -----------------------------------------------------------------
    Charge (ESU x 10^10)
                 0.0000
    Dipole Moment (Debye)
         X      -0.0000      Y       0.0000      Z       2.0092
       Tot       2.0092
    Quadrupole Moments (Debye-Ang)
        XX    -118.7359     XY     -14.0303     YY    -100.9125
        XZ      -0.0000     YZ      -0.0000     ZZ     -93.9844
    Octopole Moments (Debye-Ang^2)
       XXX      -0.0003    XXY       0.0001    XYY       0.0001
       YYY       0.0001    XXZ     -24.7076    XYZ       2.6997
       YYZ       5.0372    XZZ      -0.0000    YZZ       0.0000
       ZZZ      20.4230
    Hexadecapole Moments (Debye-Ang^3)
      XXXX   -4697.2865   XXXY    -140.1487   XXYY    -793.4822
      XYYY      45.3619   YYYY    -971.1138   XXXZ      -0.0002
      XXYZ       0.0001   XYYZ       0.0001   YYYZ      -0.0001
      XXZZ    -761.4092   XYZZ     -17.9647   YYZZ    -253.2416
      XZZZ      -0.0000   YZZZ      -0.0001   ZZZZ    -519.9207
 -----------------------------------------------------------------
Archival summary:
1\1\tnxt-0601.cluster\SP\ProcedureUnspecified\BasisUnspecified\62822\peterli3\ThuSep1516:34:182022ThuSep1516:34:182022\0\\#,ProcedureUnspecified,BasisUnspecified,\\0,1\O\H,1,1.00033\C,1,1.39663,2,112.042\H,3,1.10384,1,107.529,2,-172.297,0\H,3,1.11284,1,111.006,2,71.3047,0\C,3,1.53329,1,113.575,2,-51.2623,0\N,6,1.47551,3,109.108,1,59.474,0\H,7,1.02194,6,109.972,3,43.4231,0\H,7,1.0247,6,106.98,3,158.074,0\C,6,1.53989,3,111.458,1,179.939,0\H,10,1.10537,6,110.186,3,-54.6952,0\H,10,1.11024,6,109.619,3,63.2791,0\O,10,1.40301,6,110.944,3,-172.719,0\H,13,0.975939,10,107.965,6,-46.841,0\C,6,1.54324,3,109.328,1,-59.5187,0\H,15,1.10004,6,109.072,3,43.2667,0\H,15,1.10424,6,108.69,3,-73.539,0\O,15,1.40703,6,112.695,3,167.24,0\H,18,0.976934,15,107.643,6,-88.7145,0\N,2,1.75264,1,156.732,3,173.564,0\H,20,1.02194,2,120.092,1,170.462,0\H,20,1.0247,2,100.076,1,55.2492,0\C,20,1.47551,2,112.289,1,-57.9173,0\C,23,1.53329,20,109.108,2,-93.0899,0\H,24,1.10384,23,109.276,20,179.524,0\H,24,1.11284,23,108.494,20,-64.4682,0\O,24,1.39663,23,113.575,20,59.4739,0\H,27,1.00033,24,112.042,23,-51.2622,0\C,23,1.53989,20,109.034,2,144.968,0\H,29,1.10537,23,110.186,20,65.8138,0\H,29,1.11024,23,109.619,20,-176.212,0\O,29,1.40301,23,110.944,20,-52.2096,0\H,32,0.975939,29,107.965,23,-46.8409,0\C,23,1.54324,20,108.895,2,26.1722,0\H,34,1.10004,23,109.072,20,-75.8581,0\H,34,1.10424,23,108.69,20,167.336,0\O,34,1.40703,23,112.695,20,48.1151,0\H,37,0.976934,34,107.643,23,-88.7144,0\\\@

 Total job time:  324.36s(wall), 1497.68s(cpu) 
 Thu Sep 15 16:34:18 2022

        *************************************************************
        *                                                           *
        *  Thank you very much for using Q-Chem.  Have a nice day.  *
        *                                                           *
        *************************************************************


remove work dirs /scratch/user/peterli3819/peterli3819/12613596_1663277315000000664167281/qchem11870.0 -- /scratch/user/peterli3819/peterli3819/12613596_1663277315000000664167281/qchem11870.-1
rm -rf /scratch/user/peterli3819/peterli3819/12613596_1663277315000000664167281/qchem11870
real 340.92
user 2262.16
sys 71.24
