 Entering Gaussian System, Link 0=g16
 Input=gaussian_test.inp
 Output=gaussian_test.log
 Initial command:
 /sw/restricted/lms/sw/Gaussian/g16_B01/g16/l1.exe "/scratch/user/peterchao1/peterchao1/8625368_1689034714000000241089089/Gau-137031.inp" -scrdir="/scratch/user/peterchao1/peterchao1/8625368_1689034714000000241089089/"
 Entering Link 1 = /sw/restricted/lms/sw/Gaussian/g16_B01/g16/l1.exe PID=    137035.
  
 Copyright (c) 1988-2017, Gaussian, Inc.  All Rights Reserved.
  
 This is part of the Gaussian(R) 16 program.  It is based on
 the Gaussian(R) 09 system (copyright 2009, Gaussian, Inc.),
 the Gaussian(R) 03 system (copyright 2003, Gaussian, Inc.),
 the Gaussian(R) 98 system (copyright 1998, Gaussian, Inc.),
 the Gaussian(R) 94 system (copyright 1995, Gaussian, Inc.),
 the Gaussian 92(TM) system (copyright 1992, Gaussian, Inc.),
 the Gaussian 90(TM) system (copyright 1990, Gaussian, Inc.),
 the Gaussian 88(TM) system (copyright 1988, Gaussian, Inc.),
 the Gaussian 86(TM) system (copyright 1986, Carnegie Mellon
 University), and the Gaussian 82(TM) system (copyright 1983,
 Carnegie Mellon University). Gaussian is a federally registered
 trademark of Gaussian, Inc.
  
 This software contains proprietary and confidential information,
 including trade secrets, belonging to Gaussian, Inc.
  
 This software is provided under written license and may be
 used, copied, transmitted, or stored only in accord with that
 written license.
  
 The following legend is applicable only to US Government
 contracts under FAR:
  
                    RESTRICTED RIGHTS LEGEND
  
 Use, reproduction and disclosure by the US Government is
 subject to restrictions as set forth in subparagraphs (a)
 and (c) of the Commercial Computer Software - Restricted
 Rights clause in FAR 52.227-19.
  
 Gaussian, Inc.
 340 Quinnipiac St., Bldg. 40, Wallingford CT 06492
  
  
 ---------------------------------------------------------------
 Warning -- This program may not be used in any manner that
 competes with the business of Gaussian, Inc. or will provide
 assistance to any competitor of Gaussian, Inc.  The licensee
 of this program is prohibited from giving any competitor of
 Gaussian, Inc. access to this program.  By using this program,
 the user acknowledges that Gaussian, Inc. is engaged in the
 business of creating and licensing software in the field of
 computational chemistry and represents and warrants to the
 licensee that it is not a competitor of Gaussian, Inc. and that
 it will not use this program in any manner prohibited above.
 ---------------------------------------------------------------
  

 Cite this work as:
 Gaussian 16, Revision B.01,
 M. J. Frisch, G. W. Trucks, H. B. Schlegel, G. E. Scuseria, 
 M. A. Robb, J. R. Cheeseman, G. Scalmani, V. Barone, 
 G. A. Petersson, H. Nakatsuji, X. Li, M. Caricato, A. V. Marenich, 
 J. Bloino, B. G. Janesko, R. Gomperts, B. Mennucci, H. P. Hratchian, 
 J. V. Ortiz, A. F. Izmaylov, J. L. Sonnenberg, D. Williams-Young, 
 F. Ding, F. Lipparini, F. Egidi, J. Goings, B. Peng, A. Petrone, 
 T. Henderson, D. Ranasinghe, V. G. Zakrzewski, J. Gao, N. Rega, 
 G. Zheng, W. Liang, M. Hada, M. Ehara, K. Toyota, R. Fukuda, 
 J. Hasegawa, M. Ishida, T. Nakajima, Y. Honda, O. Kitao, H. Nakai, 
 T. Vreven, K. Throssell, J. A. Montgomery, Jr., J. E. Peralta, 
 F. Ogliaro, M. J. Bearpark, J. J. Heyd, E. N. Brothers, K. N. Kudin, 
 V. N. Staroverov, T. A. Keith, R. Kobayashi, J. Normand, 
 K. Raghavachari, A. P. Rendell, J. C. Burant, S. S. Iyengar, 
 J. Tomasi, M. Cossi, J. M. Millam, M. Klene, C. Adamo, R. Cammi, 
 J. W. Ochterski, R. L. Martin, K. Morokuma, O. Farkas, 
 J. B. Foresman, and D. J. Fox, Gaussian, Inc., Wallingford CT, 2016.
 
 ******************************************
 Gaussian 16:  ES64L-G16RevB.01 20-Dec-2017
                10-Jul-2023 
 ******************************************
 %nprocshared=4
 Will use up to    4 processors via shared memory.
 %mem=8000mb
 %chk=26.chk
 %mem=8000mb
 ----------------------------------------------------------------------
 #T wB97XD/def2svpp opt=tight freq int(grid=ultrafine) scf=(verytight,q
 c)
 ----------------------------------------------------------------------
 -------
 comment
 -------
 Symbolic Z-matrix:
 Charge =  1 Multiplicity = 2
 O                     2.42358   0.15214  -0.36983 
 C                     1.24985   0.78329  -0.86874 
 C                     0.00632   0.03065  -0.39015 
 C                    -1.24125   0.77662  -0.9007 
 O                    -1.38959   2.038    -0.3102 
 C                     0.00928  -1.42639  -0.9172 
 O                    -1.16083  -2.12819  -0.61575 
 C                    -0.0833   -0.04559   1.14463 
 O                     1.05246  -0.20502   1.80831 
 O                    -1.14639  -0.03191   1.7168 
 H                     3.19955   0.69765  -0.55453 
 H                     1.26447   0.78038  -1.97474 
 H                     1.18367   1.8315   -0.52482 
 H                    -2.12377   0.13608  -0.74 
 H                    -1.14006   0.93751  -1.98816 
 H                    -1.72771   1.89586   0.58698 
 H                     0.91283  -1.94759  -0.5434 
 H                     0.07958  -1.39797  -2.01847 
 H                    -1.3429   -2.07469   0.33483 
 H                     1.81513  -0.17038   1.18054 
 

 GradGradGradGradGradGradGradGradGradGradGradGradGradGradGradGradGradGrad
 Initialization pass.
                           ----------------------------
                           !    Initial Parameters    !
                           ! (Angstroms and Degrees)  !
 --------------------------                            --------------------------
 ! Name  Definition              Value          Derivative Info.                !
 --------------------------------------------------------------------------------
 ! R1    R(1,2)                  1.423          estimate D2E/DX2                !
 ! R2    R(1,11)                 0.9663         estimate D2E/DX2                !
 ! R3    R(2,3)                  1.5303         estimate D2E/DX2                !
 ! R4    R(2,12)                 1.1061         estimate D2E/DX2                !
 ! R5    R(2,13)                 1.1052         estimate D2E/DX2                !
 ! R6    R(3,4)                  1.5406         estimate D2E/DX2                !
 ! R7    R(3,6)                  1.5494         estimate D2E/DX2                !
 ! R8    R(3,8)                  1.5393         estimate D2E/DX2                !
 ! R9    R(4,5)                  1.4006         estimate D2E/DX2                !
 ! R10   R(4,14)                 1.1023         estimate D2E/DX2                !
 ! R11   R(4,15)                 1.1039         estimate D2E/DX2                !
 ! R12   R(5,16)                 0.9692         estimate D2E/DX2                !
 ! R13   R(6,7)                  1.3973         estimate D2E/DX2                !
 ! R14   R(6,17)                 1.108          estimate D2E/DX2                !
 ! R15   R(6,18)                 1.1039         estimate D2E/DX2                !
 ! R16   R(7,19)                 0.9693         estimate D2E/DX2                !
 ! R17   R(8,9)                  1.3251         estimate D2E/DX2                !
 ! R18   R(8,10)                 1.2074         estimate D2E/DX2                !
 ! R19   R(9,20)                 0.9884         estimate D2E/DX2                !
 ! A1    A(2,1,11)             110.1785         estimate D2E/DX2                !
 ! A2    A(1,2,3)              110.0275         estimate D2E/DX2                !
 ! A3    A(1,2,12)             109.7862         estimate D2E/DX2                !
 ! A4    A(1,2,13)             111.1593         estimate D2E/DX2                !
 ! A5    A(3,2,12)             108.7933         estimate D2E/DX2                !
 ! A6    A(3,2,13)             108.6922         estimate D2E/DX2                !
 ! A7    A(12,2,13)            108.3274         estimate D2E/DX2                !
 ! A8    A(2,3,4)              108.4363         estimate D2E/DX2                !
 ! A9    A(2,3,6)              110.7658         estimate D2E/DX2                !
 ! A10   A(2,3,8)              112.5502         estimate D2E/DX2                !
 ! A11   A(4,3,6)              110.1297         estimate D2E/DX2                !
 ! A12   A(4,3,8)              107.8942         estimate D2E/DX2                !
 ! A13   A(6,3,8)              107.0193         estimate D2E/DX2                !
 ! A14   A(3,4,5)              112.4639         estimate D2E/DX2                !
 ! A15   A(3,4,14)             108.5818         estimate D2E/DX2                !
 ! A16   A(3,4,15)             108.8314         estimate D2E/DX2                !
 ! A17   A(5,4,14)             112.1528         estimate D2E/DX2                !
 ! A18   A(5,4,15)             107.0833         estimate D2E/DX2                !
 ! A19   A(14,4,15)            107.5598         estimate D2E/DX2                !
 ! A20   A(4,5,16)             107.1649         estimate D2E/DX2                !
 ! A21   A(3,6,7)              113.4098         estimate D2E/DX2                !
 ! A22   A(3,6,17)             109.2166         estimate D2E/DX2                !
 ! A23   A(3,6,18)             108.377          estimate D2E/DX2                !
 ! A24   A(7,6,17)             111.9512         estimate D2E/DX2                !
 ! A25   A(7,6,18)             106.348          estimate D2E/DX2                !
 ! A26   A(17,6,18)            107.2617         estimate D2E/DX2                !
 ! A27   A(6,7,19)             109.9455         estimate D2E/DX2                !
 ! A28   A(3,8,9)              117.0942         estimate D2E/DX2                !
 ! A29   A(3,8,10)             121.5479         estimate D2E/DX2                !
 ! A30   A(9,8,10)             121.2458         estimate D2E/DX2                !
 ! A31   A(8,9,20)             109.8185         estimate D2E/DX2                !
 ! D1    D(11,1,2,3)          -171.3291         estimate D2E/DX2                !
 ! D2    D(11,1,2,12)           68.9657         estimate D2E/DX2                !
 ! D3    D(11,1,2,13)          -50.8742         estimate D2E/DX2                !
 ! D4    D(1,2,3,4)            177.6667         estimate D2E/DX2                !
 ! D5    D(1,2,3,6)            -61.3778         estimate D2E/DX2                !
 ! D6    D(1,2,3,8)             58.384          estimate D2E/DX2                !
 ! D7    D(12,2,3,4)           -62.0263         estimate D2E/DX2                !
 ! D8    D(12,2,3,6)            58.9292         estimate D2E/DX2                !
 ! D9    D(12,2,3,8)           178.691          estimate D2E/DX2                !
 ! D10   D(13,2,3,4)            55.7346         estimate D2E/DX2                !
 ! D11   D(13,2,3,6)           176.69           estimate D2E/DX2                !
 ! D12   D(13,2,3,8)           -63.5482         estimate D2E/DX2                !
 ! D13   D(2,3,4,5)            -66.766          estimate D2E/DX2                !
 ! D14   D(2,3,4,14)           168.5197         estimate D2E/DX2                !
 ! D15   D(2,3,4,15)            51.7153         estimate D2E/DX2                !
 ! D16   D(6,3,4,5)            171.8862         estimate D2E/DX2                !
 ! D17   D(6,3,4,14)            47.1719         estimate D2E/DX2                !
 ! D18   D(6,3,4,15)           -69.6326         estimate D2E/DX2                !
 ! D19   D(8,3,4,5)             55.4033         estimate D2E/DX2                !
 ! D20   D(8,3,4,14)           -69.311          estimate D2E/DX2                !
 ! D21   D(8,3,4,15)           173.8846         estimate D2E/DX2                !
 ! D22   D(2,3,6,7)           -174.4638         estimate D2E/DX2                !
 ! D23   D(2,3,6,17)            59.9245         estimate D2E/DX2                !
 ! D24   D(2,3,6,18)           -56.6223         estimate D2E/DX2                !
 ! D25   D(4,3,6,7)            -54.5162         estimate D2E/DX2                !
 ! D26   D(4,3,6,17)           179.8721         estimate D2E/DX2                !
 ! D27   D(4,3,6,18)            63.3253         estimate D2E/DX2                !
 ! D28   D(8,3,6,7)             62.5124         estimate D2E/DX2                !
 ! D29   D(8,3,6,17)           -63.0993         estimate D2E/DX2                !
 ! D30   D(8,3,6,18)          -179.6461         estimate D2E/DX2                !
 ! D31   D(2,3,8,9)            -37.1486         estimate D2E/DX2                !
 ! D32   D(2,3,8,10)           146.6557         estimate D2E/DX2                !
 ! D33   D(4,3,8,9)           -156.7465         estimate D2E/DX2                !
 ! D34   D(4,3,8,10)            27.0578         estimate D2E/DX2                !
 ! D35   D(6,3,8,9)             84.7615         estimate D2E/DX2                !
 ! D36   D(6,3,8,10)           -91.4342         estimate D2E/DX2                !
 ! D37   D(3,4,5,16)           -76.372          estimate D2E/DX2                !
 ! D38   D(14,4,5,16)           46.3556         estimate D2E/DX2                !
 ! D39   D(15,4,5,16)          164.1242         estimate D2E/DX2                !
 ! D40   D(3,6,7,19)           -52.816          estimate D2E/DX2                !
 ! D41   D(17,6,7,19)           71.3219         estimate D2E/DX2                !
 ! D42   D(18,6,7,19)         -171.8295         estimate D2E/DX2                !
 ! D43   D(3,8,9,20)             4.9991         estimate D2E/DX2                !
 ! D44   D(10,8,9,20)         -178.793          estimate D2E/DX2                !
 --------------------------------------------------------------------------------
 Number of steps in this run=    104 maximum allowed number of steps=    120.
 GradGradGradGradGradGradGradGradGradGradGradGradGradGradGradGradGradGrad

                    Distance matrix (angstroms):
                    1          2          3          4          5
     1  O    0.000000
     2  C    1.422981   0.000000
     3  C    2.420395   1.530324   0.000000
     4  C    3.755364   2.491320   1.540636   0.000000
     5  O    4.254439   2.975391   2.446302   1.400636   0.000000
     6  C    2.936015   2.534566   1.549439   2.533250   3.785140
     7  O    4.255389   3.788412   2.464491   2.919857   4.183635
     8  C    2.935490   2.553035   1.539281   2.490033   2.857318
     9  O    2.598427   2.860475   2.446053   3.682863   3.934822
    10  O    4.139149   3.618224   2.402472   2.741172   2.907299
    11  H    0.966345   1.976705   3.266285   4.454970   4.787109
    12  H    2.077006   1.106104   2.157772   2.726210   3.375852
    13  H    2.093231   1.105175   2.155773   2.671016   2.590445
    14  H    4.562418   3.437558   2.161201   1.102251   2.083517
    15  H    3.991908   2.643596   2.165693   1.103946   2.022108
    16  H    4.603168   3.496110   2.727746   1.924193   0.969248
    17  H    2.592563   2.770764   2.181446   3.491283   4.608738
    18  H    3.258099   2.729344   2.167433   2.779000   4.108838
    19  H    4.431894   4.042152   2.603547   3.109154   4.163227
    20  H    1.696432   2.329933   2.404018   3.817052   4.167676
                    6          7          8          9         10
     6  C    0.000000
     7  O    1.397338   0.000000
     8  C    2.483207   2.932103   0.000000
     9  O    3.163599   3.804377   1.325079   0.000000
    10  O    3.196573   3.136137   1.207365   2.207552   0.000000
    11  H    3.849787   5.196343   3.770492   3.317801   4.957656
    12  H    2.750219   4.023515   3.497026   3.915030   4.483251
    13  H    3.485253   4.602617   2.813495   3.099701   3.731806
    14  H    2.650026   2.463656   2.783586   4.086400   2.649401
    15  H    2.838304   3.358933   3.449294   4.530535   3.829693
    16  H    4.039431   4.238025   2.604665   3.692515   2.308838
    17  H    1.108049   2.082762   2.731176   2.930288   3.608143
    18  H    1.103876   2.009832   3.443930   4.124787   4.161889
    19  H    1.953529   0.969338   2.521831   3.377065   2.474144
    20  H    3.039598   3.989488   1.902867   0.988415   3.012868
                   11         12         13         14         15
    11  H    0.000000
    12  H    2.401745   0.000000
    13  H    2.313057   1.792669   0.000000
    14  H    5.356069   3.663319   3.722895   0.000000
    15  H    4.576576   2.409699   2.887965   1.779857   0.000000
    16  H    5.197743   4.093876   3.117108   2.239318   2.809823
    17  H    3.496645   3.100681   3.788832   3.687992   3.824332
    18  H    4.033483   2.480140   3.725521   2.973643   2.634940
    19  H    5.395431   4.503768   4.730847   2.579248   3.809302
    20  H    2.383391   3.341109   2.704542   4.392876   4.472282
                   16         17         18         19         20
    16  H    0.000000
    17  H    4.798154   0.000000
    18  H    4.572082   1.781073   0.000000
    19  H    3.997115   2.423995   2.831853   0.000000
    20  H    4.144078   2.635261   3.840938   3.783490   0.000000
 Framework group  C1[X(C5H10O5)]
 Deg. of freedom    54
                         Standard orientation:                         
 ---------------------------------------------------------------------
 Center     Atomic      Atomic             Coordinates (Angstroms)
 Number     Number       Type             X           Y           Z
 ---------------------------------------------------------------------
      1          8           0       -2.423576   -0.152145   -0.369828
      2          6           0       -1.249854   -0.783287   -0.868739
      3          6           0       -0.006317   -0.030653   -0.390147
      4          6           0        1.241252   -0.776618   -0.900701
      5          8           0        1.389593   -2.037998   -0.310196
      6          6           0       -0.009285    1.426389   -0.917197
      7          8           0        1.160827    2.128188   -0.615750
      8          6           0        0.083298    0.045589    1.144631
      9          8           0       -1.052459    0.205019    1.808312
     10          8           0        1.146392    0.031914    1.716798
     11          1           0       -3.199546   -0.697655   -0.554526
     12          1           0       -1.264470   -0.780377   -1.974743
     13          1           0       -1.183673   -1.831501   -0.524822
     14          1           0        2.123772   -0.136079   -0.739995
     15          1           0        1.140063   -0.937506   -1.988163
     16          1           0        1.727706   -1.895859    0.586976
     17          1           0       -0.912829    1.947593   -0.543396
     18          1           0       -0.079577    1.397974   -2.018466
     19          1           0        1.342900    2.074692    0.334831
     20          1           0       -1.815133    0.170382    1.180544
 ---------------------------------------------------------------------
 Rotational constants (GHZ):           1.3701571           1.1994126           1.1260683
   160 basis functions,   290 primitive gaussians,   170 cartesian basis functions
    40 alpha electrons       39 beta electrons
       nuclear repulsion energy       616.0405995669 Hartrees.
 NAtoms=   20 NActive=   20 NUniq=   20 SFac= 1.00D+00 NAtFMM=   60 NAOKFM=F Big=F
 Nuclear repulsion after empirical dispersion term =      616.0269059121 Hartrees.
   1 Symmetry operations used in ECPInt.
 ECPInt:  NShTT=    3240 NPrTT=   13040 LenC2=    3204 LenP2D=   10030.
 LDataN:  DoStor=T MaxTD1= 4 Len=   56
 ExpMin= 1.22D-01 ExpMax= 2.27D+03 ExpMxC= 3.41D+02 IAcc=3 IRadAn=         5 AccDes= 0.00D+00
 Harris functional with IExCor= 4639 and IRadAn=       5 diagonalized for initial guess.
 HarFok:  IExCor= 4639 AccDes= 0.00D+00 IRadAn=         5 IDoV= 1 UseB2=F ITyADJ=14
 ICtDFT=  3500011 ScaDFX=  1.000000  1.000000  1.000000  1.000000
 FoFCou: FMM=F IPFlag=           0 FMFlag=      100000 FMFlg1=           0
         NFxFlg=           0 DoJE=T BraDBF=F KetDBF=T FulRan=T
         wScrn=  0.000000 ICntrl=       500 IOpCl=  0 I1Cent=   200000004 NGrid=           0
         NMat0=    1 NMatS0=      1 NMatT0=    0 NMatD0=    1 NMtDS0=    0 NMtDT0=    0
 Petite list used in FoFCou.
 Initial guess <Sx>= 0.0000 <Sy>= 0.0000 <Sz>= 0.5000 <S**2>= 0.7500 S= 0.5000
     Minimum is close to point  3 DX=  4.61D-02 DF= -1.15D-03 DXR=  8.44D-02 DFR=  7.12D-03 which will be used.
     Minimum is close to point  3 DX=  3.72D-03 DF= -4.50D-07 DXR=  5.29D-03 DFR=  2.79D-05 which will be used.
     Accept linear search using points  1 and  2.
     Accept linear search using points  1 and  2.
     Minimum is close to point  3 DX=  1.97D-02 DF= -3.46D-08 DXR=  1.22D-02 DFR=  1.48D-04 which will be used.
     Accept linear search using points  1 and  2.
     Accept linear search using points  1 and  2.
     Minimum is close to point  2 DX=  3.63D-03 DF= -8.80D-11 DXR=  3.62D-03 DFR=  1.31D-05 which will be used.
 SCF Done:  E(UwB97XD) =  -571.663150132     a.u. after   11 cycles
            Convg  =    0.2689D-07                    80 Fock formations.
              S**2 =  0.7556                  -V/T =  2.0076
 <Sx>= 0.0000 <Sy>= 0.0000 <Sz>= 0.5000 <S**2>= 0.7556 S= 0.5028
 <L.S>=  0.00000000000    
 Annihilation of the first spin contaminant:
 S**2 before annihilation     0.7556,   after     0.7500

 **********************************************************************

            Population analysis using the SCF Density.

 **********************************************************************

 Orbital symmetries:
 Alpha Orbitals:
       Occupied  (A) (A) (A) (A) (A) (A) (A) (A) (A) (A) (A) (A)
                 (A) (A) (A) (A) (A) (A) (A) (A) (A) (A) (A) (A)
                 (A) (A) (A) (A) (A) (A) (A) (A) (A) (A) (A) (A)
                 (A) (A) (A) (A)
       Virtual   (A) (A) (A) (A) (A) (A) (A) (A) (A) (A) (A) (A)
                 (A) (A) (A) (A) (A) (A) (A) (A) (A) (A) (A) (A)
                 (A) (A) (A) (A) (A) (A) (A) (A) (A) (A) (A) (A)
                 (A) (A) (A) (A) (A) (A) (A) (A) (A) (A) (A) (A)
                 (A) (A) (A) (A) (A) (A) (A) (A) (A) (A) (A) (A)
                 (A) (A) (A) (A) (A) (A) (A) (A) (A) (A) (A) (A)
                 (A) (A) (A) (A) (A) (A) (A) (A) (A) (A) (A) (A)
                 (A) (A) (A) (A) (A) (A) (A) (A) (A) (A) (A) (A)
                 (A) (A) (A) (A) (A) (A) (A) (A) (A) (A) (A) (A)
                 (A) (A) (A) (A) (A) (A) (A) (A) (A) (A) (A) (A)
 Beta  Orbitals:
       Occupied  (A) (A) (A) (A) (A) (A) (A) (A) (A) (A) (A) (A)
                 (A) (A) (A) (A) (A) (A) (A) (A) (A) (A) (A) (A)
                 (A) (A) (A) (A) (A) (A) (A) (A) (A) (A) (A) (A)
                 (A) (A) (A)
       Virtual   (A) (A) (A) (A) (A) (A) (A) (A) (A) (A) (A) (A)
                 (A) (A) (A) (A) (A) (A) (A) (A) (A) (A) (A) (A)
                 (A) (A) (A) (A) (A) (A) (A) (A) (A) (A) (A) (A)
                 (A) (A) (A) (A) (A) (A) (A) (A) (A) (A) (A) (A)
                 (A) (A) (A) (A) (A) (A) (A) (A) (A) (A) (A) (A)
                 (A) (A) (A) (A) (A) (A) (A) (A) (A) (A) (A) (A)
                 (A) (A) (A) (A) (A) (A) (A) (A) (A) (A) (A) (A)
                 (A) (A) (A) (A) (A) (A) (A) (A) (A) (A) (A) (A)
                 (A) (A) (A) (A) (A) (A) (A) (A) (A) (A) (A) (A)
                 (A) (A) (A) (A) (A) (A) (A) (A) (A) (A) (A) (A)
                 (A)
 The electronic state is 2-A.
 Alpha  occ. eigenvalues --  -19.51631 -19.50231 -19.48382 -19.47736 -19.47095
 Alpha  occ. eigenvalues --  -10.64276 -10.57278 -10.56283 -10.55730 -10.55359
 Alpha  occ. eigenvalues --   -1.40739  -1.36895  -1.35651  -1.33520  -1.31560
 Alpha  occ. eigenvalues --   -1.13607  -0.99662  -0.98183  -0.94478  -0.89996
 Alpha  occ. eigenvalues --   -0.85221  -0.84556  -0.82237  -0.79275  -0.77692
 Alpha  occ. eigenvalues --   -0.75898  -0.74394  -0.73943  -0.73051  -0.72003
 Alpha  occ. eigenvalues --   -0.70583  -0.68252  -0.64984  -0.64710  -0.63361
 Alpha  occ. eigenvalues --   -0.61471  -0.60481  -0.59636  -0.58588  -0.56821
 Alpha virt. eigenvalues --   -0.12911  -0.04825  -0.04103  -0.02813  -0.01975
 Alpha virt. eigenvalues --    0.01866   0.03125   0.04011   0.04517   0.05503
 Alpha virt. eigenvalues --    0.06412   0.06565   0.08188   0.09111   0.09750
 Alpha virt. eigenvalues --    0.11786   0.12856   0.16367   0.24397   0.25260
 Alpha virt. eigenvalues --    0.33371   0.34774   0.35840   0.36559   0.40055
 Alpha virt. eigenvalues --    0.41552   0.41924   0.43354   0.45132   0.47235
 Alpha virt. eigenvalues --    0.48095   0.49375   0.51290   0.51886   0.54076
 Alpha virt. eigenvalues --    0.55275   0.55737   0.57223   0.58420   0.58954
 Alpha virt. eigenvalues --    0.60978   0.61145   0.62741   0.63410   0.64089
 Alpha virt. eigenvalues --    0.70010   0.79687   0.81850   0.84549   0.87019
 Alpha virt. eigenvalues --    0.88372   0.91065   0.92750   0.95722   0.96027
 Alpha virt. eigenvalues --    0.99564   1.00293   1.01384   1.06678   1.07922
 Alpha virt. eigenvalues --    1.10140   1.12841   1.18946   1.24620   1.31321
 Alpha virt. eigenvalues --    1.31444   1.32423   1.35331   1.39023   1.43497
 Alpha virt. eigenvalues --    1.44339   1.51639   1.55433   1.60423   1.63924
 Alpha virt. eigenvalues --    1.64622   1.66698   1.70902   1.73522   1.82195
 Alpha virt. eigenvalues --    1.83393   1.84938   1.89809   1.91559   1.94445
 Alpha virt. eigenvalues --    1.96761   1.98340   2.00254   2.02889   2.09593
 Alpha virt. eigenvalues --    2.24813   2.25837   2.41545   2.42090   2.43637
 Alpha virt. eigenvalues --    2.46703   2.47944   2.50363   2.50890   2.53326
 Alpha virt. eigenvalues --    2.57504   2.67630   2.69881   2.72430   2.75037
 Alpha virt. eigenvalues --    2.78834   2.81986   2.84287   2.85213   2.88522
 Alpha virt. eigenvalues --    2.89728   2.93838   2.94541   3.06516   3.19210
 Alpha virt. eigenvalues --    3.22033   3.26299   3.27343   3.47569   3.51991
  Beta  occ. eigenvalues --  -19.50947 -19.49605 -19.48360 -19.47233 -19.47072
  Beta  occ. eigenvalues --  -10.64308 -10.57213 -10.56043 -10.55693 -10.55364
  Beta  occ. eigenvalues --   -1.40198  -1.35341  -1.34225  -1.33185  -1.31065
  Beta  occ. eigenvalues --   -1.12735  -0.98836  -0.97809  -0.93960  -0.89728
  Beta  occ. eigenvalues --   -0.84399  -0.83947  -0.81721  -0.78734  -0.76524
  Beta  occ. eigenvalues --   -0.75109  -0.73634  -0.73396  -0.72143  -0.71490
  Beta  occ. eigenvalues --   -0.69288  -0.67441  -0.64347  -0.63648  -0.61932
  Beta  occ. eigenvalues --   -0.60172  -0.57581  -0.55631  -0.54405
  Beta virt. eigenvalues --   -0.37860  -0.12657  -0.04689  -0.03877  -0.02542
  Beta virt. eigenvalues --   -0.01888   0.02110   0.03391   0.04300   0.04720
  Beta virt. eigenvalues --    0.05693   0.06606   0.06830   0.08439   0.09411
  Beta virt. eigenvalues --    0.10028   0.12056   0.13493   0.16889   0.24617
  Beta virt. eigenvalues --    0.25703   0.33536   0.35059   0.36052   0.36773
  Beta virt. eigenvalues --    0.40196   0.41741   0.42202   0.43796   0.45374
  Beta virt. eigenvalues --    0.47458   0.48507   0.49717   0.51520   0.52189
  Beta virt. eigenvalues --    0.54482   0.55567   0.55994   0.57677   0.58732
  Beta virt. eigenvalues --    0.59141   0.61224   0.61385   0.63087   0.63593
  Beta virt. eigenvalues --    0.64250   0.70397   0.79991   0.82190   0.84848
  Beta virt. eigenvalues --    0.87341   0.88847   0.91233   0.93253   0.96184
  Beta virt. eigenvalues --    0.97362   0.99697   1.01389   1.01777   1.07142
  Beta virt. eigenvalues --    1.08583   1.10485   1.13542   1.19341   1.24870
  Beta virt. eigenvalues --    1.31622   1.31678   1.32862   1.35675   1.39401
  Beta virt. eigenvalues --    1.43901   1.44508   1.51794   1.55962   1.60885
  Beta virt. eigenvalues --    1.64159   1.65008   1.67290   1.71214   1.73856
  Beta virt. eigenvalues --    1.82457   1.83707   1.85311   1.89973   1.91797
  Beta virt. eigenvalues --    1.94823   1.97006   1.98669   2.00550   2.03276
  Beta virt. eigenvalues --    2.09955   2.25343   2.26307   2.42141   2.42939
  Beta virt. eigenvalues --    2.44901   2.47339   2.49657   2.50650   2.51975
  Beta virt. eigenvalues --    2.54758   2.58951   2.68551   2.70739   2.72872
  Beta virt. eigenvalues --    2.75300   2.80080   2.82675   2.85476   2.86625
  Beta virt. eigenvalues --    2.89500   2.90150   2.94230   2.94931   3.06834
  Beta virt. eigenvalues --    3.19605   3.22587   3.27043   3.27646   3.47990
  Beta virt. eigenvalues --    3.52640
          Condensed to atoms (all electrons):
          Atomic-Atomic Spin Densities.
 Mulliken charges and spin densities:
               1          2
     1  O   -0.504574   0.008867
     2  C    0.054305  -0.000868
     3  C   -0.489463   0.140196
     4  C    0.058930   0.017670
     5  O   -0.340097   0.262056
     6  C    0.070632   0.029531
     7  O   -0.324228   0.278079
     8  C    0.278119  -0.022823
     9  O   -0.306456   0.007671
    10  O   -0.147658   0.212067
    11  H    0.382505  -0.000258
    12  H    0.168322   0.008241
    13  H    0.187781   0.012966
    14  H    0.188062   0.015137
    15  H    0.180570  -0.001527
    16  H    0.380159  -0.008619
    17  H    0.220177   0.051727
    18  H    0.189880  -0.002189
    19  H    0.378040  -0.008614
    20  H    0.374995   0.000691
 Sum of Mulliken charges =   1.00000   1.00000
 Mulliken charges and spin densities with hydrogens summed into heavy atoms:
               1          2
     1  O   -0.122068   0.008609
     2  C    0.410408   0.020339
     3  C   -0.489463   0.140196
     4  C    0.427562   0.031281
     5  O    0.040061   0.253436
     6  C    0.480689   0.079069
     7  O    0.053812   0.269465
     8  C    0.278119  -0.022823
     9  O    0.068539   0.008362
    10  O   -0.147658   0.212067
 Electronic spatial extent (au):  <R**2>=           1323.8504
 Charge=              1.0000 electrons
 Dipole moment (field-independent basis, Debye):
    X=             -1.9532    Y=             -0.5260    Z=             -3.0800  Tot=              3.6848
                          Isotropic Fermi Contact Couplings
        Atom                 a.u.       MegaHertz       Gauss      10(-4) cm-1
     1  O(17)              0.00067      -0.40317      -0.14386      -0.13448
     2  C(13)             -0.00644      -7.23603      -2.58199      -2.41368
     3  C(13)              0.00696       7.82171       2.79098       2.60904
     4  C(13)             -0.01396     -15.69450      -5.60019      -5.23512
     5  O(17)              0.09633     -58.39285     -20.83602     -19.47776
     6  C(13)             -0.01398     -15.72048      -5.60946      -5.24379
     7  O(17)              0.10871     -65.90180     -23.51540     -21.98247
     8  C(13)             -0.01522     -17.10895      -6.10490      -5.70693
     9  O(17)              0.00076      -0.46104      -0.16451      -0.15378
    10  O(17)              0.06586     -39.92252     -14.24535     -13.31672
    11  H(1)              -0.00011      -0.47317      -0.16884      -0.15783
    12  H(1)               0.00400      17.86017       6.37295       5.95751
    13  H(1)               0.00473      21.14191       7.54396       7.05218
    14  H(1)               0.01215      54.32622      19.38495      18.12128
    15  H(1)              -0.00070      -3.11110      -1.11012      -1.03775
    16  H(1)              -0.00342     -15.29921      -5.45914      -5.10327
    17  H(1)               0.02531     113.14391      40.37256      37.74074
    18  H(1)              -0.00090      -4.01790      -1.43369      -1.34023
    19  H(1)              -0.00354     -15.80977      -5.64132      -5.27357
    20  H(1)              -0.00009      -0.38161      -0.13617      -0.12729
 --------------------------------------------------------
       Center         ----  Spin Dipole Couplings  ----
                      3XX-RR        3YY-RR        3ZZ-RR
 --------------------------------------------------------
     1   Atom        0.001738      0.006251     -0.007989
     2   Atom        0.003190     -0.008237      0.005046
     3   Atom       -0.027443      0.080788     -0.053345
     4   Atom        0.071537     -0.033560     -0.037977
     5   Atom        0.933981     -0.500353     -0.433628
     6   Atom       -0.029097      0.092324     -0.063227
     7   Atom       -0.049937      0.604524     -0.554587
     8   Atom        0.007786     -0.028438      0.020652
     9   Atom        0.023353     -0.033527      0.010174
    10   Atom       -0.314493     -0.326284      0.640776
    11   Atom        0.003304     -0.000475     -0.002829
    12   Atom        0.000199     -0.002292      0.002093
    13   Atom        0.004065      0.001766     -0.005832
    14   Atom        0.000401      0.006952     -0.007353
    15   Atom       -0.005996     -0.002947      0.008944
    16   Atom       -0.013384     -0.026990      0.040374
    17   Atom        0.012650     -0.008081     -0.004569
    18   Atom       -0.006688     -0.003544      0.010232
    19   Atom       -0.030047     -0.019428      0.049475
    20   Atom        0.003799     -0.003819      0.000020
 --------------------------------------------------------
                        XY            XZ            YZ
 --------------------------------------------------------
     1   Atom       -0.022134      0.019140     -0.022852
     2   Atom        0.001117      0.012875      0.000219
     3   Atom       -0.152230      0.101885     -0.134942
     4   Atom       -0.005904     -0.022785     -0.003612
     5   Atom       -0.164637     -0.351136      0.037772
     6   Atom       -0.054043      0.013666     -0.015416
     7   Atom       -0.773862     -0.065760      0.105932
     8   Atom        0.000833      0.016533      0.011872
     9   Atom       -0.032303     -0.037656      0.027355
    10   Atom       -0.069842     -0.357446      0.211864
    11   Atom        0.002124      0.000686      0.000044
    12   Atom        0.001332      0.003518      0.001613
    13   Atom        0.003487      0.001418      0.000858
    14   Atom        0.007062     -0.000299      0.001762
    15   Atom       -0.001455     -0.000835      0.000805
    16   Atom       -0.002260      0.016974      0.014302
    17   Atom       -0.006716     -0.010791      0.002831
    18   Atom       -0.000367      0.003079     -0.000669
    19   Atom       -0.007608      0.014047      0.000100
    20   Atom       -0.000316     -0.001781      0.000259
 --------------------------------------------------------


 ---------------------------------------------------------------------------------
              Anisotropic Spin Dipole Couplings in Principal Axis System
 ---------------------------------------------------------------------------------

       Atom             a.u.   MegaHertz   Gauss  10(-4) cm-1        Axes

              Baa    -0.0254     1.835     0.655     0.612 -0.2323  0.4578  0.8582
     1 O(17)  Bbb    -0.0181     1.312     0.468     0.438  0.7857  0.6084 -0.1119
              Bcc     0.0435    -3.147    -1.123    -1.050 -0.5734  0.6483 -0.5010
 
              Baa    -0.0092    -1.241    -0.443    -0.414  0.6177 -0.5643 -0.5478
     2 C(13)  Bbb    -0.0078    -1.048    -0.374    -0.350  0.3925  0.8248 -0.4070
              Bcc     0.0171     2.289     0.817     0.764  0.6815  0.0364  0.7310
 
              Baa    -0.1431   -19.205    -6.853    -6.406 -0.6397  0.0280  0.7681
     3 C(13)  Bbb    -0.1321   -17.723    -6.324    -5.912  0.5681  0.6903  0.4480
              Bcc     0.2752    36.928    13.177    12.318 -0.5177  0.7230 -0.4575
 
              Baa    -0.0446    -5.981    -2.134    -1.995  0.1961  0.3989  0.8958
     4 C(13)  Bbb    -0.0318    -4.261    -1.520    -1.421 -0.0359  0.9158 -0.4000
              Bcc     0.0763    10.242     3.655     3.416  0.9799 -0.0463 -0.1939
 
              Baa    -0.5207    37.676    13.444    12.567  0.2363  0.7369  0.6333
     5 O(17)  Bbb    -0.5167    37.391    13.342    12.472  0.1029 -0.6671  0.7378
              Bcc     1.0374   -75.067   -26.786   -25.040  0.9662 -0.1092 -0.2334
 
              Baa    -0.0682    -9.145    -3.263    -3.051 -0.3762 -0.0378  0.9258
     6 C(13)  Bbb    -0.0468    -6.284    -2.242    -2.096  0.8545  0.3720  0.3624
              Bcc     0.1150    15.429     5.506     5.147 -0.3581  0.9275 -0.1077
 
              Baa    -0.5671    41.035    14.642    13.688 -0.5216 -0.4120  0.7471
     7 O(17)  Bbb    -0.5596    40.495    14.449    13.508  0.6516  0.3730  0.6606
              Bcc     1.1267   -81.530   -29.092   -27.195 -0.5509  0.8313  0.0739
 
              Baa    -0.0314    -4.214    -1.503    -1.405  0.0836  0.9655 -0.2467
     8 C(13)  Bbb    -0.0023    -0.307    -0.109    -0.102  0.8411 -0.2011 -0.5021
              Bcc     0.0337     4.520     1.613     1.508  0.5344  0.1656  0.8288
 
              Baa    -0.0505     3.655     1.304     1.219  0.2817  0.9281 -0.2435
     9 O(17)  Bbb    -0.0215     1.553     0.554     0.518  0.6452  0.0046  0.7640
              Bcc     0.0720    -5.208    -1.858    -1.737  0.7101 -0.3724 -0.5975
 
              Baa    -0.4334    31.363    11.191    10.462  0.9482 -0.0095  0.3174
    10 O(17)  Bbb    -0.3703    26.796     9.561     8.938  0.0703  0.9810 -0.1807
              Bcc     0.8038   -58.159   -20.753   -19.400 -0.3097  0.1937  0.9309
 
              Baa    -0.0029    -1.561    -0.557    -0.521 -0.1452  0.1081  0.9835
    11 H(1)   Bbb    -0.0014    -0.742    -0.265    -0.247 -0.3880  0.9082 -0.1571
              Bcc     0.0043     2.303     0.822     0.768  0.9102  0.4044  0.0899
 
              Baa    -0.0029    -1.535    -0.548    -0.512 -0.3083  0.9471 -0.0891
    12 H(1)   Bbb    -0.0025    -1.325    -0.473    -0.442  0.7472  0.1831 -0.6389
              Bcc     0.0054     2.860     1.021     0.954  0.5888  0.2635  0.7641
 
              Baa    -0.0061    -3.229    -1.152    -1.077 -0.1198 -0.0554  0.9913
    13 H(1)   Bbb    -0.0008    -0.401    -0.143    -0.134 -0.5813  0.8133 -0.0248
              Bcc     0.0068     3.630     1.295     1.211  0.8048  0.5792  0.1296
 
              Baa    -0.0078    -4.178    -1.491    -1.394  0.2230 -0.2197  0.9497
    14 H(1)   Bbb    -0.0037    -1.987    -0.709    -0.663  0.8167 -0.4899 -0.3051
              Bcc     0.0116     6.165     2.200     2.056  0.5323  0.8436  0.0702
 
              Baa    -0.0066    -3.518    -1.255    -1.174  0.9307  0.3644  0.0311
    15 H(1)   Bbb    -0.0025    -1.314    -0.469    -0.438 -0.3604  0.9283 -0.0919
              Bcc     0.0091     4.832     1.724     1.612 -0.0624  0.0743  0.9953
 
              Baa    -0.0320   -17.061    -6.088    -5.691  0.3465  0.9014 -0.2595
    16 H(1)   Bbb    -0.0156    -8.340    -2.976    -2.782  0.9019 -0.3962 -0.1721
              Bcc     0.0476    25.401     9.064     8.473  0.2580  0.1744  0.9503
 
              Baa    -0.0102    -5.465    -1.950    -1.823  0.4389  0.7803  0.4455
    17 H(1)   Bbb    -0.0095    -5.073    -1.810    -1.692  0.2125 -0.5719  0.7923
              Bcc     0.0197    10.537     3.760     3.515  0.8730 -0.2531 -0.4169
 
              Baa    -0.0072    -3.867    -1.380    -1.290  0.9831  0.0665 -0.1706
    18 H(1)   Bbb    -0.0036    -1.901    -0.678    -0.634 -0.0569  0.9965  0.0610
              Bcc     0.0108     5.768     2.058     1.924  0.1741 -0.0503  0.9834
 
              Baa    -0.0359   -19.149    -6.833    -6.387  0.8974  0.4156 -0.1482
    19 H(1)   Bbb    -0.0160    -8.544    -3.049    -2.850 -0.4070  0.9094  0.0859
              Bcc     0.0519    27.693     9.882     9.237  0.1704 -0.0168  0.9852
 
              Baa    -0.0038    -2.050    -0.731    -0.684  0.0288  0.9981 -0.0538
    20 H(1)   Bbb    -0.0007    -0.364    -0.130    -0.121  0.3714  0.0392  0.9276
              Bcc     0.0045     2.414     0.861     0.805  0.9280 -0.0466 -0.3696
 

 ---------------------------------------------------------------------------------

   1 Symmetry operations used in ECPInt.
 ECPInt:  NShTT=    3240 NPrTT=   13040 LenC2=    3204 LenP2D=   10030.
 LDataN:  DoStor=T MaxTD1= 5 Len=  102
 Calling FoFJK, ICntrl=      2127 FMM=F ISym2X=0 I1Cent= 0 IOpClX= 1 NMat=1 NMatS=1 NMatT=0.

 GradGradGradGradGradGradGradGradGradGradGradGradGradGradGradGradGradGrad
 FormGI is forming the generalized inverse of G from B-inverse, IUseBI=4.
 Internal  Forces:  Max     0.019780545 RMS     0.006079889
 Step number   1 out of a maximum of  104
 All quantities printed in internal units (Hartrees-Bohrs-Radians)
 Mixed Optimization -- RFO/linear search
 Second derivative matrix not updated -- first step.
 ITU=  0
     Eigenvalues ---    0.00230   0.00230   0.00246   0.00365   0.00866
     Eigenvalues ---    0.01388   0.01683   0.01727   0.02683   0.04623
     Eigenvalues ---    0.04666   0.04794   0.05027   0.05136   0.05663
     Eigenvalues ---    0.05892   0.05911   0.06020   0.11224   0.11624
     Eigenvalues ---    0.11772   0.13765   0.13989   0.14072   0.14669
     Eigenvalues ---    0.15387   0.16000   0.16000   0.16000   0.16000
     Eigenvalues ---    0.22046   0.22056   0.22061   0.24972   0.25000
     Eigenvalues ---    0.27699   0.28463   0.28583   0.29394   0.32807
     Eigenvalues ---    0.33016   0.33116   0.33249   0.33257   0.33434
     Eigenvalues ---    0.42015   0.45515   0.46065   0.49785   0.53512
     Eigenvalues ---    0.53531   0.54131   0.60683   1.01208
 Linear search not attempted -- first point.
 Iteration  1 RMS(Cart)=  0.06414288 RMS(Int)=  0.00206846
 Iteration  2 RMS(Cart)=  0.00274429 RMS(Int)=  0.00059244
 Iteration  3 RMS(Cart)=  0.00000471 RMS(Int)=  0.00059243
 Iteration  4 RMS(Cart)=  0.00000000 RMS(Int)=  0.00059243
 Variable       Old X    -DE/DX   Delta X   Delta X   Delta X     New X
                                 (Linear)    (Quad)   (Total)
    R1        2.68904  -0.00885   0.00000  -0.02030  -0.02030   2.66874
    R2        1.82613   0.00391   0.00000   0.00702   0.00702   1.83315
    R3        2.89189   0.00041   0.00000   0.00133   0.00133   2.89322
    R4        2.09023  -0.00003   0.00000  -0.00010  -0.00010   2.09014
    R5        2.08848  -0.00061   0.00000  -0.00176  -0.00176   2.08672
    R6        2.91138   0.01174   0.00000   0.03908   0.03908   2.95046
    R7        2.92802   0.00725   0.00000   0.02477   0.02477   2.95278
    R8        2.90882   0.00461   0.00000   0.01528   0.01528   2.92410
    R9        2.64682  -0.01902   0.00000  -0.04038  -0.04038   2.60644
   R10        2.08295   0.00502   0.00000   0.01433   0.01433   2.09728
   R11        2.08616  -0.00195   0.00000  -0.00560  -0.00560   2.08055
   R12        1.83161   0.00985   0.00000   0.01787   0.01787   1.84948
   R13        2.64059  -0.01477   0.00000  -0.03099  -0.03099   2.60959
   R14        2.09391   0.00287   0.00000   0.00835   0.00835   2.10226
   R15        2.08602  -0.00135   0.00000  -0.00388  -0.00388   2.08215
   R16        1.83178   0.00959   0.00000   0.01740   0.01740   1.84918
   R17        2.50404  -0.01945   0.00000  -0.03124  -0.03124   2.47280
   R18        2.28159   0.00063   0.00000   0.00061   0.00061   2.28220
   R19        1.86783   0.00673   0.00000   0.01311   0.01311   1.88094
    A1        1.92298   0.00337   0.00000   0.01915   0.01915   1.94212
    A2        1.92034  -0.01265   0.00000  -0.05570  -0.05569   1.86465
    A3        1.91613   0.00558   0.00000   0.02561   0.02518   1.94131
    A4        1.94010   0.00278   0.00000   0.00745   0.00762   1.94772
    A5        1.89880   0.00082   0.00000  -0.00311  -0.00310   1.89570
    A6        1.89704   0.00519   0.00000   0.02509   0.02511   1.92215
    A7        1.89067  -0.00157   0.00000   0.00133   0.00113   1.89180
    A8        1.89257   0.00372   0.00000   0.03919   0.03894   1.93151
    A9        1.93323   0.00601   0.00000   0.02569   0.02629   1.95952
   A10        1.96437  -0.00528   0.00000  -0.01205  -0.01360   1.95077
   A11        1.92213  -0.01106   0.00000  -0.08709  -0.08647   1.83566
   A12        1.88311   0.00721   0.00000   0.05599   0.05433   1.93744
   A13        1.86784  -0.00097   0.00000  -0.02471  -0.02364   1.84420
   A14        1.96287  -0.01194   0.00000  -0.05525  -0.05570   1.90717
   A15        1.89511   0.00084   0.00000  -0.01075  -0.01175   1.88336
   A16        1.89947   0.00462   0.00000   0.03235   0.03276   1.93223
   A17        1.95744   0.00336   0.00000  -0.00365  -0.00511   1.95232
   A18        1.86896   0.00409   0.00000   0.02715   0.02774   1.89670
   A19        1.87727  -0.00038   0.00000   0.01518   0.01510   1.89237
   A20        1.87038   0.00999   0.00000   0.05682   0.05682   1.92720
   A21        1.97937  -0.00024   0.00000  -0.00636  -0.00680   1.97258
   A22        1.90619  -0.00509   0.00000  -0.04192  -0.04229   1.86390
   A23        1.89154   0.00056   0.00000   0.01114   0.01125   1.90279
   A24        1.95392   0.00125   0.00000  -0.00635  -0.00724   1.94668
   A25        1.85612   0.00077   0.00000   0.01549   0.01547   1.87159
   A26        1.87207   0.00318   0.00000   0.03329   0.03348   1.90555
   A27        1.91891   0.00982   0.00000   0.05584   0.05584   1.97475
   A28        2.04368   0.01018   0.00000   0.03871   0.03863   2.08231
   A29        2.12141  -0.01978   0.00000  -0.07407  -0.07416   2.04725
   A30        2.11614   0.00963   0.00000   0.03672   0.03666   2.15280
   A31        1.91669   0.00671   0.00000   0.03813   0.03813   1.95483
    D1       -2.99026  -0.00115   0.00000  -0.00911  -0.00939  -2.99965
    D2        1.20368   0.00222   0.00000   0.01338   0.01370   1.21738
    D3       -0.88792  -0.00123   0.00000  -0.00974  -0.00978  -0.89770
    D4        3.10087   0.00465   0.00000   0.03365   0.03286   3.13373
    D5       -1.07125  -0.00291   0.00000  -0.03285  -0.03299  -1.10423
    D6        1.01899  -0.00353   0.00000  -0.05464  -0.05434   0.96466
    D7       -1.08256   0.00433   0.00000   0.02928   0.02881  -1.05375
    D8        1.02851  -0.00324   0.00000  -0.03722  -0.03704   0.99147
    D9        3.11875  -0.00386   0.00000  -0.05901  -0.05839   3.06036
   D10        0.97275   0.00582   0.00000   0.04324   0.04275   1.01550
   D11        3.08382  -0.00174   0.00000  -0.02326  -0.02310   3.06073
   D12       -1.10913  -0.00237   0.00000  -0.04505  -0.04445  -1.15357
   D13       -1.16529  -0.00112   0.00000  -0.07421  -0.07479  -1.24008
   D14        2.94122   0.00224   0.00000  -0.02318  -0.02459   2.91663
   D15        0.90260  -0.00031   0.00000  -0.05308  -0.05430   0.84830
   D16        2.99998  -0.00407   0.00000  -0.07712  -0.07689   2.92309
   D17        0.82330  -0.00071   0.00000  -0.02609  -0.02669   0.79662
   D18       -1.21532  -0.00326   0.00000  -0.05599  -0.05640  -1.27171
   D19        0.96697  -0.00100   0.00000  -0.03220  -0.03038   0.93659
   D20       -1.20970   0.00236   0.00000   0.01883   0.01982  -1.18988
   D21        3.03486  -0.00020   0.00000  -0.01106  -0.00989   3.02497
   D22       -3.04497  -0.00318   0.00000  -0.05028  -0.05024  -3.09521
   D23        1.04588  -0.00067   0.00000  -0.00444  -0.00492   1.04096
   D24       -0.98825  -0.00199   0.00000  -0.02741  -0.02753  -1.01577
   D25       -0.95149  -0.00186   0.00000  -0.04144  -0.04208  -0.99357
   D26        3.13936   0.00065   0.00000   0.00441   0.00324  -3.14059
   D27        1.10524  -0.00068   0.00000  -0.01857  -0.01937   1.08587
   D28        1.09105   0.00029   0.00000  -0.03505  -0.03377   1.05728
   D29       -1.10129   0.00280   0.00000   0.01079   0.01155  -1.08974
   D30       -3.13542   0.00147   0.00000  -0.01218  -0.01105   3.13671
   D31       -0.64837   0.00190   0.00000   0.06870   0.06823  -0.58013
   D32        2.55963   0.00104   0.00000   0.04397   0.04394   2.60356
   D33       -2.73574  -0.00427   0.00000  -0.00963  -0.01014  -2.74588
   D34        0.47225  -0.00513   0.00000  -0.03436  -0.03443   0.43781
   D35        1.47937   0.00546   0.00000   0.07648   0.07681   1.55618
   D36       -1.59583   0.00461   0.00000   0.05175   0.05252  -1.54331
   D37       -1.33294   0.00259   0.00000   0.03922   0.03881  -1.29414
   D38        0.80906  -0.00272   0.00000  -0.01910  -0.01886   0.79020
   D39        2.86451   0.00125   0.00000   0.01421   0.01438   2.87889
   D40       -0.92181  -0.00120   0.00000  -0.07854  -0.07855  -1.00036
   D41        1.24480  -0.00721   0.00000  -0.14475  -0.14479   1.10001
   D42       -2.99899  -0.00226   0.00000  -0.09880  -0.09875  -3.09774
   D43        0.08725   0.00119   0.00000   0.01383   0.01321   0.10046
   D44       -3.12053   0.00085   0.00000   0.03399   0.03461  -3.08592
         Item               Value     Threshold  Converged?
 Maximum Force            0.019781     0.000015     NO 
 RMS     Force            0.006080     0.000010     NO 
 Maximum Displacement     0.172818     0.000060     NO 
 RMS     Displacement     0.064342     0.000040     NO 
 GradGradGradGradGradGradGradGradGradGradGradGradGradGradGradGradGradGrad

                    Distance matrix (angstroms):
                    1          2          3          4          5
     1  O    0.000000
     2  C    1.412237   0.000000
     3  C    2.364526   1.531026   0.000000
     4  C    3.757122   2.543443   1.561316   0.000000
     5  O    4.249374   3.012274   2.400346   1.379268   0.000000
     6  C    2.927803   2.568845   1.562544   2.481232   3.699515
     7  O    4.199912   3.797085   2.456861   2.846458   4.041871
     8  C    2.828254   2.548672   1.547370   2.562073   2.857346
     9  O    2.515054   2.864239   2.467578   3.747676   3.935283
    10  O    4.030586   3.594167   2.359448   2.742906   2.845583
    11  H    0.970059   1.982325   3.234347   4.501821   4.850684
    12  H    2.085414   1.106052   2.156043   2.765664   3.425749
    13  H    2.088473   1.104245   2.174196   2.770217   2.702172
    14  H    4.528141   3.476303   2.176027   1.109834   2.067371
    15  H    4.031823   2.714163   2.205808   1.100982   2.021608
    16  H    4.577674   3.530919   2.697215   1.949923   0.978702
    17  H    2.554491   2.772876   2.164163   3.445432   4.526882
    18  H    3.308450   2.792238   2.185824   2.706099   4.029406
    19  H    4.382636   4.099411   2.669936   3.157535   4.121535
    20  H    1.638846   2.359855   2.478443   3.922566   4.202839
                    6          7          8          9         10
     6  C    0.000000
     7  O    1.380938   0.000000
     8  C    2.478216   2.885649   0.000000
     9  O    3.213475   3.798901   1.308549   0.000000
    10  O    3.113330   2.992987   1.207690   2.215451   0.000000
    11  H    3.847916   5.151316   3.679656   3.217233   4.874359
    12  H    2.768054   4.041102   3.494000   3.915888   4.453526
    13  H    3.524303   4.616999   2.847382   3.116253   3.761518
    14  H    2.550728   2.333564   2.847093   4.135655   2.647592
    15  H    2.826249   3.345467   3.518394   4.598890   3.829637
    16  H    3.964110   4.093942   2.606468   3.683628   2.253323
    17  H    1.112466   2.066994   2.680249   2.950037   3.507866
    18  H    1.101824   2.005644   3.447000   4.181529   4.078826
    19  H    1.981624   0.978546   2.531690   3.391414   2.397228
    20  H    3.178520   4.074426   1.918071   0.995352   3.037964
                   11         12         13         14         15
    11  H    0.000000
    12  H    2.433306   0.000000
    13  H    2.329347   1.792602   0.000000
    14  H    5.365213   3.694053   3.817928   0.000000
    15  H    4.662542   2.481769   2.981962   1.793402   0.000000
    16  H    5.232232   4.142499   3.221815   2.264158   2.841680
    17  H    3.447429   3.085935   3.796695   3.596065   3.814589
    18  H    4.096077   2.534546   3.782092   2.847666   2.600209
    19  H    5.352664   4.567951   4.809067   2.593003   3.897609
    20  H    2.264522   3.370772   2.707666   4.485950   4.587135
                   16         17         18         19         20
    16  H    0.000000
    17  H    4.717618   0.000000
    18  H    4.505485   1.804714   0.000000
    19  H    3.942882   2.400374   2.861038   0.000000
    20  H    4.165998   2.750515   3.990029   3.876285   0.000000
 Framework group  C1[X(C5H10O5)]
 Deg. of freedom    54
                         Standard orientation:                         
 ---------------------------------------------------------------------
 Center     Atomic      Atomic             Coordinates (Angstroms)
 Number     Number       Type             X           Y           Z
 ---------------------------------------------------------------------
      1          8           0       -2.360231   -0.125180   -0.490370
      2          6           0       -1.229832   -0.879274   -0.875017
      3          6           0        0.002122   -0.110397   -0.390083
      4          6           0        1.311065   -0.876290   -0.761276
      5          8           0        1.415483   -2.006017    0.023066
      6          6           0        0.136736    1.286503   -1.077175
      7          8           0        1.274515    1.969150   -0.694497
      8          6           0       -0.061273    0.175701    1.129286
      9          8           0       -1.222717    0.389375    1.692928
     10          8           0        0.986944    0.232845    1.726354
     11          1           0       -3.181840   -0.614501   -0.653271
     12          1           0       -1.171909   -0.981496   -1.974811
     13          1           0       -1.245674   -1.890403   -0.431481
     14          1           0        2.166005   -0.185637   -0.606977
     15          1           0        1.296867   -1.181592   -1.818986
     16          1           0        1.668221   -1.764831    0.937293
     17          1           0       -0.785112    1.857308   -0.828261
     18          1           0        0.191892    1.146041   -2.168616
     19          1           0        1.333316    2.107143    0.272485
     20          1           0       -1.976626    0.249114    1.058362
 ---------------------------------------------------------------------
 Rotational constants (GHZ):           1.4220200           1.1969107           1.1430752
   160 basis functions,   290 primitive gaussians,   170 cartesian basis functions
    40 alpha electrons       39 beta electrons
       nuclear repulsion energy       619.1832003519 Hartrees.
 NAtoms=   20 NActive=   20 NUniq=   20 SFac= 1.00D+00 NAtFMM=   60 NAOKFM=F Big=F
 Nuclear repulsion after empirical dispersion term =      619.1696284835 Hartrees.
   1 Symmetry operations used in ECPInt.
 ECPInt:  NShTT=    3240 NPrTT=   13040 LenC2=    3204 LenP2D=   10028.
 LDataN:  DoStor=T MaxTD1= 4 Len=   56
 Initial guess from the checkpoint file:  "26.chk"
 B after Tr=    -0.000000    0.000000    0.000000
         Rot=    0.997749    0.053737    0.039345    0.007853 Ang=   7.69 deg.
 Initial guess <Sx>= 0.0000 <Sy>= 0.0000 <Sz>= 0.5000 <S**2>= 0.7556 S= 0.5028
 ExpMin= 1.22D-01 ExpMax= 2.27D+03 ExpMxC= 3.41D+02 IAcc=3 IRadAn=         5 AccDes= 0.00D+00
 Harris functional with IExCor= 4639 and IRadAn=       5 diagonalized for initial guess.
 HarFok:  IExCor= 4639 AccDes= 0.00D+00 IRadAn=         5 IDoV= 1 UseB2=F ITyADJ=14
 ICtDFT=  3500011 ScaDFX=  1.000000  1.000000  1.000000  1.000000
 FoFCou: FMM=F IPFlag=           0 FMFlag=      100000 FMFlg1=           0
         NFxFlg=           0 DoJE=T BraDBF=F KetDBF=T FulRan=T
         wScrn=  0.000000 ICntrl=       500 IOpCl=  0 I1Cent=   200000004 NGrid=           0
         NMat0=    1 NMatS0=      1 NMatT0=    0 NMatD0=    1 NMtDS0=    0 NMtDT0=    0
 Petite list used in FoFCou.
     Minimum is close to point  4 DX=  7.25D-03 DF= -3.15D-07 DXR=  6.01D-03 DFR=  3.61D-05 which will be used.
     Accept linear search using points  1 and  2.
     Minimum is close to point  2 DX= -6.75D-03 DF= -3.90D-08 DXR=  6.80D-03 DFR=  4.62D-05 which will be used.
     Accept linear search using points  1 and  2.
     Minimum is close to point  2 DX= -7.03D-02 DF= -2.52D-06 DXR=  8.47D-02 DFR=  5.94D-03 which will be used.
     Accept linear search using points  1 and  2.
     Minimum is close to point  2 DX= -2.18D-02 DF= -1.17D-07 DXR=  2.49D-02 DFR=  4.97D-04 which will be used.
     Minimum is close to point  2 DX=  3.98D-02 DF= -2.57D-07 DXR=  4.23D-02 DFR=  1.80D-03 which will be used.
     Accept linear search using points  1 and  2.
     Accept linear search using points  1 and  2.
     Minimum is close to point  2 DX= -2.54D-03 DF= -2.61D-09 DXR=  2.55D-03 DFR=  6.51D-06 which will be used.
     Minimum is close to point  2 DX=  1.17D-04 DF=  0.00D+00 DXR=  1.17D-04 DFR=  0.00D+00 which will be used.
 SCF Done:  E(UwB97XD) =  -571.672227010     a.u. after   11 cycles
            Convg  =    0.2105D-06                    59 Fock formations.
              S**2 =  0.7556                  -V/T =  2.0077
 <Sx>= 0.0000 <Sy>= 0.0000 <Sz>= 0.5000 <S**2>= 0.7556 S= 0.5028
 <L.S>=  0.00000000000    
 Annihilation of the first spin contaminant:
 S**2 before annihilation     0.7556,   after     0.7500
   1 Symmetry operations used in ECPInt.
 ECPInt:  NShTT=    3240 NPrTT=   13040 LenC2=    3204 LenP2D=   10028.
 LDataN:  DoStor=T MaxTD1= 5 Len=  102
 Calling FoFJK, ICntrl=      2127 FMM=F ISym2X=0 I1Cent= 0 IOpClX= 1 NMat=1 NMatS=1 NMatT=0.

 GradGradGradGradGradGradGradGradGradGradGradGradGradGradGradGradGradGrad
 Using GEDIIS/GDIIS optimizer.
 FormGI is forming the generalized inverse of G from B-inverse, IUseBI=4.
 Internal  Forces:  Max     0.015839372 RMS     0.003574331
 Step number   2 out of a maximum of  104
 All quantities printed in internal units (Hartrees-Bohrs-Radians)
 Mixed Optimization -- RFO/linear search
 Trust test= 9.93D-01 RLast= 3.87D-01 DXMaxT set to 5.05D-01
 ITU=  1  0
 Use linear search instead of GDIIS.
     Eigenvalues ---    0.00230   0.00232   0.00255   0.00369   0.00925
     Eigenvalues ---    0.01375   0.01632   0.01686   0.02714   0.04082
     Eigenvalues ---    0.04786   0.05014   0.05206   0.05509   0.05662
     Eigenvalues ---    0.05927   0.06013   0.06143   0.10862   0.10969
     Eigenvalues ---    0.11521   0.13475   0.13565   0.13901   0.14506
     Eigenvalues ---    0.15630   0.15741   0.16000   0.16000   0.17531
     Eigenvalues ---    0.20608   0.22135   0.23106   0.24840   0.26465
     Eigenvalues ---    0.28095   0.28397   0.28794   0.32169   0.32949
     Eigenvalues ---    0.33018   0.33137   0.33253   0.33255   0.33596
     Eigenvalues ---    0.41985   0.43352   0.45942   0.49836   0.53410
     Eigenvalues ---    0.53635   0.54104   0.59591   1.01315
 Quartic linear search produced a step of  0.13717.
 Iteration  1 RMS(Cart)=  0.09045850 RMS(Int)=  0.00328367
 Iteration  2 RMS(Cart)=  0.00466459 RMS(Int)=  0.00058519
 Iteration  3 RMS(Cart)=  0.00001198 RMS(Int)=  0.00058513
 Iteration  4 RMS(Cart)=  0.00000000 RMS(Int)=  0.00058513
 Variable       Old X    -DE/DX   Delta X   Delta X   Delta X     New X
                                 (Linear)    (Quad)   (Total)
    R1        2.66874   0.00140  -0.00278  -0.00478  -0.00756   2.66118
    R2        1.83315   0.00087   0.00096   0.00463   0.00559   1.83874
    R3        2.89322   0.00655   0.00018   0.02419   0.02437   2.91759
    R4        2.09014  -0.00012  -0.00001  -0.00044  -0.00045   2.08968
    R5        2.08672   0.00020  -0.00024  -0.00006  -0.00030   2.08642
    R6        2.95046   0.00384   0.00536   0.03014   0.03550   2.98596
    R7        2.95278   0.00852   0.00340   0.04260   0.04600   2.99878
    R8        2.92410   0.00401   0.00210   0.02106   0.02315   2.94726
    R9        2.60644  -0.00880  -0.00554  -0.03738  -0.04292   2.56352
   R10        2.09728   0.00095   0.00197   0.00887   0.01084   2.10812
   R11        2.08055  -0.00058  -0.00077  -0.00414  -0.00491   2.07565
   R12        1.84948   0.00130   0.00245   0.01002   0.01247   1.86195
   R13        2.60959  -0.00953  -0.00425  -0.03498  -0.03923   2.57036
   R14        2.10226   0.00011   0.00114   0.00376   0.00491   2.10716
   R15        2.08215  -0.00051  -0.00053  -0.00321  -0.00374   2.07840
   R16        1.84918  -0.00032   0.00239   0.00657   0.00896   1.85814
   R17        2.47280  -0.01584  -0.00428  -0.04112  -0.04540   2.42740
   R18        2.28220   0.00384   0.00008   0.00438   0.00446   2.28666
   R19        1.88094   0.00046   0.00180   0.00642   0.00821   1.88916
    A1        1.94212   0.00015   0.00263   0.00843   0.01105   1.95318
    A2        1.86465   0.01276  -0.00764   0.04405   0.03615   1.90080
    A3        1.94131  -0.00527   0.00345  -0.02501  -0.02140   1.91991
    A4        1.94772  -0.00300   0.00105   0.00489   0.00528   1.95300
    A5        1.89570  -0.00276  -0.00042  -0.01754  -0.01776   1.87795
    A6        1.92215  -0.00266   0.00344   0.00629   0.00928   1.93143
    A7        1.89180   0.00091   0.00015  -0.01263  -0.01251   1.87928
    A8        1.93151  -0.00245   0.00534  -0.00865  -0.00330   1.92821
    A9        1.95952   0.00079   0.00361   0.02668   0.02932   1.98884
   A10        1.95077   0.00595  -0.00187   0.06841   0.06617   2.01694
   A11        1.83566  -0.00050  -0.01186  -0.07015  -0.08208   1.75358
   A12        1.93744  -0.00213   0.00745  -0.00830  -0.00334   1.93410
   A13        1.84420  -0.00206  -0.00324  -0.01634  -0.02168   1.82252
   A14        1.90717  -0.00182  -0.00764  -0.03424  -0.04228   1.86489
   A15        1.88336  -0.00323  -0.00161  -0.03077  -0.03268   1.85068
   A16        1.93223  -0.00022   0.00449   0.00576   0.01052   1.94275
   A17        1.95232   0.00289  -0.00070   0.02156   0.01931   1.97163
   A18        1.89670   0.00044   0.00380   0.01070   0.01446   1.91115
   A19        1.89237   0.00197   0.00207   0.02750   0.02940   1.92177
   A20        1.92720  -0.00194   0.00779   0.00955   0.01734   1.94454
   A21        1.97258   0.00064  -0.00093  -0.00117  -0.00224   1.97033
   A22        1.86390  -0.00303  -0.00580  -0.03760  -0.04351   1.82040
   A23        1.90279  -0.00038   0.00154  -0.00165  -0.00006   1.90272
   A24        1.94668   0.00185  -0.00099   0.01521   0.01372   1.96040
   A25        1.87159  -0.00052   0.00212   0.00058   0.00263   1.87422
   A26        1.90555   0.00149   0.00459   0.02598   0.03045   1.93599
   A27        1.97475  -0.00035   0.00766   0.01944   0.02710   2.00186
   A28        2.08231   0.00530   0.00530   0.03692   0.04153   2.12384
   A29        2.04725  -0.00560  -0.01017  -0.05439  -0.06520   1.98205
   A30        2.15280   0.00025   0.00503   0.01472   0.01897   2.17177
   A31        1.95483  -0.00721   0.00523  -0.03187  -0.02664   1.92818
    D1       -2.99965  -0.00173  -0.00129  -0.07263  -0.07418  -3.07383
    D2        1.21738  -0.00320   0.00188  -0.06425  -0.06222   1.15516
    D3       -0.89770   0.00140  -0.00134  -0.03402  -0.03526  -0.93296
    D4        3.13373   0.00194   0.00451   0.08721   0.09203  -3.05742
    D5       -1.10423   0.00022  -0.00452   0.01058   0.00547  -1.09877
    D6        0.96466   0.00219  -0.00745   0.05456   0.04790   1.01256
    D7       -1.05375   0.00138   0.00395   0.07282   0.07689  -0.97687
    D8        0.99147  -0.00034  -0.00508  -0.00381  -0.00968   0.98179
    D9        3.06036   0.00163  -0.00801   0.04017   0.03276   3.09312
   D10        1.01550  -0.00073   0.00586   0.05062   0.05647   1.07198
   D11        3.06073  -0.00245  -0.00317  -0.02602  -0.03009   3.03063
   D12       -1.15357  -0.00048  -0.00610   0.01797   0.01235  -1.14123
   D13       -1.24008  -0.00163  -0.01026  -0.06209  -0.07151  -1.31159
   D14        2.91663  -0.00207  -0.00337  -0.04902  -0.05247   2.86416
   D15        0.84830  -0.00238  -0.00745  -0.06703  -0.07406   0.77424
   D16        2.92309  -0.00093  -0.01055  -0.04673  -0.05716   2.86593
   D17        0.79662  -0.00138  -0.00366  -0.03366  -0.03813   0.75849
   D18       -1.27171  -0.00168  -0.00774  -0.05168  -0.05972  -1.33143
   D19        0.93659   0.00274  -0.00417   0.01407   0.01029   0.94688
   D20       -1.18988   0.00229   0.00272   0.02714   0.02933  -1.16056
   D21        3.02497   0.00199  -0.00136   0.00913   0.00774   3.03271
   D22       -3.09521   0.00342  -0.00689   0.03876   0.03197  -3.06324
   D23        1.04096   0.00281  -0.00067   0.04678   0.04592   1.08688
   D24       -1.01577   0.00291  -0.00378   0.03763   0.03382  -0.98195
   D25       -0.99357   0.00057  -0.00577  -0.00142  -0.00797  -1.00154
   D26       -3.14059  -0.00004   0.00044   0.00659   0.00597  -3.13461
   D27        1.08587   0.00006  -0.00266  -0.00256  -0.00613   1.07974
   D28        1.05728  -0.00300  -0.00463  -0.05029  -0.05383   1.00345
   D29       -1.08974  -0.00361   0.00158  -0.04228  -0.03988  -1.12962
   D30        3.13671  -0.00351  -0.00152  -0.05143  -0.05198   3.08474
   D31       -0.58013  -0.00234   0.00936  -0.10528  -0.09499  -0.67513
   D32        2.60356  -0.00118   0.00603  -0.03524  -0.02909   2.57448
   D33       -2.74588  -0.00193  -0.00139  -0.13806  -0.13947  -2.88535
   D34        0.43781  -0.00077  -0.00472  -0.06802  -0.07356   0.36426
   D35        1.55618   0.00077   0.01054  -0.04315  -0.03232   1.52385
   D36       -1.54331   0.00193   0.00720   0.02689   0.03359  -1.50973
   D37       -1.29414   0.00120   0.00532   0.03371   0.03915  -1.25499
   D38        0.79020  -0.00222  -0.00259  -0.01365  -0.01675   0.77345
   D39        2.87889   0.00230   0.00197   0.04082   0.04319   2.92208
   D40       -1.00036  -0.00179  -0.01077  -0.10727  -0.11796  -1.11832
   D41        1.10001  -0.00392  -0.01986  -0.14581  -0.16591   0.93410
   D42       -3.09774  -0.00135  -0.01355  -0.10489  -0.11829   3.06716
   D43        0.10046  -0.00153   0.00181  -0.02367  -0.02084   0.07962
   D44       -3.08592  -0.00290   0.00475  -0.09988  -0.09615   3.10112
         Item               Value     Threshold  Converged?
 Maximum Force            0.015839     0.000015     NO 
 RMS     Force            0.003574     0.000010     NO 
 Maximum Displacement     0.365318     0.000060     NO 
 RMS     Displacement     0.089845     0.000040     NO 
 GradGradGradGradGradGradGradGradGradGradGradGradGradGradGradGradGradGrad

                    Distance matrix (angstroms):
                    1          2          3          4          5
     1  O    0.000000
     2  C    1.408234   0.000000
     3  C    2.403312   1.543925   0.000000
     4  C    3.796614   2.566592   1.580103   0.000000
     5  O    4.285873   3.022002   2.362130   1.356556   0.000000
     6  C    3.019003   2.625110   1.586886   2.434434   3.624247
     7  O    4.281530   3.822170   2.459173   2.767829   3.909431
     8  C    2.985764   2.625667   1.559622   2.584697   2.826300
     9  O    2.798605   3.028357   2.487384   3.783702   3.952091
    10  O    4.171277   3.621842   2.324978   2.671256   2.721093
    11  H    0.973020   1.988076   3.277132   4.540657   4.913965
    12  H    2.066709   1.105811   2.153810   2.732381   3.393390
    13  H    2.088521   1.104086   2.192198   2.824371   2.762309
    14  H    4.546575   3.481599   2.171428   1.115570   2.065358
    15  H    4.026339   2.714839   2.228166   1.098386   2.010350
    16  H    4.619380   3.533658   2.644684   1.946039   0.985301
    17  H    2.649411   2.816989   2.153080   3.399985   4.452446
    18  H    3.362046   2.838649   2.205753   2.637376   3.948141
    19  H    4.508863   4.180644   2.738127   3.195371   4.100751
    20  H    1.943208   2.550895   2.485964   3.977355   4.265177
                    6          7          8          9         10
     6  C    0.000000
     7  O    1.360178   0.000000
     8  C    2.486665   2.844230   0.000000
     9  O    3.211523   3.708852   1.284523   0.000000
    10  O    3.054655   2.881272   1.210050   2.207263   0.000000
    11  H    3.926496   5.222856   3.867922   3.574873   5.049317
    12  H    2.806914   4.044659   3.544273   4.062732   4.429348
    13  H    3.576752   4.636480   2.937658   3.313059   3.811340
    14  H    2.427706   2.172668   2.827343   4.088186   2.545395
    15  H    2.804926   3.306808   3.543585   4.650840   3.759360
    16  H    3.872208   3.942143   2.534887   3.639425   2.100285
    17  H    1.115063   2.060480   2.668563   2.927196   3.466178
    18  H    1.099844   1.988396   3.456186   4.203899   4.001110
    19  H    1.983580   0.983285   2.544819   3.293325   2.386918
    20  H    3.152635   3.967144   1.883574   0.999699   3.019318
                   11         12         13         14         15
    11  H    0.000000
    12  H    2.399534   0.000000
    13  H    2.351362   1.784155   0.000000
    14  H    5.383522   3.645551   3.866774   0.000000
    15  H    4.637732   2.427111   3.001712   1.814802   0.000000
    16  H    5.311909   4.109680   3.275580   2.275396   2.847108
    17  H    3.540531   3.135808   3.836836   3.476476   3.790535
    18  H    4.126417   2.572160   3.823374   2.707610   2.554729
    19  H    5.479925   4.621897   4.901942   2.569721   3.954932
    20  H    2.662141   3.558558   2.947252   4.445134   4.664285
                   16         17         18         19         20
    16  H    0.000000
    17  H    4.617343   0.000000
    18  H    4.414968   1.824554   0.000000
    19  H    3.896428   2.362705   2.859783   0.000000
    20  H    4.164616   2.671956   4.007620   3.749157   0.000000
 Framework group  C1[X(C5H10O5)]
 Deg. of freedom    54
                         Standard orientation:                         
 ---------------------------------------------------------------------
 Center     Atomic      Atomic             Coordinates (Angstroms)
 Number     Number       Type             X           Y           Z
 ---------------------------------------------------------------------
      1          8           0       -2.490570   -0.207995   -0.324156
      2          6           0       -1.393555   -1.090677   -0.347709
      3          6           0       -0.088687   -0.269260   -0.268359
      4          6           0        1.169154   -1.214093   -0.416192
      5          8           0        1.306402   -1.873262    0.761476
      6          6           0        0.135543    0.704516   -1.501115
      7          8           0        1.334906    1.344663   -1.458388
      8          6           0        0.052740    0.650025    0.983574
      9          8           0       -0.948920    1.295293    1.463476
     10          8           0        1.194554    0.778121    1.363147
     11          1           0       -3.339211   -0.683818   -0.311164
     12          1           0       -1.378815   -1.650384   -1.301297
     13          1           0       -1.440421   -1.827789    0.472947
     14          1           0        2.032241   -0.544867   -0.643596
     15          1           0        1.029856   -1.940020   -1.228643
     16          1           0        1.628905   -1.273778    1.473816
     17          1           0       -0.724444    1.412646   -1.452740
     18          1           0        0.109247    0.117583   -2.430886
     19          1           0        1.447022    1.956758   -0.697060
     20          1           0       -1.786523    1.056039    0.972991
 ---------------------------------------------------------------------
 Rotational constants (GHZ):           1.4323989           1.1784963           1.1315004
   160 basis functions,   290 primitive gaussians,   170 cartesian basis functions
    40 alpha electrons       39 beta electrons
       nuclear repulsion energy       617.9378855947 Hartrees.
 NAtoms=   20 NActive=   20 NUniq=   20 SFac= 1.00D+00 NAtFMM=   60 NAOKFM=F Big=F
 Nuclear repulsion after empirical dispersion term =      617.9244143472 Hartrees.
   1 Symmetry operations used in ECPInt.
 ECPInt:  NShTT=    3240 NPrTT=   13040 LenC2=    3206 LenP2D=   10029.
 LDataN:  DoStor=T MaxTD1= 4 Len=   56
 Initial guess from the checkpoint file:  "26.chk"
 B after Tr=     0.000000   -0.000000   -0.000000
         Rot=    0.974897    0.215916   -0.038222    0.038674 Ang=  25.73 deg.
 Initial guess <Sx>= 0.0000 <Sy>= 0.0000 <Sz>= 0.5000 <S**2>= 0.7556 S= 0.5028
 ExpMin= 1.22D-01 ExpMax= 2.27D+03 ExpMxC= 3.41D+02 IAcc=3 IRadAn=         5 AccDes= 0.00D+00
 Harris functional with IExCor= 4639 and IRadAn=       5 diagonalized for initial guess.
 HarFok:  IExCor= 4639 AccDes= 0.00D+00 IRadAn=         5 IDoV= 1 UseB2=F ITyADJ=14
 ICtDFT=  3500011 ScaDFX=  1.000000  1.000000  1.000000  1.000000
 FoFCou: FMM=F IPFlag=           0 FMFlag=      100000 FMFlg1=           0
         NFxFlg=           0 DoJE=T BraDBF=F KetDBF=T FulRan=T
         wScrn=  0.000000 ICntrl=       500 IOpCl=  0 I1Cent=   200000004 NGrid=           0
         NMat0=    1 NMatS0=      1 NMatT0=    0 NMatD0=    1 NMtDS0=    0 NMtDT0=    0
 Petite list used in FoFCou.
     Accept linear search using points  3 and  4.
     Accept linear search using points  2 and  3.
     Minimum is close to point  2 DX=  6.10D-02 DF= -5.76D-06 DXR=  5.75D-02 DFR=  3.32D-03 which will be used.
     Accept linear search using points  1 and  2.
     Accept linear search using points  1 and  2.
     Minimum is close to point  2 DX= -4.83D-02 DF= -1.19D-06 DXR=  5.08D-02 DFR=  2.58D-03 which will be used.
     Accept linear search using points  1 and  2.
     Accept linear search using points  1 and  2.
     Accept linear search using points  1 and  2.
     Accept linear search using points  1 and  2.
     Minimum is close to point  2 DX= -9.70D-04 DF= -6.37D-10 DXR=  9.71D-04 DFR=  9.46D-07 which will be used.
     Minimum is close to point  2 DX=  8.66D-03 DF= -4.14D-10 DXR=  8.59D-03 DFR=  7.38D-05 which will be used.
 SCF Done:  E(UwB97XD) =  -571.670486481     a.u. after   14 cycles
            Convg  =    0.1516D-07                    84 Fock formations.
              S**2 =  0.7556                  -V/T =  2.0077
 <Sx>= 0.0000 <Sy>= 0.0000 <Sz>= 0.5000 <S**2>= 0.7556 S= 0.5028
 <L.S>=  0.00000000000    
 Annihilation of the first spin contaminant:
 S**2 before annihilation     0.7556,   after     0.7500
   1 Symmetry operations used in ECPInt.
 ECPInt:  NShTT=    3240 NPrTT=   13040 LenC2=    3206 LenP2D=   10029.
 LDataN:  DoStor=T MaxTD1= 5 Len=  102
 Calling FoFJK, ICntrl=      2127 FMM=F ISym2X=0 I1Cent= 0 IOpClX= 1 NMat=1 NMatS=1 NMatT=0.

 GradGradGradGradGradGradGradGradGradGradGradGradGradGradGradGradGradGrad
 Using GEDIIS/GDIIS optimizer.
 FormGI is forming the generalized inverse of G from B-inverse, IUseBI=4.
 Internal  Forces:  Max     0.024879610 RMS     0.006086427
 Step number   3 out of a maximum of  104
 All quantities printed in internal units (Hartrees-Bohrs-Radians)
 Mixed Optimization -- RFO/linear search
 Trust test=-3.20D-01 RLast= 4.62D-01 DXMaxT set to 2.52D-01
 ITU= -1  1  0
 Use linear search instead of GDIIS.
     Eigenvalues ---    0.00229   0.00236   0.00265   0.00389   0.01043
     Eigenvalues ---    0.01393   0.01593   0.01686   0.02765   0.04126
     Eigenvalues ---    0.04836   0.05015   0.05512   0.05626   0.06014
     Eigenvalues ---    0.06118   0.06180   0.07402   0.10157   0.11229
     Eigenvalues ---    0.11315   0.13281   0.13718   0.13829   0.14145
     Eigenvalues ---    0.15637   0.15964   0.16000   0.16282   0.17482
     Eigenvalues ---    0.21734   0.22309   0.23970   0.24949   0.27297
     Eigenvalues ---    0.28022   0.28470   0.29018   0.32828   0.33013
     Eigenvalues ---    0.33119   0.33240   0.33255   0.33435   0.41142
     Eigenvalues ---    0.41561   0.45605   0.46950   0.50234   0.53431
     Eigenvalues ---    0.53808   0.54321   0.64913   1.01135
 Quartic linear search produced a step of -0.61109.
 Iteration  1 RMS(Cart)=  0.09134743 RMS(Int)=  0.00384424
 Iteration  2 RMS(Cart)=  0.00540873 RMS(Int)=  0.00030025
 Iteration  3 RMS(Cart)=  0.00001677 RMS(Int)=  0.00029987
 Iteration  4 RMS(Cart)=  0.00000000 RMS(Int)=  0.00029987
 Variable       Old X    -DE/DX   Delta X   Delta X   Delta X     New X
                                 (Linear)    (Quad)   (Total)
    R1        2.66118  -0.00227   0.00462  -0.00103   0.00359   2.66477
    R2        1.83874  -0.00383  -0.00342  -0.00045  -0.00387   1.83487
    R3        2.91759  -0.01563  -0.01489   0.00058  -0.01431   2.90328
    R4        2.08968   0.00088   0.00028   0.00066   0.00094   2.09062
    R5        2.08642   0.00068   0.00018   0.00120   0.00139   2.08781
    R6        2.98596   0.00660  -0.02170   0.02546   0.00377   2.98973
    R7        2.99878   0.00655  -0.02811   0.04039   0.01228   3.01106
    R8        2.94726  -0.01022  -0.01415   0.00089  -0.01326   2.93400
    R9        2.56352   0.00206   0.02623  -0.02097   0.00526   2.56878
   R10        2.10812  -0.00185  -0.00662   0.00200  -0.00462   2.10350
   R11        2.07565   0.00078   0.00300  -0.00131   0.00169   2.07734
   R12        1.86195  -0.00164  -0.00762   0.00307  -0.00455   1.85740
   R13        2.57036   0.00175   0.02397  -0.02158   0.00239   2.57276
   R14        2.10716  -0.00130  -0.00300  -0.00037  -0.00337   2.10380
   R15        2.07840   0.00040   0.00229  -0.00137   0.00091   2.07932
   R16        1.85814  -0.00606  -0.00547  -0.00309  -0.00856   1.84958
   R17        2.42740   0.01647   0.02775  -0.01802   0.00973   2.43713
   R18        2.28666   0.00289  -0.00273   0.00487   0.00214   2.28881
   R19        1.88916  -0.00637  -0.00502  -0.00267  -0.00769   1.88146
    A1        1.95318  -0.00196  -0.00675  -0.00225  -0.00900   1.94418
    A2        1.90080  -0.02270  -0.02209   0.00957  -0.01252   1.88828
    A3        1.91991   0.00954   0.01308   0.00127   0.01426   1.93416
    A4        1.95300   0.00648  -0.00323  -0.00248  -0.00561   1.94739
    A5        1.87795   0.00661   0.01085   0.00472   0.01551   1.89346
    A6        1.93143   0.00223  -0.00567  -0.01074  -0.01629   1.91514
    A7        1.87928  -0.00159   0.00765  -0.00221   0.00553   1.88481
    A8        1.92821   0.00399   0.00202  -0.00358  -0.00155   1.92666
    A9        1.98884  -0.00148  -0.01792   0.00331  -0.01408   1.97476
   A10        2.01694  -0.00932  -0.04044   0.01697  -0.02342   1.99352
   A11        1.75358  -0.00001   0.05016  -0.01651   0.03374   1.78731
   A12        1.93410   0.00390   0.00204  -0.00190   0.00109   1.93520
   A13        1.82252   0.00430   0.01325  -0.00277   0.01151   1.83403
   A14        1.86489   0.00651   0.02584  -0.00500   0.02105   1.88594
   A15        1.85068  -0.00342   0.01997  -0.03097  -0.01109   1.83958
   A16        1.94275  -0.00344  -0.00643  -0.01340  -0.01998   1.92277
   A17        1.97163  -0.00014  -0.01180   0.02467   0.01370   1.98534
   A18        1.91115  -0.00218  -0.00884  -0.00302  -0.01165   1.89950
   A19        1.92177   0.00263  -0.01796   0.02556   0.00755   1.92932
   A20        1.94454  -0.00752  -0.01060  -0.02424  -0.03484   1.90970
   A21        1.97033   0.00414   0.00137   0.00944   0.01077   1.98110
   A22        1.82040  -0.00123   0.02659  -0.02280   0.00364   1.82404
   A23        1.90272  -0.00225   0.00004  -0.01193  -0.01190   1.89082
   A24        1.96040   0.00051  -0.00838   0.02285   0.01456   1.97496
   A25        1.87422  -0.00086  -0.00161  -0.00531  -0.00683   1.86740
   A26        1.93599  -0.00039  -0.01861   0.00715  -0.01135   1.92464
   A27        2.00186  -0.00265  -0.01656  -0.00368  -0.02024   1.98161
   A28        2.12384  -0.02488  -0.02538  -0.01326  -0.03951   2.08432
   A29        1.98205   0.02414   0.03984   0.01073   0.04970   2.03175
   A30        2.17177   0.00098  -0.01159   0.00768  -0.00479   2.16698
   A31        1.92818   0.00271   0.01628  -0.03118  -0.01490   1.91329
    D1       -3.07383   0.00329   0.04533  -0.02086   0.02457  -3.04926
    D2        1.15516   0.00319   0.03802  -0.03297   0.00499   1.16015
    D3       -0.93296  -0.00540   0.02155  -0.02943  -0.00792  -0.94088
    D4       -3.05742  -0.00445  -0.05624  -0.08183  -0.13822   3.08754
    D5       -1.09877  -0.00281  -0.00334  -0.10264  -0.10566  -1.20443
    D6        1.01256  -0.00565  -0.02927  -0.09005  -0.11960   0.89296
    D7       -0.97687  -0.00189  -0.04698  -0.07231  -0.11937  -1.09623
    D8        0.98179  -0.00025   0.00591  -0.09312  -0.08681   0.89498
    D9        3.09312  -0.00309  -0.02002  -0.08053  -0.10074   2.99237
[...]
 432397,0.03625905,-0.08127396,0.01942656,-0.02858504,-0.00060905,0.007
 63963,-0.02971093,-0.00052248,-0.00520210,0.00026229,0.00224333,-0.007
 45956,0.02702924,0.00183145,0.00045820,-0.02396616,0.67211634,0.004401
 75,-0.00118464,-0.01397032,0.00658759,-0.00322944,0.01933853,0.0008571
 9,-0.06797824,-0.01925740,0.00337233,0.00364634,0.03545711,-0.00358783
 ,-0.00114945,-0.00649946,-0.00434133,-0.00925135,-0.01364840,0.0068868
 5,0.00086328,-0.02119075,0.30221658,0.42746061,-0.00100952,-0.00043678
 ,-0.01064049,0.01188833,0.00227127,-0.01315960,0.01647635,-0.00025318,
 -0.09427548,-0.01730178,0.01562191,-0.01504465,0.00053062,-0.00370298,
 -0.00344868,0.00006876,-0.00558811,-0.04984649,-0.00776366,0.00201442,
 0.02542042,0.07503419,0.02960485,0.54700758,-0.01372782,0.00024977,0.0
 4023920,-0.01512267,0.00219290,-0.00638671,0.00049543,-0.01940993,0.00
 449364,0.00120222,-0.00184986,0.00075854,-0.00088032,0.00309517,-0.000
 29407,-0.00176171,0.00496929,-0.01342678,-0.00097683,-0.00194189,0.008
 77978,-0.23553740,-0.09591614,-0.20843836,0.54430926,-0.00183382,0.006
 74720,0.01159932,-0.00541325,0.00021575,-0.00416361,-0.01194192,0.0132
 0499,0.00769417,0.00219542,-0.00509491,-0.00741846,0.00283798,0.000672
 06,0.00319278,-0.00109671,0.00056938,-0.00201558,-0.00256943,-0.001284
 75,0.00329681,-0.09632601,-0.10883474,-0.12858136,0.24596910,0.1746512
 7,0.02196754,0.00201299,-0.01751851,0.00102294,-0.00143217,0.00515146,
 -0.02708983,-0.01537041,-0.02230743,0.00235919,-0.00328146,-0.00464522
 ,-0.00049007,0.00183924,0.00202361,-0.00189141,0.00162062,-0.00103990,
 0.00137643,0.00015748,-0.00429357,-0.14279059,-0.09110148,-0.26925710,
 0.03992980,0.06322378,0.44046192,-0.00091575,0.00166433,0.00722999,-0.
 00234873,-0.00049895,-0.00293611,0.00406154,-0.02118540,0.03576194,-0.
 00272569,-0.00069513,-0.00167293,0.00122025,0.00130495,0.00071313,0.00
 077892,0.00262534,-0.01700600,-0.00779707,-0.00461875,0.00437569,-0.29
 875027,-0.18078845,0.12694030,-0.08906776,-0.06952336,-0.00635364,0.37
 948843,-0.00107181,0.00124728,0.00548644,-0.00198727,0.00040417,-0.000
 94838,-0.01284392,-0.00491126,0.03738459,-0.00174016,-0.00069637,-0.00
 489249,0.00018516,-0.00043453,0.00276700,0.00616078,0.00785346,-0.0182
 2393,-0.00649441,-0.00571344,0.00618589,-0.18766361,-0.20991982,0.0898
 2986,-0.07312445,-0.03867691,-0.00050629,0.27196774,0.24564956,0.00059
 806,-0.00084050,-0.00112528,-0.00228109,-0.00115429,-0.00607323,0.0259
 2910,0.02659939,-0.03627936,0.00413505,0.00021511,-0.00100826,-0.00043
 911,-0.00049056,-0.00059539,0.00900933,0.00608977,-0.00037881,-0.00144
 090,-0.00305010,-0.03389227,0.11359043,0.08509603,-0.14507745,-0.00323
 910,0.00075958,0.02593445,-0.13681787,-0.10806609,0.19212452,-0.360281
 91,-0.15318944,0.10481963,-0.02598136,-0.01415828,0.00983409,-0.002232
 67,0.00293500,-0.00323225,-0.00112341,-0.00088518,0.00037920,0.0005387
 7,-0.00008689,-0.00018623,-0.00000121,-0.00008273,-0.00009045,0.000344
 84,0.00052952,-0.00000054,-0.00102227,-0.00059282,-0.00014323,0.002885
 35,0.00083768,-0.00166099,0.00052631,0.00040038,-0.00054523,0.38686585
 ,-0.18418146,-0.10207832,0.07857259,0.01397407,0.00410740,-0.00383500,
 0.00083509,-0.00027329,0.00085312,0.00035334,0.00039191,-0.00003902,-0
 .00007993,-0.00034806,0.,-0.00017543,0.00006478,0.00003086,0.00014501,
 -0.00012208,-0.00005626,0.00056562,0.00004999,-0.00010684,0.00182181,0
 .00058593,-0.00236582,-0.00015538,-0.00003248,0.00002500,0.16527182,0.
 09655947,0.14236001,0.08355851,-0.09031021,-0.02462709,-0.01192297,0.0
 0855480,-0.00366638,0.00177735,-0.00322931,-0.00092163,-0.00067154,0.0
 0051606,0.00000541,-0.00007753,-0.00002082,-0.00013655,0.00032548,0.00
 028259,0.00004696,-0.00019341,-0.00003928,-0.00193917,-0.00092245,-0.0
 0085980,0.00457184,0.00021022,-0.00386737,0.00035206,0.00036112,-0.000
 11384,-0.11601902,-0.07626870,0.08360301,-0.00279644,-0.00423316,-0.04
 018586,-0.06109130,0.01304524,0.05297944,-0.00291992,0.00670069,0.0240
 5001,0.00098739,-0.00052189,0.00072915,-0.00024844,0.00037479,-0.00027
 365,-0.00035626,-0.00089168,0.00093162,0.00043062,-0.00030999,-0.00098
 680,-0.00472625,-0.00190074,-0.00060948,0.00259347,0.00062261,-0.00071
 172,0.00034978,0.00014226,0.00188511,0.00196231,-0.00016674,-0.0010378
 4,0.06785586,-0.00089907,0.00601768,0.01470500,0.01509815,-0.07565606,
 -0.07240454,-0.00547222,0.00370137,0.01757488,0.00002481,-0.00118758,-
 0.00037946,0.00132489,-0.00017155,-0.00005772,-0.00116021,-0.00021888,
 0.00085636,0.00035724,-0.00030197,-0.00047723,-0.00248025,-0.00067012,
 0.00010030,-0.00018263,0.00011985,-0.00006358,-0.00011512,-0.00045170,
 0.00134782,-0.00062791,0.00037610,-0.00090527,-0.01263185,0.07192689,-
 0.00809466,-0.00036506,-0.01952371,0.04433690,-0.06845051,-0.28569685,
 0.00353676,-0.00142029,-0.00899458,0.00036735,0.00021521,-0.00047480,-
 0.00001149,0.00036144,0.00032759,-0.00057166,-0.00076481,0.00020660,-0
 .00029363,-0.00045083,0.00033028,-0.00054847,-0.00079379,0.00093353,0.
 00155613,0.00038065,0.00002451,0.00077360,0.00069289,-0.00080230,0.000
 55243,0.00054640,-0.00012105,-0.04091417,0.06967821,0.30992200,-0.0138
 7507,0.03213236,-0.00976137,-0.05418088,0.02987395,0.00331768,0.000920
 13,-0.02710586,-0.00286569,-0.00073493,-0.00401354,-0.00043388,-0.0005
 9152,0.00062271,0.00020920,-0.00239542,0.00079797,0.00333291,-0.001189
 18,-0.00204475,0.00030991,-0.00144158,-0.00201443,-0.00131846,0.001722
 51,0.00070947,0.00010086,0.00029437,0.00046444,-0.00011502,0.00122691,
 0.00165337,-0.00012435,0.00205232,0.00541040,0.00118141,0.07004725,0.0
 0641853,0.00031268,0.00468951,0.03117029,-0.31555837,-0.02123663,-0.00
 167729,-0.01297606,-0.00195463,0.00068092,-0.00132243,-0.00016488,0.00
 231670,-0.00004144,-0.00032958,-0.00087549,0.00125883,0.00165346,-0.00
 041537,-0.00075265,0.00027057,-0.00046891,-0.00083956,-0.00061934,-0.0
 0009453,0.00028846,0.00054624,0.00007984,0.00006124,-0.00012736,0.0002
 3056,0.00000826,0.00053474,-0.00029079,-0.00369358,-0.00010238,-0.0378
 1239,0.33326291,-0.01280753,0.02620962,-0.00222223,0.00430371,-0.02801
 068,-0.05877510,0.00006433,0.01304228,0.00209582,-0.00090172,0.0001175
 0,0.00182516,0.00029896,-0.00006021,-0.00050975,0.00087194,-0.00080666
 ,-0.00118242,0.00039199,0.00050050,-0.00005219,-0.00041726,0.00084550,
 0.00071246,0.00057068,-0.00042384,-0.00052229,0.00011938,-0.00004369,-
 0.00007843,0.00133992,-0.00016857,0.00014087,0.00300113,-0.02955492,0.
 00081816,0.00473033,0.01750382,0.05744431,-0.00173130,-0.00057531,0.00
 020620,-0.00072658,0.00320242,-0.00250713,-0.02099986,-0.00960429,0.00
 588683,-0.24316711,-0.10811913,0.04526017,0.00625629,-0.00171889,-0.00
 266718,-0.00104932,-0.00071546,0.00029547,0.00060693,-0.00090074,0.000
 51246,-0.00150215,-0.00170064,0.00093564,0.00061970,0.00034591,0.00006
 777,0.00097515,0.00029903,-0.00053681,-0.00011126,0.00009749,-0.000294
 85,0.00000507,0.00001032,0.00015657,0.00020147,0.00004443,-0.00023002,
 0.25674453,0.00199395,0.00067213,-0.00014819,0.00152049,-0.00302070,0.
 00229467,0.01831610,0.01023037,-0.00408947,-0.10895146,-0.11398457,0.0
 2773449,-0.02397299,-0.02473212,-0.00595056,-0.00013216,0.00079646,-0.
 00055314,0.00101505,-0.00349682,0.00005439,0.00026762,0.00076434,-0.00
 102928,-0.00011306,0.00016574,0.00027920,-0.00006154,-0.00001983,0.000
 62561,0.00023957,-0.00011351,0.00025470,-0.00002850,0.00007978,-0.0001
 5455,0.00036321,-0.00005445,-0.00000326,0.11885242,0.13252235,-0.00008
 458,-0.00016524,0.00030353,-0.00021555,0.00124628,0.00017240,-0.007970
 56,-0.00242954,0.00076103,0.05273718,0.02898133,-0.06899703,-0.0225226
 8,-0.02022343,0.00248325,0.00076174,-0.00004459,0.00024948,-0.00038797
 ,0.00019859,0.00012707,-0.00100381,-0.00106967,0.00029518,-0.00022293,
 0.00012998,0.00017227,0.00000520,0.00008514,-0.00005126,-0.00006403,-0
 .00008177,-0.00003095,-0.00032245,-0.00003025,0.00017043,0.00004122,-0
 .00025848,-0.00030616,-0.04647314,-0.02156880,0.06766662,0.00079305,-0
 .00027647,0.00078433,0.00003462,0.00031626,-0.00152040,-0.00213696,0.0
 1088341,-0.02585349,-0.05702294,-0.00723587,0.01133296,0.00532986,0.00
 132132,-0.00290932,0.00051345,-0.00115175,-0.00035557,-0.00001257,-0.0
 0038891,0.00036520,-0.00453835,0.00449660,0.00095396,0.00002462,-0.001
 50573,-0.00094820,0.00064880,-0.00086066,-0.00079026,-0.00002471,-0.00
 005439,0.00007676,-0.00031338,0.00029561,0.00022100,-0.00026623,-0.000
 41635,-0.00004402,0.00244241,-0.00744378,0.02597951,0.05376955,-0.0002
 8517,-0.00005028,-0.00017228,-0.00069135,0.00048409,-0.00001083,-0.000
 38147,-0.00538936,0.01786094,-0.00309542,-0.07299061,0.07230381,-0.000
 71420,0.00122573,-0.04064431,-0.00062058,0.00100813,0.00094245,-0.0001
 5229,-0.00059326,-0.00020864,0.00322480,-0.00334611,-0.00140883,0.0000
 9650,0.00113820,0.00124113,-0.00004622,0.00032646,0.00085843,-0.000049
 27,0.00004185,-0.00005590,0.00020983,0.00006827,-0.00012500,0.00014689
 ,0.00015928,-0.00043677,0.00070653,-0.00070959,0.01356184,0.00217659,0
 .07756296,0.00032774,-0.00002228,0.00055827,0.00067169,0.00001856,0.00
 013974,-0.00052154,0.00294757,-0.00593289,0.01201590,0.06815080,-0.277
 77799,-0.00119371,-0.01163512,-0.02132889,0.00009713,0.00019446,0.0001
 5620,-0.00028823,0.00016893,-0.00005396,-0.00053739,-0.00159412,0.0010
 1811,-0.00020313,0.00046870,-0.00004499,0.00029703,0.00024723,-0.00011
 468,-0.00003072,-0.00004741,0.00001200,-0.00038699,-0.00003877,0.00021
 250,-0.00032478,-0.00012395,-0.00027420,-0.00050166,0.00290211,-0.0037
 0818,-0.00858412,-0.06264316,0.30717937,0.00019523,-0.00006381,0.00001
 476,-0.00023450,0.00022795,0.00034491,0.00059437,-0.00203770,-0.000656
 04,0.00552279,-0.00916039,-0.00232748,-0.35097371,0.24131331,-0.022410
 99,0.00038076,-0.00049900,0.00004140,0.00001493,-0.00017347,-0.0000203
 0,-0.00045305,0.00026746,-0.00045206,0.00028298,0.00011448,0.00024729,
 -0.00006905,0.00005605,0.00002720,-0.00004683,0.00002687,0.00000996,-0
 .00013379,0.00020447,0.00001618,0.00015731,0.00040098,-0.00025698,0.00
 108903,-0.00184355,-0.00050027,0.00006936,-0.00067950,-0.00111919,0.34
 354212,-0.00063066,0.00005057,-0.00008896,-0.00017723,0.00008358,0.000
 41324,-0.00204939,-0.00472086,-0.00378566,0.02948903,-0.02245631,0.002
 09715,0.19933516,-0.17437832,-0.01051826,0.00185711,-0.00073808,0.0003
 4616,-0.00002132,0.00050976,-0.00009170,0.00051273,-0.00088763,0.00024
 120,-0.00044069,0.00002861,-0.00030275,-0.00017310,0.00037066,-0.00019
 351,0.00013987,0.00005945,-0.00002911,-0.00017868,0.00029654,0.0000248
 9,0.00062158,0.00045035,-0.00038900,-0.00007586,0.00110146,0.00135617,
 -0.00025320,0.00155731,0.00053080,-0.22805187,0.19910442,-0.00014730,0
 .00014807,-0.00012053,0.00016322,-0.00039891,-0.00014940,-0.00088469,-
 0.00154432,-0.00194745,0.02307110,-0.01736296,-0.00151012,-0.04984980,
 0.01094603,-0.02270037,0.00043003,-0.00042196,0.00036319,-0.00004709,0
 .00008186,-0.00000683,-0.00036629,-0.00115486,0.00052915,-0.00011644,0
 .00043329,-0.00031013,0.00015785,-0.00027027,0.00003324,0.00007075,-0.
 00000784,0.00003654,0.00010205,-0.00012838,0.00001477,0.00000122,-0.00
 007695,0.00000993,-0.00073553,-0.00005812,0.00092409,0.00091684,-0.000
 45033,-0.00035052,0.02702203,0.01043913,0.02488897,-0.00031566,-0.0001
 4878,-0.00033167,0.00070117,0.00046320,-0.00010965,0.00844017,-0.00320
 358,0.00236473,-0.00066328,-0.00119130,-0.00128734,0.00079075,-0.00092
 987,-0.00027304,-0.21874261,0.12057209,-0.04003327,-0.02979207,0.00837
 747,0.00194124,-0.00111228,-0.00090921,0.00060586,0.00062029,0.0005803
 5,0.00005622,0.00060348,-0.00017441,-0.00128867,-0.00005889,0.00000978
 ,0.00002025,0.00008605,0.00036241,0.00010541,-0.00001878,0.00004077,0.
 00003666,0.00010245,-0.00016110,0.00000794,-0.00006478,0.00010593,0.00
 002544,-0.00005141,-0.00020200,-0.00002533,0.24051655,-0.00050428,0.00
 055841,-0.00026335,0.00154366,0.00030981,0.00019457,0.02327597,-0.0157
 0147,0.00646738,-0.00358350,-0.00223538,-0.00389739,0.00188107,-0.0020
 1746,-0.00020123,0.12876111,-0.14635410,0.03201552,-0.02176980,0.01069
 249,0.00019615,-0.00096853,-0.00182156,0.00202949,0.00039449,0.0003086
 9,-0.00021262,0.00106755,0.00055560,-0.00108881,-0.00030510,0.00013666
 ,-0.00006397,-0.00024349,0.00000473,0.00018682,0.00000291,0.00010472,0
 .00007325,-0.00008703,0.00013973,0.00001556,-0.00014088,0.00018709,0.0
 0015347,-0.00026966,-0.00038726,-0.00012665,-0.12818286,0.15194210,-0.
 00000147,-0.00007905,-0.00032135,0.00007538,0.00048189,0.00051418,0.00
 973962,-0.00905834,0.00086674,-0.00134017,-0.00073637,-0.00036344,0.00
 039282,-0.00053680,0.00009246,-0.04757531,0.03573520,-0.06660307,0.021
 39728,-0.00805291,0.00118910,0.00072713,-0.00171755,0.00181528,0.00007
 401,0.00022973,-0.00013628,0.00064143,0.00114204,0.00054354,-0.0000907
 3,0.00018014,0.00005880,-0.00017763,0.00004621,-0.00006929,0.00005449,
 0.00001086,-0.00016106,0.00001804,0.00004120,-0.00013259,0.00027559,-0
 .00031622,0.00025129,0.00000793,-0.00013178,0.00001486,0.03841927,-0.0
 3342450,0.06320529,-0.00010868,-0.00030849,-0.00028131,0.00020956,-0.0
 0034807,-0.00142628,0.00150695,0.00230120,-0.00334356,0.00035061,0.000
 96922,0.00109518,-0.00022963,-0.00042423,-0.00067254,-0.05720232,0.007
 86743,-0.05826508,-0.00310685,-0.00711790,0.03441145,-0.00603252,-0.00
 638719,0.00297109,0.00244750,0.00204077,-0.00077951,0.00230930,0.00138
 894,-0.00271076,-0.00003337,-0.00009610,-0.00010008,-0.00022931,-0.000
 26538,-0.00001195,-0.00013887,-0.00002390,0.00017982,-0.00004911,-0.00
 013025,0.00020910,0.00011761,0.00024616,-0.00010589,-0.00001949,-0.000
 00445,0.00010665,-0.00137057,-0.00037731,-0.02266607,0.06358210,0.0002
 9385,0.00009060,0.00064176,0.00072180,0.00056980,-0.00151586,-0.005904
 90,-0.00354374,-0.02857188,0.00002030,0.00110682,-0.00060323,-0.000387
 66,0.00057733,0.00074110,0.01052886,-0.04235418,0.00782049,-0.00780846
 ,-0.00268682,0.02051067,0.00257866,-0.00258457,-0.00372091,-0.00238507
 ,0.00012900,-0.00127234,-0.00197974,-0.00265414,-0.00058331,-0.0000660
 7,0.00000739,0.00001841,-0.00031109,-0.00007347,0.00046980,0.00006182,
 0.00000714,0.00019455,0.00022046,0.00002547,0.00010808,0.00011507,-0.0
 0054505,0.00044446,0.00016710,0.00006781,0.00000002,0.00303066,0.00123
 597,0.01790341,0.00138463,0.05144592,0.00022557,0.00002084,0.00028784,
 0.00050203,0.00015582,-0.00049312,-0.00283228,-0.00193884,-0.01199224,
 -0.00034701,0.00104227,0.00077091,-0.00026289,0.00031085,0.00020899,-0
 .05472618,0.01029948,-0.29771825,0.01016404,0.00748383,-0.01442132,-0.
 00238409,-0.00349751,0.00275525,0.00034432,0.00058933,-0.00081976,0.00
 171868,0.00212787,0.00043507,-0.00003664,-0.00000074,0.00001546,-0.000
 10909,0.00000603,0.00048599,-0.00005104,-0.00005583,0.00025823,0.00009
 272,-0.00013466,-0.00002996,0.00038496,-0.00033235,0.00020403,0.000052
 11,-0.00002250,0.00008573,-0.00062692,-0.00097987,-0.00198737,0.047048
 59,-0.01338076,0.32398713,-0.00004470,0.00028635,-0.00012521,0.0003629
 4,-0.00157557,-0.00048740,-0.00546413,-0.00292607,0.00328780,-0.000693
 01,0.00020965,0.00023811,0.00011764,0.00069998,0.00011252,0.00214521,-
 0.03518348,0.01166421,-0.04622859,0.08935410,-0.02015983,-0.00024711,-
 0.00096387,-0.00074005,-0.00000564,0.00016179,0.00019965,-0.00039207,-
 0.00046008,0.00011795,-0.00003469,-0.00004574,-0.00003940,0.00011622,0
 .00003277,-0.00007352,-0.00039793,-0.00016909,0.00009933,0.00069624,-0
 .00005878,-0.00007437,0.00011143,0.00010690,-0.00009145,0.00010396,-0.
 00009007,-0.00002817,0.00049096,-0.00058965,0.00002754,-0.00137340,-0.
 00092203,0.00061352,0.05086551,0.00054218,-0.00010733,-0.00063927,0.00
 007147,-0.00091425,-0.00126400,-0.00092958,-0.00162898,0.00234349,0.00
 065084,0.00013257,0.00016892,-0.00037249,0.00031813,-0.00035879,0.0069
 0562,-0.00314219,0.00227670,0.04162818,-0.41617272,0.16108221,-0.00650
 653,-0.00540538,-0.00008970,0.00349883,0.00244353,0.00052942,0.0030056
 1,0.00034400,-0.00298995,-0.00027831,0.00003928,-0.00004180,0.00043986
 ,0.00024494,-0.00005117,-0.00015472,-0.00007562,0.00013121,-0.00022124
 ,-0.00020616,0.00024550,-0.00022013,0.00019915,-0.00006353,0.00007907,
 -0.00016896,0.00001955,0.00160267,0.00246161,-0.00156193,-0.00062129,-
 0.00071748,-0.00171538,-0.04770279,0.42263484,-0.00009507,0.00016068,0
 .00043112,0.00054218,0.00037322,0.00069331,-0.00196493,-0.00696834,-0.
 00260823,-0.00034118,-0.00014478,0.00017308,-0.00003791,0.00002190,0.0
 0022348,-0.00644419,0.01654318,-0.00682053,-0.00208157,0.14967073,-0.0
 6795216,0.00438721,0.00298042,-0.00119064,-0.00235752,-0.00118566,0.00
 045598,-0.00103280,-0.00212655,0.00505019,0.00010557,-0.00000527,0.000
 02499,-0.00019528,-0.00020344,0.00020209,0.00001187,-0.00006594,0.0000
 7092,-0.00010737,-0.00002348,0.00004171,0.00008405,-0.00008419,0.00014
 625,-0.00004675,0.00007608,0.00003422,0.00013604,-0.00104684,0.0011760
 7,0.00338593,0.00123885,-0.00204967,0.00536587,-0.15931322,0.07275512,
 -0.01205732,-0.00427130,-0.01654211,0.01562665,-0.00235167,-0.00013485
 ,0.00284199,0.00370148,-0.00293889,-0.00116735,-0.00019880,0.00022895,
 0.00037307,-0.00117482,0.00101442,0.00218871,-0.00034750,0.00243847,-0
 .00040459,0.00102402,0.00050221,-0.05165038,-0.02998370,0.00137149,-0.
 20012318,-0.06620532,0.11538829,0.01081007,0.00535601,-0.00508741,-0.0
 0339776,0.00020090,0.00146309,-0.00362400,0.00071355,-0.00228420,-0.00
 139189,0.00086108,-0.00135064,-0.00040256,0.00032876,0.00010046,0.0005
 2517,-0.00030467,0.00045389,0.00002899,0.00039302,0.00015891,-0.000161
 53,0.00009533,0.00000085,-0.00062952,0.00064180,0.00022960,-0.00012885
 ,-0.00141725,0.00068585,0.24274428,-0.00151785,-0.01134013,-0.00716028
 ,0.00089387,0.00266446,0.00255701,0.00293610,-0.00203776,-0.00080990,-
 0.00048010,0.00148202,0.00152649,-0.00055948,-0.00094971,-0.00037151,-
 0.00017203,0.00001525,-0.00027426,-0.00039279,0.00027468,-0.00024762,-
 0.02504225,-0.01568196,0.00382403,-0.06682962,-0.04737732,0.04445883,-
 0.00187421,0.00669808,-0.00303227,-0.00026239,0.00053929,0.00411211,0.
 00017334,-0.00041124,0.00012207,0.00028460,-0.00059967,0.00127939,-0.0
 0006043,-0.00016007,-0.00005668,0.00034326,-0.00033423,-0.00005873,-0.
 00007880,0.00005690,-0.00006640,-0.00004223,-0.00012039,-0.00015524,-0
 .00009378,-0.00010382,0.00002211,-0.00016432,-0.00027897,0.00010265,0.
 09293910,0.06766458,-0.00758091,0.00203298,0.00933932,-0.01574728,0.00
 167703,-0.01607927,-0.00386177,-0.00442081,0.00353322,0.00069839,0.000
 62744,-0.00008053,0.00043867,0.00038987,-0.00123487,-0.00205915,-0.000
 42670,-0.00312809,0.00075885,-0.00065900,0.00095169,-0.00754627,0.0030
 9532,0.02231343,0.13336709,0.05158019,-0.14946164,-0.01326693,-0.01123
 237,0.00146953,0.00499848,0.00277512,0.00534751,0.00223244,-0.00007124
 ,0.00203413,0.00170348,-0.00009325,0.00070797,0.00062181,-0.00047285,-
 0.00011095,-0.00036977,0.00012023,-0.00029146,0.00000630,0.00002841,0.
 00016067,0.00025683,-0.00002698,0.00004685,0.00095524,-0.00044332,0.00
 001704,0.00009289,0.00129174,-0.00085731,-0.09569839,-0.04577181,0.125
 32276\\0.00000130,-0.00000035,0.00000102,-0.00000146,0.00000058,-0.000
 00169,0.00000097,-0.00000004,0.00000082,-0.00000107,0.00000130,0.00000
 052,0.00000114,-0.00000033,0.00000037,-0.00000058,0.00000109,0.0000001
 2,-0.00000102,-0.00000067,-0.00000006,-0.00000050,-0.00000044,-0.00000
 216,-0.00000170,-0.00000113,0.00000267,-0.00000040,-0.00000038,0.00000
 059,-0.00000004,-0.00000066,0.00000038,0.00000029,0.00000015,0.0000005
 2,0.00000021,-0.00000021,0.00000077,0.00000032,0.00000043,-0.00000022,
 0.00000030,0.00000066,0.00000014,0.00000026,-0.00000050,-0.00000002,-0
 .00000006,0.00000014,-0.00000100,0.00000027,-0.00000011,-0.00000036,-0
 .00000035,0.00000038,-0.00000060,0.00000211,0.00000008,-0.00000180\\\@


 WHEN ALL ELSE FAILS, LOOK AT THE SCHRODINGER EQUATION.
     -- RUSSELL T. PACK, APRIL 1978
 Job cpu time:       0 days  0 hours 14 minutes 52.1 seconds.
 Elapsed time:       0 days  0 hours  3 minutes 44.3 seconds.
 File lengths (MBytes):  RWF=    133 Int=      0 D2E=      0 Chk=      4 Scr=      1
 Normal termination of Gaussian 16 at Mon Jul 10 20:38:41 2023.
real 4807.28
user 17702.07
sys 48.84
