 Entering Gaussian System, Link 0=g16
 Input=gaussian_test.inp
 Output=gaussian_test.log
 Initial command:
 /sw/restricted/lms/sw/Gaussian/g16_B01/g16/l1.exe "/scratch/user/peterchao1/peterchao1/9982556_1711744428000000252248833/Gau-11618.inp" -scrdir="/scratch/user/peterchao1/peterchao1/9982556_1711744428000000252248833/"
 Entering Link 1 = /sw/restricted/lms/sw/Gaussian/g16_B01/g16/l1.exe PID=     11625.
  
 Copyright (c) 1988-2017, Gaussian, Inc.  All Rights Reserved.
  
 This is part of the Gaussian(R) 16 program.  It is based on
 the Gaussian(R) 09 system (copyright 2009, Gaussian, Inc.),
 the Gaussian(R) 03 system (copyright 2003, Gaussian, Inc.),
 the Gaussian(R) 98 system (copyright 1998, Gaussian, Inc.),
 the Gaussian(R) 94 system (copyright 1995, Gaussian, Inc.),
 the Gaussian 92(TM) system (copyright 1992, Gaussian, Inc.),
 the Gaussian 90(TM) system (copyright 1990, Gaussian, Inc.),
 the Gaussian 88(TM) system (copyright 1988, Gaussian, Inc.),
 the Gaussian 86(TM) system (copyright 1986, Carnegie Mellon
 University), and the Gaussian 82(TM) system (copyright 1983,
 Carnegie Mellon University). Gaussian is a federally registered
 trademark of Gaussian, Inc.
  
 This software contains proprietary and confidential information,
 including trade secrets, belonging to Gaussian, Inc.
  
 This software is provided under written license and may be
 used, copied, transmitted, or stored only in accord with that
 written license.
  
 The following legend is applicable only to US Government
 contracts under FAR:
  
                    RESTRICTED RIGHTS LEGEND
  
 Use, reproduction and disclosure by the US Government is
 subject to restrictions as set forth in subparagraphs (a)
 and (c) of the Commercial Computer Software - Restricted
 Rights clause in FAR 52.227-19.
  
 Gaussian, Inc.
 340 Quinnipiac St., Bldg. 40, Wallingford CT 06492
  
  
 ---------------------------------------------------------------
 Warning -- This program may not be used in any manner that
 competes with the business of Gaussian, Inc. or will provide
 assistance to any competitor of Gaussian, Inc.  The licensee
 of this program is prohibited from giving any competitor of
 Gaussian, Inc. access to this program.  By using this program,
 the user acknowledges that Gaussian, Inc. is engaged in the
 business of creating and licensing software in the field of
 computational chemistry and represents and warrants to the
 licensee that it is not a competitor of Gaussian, Inc. and that
 it will not use this program in any manner prohibited above.
 ---------------------------------------------------------------
  

 Cite this work as:
 Gaussian 16, Revision B.01,
 M. J. Frisch, G. W. Trucks, H. B. Schlegel, G. E. Scuseria, 
 M. A. Robb, J. R. Cheeseman, G. Scalmani, V. Barone, 
 G. A. Petersson, H. Nakatsuji, X. Li, M. Caricato, A. V. Marenich, 
 J. Bloino, B. G. Janesko, R. Gomperts, B. Mennucci, H. P. Hratchian, 
 J. V. Ortiz, A. F. Izmaylov, J. L. Sonnenberg, D. Williams-Young, 
 F. Ding, F. Lipparini, F. Egidi, J. Goings, B. Peng, A. Petrone, 
 T. Henderson, D. Ranasinghe, V. G. Zakrzewski, J. Gao, N. Rega, 
 G. Zheng, W. Liang, M. Hada, M. Ehara, K. Toyota, R. Fukuda, 
 J. Hasegawa, M. Ishida, T. Nakajima, Y. Honda, O. Kitao, H. Nakai, 
 T. Vreven, K. Throssell, J. A. Montgomery, Jr., J. E. Peralta, 
 F. Ogliaro, M. J. Bearpark, J. J. Heyd, E. N. Brothers, K. N. Kudin, 
 V. N. Staroverov, T. A. Keith, R. Kobayashi, J. Normand, 
 K. Raghavachari, A. P. Rendell, J. C. Burant, S. S. Iyengar, 
 J. Tomasi, M. Cossi, J. M. Millam, M. Klene, C. Adamo, R. Cammi, 
 J. W. Ochterski, R. L. Martin, K. Morokuma, O. Farkas, 
 J. B. Foresman, and D. J. Fox, Gaussian, Inc., Wallingford CT, 2016.
 
 ******************************************
 Gaussian 16:  ES64L-G16RevB.01 20-Dec-2017
                29-Mar-2024 
 ******************************************
 %nprocshared=4
 Will use up to    4 processors via shared memory.
 %mem=8000mb
 %chk=monomer.chk
 %nprocshared=4
 Will use up to    4 processors via shared memory.
 %mem=8000mb
 ----------------------------------------------------------------------
 #T wB97XD/def2svpp opt=tight freq int(grid=ultrafine) scf=(verytight,q
 c) Volume=tight
 ----------------------------------------------------------------------
 -------
 Monomer
 -------
 Symbolic Z-matrix:
 Charge =  0 Multiplicity = 1
 O                    -0.86766   1.82955   1.65638 
 C                    -0.02245   0.77748   1.26409 
 C                     0.04707   0.58814  -0.27069 
 C                     0.71754   1.83252  -0.90727 
 O                    -0.04232   2.99399  -0.75317 
 C                     0.82284  -0.68037  -0.60567 
 Br                    2.6433   -0.67037   0.08581 
 C                    -1.34718   0.48615  -0.88891 
 Br                   -2.48515  -0.85351  -0.03174 
 H                    -1.78266   1.52572   1.6503 
 H                    -0.32132  -0.16545   1.73855 
 H                     0.97234   1.04114   1.63488 
 H                     0.82988   1.68486  -1.98644 
 H                     1.71857   1.95672  -0.47041 
 H                    -0.21058   3.12074   0.19399 
 H                     0.91438  -0.81019  -1.68446 
 H                     0.34333  -1.5583   -0.17056 
 H                    -1.28582   0.20665  -1.94038 
 H                    -1.86605   1.44138  -0.80495 
 

 GradGradGradGradGradGradGradGradGradGradGradGradGradGradGradGradGradGrad
 Initialization pass.
                           ----------------------------
                           !    Initial Parameters    !
                           ! (Angstroms and Degrees)  !
 --------------------------                            --------------------------
 ! Name  Definition              Value          Derivative Info.                !
 --------------------------------------------------------------------------------
 ! R1    R(1,2)                  1.4054         estimate D2E/DX2                !
 ! R2    R(1,10)                 0.9641         estimate D2E/DX2                !
 ! R3    R(2,3)                  1.548          estimate D2E/DX2                !
 ! R4    R(2,11)                 1.0971         estimate D2E/DX2                !
 ! R5    R(2,12)                 1.0939         estimate D2E/DX2                !
 ! R6    R(3,4)                  1.5502         estimate D2E/DX2                !
 ! R7    R(3,6)                  1.5242         estimate D2E/DX2                !
 ! R8    R(3,8)                  1.5286         estimate D2E/DX2                !
 ! R9    R(4,5)                  1.3965         estimate D2E/DX2                !
 ! R10   R(4,13)                 1.095          estimate D2E/DX2                !
 ! R11   R(4,14)                 1.0992         estimate D2E/DX2                !
 ! R12   R(5,15)                 0.9703         estimate D2E/DX2                !
 ! R13   R(6,7)                  1.9474         estimate D2E/DX2                !
 ! R14   R(6,16)                 1.0904         estimate D2E/DX2                !
 ! R15   R(6,17)                 1.0909         estimate D2E/DX2                !
 ! R16   R(8,9)                  1.9556         estimate D2E/DX2                !
 ! R17   R(8,18)                 1.0897         estimate D2E/DX2                !
 ! R18   R(8,19)                 1.0903         estimate D2E/DX2                !
 ! A1    A(2,1,10)             109.4565         estimate D2E/DX2                !
 ! A2    A(1,2,3)              113.2862         estimate D2E/DX2                !
 ! A3    A(1,2,11)             111.0298         estimate D2E/DX2                !
 ! A4    A(1,2,12)             105.7758         estimate D2E/DX2                !
 ! A5    A(3,2,11)             109.6273         estimate D2E/DX2                !
 ! A6    A(3,2,12)             108.9481         estimate D2E/DX2                !
 ! A7    A(11,2,12)            107.9581         estimate D2E/DX2                !
 ! A8    A(2,3,4)              109.1702         estimate D2E/DX2                !
 ! A9    A(2,3,6)              110.0327         estimate D2E/DX2                !
 ! A10   A(2,3,8)              111.6043         estimate D2E/DX2                !
 ! A11   A(4,3,6)              110.9574         estimate D2E/DX2                !
 ! A12   A(4,3,8)              106.3782         estimate D2E/DX2                !
 ! A13   A(6,3,8)              108.6522         estimate D2E/DX2                !
 ! A14   A(3,4,5)              112.7661         estimate D2E/DX2                !
 ! A15   A(3,4,13)             109.9269         estimate D2E/DX2                !
 ! A16   A(3,4,14)             108.7453         estimate D2E/DX2                !
 ! A17   A(5,4,13)             106.0655         estimate D2E/DX2                !
 ! A18   A(5,4,14)             110.9577         estimate D2E/DX2                !
 ! A19   A(13,4,14)            108.2693         estimate D2E/DX2                !
 ! A20   A(4,5,15)             108.1027         estimate D2E/DX2                !
 ! A21   A(3,6,7)              113.1713         estimate D2E/DX2                !
 ! A22   A(3,6,16)             111.0542         estimate D2E/DX2                !
 ! A23   A(3,6,17)             111.0023         estimate D2E/DX2                !
 ! A24   A(7,6,16)             105.8681         estimate D2E/DX2                !
 ! A25   A(7,6,17)             105.8676         estimate D2E/DX2                !
 ! A26   A(16,6,17)            109.615          estimate D2E/DX2                !
 ! A27   A(3,8,9)              113.5287         estimate D2E/DX2                !
 ! A28   A(3,8,18)             110.8552         estimate D2E/DX2                !
 ! A29   A(3,8,19)             110.1498         estimate D2E/DX2                !
 ! A30   A(9,8,18)             106.2597         estimate D2E/DX2                !
 ! A31   A(9,8,19)             106.8277         estimate D2E/DX2                !
 ! A32   A(18,8,19)            109.0145         estimate D2E/DX2                !
 ! D1    D(10,1,2,3)            81.1088         estimate D2E/DX2                !
 ! D2    D(10,1,2,11)          -42.757          estimate D2E/DX2                !
 ! D3    D(10,1,2,12)         -159.6206         estimate D2E/DX2                !
 ! D4    D(1,2,3,4)             65.7762         estimate D2E/DX2                !
 ! D5    D(1,2,3,6)           -172.2306         estimate D2E/DX2                !
 ! D6    D(1,2,3,8)            -51.5312         estimate D2E/DX2                !
 ! D7    D(11,2,3,4)          -169.5949         estimate D2E/DX2                !
 ! D8    D(11,2,3,6)           -47.6016         estimate D2E/DX2                !
 ! D9    D(11,2,3,8)            73.0978         estimate D2E/DX2                !
 ! D10   D(12,2,3,4)           -51.656          estimate D2E/DX2                !
 ! D11   D(12,2,3,6)            70.3372         estimate D2E/DX2                !
 ! D12   D(12,2,3,8)          -168.9634         estimate D2E/DX2                !
 ! D13   D(2,3,4,5)            -65.394          estimate D2E/DX2                !
 ! D14   D(2,3,4,13)           176.4827         estimate D2E/DX2                !
 ! D15   D(2,3,4,14)            58.1135         estimate D2E/DX2                !
 ! D16   D(6,3,4,5)            173.1721         estimate D2E/DX2                !
 ! D17   D(6,3,4,13)            55.0488         estimate D2E/DX2                !
 ! D18   D(6,3,4,14)           -63.3204         estimate D2E/DX2                !
 ! D19   D(8,3,4,5)             55.1682         estimate D2E/DX2                !
 ! D20   D(8,3,4,13)           -62.9551         estimate D2E/DX2                !
 ! D21   D(8,3,4,14)           178.6756         estimate D2E/DX2                !
 ! D22   D(2,3,6,7)            -58.9498         estimate D2E/DX2                !
 ! D23   D(2,3,6,16)          -177.8609         estimate D2E/DX2                !
 ! D24   D(2,3,6,17)            59.9243         estimate D2E/DX2                !
 ! D25   D(4,3,6,7)             61.9765         estimate D2E/DX2                !
 ! D26   D(4,3,6,16)           -56.9346         estimate D2E/DX2                !
 ! D27   D(4,3,6,17)          -179.1494         estimate D2E/DX2                !
 ! D28   D(8,3,6,7)            178.5904         estimate D2E/DX2                !
 ! D29   D(8,3,6,16)            59.6793         estimate D2E/DX2                !
 ! D30   D(8,3,6,17)           -62.5355         estimate D2E/DX2                !
 ! D31   D(2,3,8,9)            -52.0779         estimate D2E/DX2                !
 ! D32   D(2,3,8,18)          -171.5939         estimate D2E/DX2                !
 ! D33   D(2,3,8,19)            67.6643         estimate D2E/DX2                !
 ! D34   D(4,3,8,9)           -171.0586         estimate D2E/DX2                !
 ! D35   D(4,3,8,18)            69.4254         estimate D2E/DX2                !
 ! D36   D(4,3,8,19)           -51.3164         estimate D2E/DX2                !
 ! D37   D(6,3,8,9)             69.4249         estimate D2E/DX2                !
 ! D38   D(6,3,8,18)           -50.0911         estimate D2E/DX2                !
 ! D39   D(6,3,8,19)          -170.8329         estimate D2E/DX2                !
 ! D40   D(3,4,5,15)            55.9119         estimate D2E/DX2                !
 ! D41   D(13,4,5,15)          176.2761         estimate D2E/DX2                !
 ! D42   D(14,4,5,15)          -66.3603         estimate D2E/DX2                !
 --------------------------------------------------------------------------------
 Number of steps in this run=    102 maximum allowed number of steps=    114.
 GradGradGradGradGradGradGradGradGradGradGradGradGradGradGradGradGradGrad

                    Distance matrix (angstroms):
                    1          2          3          4          5
     1  O    0.000000
     2  C    1.405397   0.000000
     3  C    2.468083   1.547974   0.000000
     4  C    3.014166   2.524972   1.550238   0.000000
     5  O    2.800542   2.997102   2.455373   1.396476   0.000000
     6  C    3.778149   2.517112   1.524192   2.533114   3.777719
     7  Br   4.587281   3.254350   2.907117   3.310464   4.619946
     8  C    2.917733   2.544638   1.528570   2.464981   2.830258
     9  Br   3.558766   3.225556   2.923628   4.270660   4.614228
    10  H    0.964136   1.951249   2.813744   3.589746   3.310773
    11  H    2.070091   1.097071   2.177308   3.474406   4.033431
    12  H    2.001920   1.093897   2.166223   2.674641   3.247444
    13  H    4.021531   3.480762   2.181595   1.095000   1.998876
    14  H    3.350828   2.725850   2.169521   1.099241   2.063152
    15  H    2.058522   2.582896   2.587729   1.932276   0.970302
    16  H    4.615749   3.477394   2.169404   2.761647   4.031671
    17  H    4.035068   2.765482   2.169107   3.490049   4.605594
    18  H    3.968039   3.491498   2.170252   2.779252   3.274910
    19  H    2.684330   2.849661   2.161820   2.615033   2.395678
                    6          7          8          9         10
     6  C    0.000000
     7  Br   1.947386   0.000000
     8  C    2.479911   4.267491   0.000000
     9  Br   3.361872   5.133064   1.955603   0.000000
    10  H    4.092051   5.182618   2.778116   2.997247   0.000000
    11  H    2.658880   3.431541   2.894909   2.879151   2.236821
    12  H    2.829493   2.849731   3.472419   4.280373   2.797337
    13  H    2.738769   3.623500   2.716811   4.610158   4.480681
    14  H    2.788353   2.840090   3.425868   5.075543   4.116040
    15  H    4.019433   4.746449   3.066857   4.584677   2.671391
    16  H    1.090414   2.478410   2.725446   3.780237   4.883762
    17  H    1.090877   2.478707   2.748384   2.918276   4.164922
    18  H    2.648525   4.506944   1.089710   2.491024   3.857427
    19  H    3.430982   5.058370   1.090294   2.499527   2.458117
                   11         12         13         14         15
    11  H    0.000000
    12  H    1.772060   0.000000
    13  H    4.315605   3.680838   0.000000
    14  H    3.680263   2.413998   1.778206   0.000000
    15  H    3.632764   2.792878   2.810439   2.349037   0.000000
    16  H    3.695895   3.801154   2.514679   3.126733   4.499591
    17  H    2.454893   3.226820   3.748628   3.786372   4.725793
    18  H    3.821416   4.310235   2.581361   3.774911   3.768766
    19  H    3.381938   3.764231   2.953507   3.636895   2.561002
                   16         17         18         19
    16  H    0.000000
    17  H    1.782595   0.000000
    18  H    2.437287   2.983527   0.000000
    19  H    3.684276   3.779138   1.774935   0.000000
 Framework group  C1[X(C5H10Br2O2)]
 Deg. of freedom    51
                         Standard orientation:                         
 ---------------------------------------------------------------------
 Center     Atomic      Atomic             Coordinates (Angstroms)
 Number     Number       Type             X           Y           Z
 ---------------------------------------------------------------------
      1          8           0       -0.882757    1.734874    1.654824
      2          6           0       -0.026619    0.688526    1.270995
      3          6           0        0.053461    0.494713   -0.262709
      4          6           0        0.717393    1.742473   -0.899518
      5          8           0       -0.052893    2.898134   -0.753742
      6          6           0        0.841598   -0.768455   -0.588913
      7         35           0        2.657821   -0.741154    0.113155
      8          6           0       -1.336248    0.379178   -0.888718
      9         35           0       -2.468169   -0.966984   -0.033740
     10          1           0       -1.795166    1.423492    1.644410
     11          1           0       -0.320504   -0.255272    1.746854
     12          1           0        0.963774    0.961608    1.646705
     13          1           0        0.837274    1.592188   -1.977510
     14          1           0        1.714785    1.876373   -0.457238
     15          1           0       -0.227747    3.026612    0.191989
     16          1           0        0.940538   -0.901072   -1.666700
     17          1           0        0.366787   -1.648873   -0.153674
     18          1           0       -1.266424    0.096732   -1.938868
     19          1           0       -1.863446    1.330368   -0.810993
 ---------------------------------------------------------------------
 Rotational constants (GHZ):           1.0257423           0.4147239           0.3423275
   182 basis functions,   375 primitive gaussians,   195 cartesian basis functions
    63 alpha electrons       63 beta electrons
       nuclear repulsion energy      1077.2054034686 Hartrees.
 NAtoms=   19 NActive=   19 NUniq=   19 SFac= 1.00D+00 NAtFMM=   60 NAOKFM=F Big=F
 Nuclear repulsion after empirical dispersion term =     1077.1898996593 Hartrees.
   1 Symmetry operations used in ECPInt.
 ECPInt:  NShTT=    3741 NPrTT=   17221 LenC2=    3602 LenP2D=   12230.
 LDataN:  DoStor=T MaxTD1= 4 Len=   56
 ExpMin= 1.22D-01 ExpMax= 1.13D+05 ExpMxC= 1.70D+04 IAcc=3 IRadAn=         5 AccDes= 0.00D+00
 Harris functional with IExCor= 4639 and IRadAn=       5 diagonalized for initial guess.
 HarFok:  IExCor= 4639 AccDes= 0.00D+00 IRadAn=         5 IDoV= 1 UseB2=F ITyADJ=14
 ICtDFT=  3500011 ScaDFX=  1.000000  1.000000  1.000000  1.000000
 FoFCou: FMM=F IPFlag=           0 FMFlag=      100000 FMFlg1=           0
         NFxFlg=           0 DoJE=T BraDBF=F KetDBF=T FulRan=T
         wScrn=  0.000000 ICntrl=       500 IOpCl=  0 I1Cent=   200000004 NGrid=           0
         NMat0=    1 NMatS0=      1 NMatT0=    0 NMatD0=    1 NMtDS0=    0 NMtDT0=    0
 Petite list used in FoFCou.
     Accept linear search using points  2 and  3.
     Accept linear search using points  1 and  2.
     Accept linear search using points  2 and  3.
     Accept linear search using points  1 and  2.
     Minimum is close to point  2 DX= -1.25D-04 DF=  0.00D+00 DXR=  1.25D-04 DFR=  0.00D+00 which will be used.
 SCF Done:  E(RwB97XD) =  -5494.41085110     a.u. after    8 cycles
            Convg  =    0.2415D-09                    36 Fock formations.
              S**2 =  0.0000                  -V/T =  2.0016

 **********************************************************************

            Population analysis using the SCF Density.

 **********************************************************************

 Orbital symmetries:
       Occupied  (A) (A) (A) (A) (A) (A) (A) (A) (A) (A) (A) (A)
                 (A) (A) (A) (A) (A) (A) (A) (A) (A) (A) (A) (A)
                 (A) (A) (A) (A) (A) (A) (A) (A) (A) (A) (A) (A)
                 (A) (A) (A) (A) (A) (A) (A) (A) (A) (A) (A) (A)
                 (A) (A) (A) (A) (A) (A) (A) (A) (A) (A) (A) (A)
                 (A) (A) (A)
       Virtual   (A) (A) (A) (A) (A) (A) (A) (A) (A) (A) (A) (A)
                 (A) (A) (A) (A) (A) (A) (A) (A) (A) (A) (A) (A)
                 (A) (A) (A) (A) (A) (A) (A) (A) (A) (A) (A) (A)
                 (A) (A) (A) (A) (A) (A) (A) (A) (A) (A) (A) (A)
                 (A) (A) (A) (A) (A) (A) (A) (A) (A) (A) (A) (A)
                 (A) (A) (A) (A) (A) (A) (A) (A) (A) (A) (A) (A)
                 (A) (A) (A) (A) (A) (A) (A) (A) (A) (A) (A) (A)
                 (A) (A) (A) (A) (A) (A) (A) (A) (A) (A) (A) (A)
                 (A) (A) (A) (A) (A) (A) (A) (A) (A) (A) (A) (A)
                 (A) (A) (A) (A) (A) (A) (A) (A) (A) (A) (A)
 The electronic state is 1-A.
 Alpha  occ. eigenvalues -- -483.06655-483.05878 -62.64866 -62.64096 -56.45627
 Alpha  occ. eigenvalues --  -56.45281 -56.45276 -56.44866 -56.44505 -56.44499
 Alpha  occ. eigenvalues --  -19.27771 -19.24838 -10.36139 -10.36049 -10.35443
 Alpha  occ. eigenvalues --  -10.34742 -10.33928  -8.81808  -8.81045  -6.64317
 Alpha  occ. eigenvalues --   -6.63593  -6.63061  -6.63042  -6.62281  -6.62257
 Alpha  occ. eigenvalues --   -2.74687  -2.74334  -2.74319  -2.73956  -2.73589
 Alpha  occ. eigenvalues --   -2.73569  -2.73318  -2.73317  -2.72524  -2.72524
 Alpha  occ. eigenvalues --   -1.14405  -1.11582  -0.96622  -0.91312  -0.86732
 Alpha  occ. eigenvalues --   -0.79293  -0.77200  -0.76365  -0.67121  -0.64131
 Alpha  occ. eigenvalues --   -0.60043  -0.58534  -0.56349  -0.55303  -0.52591
 Alpha  occ. eigenvalues --   -0.52063  -0.50367  -0.48870  -0.46467  -0.45377
 Alpha  occ. eigenvalues --   -0.44677  -0.41845  -0.39413  -0.37902  -0.37165
 Alpha  occ. eigenvalues --   -0.36564  -0.36119  -0.34830
 Alpha virt. eigenvalues --    0.06399   0.07250   0.12099   0.13449   0.16229
 Alpha virt. eigenvalues --    0.16436   0.19041   0.19722   0.20829   0.21289
 Alpha virt. eigenvalues --    0.22329   0.24009   0.25729   0.27557   0.28410
 Alpha virt. eigenvalues --    0.29611   0.31564   0.31885   0.42208   0.44948
 Alpha virt. eigenvalues --    0.45169   0.48030   0.49397   0.50759   0.53656
 Alpha virt. eigenvalues --    0.55273   0.56366   0.57137   0.57159   0.58706
 Alpha virt. eigenvalues --    0.61636   0.62828   0.64021   0.64678   0.64968
 Alpha virt. eigenvalues --    0.65492   0.67502   0.68131   0.69563   0.70737
 Alpha virt. eigenvalues --    0.71013   0.72004   0.74025   0.74769   0.75483
 Alpha virt. eigenvalues --    0.76867   0.77671   0.77912   0.79126   0.80589
 Alpha virt. eigenvalues --    0.80832   0.82457   0.83079   0.83494   0.86215
 Alpha virt. eigenvalues --    0.88773   0.94064   0.97193   0.98919   1.03411
 Alpha virt. eigenvalues --    1.07255   1.10019   1.11293   1.13994   1.15913
 Alpha virt. eigenvalues --    1.19370   1.20606   1.24151   1.24496   1.27819
 Alpha virt. eigenvalues --    1.35116   1.39539   1.51487   1.56367   1.62402
 Alpha virt. eigenvalues --    1.67297   1.76347   1.77741   1.81671   1.87506
 Alpha virt. eigenvalues --    1.88173   1.92134   2.03139   2.05738   2.06779
 Alpha virt. eigenvalues --    2.08158   2.09444   2.15896   2.18078   2.19873
 Alpha virt. eigenvalues --    2.22096   2.24401   2.25582   2.27947   2.52542
 Alpha virt. eigenvalues --    2.56021   2.66233   2.68844   2.71554   2.72495
 Alpha virt. eigenvalues --    2.76979   2.89591   2.93810   3.03599   3.07835
 Alpha virt. eigenvalues --    3.09000   3.11336   3.44662   3.47741   3.54315
 Alpha virt. eigenvalues --    3.55219   3.56005   3.56703   3.62462   3.64197
 Alpha virt. eigenvalues --    3.65240   3.66341   3.87918   3.88372
          Condensed to atoms (all electrons):
 Mulliken charges:
               1
     1  O   -0.498516
     2  C    0.049085
     3  C   -0.321051
     4  C    0.095913
     5  O   -0.498917
     6  C   -0.183604
     7  Br  -0.115651
     8  C   -0.202183
     9  Br  -0.129922
    10  H    0.333715
    11  H    0.121838
    12  H    0.130154
    13  H    0.100291
    14  H    0.117371
    15  H    0.332417
    16  H    0.158806
    17  H    0.173194
    18  H    0.159612
    19  H    0.177449
 Sum of Mulliken charges =   0.00000
 Mulliken charges with hydrogens summed into heavy atoms:
               1
     1  O   -0.164801
     2  C    0.301077
     3  C   -0.321051
     4  C    0.313574
     5  O   -0.166501
     6  C    0.148397
     7  Br  -0.115651
     8  C    0.134878
     9  Br  -0.129922
 Electronic spatial extent (au):  <R**2>=           2902.3521
 Charge=              0.0000 electrons
 Dipole moment (field-independent basis, Debye):
    X=             -0.7913    Y=             -0.9881    Z=             -0.1463  Tot=              1.2743
 Evaluate density.
 Using the total density.
 Monte-Carlo method of calculating molar volume:
 based on  0.001 e/bohr**3 density envelope.
 Number of points per bohr**3 =  100 CutOff= 1.00D-04
 Using the SCF density.
 There are      2337 points.  Will hold      2337 in memory.
 LenV=  1048075174 MDV=  1048576000.
 Box volume =12765.998 fraction occupied=0.095
 Integrated density= 9.0534460041301188D+01 error=-3.5465539958698812D+01
 Molar volume = 1218.150 bohr**3/mol (108.706 cm**3/mol)
 Recommended a0 for SCRF calculation =  4.36 angstrom (  8.24 bohr)
   1 Symmetry operations used in ECPInt.
 ECPInt:  NShTT=    3741 NPrTT=   17221 LenC2=    3602 LenP2D=   12230.
 LDataN:  DoStor=T MaxTD1= 5 Len=  102
 Calling FoFJK, ICntrl=      2127 FMM=F ISym2X=0 I1Cent= 0 IOpClX= 0 NMat=1 NMatS=1 NMatT=0.

 GradGradGradGradGradGradGradGradGradGradGradGradGradGradGradGradGradGrad
 FormGI is forming the generalized inverse of G from B-inverse, IUseBI=4.
 Internal  Forces:  Max     0.009720901 RMS     0.002585483
 Step number   1 out of a maximum of  102
 All quantities printed in internal units (Hartrees-Bohrs-Radians)
 Mixed Optimization -- RFO/linear search
 Second derivative matrix not updated -- first step.
 ITU=  0
     Eigenvalues ---    0.00230   0.00230   0.00388   0.00446   0.01620
     Eigenvalues ---    0.01738   0.04511   0.04682   0.04726   0.04794
     Eigenvalues ---    0.05202   0.05330   0.05414   0.05734   0.05788
     Eigenvalues ---    0.05802   0.05817   0.11755   0.11786   0.14011
     Eigenvalues ---    0.14047   0.14061   0.14774   0.15783   0.16000
     Eigenvalues ---    0.16000   0.16000   0.16000   0.16000   0.16000
     Eigenvalues ---    0.16119   0.22077   0.22077   0.22290   0.22303
     Eigenvalues ---    0.27631   0.27824   0.29556   0.29966   0.33766
     Eigenvalues ---    0.34008   0.34241   0.34366   0.34711   0.34765
     Eigenvalues ---    0.34779   0.34846   0.44738   0.46210   0.53315
     Eigenvalues ---    0.54593
 Linear search not attempted -- first point.
 Iteration  1 RMS(Cart)=  0.06899521 RMS(Int)=  0.00230267
 Iteration  2 RMS(Cart)=  0.00305382 RMS(Int)=  0.00007041
 Iteration  3 RMS(Cart)=  0.00000740 RMS(Int)=  0.00007017
 Iteration  4 RMS(Cart)=  0.00000000 RMS(Int)=  0.00007017
 Variable       Old X    -DE/DX   Delta X   Delta X   Delta X     New X
                                 (Linear)    (Quad)   (Total)
    R1        2.65581   0.00359   0.00000   0.00797   0.00797   2.66379
    R2        1.82195   0.00380   0.00000   0.00692   0.00692   1.82887
    R3        2.92525   0.00023   0.00000   0.00080   0.00080   2.92605
    R4        2.07316   0.00565   0.00000   0.01645   0.01645   2.08961
    R5        2.06717   0.00445   0.00000   0.01283   0.01283   2.08000
    R6        2.92952   0.00107   0.00000   0.00384   0.00384   2.93337
    R7        2.88031   0.00631   0.00000   0.02083   0.02083   2.90114
    R8        2.88858   0.00402   0.00000   0.01345   0.01345   2.90203
    R9        2.63896   0.00410   0.00000   0.00880   0.00880   2.64776
   R10        2.06925   0.00616   0.00000   0.01781   0.01781   2.08706
   R11        2.07727   0.00505   0.00000   0.01481   0.01481   2.09207
   R12        1.83361   0.00130   0.00000   0.00242   0.00242   1.83603
   R13        3.68003   0.00301   0.00000   0.01827   0.01827   3.69829
   R14        2.06058   0.00654   0.00000   0.01864   0.01864   2.07922
   R15        2.06146   0.00577   0.00000   0.01646   0.01646   2.07792
   R16        3.69555   0.00065   0.00000   0.00400   0.00400   3.69956
   R17        2.05925   0.00684   0.00000   0.01944   0.01944   2.07869
   R18        2.06036   0.00454   0.00000   0.01294   0.01294   2.07329
    A1        1.91038   0.00005   0.00000   0.00033   0.00033   1.91071
    A2        1.97722  -0.00187   0.00000  -0.00663  -0.00663   1.97059
    A3        1.93783   0.00076   0.00000   0.00662   0.00663   1.94446
    A4        1.84614   0.00103   0.00000   0.00634   0.00633   1.85247
    A5        1.91336   0.00093   0.00000   0.00528   0.00529   1.91864
    A6        1.90150   0.00004   0.00000  -0.00232  -0.00232   1.89919
    A7        1.88422  -0.00090   0.00000  -0.00985  -0.00986   1.87437
    A8        1.90538  -0.00049   0.00000  -0.00289  -0.00310   1.90228
    A9        1.92043   0.00059   0.00000   0.01493   0.01490   1.93533
   A10        1.94786   0.00046   0.00000  -0.00102  -0.00110   1.94676
   A11        1.93657   0.00110   0.00000   0.01184   0.01175   1.94832
   A12        1.85665  -0.00114   0.00000  -0.01932  -0.01931   1.83734
   A13        1.89634  -0.00055   0.00000  -0.00445  -0.00439   1.89195
   A14        1.96814  -0.00099   0.00000  -0.00079  -0.00078   1.96736
   A15        1.91859   0.00031   0.00000  -0.00222  -0.00227   1.91632
   A16        1.89796  -0.00137   0.00000  -0.01123  -0.01129   1.88668
   A17        1.85119   0.00063   0.00000   0.00684   0.00684   1.85803
   A18        1.93658   0.00232   0.00000   0.02256   0.02257   1.95915
   A19        1.88965  -0.00086   0.00000  -0.01555  -0.01569   1.87396
   A20        1.88675   0.00089   0.00000   0.00544   0.00544   1.89219
   A21        1.97521   0.00972   0.00000   0.04707   0.04691   2.02212
   A22        1.93826  -0.00131   0.00000  -0.00841  -0.00855   1.92971
   A23        1.93736  -0.00082   0.00000  -0.00448  -0.00469   1.93267
   A24        1.84775  -0.00357   0.00000  -0.00992  -0.01000   1.83775
   A25        1.84774  -0.00363   0.00000  -0.00857  -0.00879   1.83895
   A26        1.91314  -0.00072   0.00000  -0.01713  -0.01729   1.89586
   A27        1.98145   0.00671   0.00000   0.03158   0.03146   2.01291
   A28        1.93479   0.00051   0.00000   0.00533   0.00518   1.93997
   A29        1.92248  -0.00106   0.00000  -0.00729  -0.00727   1.91521
   A30        1.85458  -0.00304   0.00000  -0.00847  -0.00872   1.84586
   A31        1.86450  -0.00272   0.00000  -0.01183  -0.01179   1.85270
   A32        1.90266  -0.00076   0.00000  -0.01120  -0.01120   1.89146
    D1        1.41562  -0.00013   0.00000  -0.01613  -0.01612   1.39949
    D2       -0.74625  -0.00055   0.00000  -0.02327  -0.02326  -0.76951
    D3       -2.78590  -0.00046   0.00000  -0.01860  -0.01861  -2.80452
    D4        1.14801  -0.00132   0.00000  -0.07397  -0.07396   1.07405
    D5       -3.00599   0.00010   0.00000  -0.05162  -0.05165  -3.05764
    D6       -0.89939   0.00011   0.00000  -0.04780  -0.04777  -0.94716
    D7       -2.95999  -0.00097   0.00000  -0.06607  -0.06606  -3.02605
    D8       -0.83081   0.00045   0.00000  -0.04373  -0.04375  -0.87456
    D9        1.27580   0.00046   0.00000  -0.03990  -0.03988   1.23592
   D10       -0.90157  -0.00150   0.00000  -0.07629  -0.07629  -0.97786
   D11        1.22762  -0.00008   0.00000  -0.05395  -0.05398   1.17363
   D12       -2.94897  -0.00007   0.00000  -0.05012  -0.05011  -2.99907
   D13       -1.14134  -0.00030   0.00000  -0.07646  -0.07649  -1.21783
   D14        3.08021  -0.00066   0.00000  -0.08306  -0.08307   2.99714
   D15        1.01427   0.00101   0.00000  -0.05624  -0.05633   0.95795
   D16        3.02242  -0.00141   0.00000  -0.10078  -0.10079   2.92163
   D17        0.96078  -0.00177   0.00000  -0.10739  -0.10737   0.85341
   D18       -1.10515  -0.00010   0.00000  -0.08056  -0.08063  -1.18578
   D19        0.96287  -0.00067   0.00000  -0.09040  -0.09034   0.87253
   D20       -1.09877  -0.00104   0.00000  -0.09701  -0.09691  -1.19569
   D21        3.11848   0.00064   0.00000  -0.07019  -0.07017   3.04831
   D22       -1.02887  -0.00001   0.00000   0.00047   0.00037  -1.02849
   D23       -3.10426  -0.00109   0.00000  -0.01275  -0.01280  -3.11705
   D24        1.04588   0.00132   0.00000   0.01811   0.01806   1.06394
   D25        1.08169   0.00048   0.00000   0.01452   0.01456   1.09625
   D26       -0.99370  -0.00060   0.00000   0.00130   0.00138  -0.99231
   D27       -3.12675   0.00181   0.00000   0.03216   0.03224  -3.09450
   D28        3.11699  -0.00060   0.00000  -0.00482  -0.00486   3.11213
   D29        1.04160  -0.00168   0.00000  -0.01805  -0.01803   1.02357
   D30       -1.09145   0.00073   0.00000   0.01282   0.01283  -1.07862
   D31       -0.90893  -0.00025   0.00000   0.00186   0.00195  -0.90698
   D32       -2.99488  -0.00130   0.00000  -0.01265  -0.01270  -3.00758
   D33        1.18096   0.00002   0.00000   0.00273   0.00273   1.18370
   D34       -2.98554   0.00078   0.00000   0.01782   0.01793  -2.96761
   D35        1.21170  -0.00026   0.00000   0.00331   0.00328   1.21498
   D36       -0.89564   0.00106   0.00000   0.01869   0.01871  -0.87693
   D37        1.21169   0.00041   0.00000   0.01690   0.01694   1.22863
   D38       -0.87426  -0.00064   0.00000   0.00239   0.00229  -0.87197
   D39       -2.98160   0.00068   0.00000   0.01777   0.01772  -2.96387
   D40        0.97585  -0.00178   0.00000  -0.06977  -0.06975   0.90609
   D41        3.07660  -0.00156   0.00000  -0.06849  -0.06851   3.00809
   D42       -1.15821  -0.00101   0.00000  -0.07125  -0.07125  -1.22946
         Item               Value     Threshold  Converged?
 Maximum Force            0.009721     0.000015     NO 
 RMS     Force            0.002585     0.000010     NO 
 Maximum Displacement     0.374793     0.000060     NO 
 RMS     Displacement     0.069045     0.000040     NO 
 GradGradGradGradGradGradGradGradGradGradGradGradGradGradGradGradGradGrad

                    Distance matrix (angstroms):
                    1          2          3          4          5
     1  O    0.000000
     2  C    1.409617   0.000000
     3  C    2.466506   1.548400   0.000000
     4  C    2.965720   2.524191   1.552270   0.000000
     5  O    2.797105   3.041724   2.460255   1.401133   0.000000
     6  C    3.801032   2.539569   1.535217   2.554084   3.791976
     7  Br   4.673790   3.348583   2.967801   3.410108   4.759074
     8  C    2.939487   2.549911   1.535687   2.454310   2.764591
     9  Br   3.637592   3.274044   2.960342   4.281742   4.563417
    10  H    0.967796   1.957886   2.806276   3.519790   3.230879
    11  H    2.085117   1.105774   2.188049   3.489079   4.064027
    12  H    2.015211   1.100688   2.169885   2.707770   3.371673
    13  H    4.010387   3.484352   2.188735   1.104425   2.014873
    14  H    3.236789   2.690553   2.168609   1.107077   2.088905
    15  H    2.012630   2.623778   2.568390   1.940927   0.971583
    16  H    4.631233   3.500440   2.180407   2.781624   4.015495
    17  H    4.084616   2.799858   2.182029   3.512508   4.616564
    18  H    3.992792   3.508711   2.188023   2.776154   3.190222
    19  H    2.697419   2.853380   2.167905   2.586521   2.295796
                    6          7          8          9         10
     6  C    0.000000
     7  Br   1.957053   0.000000
     8  C    2.490709   4.314202   0.000000
     9  Br   3.419208   5.217301   1.957722   0.000000
    10  H    4.126310   5.278828   2.780341   3.078701   0.000000
    11  H    2.709152   3.550087   2.888094   2.912585   2.259462
    12  H    2.827154   2.926961   3.487051   4.326706   2.815256
    13  H    2.716222   3.622559   2.753039   4.651698   4.459126
    14  H    2.842161   2.994683   3.420455   5.097901   4.001631
    15  H    4.039253   4.947437   2.923596   4.452620   2.497879
    16  H    1.100277   2.485300   2.722771   3.814402   4.902183
    17  H    1.099589   2.485855   2.751214   2.974504   4.232481
    18  H    2.663578   4.541599   1.099996   2.492482   3.864823
    19  H    3.444634   5.119506   1.097139   2.496281   2.430403
                   11         12         13         14         15
    11  H    0.000000
    12  H    1.778177   0.000000
    13  H    4.332558   3.687455   0.000000
    14  H    3.683236   2.403569   1.781971   0.000000
    15  H    3.643391   2.972807   2.826869   2.406761   0.000000
    16  H    3.744439   3.812317   2.486258   3.203772   4.487555
    17  H    2.515119   3.231258   3.736454   3.841283   4.732179
    18  H    3.834907   4.333076   2.619178   3.795501   3.624441
    19  H    3.369648   3.789630   2.995456   3.598966   2.346958
                   16         17         18         19
    16  H    0.000000
    17  H    1.786750   0.000000
    18  H    2.430697   2.987527   0.000000
    19  H    3.682006   3.791323   1.781712   0.000000
 Framework group  C1[X(C5H10Br2O2)]
 Deg. of freedom    51
                         Standard orientation:                         
 ---------------------------------------------------------------------
 Center     Atomic      Atomic             Coordinates (Angstroms)
 Number     Number       Type             X           Y           Z
 ---------------------------------------------------------------------
      1          8           0       -0.900209    1.780937    1.661301
      2          6           0       -0.045933    0.718571    1.302679
      3          6           0        0.048289    0.511694   -0.228943
      4          6           0        0.633507    1.795078   -0.877008
      5          8           0       -0.253672    2.878487   -0.828915
      6          6           0        0.892292   -0.726399   -0.563120
      7         35           0        2.734015   -0.707929    0.098522
      8          6           0       -1.340412    0.336648   -0.860769
      9         35           0       -2.471765   -1.029092   -0.031631
     10          1           0       -1.819759    1.481098    1.627354
     11          1           0       -0.348238   -0.225499    1.792657
     12          1           0        0.950672    0.984285    1.686981
     13          1           0        0.845474    1.611430   -1.945229
     14          1           0        1.598043    2.020827   -0.382714
     15          1           0       -0.554914    2.988012    0.088271
     16          1           0        0.976588   -0.854076   -1.652709
     17          1           0        0.438841   -1.633143   -0.137334
     18          1           0       -1.261405    0.055608   -1.921319
     19          1           0       -1.899468    1.278249   -0.793257
 ---------------------------------------------------------------------
 Rotational constants (GHZ):           1.0053424           0.4026255           0.3323867
   182 basis functions,   375 primitive gaussians,   195 cartesian basis functions
    63 alpha electrons       63 beta electrons
       nuclear repulsion energy      1066.1889122969 Hartrees.
 NAtoms=   19 NActive=   19 NUniq=   19 SFac= 1.00D+00 NAtFMM=   60 NAOKFM=F Big=F
 Nuclear repulsion after empirical dispersion term =     1066.1732775973 Hartrees.
   1 Symmetry operations used in ECPInt.
 ECPInt:  NShTT=    3741 NPrTT=   17221 LenC2=    3597 LenP2D=   12169.
 LDataN:  DoStor=T MaxTD1= 4 Len=   56
 Initial guess from the checkpoint file:  "monomer.chk"
 B after Tr=    -0.000000   -0.000000   -0.000000
         Rot=    0.999901    0.003992   -0.002265   -0.013316 Ang=   1.61 deg.
 ExpMin= 1.22D-01 ExpMax= 1.13D+05 ExpMxC= 1.70D+04 IAcc=3 IRadAn=         5 AccDes= 0.00D+00
 Harris functional with IExCor= 4639 and IRadAn=       5 diagonalized for initial guess.
 HarFok:  IExCor= 4639 AccDes= 0.00D+00 IRadAn=         5 IDoV= 1 UseB2=F ITyADJ=14
 ICtDFT=  3500011 ScaDFX=  1.000000  1.000000  1.000000  1.000000
 FoFCou: FMM=F IPFlag=           0 FMFlag=      100000 FMFlg1=           0
         NFxFlg=           0 DoJE=T BraDBF=F KetDBF=T FulRan=T
         wScrn=  0.000000 ICntrl=       500 IOpCl=  0 I1Cent=   200000004 NGrid=           0
         NMat0=    1 NMatS0=      1 NMatT0=    0 NMatD0=    1 NMtDS0=    0 NMtDT0=    0
 Petite list used in FoFCou.
     Minimum is close to point  4 DX=  7.03D-02 DF= -2.05D-05 DXR=  5.53D-02 DFR=  3.07D-03 which will be used.
     Accept linear search using points  2 and  3.
     Accept linear search using points  1 and  2.
     Minimum is close to point  2 DX= -6.11D-02 DF= -2.68D-06 DXR=  5.88D-02 DFR=  4.07D-03 which will be used.
     Accept linear search using points  1 and  2.
     Accept linear search using points  1 and  2.
     Accept linear search using points  1 and  2.
     Minimum is close to point  2 DX= -1.81D-04 DF= -3.64D-12 DXR=  1.81D-04 DFR=  3.66D-08 which will be used.
 SCF Done:  E(RwB97XD) =  -5494.41163049     a.u. after    9 cycles
            Convg  =    0.4852D-08                    37 Fock formations.
              S**2 =  0.0000                  -V/T =  2.0016
   1 Symmetry operations used in ECPInt.
 ECPInt:  NShTT=    3741 NPrTT=   17221 LenC2=    3597 LenP2D=   12169.
 LDataN:  DoStor=T MaxTD1= 5 Len=  102
 Calling FoFJK, ICntrl=      2127 FMM=F ISym2X=0 I1Cent= 0 IOpClX= 0 NMat=1 NMatS=1 NMatT=0.

 GradGradGradGradGradGradGradGradGradGradGradGradGradGradGradGradGradGrad
 Using GEDIIS/GDIIS optimizer.
 FormGI is forming the generalized inverse of G from B-inverse, IUseBI=4.
 Internal  Forces:  Max     0.005216275 RMS     0.001473749
 Step number   2 out of a maximum of  102
 All quantities printed in internal units (Hartrees-Bohrs-Radians)
 Mixed Optimization -- RFO/linear search
 Trust test= 4.13D-01 RLast= 3.54D-01 DXMaxT set to 3.00D-01
 ITU=  0  0
 Use linear search instead of GDIIS.
     Eigenvalues ---    0.00227   0.00363   0.00391   0.00448   0.01628
     Eigenvalues ---    0.01855   0.04323   0.04685   0.04718   0.05063
     Eigenvalues ---    0.05097   0.05203   0.05376   0.05652   0.05813
     Eigenvalues ---    0.05824   0.05922   0.11694   0.11746   0.13873
     Eigenvalues ---    0.13997   0.14200   0.14624   0.15570   0.15790
     Eigenvalues ---    0.16000   0.16000   0.16000   0.16000   0.16048
     Eigenvalues ---    0.16694   0.20662   0.22056   0.22253   0.24447
     Eigenvalues ---    0.27480   0.27865   0.29279   0.31378   0.32216
     Eigenvalues ---    0.33908   0.34134   0.34318   0.34524   0.34741
     Eigenvalues ---    0.34817   0.34919   0.44526   0.46729   0.53310
     Eigenvalues ---    0.54392
 Quartic linear search produced a step of -0.34790.
 Iteration  1 RMS(Cart)=  0.07793043 RMS(Int)=  0.00377242
 Iteration  2 RMS(Cart)=  0.00486305 RMS(Int)=  0.00003879
 Iteration  3 RMS(Cart)=  0.00001159 RMS(Int)=  0.00003735
 Iteration  4 RMS(Cart)=  0.00000000 RMS(Int)=  0.00003735
 Variable       Old X    -DE/DX   Delta X   Delta X   Delta X     New X
                                 (Linear)    (Quad)   (Total)
    R1        2.66379   0.00120  -0.00277   0.00860   0.00582   2.66961
    R2        1.82887   0.00059  -0.00241   0.00663   0.00422   1.83309
    R3        2.92605  -0.00283  -0.00028  -0.00606  -0.00634   2.91971
    R4        2.08961   0.00009  -0.00572   0.01425   0.00853   2.09814
    R5        2.08000   0.00010  -0.00447   0.01117   0.00671   2.08670
    R6        2.93337   0.00234  -0.00134   0.00891   0.00758   2.94094
    R7        2.90114  -0.00428  -0.00725   0.00834   0.00110   2.90223
    R8        2.90203   0.00028  -0.00468   0.01215   0.00747   2.90950
    R9        2.64776  -0.00282  -0.00306   0.00347   0.00040   2.64816
   R10        2.08706  -0.00018  -0.00620   0.01489   0.00870   2.09576
   R11        2.09207   0.00071  -0.00515   0.01407   0.00892   2.10099
   R12        1.83603   0.00156  -0.00084   0.00402   0.00317   1.83920
   R13        3.69829  -0.00274  -0.00636   0.00441  -0.00194   3.69635
   R14        2.07922  -0.00017  -0.00648   0.01563   0.00914   2.08837
   R15        2.07792   0.00013  -0.00573   0.01434   0.00861   2.08653
   R16        3.69956  -0.00106  -0.00139  -0.00100  -0.00239   3.69717
   R17        2.07869  -0.00019  -0.00676   0.01628   0.00952   2.08821
   R18        2.07329  -0.00111  -0.00450   0.00894   0.00444   2.07773
    A1        1.91071  -0.00150  -0.00011  -0.00591  -0.00602   1.90469
    A2        1.97059  -0.00171   0.00231  -0.01146  -0.00915   1.96143
    A3        1.94446  -0.00044  -0.00231  -0.00078  -0.00308   1.94138
    A4        1.85247   0.00121  -0.00220   0.01231   0.01012   1.86259
    A5        1.91864   0.00120  -0.00184   0.00771   0.00585   1.92450
    A6        1.89919  -0.00003   0.00081  -0.00068   0.00014   1.89933
    A7        1.87437  -0.00017   0.00343  -0.00694  -0.00350   1.87086
    A8        1.90228  -0.00042   0.00108  -0.00115  -0.00002   1.90227
    A9        1.93533   0.00101  -0.00518   0.00878   0.00359   1.93892
   A10        1.94676  -0.00069   0.00038  -0.00097  -0.00058   1.94618
   A11        1.94832  -0.00150  -0.00409  -0.00005  -0.00408   1.94425
   A12        1.83734   0.00283   0.00672   0.00527   0.01197   1.84931
   A13        1.89195  -0.00120   0.00153  -0.01218  -0.01066   1.88129
   A14        1.96736   0.00388   0.00027   0.01198   0.01218   1.97954
   A15        1.91632  -0.00140   0.00079  -0.00162  -0.00099   1.91532
   A16        1.88668   0.00006   0.00393  -0.01255  -0.00860   1.87808
   A17        1.85803   0.00049  -0.00238   0.01889   0.01641   1.87444
   A18        1.95915  -0.00329  -0.00785  -0.00066  -0.00846   1.95069
   A19        1.87396   0.00008   0.00546  -0.01709  -0.01160   1.86236
   A20        1.89219  -0.00522  -0.00189  -0.01692  -0.01882   1.87337
   A21        2.02212  -0.00378  -0.01632   0.02821   0.01193   2.03406
   A22        1.92971   0.00040   0.00297  -0.00661  -0.00359   1.92612
   A23        1.93267   0.00052   0.00163  -0.00176  -0.00009   1.93258
   A24        1.83775   0.00141   0.00348  -0.00646  -0.00294   1.83481
   A25        1.83895   0.00161   0.00306  -0.00293   0.00017   1.83912
   A26        1.89586   0.00007   0.00601  -0.01258  -0.00653   1.88933
   A27        2.01291  -0.00145  -0.01094   0.02293   0.01198   2.02489
   A28        1.93997   0.00006  -0.00180   0.00339   0.00162   1.94159
   A29        1.91521   0.00165   0.00253   0.00086   0.00336   1.91857
   A30        1.84586   0.00055   0.00304  -0.00690  -0.00381   1.84205
   A31        1.85270   0.00007   0.00410  -0.00869  -0.00464   1.84806
   A32        1.89146  -0.00094   0.00390  -0.01434  -0.01044   1.88102
    D1        1.39949   0.00050   0.00561  -0.00012   0.00551   1.40500
    D2       -0.76951   0.00055   0.00809  -0.00100   0.00707  -0.76244
    D3       -2.80452   0.00028   0.00647   0.00049   0.00696  -2.79755
    D4        1.07405   0.00212   0.02573  -0.01103   0.01468   1.08874
    D5       -3.05764   0.00062   0.01797  -0.00607   0.01191  -3.04573
    D6       -0.94716  -0.00068   0.01662  -0.01620   0.00042  -0.94674
    D7       -3.02605   0.00120   0.02298  -0.01459   0.00837  -3.01768
    D8       -0.87456  -0.00030   0.01522  -0.00963   0.00560  -0.86896
    D9        1.23592  -0.00160   0.01387  -0.01976  -0.00589   1.23003
   D10       -0.97786   0.00166   0.02654  -0.01896   0.00757  -0.97029
   D11        1.17363   0.00016   0.01878  -0.01400   0.00480   1.17843
   D12       -2.99907  -0.00114   0.01743  -0.02412  -0.00669  -3.00576
   D13       -1.21783   0.00212   0.02661   0.13078   0.15742  -1.06042
   D14        2.99714  -0.00003   0.02890   0.10047   0.12937   3.12651
   D15        0.95795   0.00060   0.01960   0.12894   0.14853   1.10648
   D16        2.92163   0.00212   0.03507   0.12051   0.15560   3.07723
   D17        0.85341  -0.00002   0.03735   0.09021   0.12756   0.98097
   D18       -1.18578   0.00061   0.02805   0.11867   0.14672  -1.03906
   D19        0.87253   0.00266   0.03143   0.13196   0.16340   1.03593
   D20       -1.19569   0.00051   0.03372   0.10166   0.13536  -1.06033
   D21        3.04831   0.00115   0.02441   0.13012   0.15452  -3.08036
   D22       -1.02849  -0.00023  -0.00013  -0.00893  -0.00904  -1.03753
   D23       -3.11705   0.00028   0.00445  -0.01530  -0.01083  -3.12788
   D24        1.06394  -0.00040  -0.00628   0.00601  -0.00025   1.06369
   D25        1.09625  -0.00109  -0.00506  -0.00428  -0.00938   1.08687
   D26       -0.99231  -0.00058  -0.00048  -0.01064  -0.01117  -1.00348
   D27       -3.09450  -0.00127  -0.01122   0.01066  -0.00059  -3.09510
   D28        3.11213   0.00078   0.00169  -0.00521  -0.00350   3.10863
   D29        1.02357   0.00129   0.00627  -0.01158  -0.00529   1.01828
   D30       -1.07862   0.00061  -0.00446   0.00973   0.00528  -1.07334
   D31       -0.90698   0.00006  -0.00068   0.00794   0.00723  -0.89975
   D32       -3.00758   0.00033   0.00442  -0.00219   0.00224  -3.00534
   D33        1.18370   0.00040  -0.00095   0.01297   0.01203   1.19572
   D34       -2.96761  -0.00076  -0.00624   0.00670   0.00040  -2.96721
   D35        1.21498  -0.00049  -0.00114  -0.00343  -0.00459   1.21039
   D36       -0.87693  -0.00042  -0.00651   0.01172   0.00520  -0.87173
   D37        1.22863   0.00007  -0.00589   0.01005   0.00417   1.23280
   D38       -0.87197   0.00034  -0.00080  -0.00008  -0.00083  -0.87279
   D39       -2.96387   0.00041  -0.00617   0.01508   0.00896  -2.95491
   D40        0.90609   0.00066   0.02427  -0.04234  -0.01819   0.88790
   D41        3.00809   0.00154   0.02384  -0.02483  -0.00085   3.00724
   D42       -1.22946   0.00016   0.02479  -0.03429  -0.00953  -1.23898
         Item               Value     Threshold  Converged?
 Maximum Force            0.005216     0.000015     NO 
 RMS     Force            0.001474     0.000010     NO 
 Maximum Displacement     0.356121     0.000060     NO 
 RMS     Displacement     0.077855     0.000040     NO 
 GradGradGradGradGradGradGradGradGradGradGradGradGradGradGradGradGradGrad

                    Distance matrix (angstroms):
                    1          2          3          4          5
     1  O    0.000000
     2  C    1.412699   0.000000
     3  C    2.458682   1.545045   0.000000
     4  C    2.965583   2.524716   1.556279   0.000000
     5  O    2.699983   2.965844   2.473742   1.401347   0.000000
     6  C    3.799024   2.540409   1.535797   2.554340   3.810003
     7  Br   4.703880   3.372232   2.978176   3.415948   4.719979
     8  C    2.929243   2.549892   1.539640   2.471838   2.887617
     9  Br   3.634956   3.286579   2.973358   4.300757   4.659355
    10  H    0.970029   1.958281   2.797527   3.526206   3.199729
    11  H    2.089154   1.110288   2.192776   3.496680   4.016406
    12  H    2.027945   1.104236   2.169666   2.705028   3.242943
    13  H    3.978524   3.492331   2.194957   1.109027   2.030540
    14  H    3.359344   2.758359   2.169054   1.111798   2.086948
    15  H    1.915843   2.503122   2.561987   1.929724   0.973262
    16  H    4.626524   3.502888   2.181942   2.783869   4.076233
    17  H    4.084180   2.803907   2.185910   3.518157   4.643025
    18  H    3.987481   3.513292   2.196495   2.796384   3.358360
    19  H    2.695282   2.863660   2.175595   2.608211   2.443520
                    6          7          8          9         10
     6  C    0.000000
     7  Br   1.956025   0.000000
     8  C    2.484761   4.316840   0.000000
     9  Br   3.427045   5.231279   1.956458   0.000000
    10  H    4.116760   5.298332   2.765926   3.064022   0.000000
    11  H    2.715282   3.572734   2.891361   2.929327   2.255573
    12  H    2.832398   2.958920   3.491587   4.343251   2.824624
    13  H    2.771239   3.727228   2.704251   4.617686   4.412248
    14  H    2.765436   2.910840   3.436425   5.123668   4.113940
    15  H    4.005485   4.822682   3.083401   4.587034   2.526953
    16  H    1.105115   2.485052   2.709906   3.812116   4.888496
    17  H    1.104144   2.488034   2.741602   2.977670   4.220186
    18  H    2.658562   4.537736   1.105032   2.491457   3.855341
    19  H    3.443699   5.133363   1.099487   2.492833   2.427830
                   11         12         13         14         15
    11  H    0.000000
    12  H    1.782375   0.000000
    13  H    4.350605   3.726280   0.000000
    14  H    3.732661   2.473382   1.781824   0.000000
    15  H    3.555665   2.753292   2.832698   2.393651   0.000000
    16  H    3.752431   3.822330   2.540521   3.100299   4.502763
    17  H    2.521926   3.241200   3.780223   3.787263   4.712254
    18  H    3.843276   4.341643   2.567781   3.776062   3.813156
    19  H    3.382639   3.804465   2.913939   3.659587   2.594168
                   16         17         18         19
    16  H    0.000000
    17  H    1.790165   0.000000
    18  H    2.412587   2.978314   0.000000
    19  H    3.670337   3.788037   1.780946   0.000000
 Framework group  C1[X(C5H10Br2O2)]
 Deg. of freedom    51
                         Standard orientation:                         
 ---------------------------------------------------------------------
 Center     Atomic      Atomic             Coordinates (Angstroms)
 Number     Number       Type             X           Y           Z
 ---------------------------------------------------------------------
      1          8           0       -0.921828    1.843457    1.579027
      2          6           0       -0.057903    0.767980    1.274559
      3          6           0        0.047265    0.509900   -0.245144
      4          6           0        0.654788    1.767561   -0.931591
      5          8           0       -0.119241    2.923344   -0.761829
      6          6           0        0.882495   -0.745669   -0.536020
      7         35           0        2.727205   -0.738377    0.114382
      8          6           0       -1.340519    0.309419   -0.881031
      9         35           0       -2.494935   -1.015922   -0.021657
     10          1           0       -1.839983    1.531908    1.549278
     11          1           0       -0.368320   -0.158723    1.801439
     12          1           0        0.939912    1.043408    1.659062
     13          1           0        0.750381    1.589697   -2.022080
     14          1           0        1.686001    1.900462   -0.537851
     15          1           0       -0.306481    3.009876    0.189325
     16          1           0        0.961614   -0.910830   -1.625856
     17          1           0        0.416235   -1.638604   -0.083910
     18          1           0       -1.255458   -0.011099   -1.935132
     19          1           0       -1.901572    1.254790   -0.861898
 ---------------------------------------------------------------------
 Rotational constants (GHZ):           0.9977789           0.4023113           0.3291629
   182 basis functions,   375 primitive gaussians,   195 cartesian basis functions
    63 alpha electrons       63 beta electrons
       nuclear repulsion energy      1064.1832100732 Hartrees.
 NAtoms=   19 NActive=   19 NUniq=   19 SFac= 1.00D+00 NAtFMM=   60 NAOKFM=F Big=F
 Nuclear repulsion after empirical dispersion term =     1064.1676424555 Hartrees.
   1 Symmetry operations used in ECPInt.
 ECPInt:  NShTT=    3741 NPrTT=   17221 LenC2=    3597 LenP2D=   12155.
 LDataN:  DoStor=T MaxTD1= 4 Len=   56
 Initial guess from the checkpoint file:  "monomer.chk"
 B after Tr=     0.000000    0.000000    0.000000
         Rot=    0.999953    0.006649    0.002054    0.006700 Ang=   1.11 deg.
 ExpMin= 1.22D-01 ExpMax= 1.13D+05 ExpMxC= 1.70D+04 IAcc=3 IRadAn=         5 AccDes= 0.00D+00
 Harris functional with IExCor= 4639 and IRadAn=       5 diagonalized for initial guess.
 HarFok:  IExCor= 4639 AccDes= 0.00D+00 IRadAn=         5 IDoV= 1 UseB2=F ITyADJ=14
 ICtDFT=  3500011 ScaDFX=  1.000000  1.000000  1.000000  1.000000
 FoFCou: FMM=F IPFlag=           0 FMFlag=      100000 FMFlg1=           0
         NFxFlg=           0 DoJE=T BraDBF=F KetDBF=T FulRan=T
         wScrn=  0.000000 ICntrl=       500 IOpCl=  0 I1Cent=   200000004 NGrid=           0
         NMat0=    1 NMatS0=      1 NMatT0=    0 NMatD0=    1 NMtDS0=    0 NMtDT0=    0
 Petite list used in FoFCou.
     Minimum is close to point  4 DX=  5.32D-02 DF= -1.57D-05 DXR=  4.25D-02 DFR=  1.81D-03 which will be used.
     Accept linear search using points  2 and  3.
     Accept linear search using points  1 and  2.
     Accept linear search using points  1 and  2.
     Accept linear search using points  1 and  2.
     Accept linear search using points  1 and  2.
     Minimum is close to point  2 DX= -4.73D-04 DF= -2.55D-11 DXR=  4.73D-04 DFR=  2.22D-07 which will be used.
 SCF Done:  E(RwB97XD) =  -5494.41141567     a.u. after    9 cycles
            Convg  =    0.2740D-08                    39 Fock formations.
              S**2 =  0.0000                  -V/T =  2.0016
   1 Symmetry operations used in ECPInt.
 ECPInt:  NShTT=    3741 NPrTT=   17221 LenC2=    3597 LenP2D=   12155.
 LDataN:  DoStor=T MaxTD1= 5 Len=  102
 Calling FoFJK, ICntrl=      2127 FMM=F ISym2X=0 I1Cent= 0 IOpClX= 0 NMat=1 NMatS=1 NMatT=0.

 GradGradGradGradGradGradGradGradGradGradGradGradGradGradGradGradGradGrad
 Using GEDIIS/GDIIS optimizer.
 FormGI is forming the generalized inverse of G from B-inverse, IUseBI=4.
 Internal  Forces:  Max     0.006874795 RMS     0.001933306
 Step number   3 out of a maximum of  102
 All quantities printed in internal units (Hartrees-Bohrs-Radians)
 Mixed Optimization -- RFO/linear search
 Trust test=-2.00D-01 RLast= 4.47D-01 DXMaxT set to 1.50D-01
 ITU= -1  0  0
 Use linear search instead of GDIIS.
     Eigenvalues ---    0.00239   0.00384   0.00442   0.00775   0.01621
     Eigenvalues ---    0.02084   0.04354   0.04453   0.04734   0.04979
     Eigenvalues ---    0.05014   0.05117   0.05451   0.05682   0.05801
     Eigenvalues ---    0.05828   0.05917   0.11692   0.11730   0.13898
     Eigenvalues ---    0.13995   0.14113   0.15335   0.15709   0.15950
     Eigenvalues ---    0.15968   0.16000   0.16000   0.16002   0.16005
     Eigenvalues ---    0.17565   0.21100   0.21562   0.22225   0.24851
     Eigenvalues ---    0.27642   0.28188   0.29700   0.29960   0.32201
     Eigenvalues ---    0.33879   0.34103   0.34318   0.34510   0.34733
     Eigenvalues ---    0.34806   0.34892   0.44551   0.46134   0.53222
     Eigenvalues ---    0.54466
 Quartic linear search produced a step of -0.55212.
 Iteration  1 RMS(Cart)=  0.05187376 RMS(Int)=  0.00128844
 Iteration  2 RMS(Cart)=  0.00169005 RMS(Int)=  0.00006054
 Iteration  3 RMS(Cart)=  0.00000187 RMS(Int)=  0.00006053
 Iteration  4 RMS(Cart)=  0.00000000 RMS(Int)=  0.00006053
 Variable       Old X    -DE/DX   Delta X   Delta X   Delta X     New X
                                 (Linear)    (Quad)   (Total)
    R1        2.66961  -0.00153  -0.00322   0.00056  -0.00266   2.66696
    R2        1.83309  -0.00187  -0.00233  -0.00061  -0.00294   1.83015
    R3        2.91971   0.00130   0.00350  -0.00511  -0.00161   2.91810
    R4        2.09814  -0.00284  -0.00471  -0.00314  -0.00785   2.09029
    R5        2.08670  -0.00179  -0.00370  -0.00182  -0.00552   2.08118
    R6        2.94094  -0.00118  -0.00418   0.00419   0.00001   2.94095
    R7        2.90223  -0.00423  -0.00060  -0.01592  -0.01653   2.88571
    R8        2.90950  -0.00353  -0.00412  -0.00433  -0.00845   2.90104
    R9        2.64816  -0.00379  -0.00022  -0.00780  -0.00802   2.64014
   R10        2.09576  -0.00285  -0.00480  -0.00366  -0.00846   2.08730
   R11        2.10099  -0.00171  -0.00493  -0.00041  -0.00533   2.09566
   R12        1.83920  -0.00048  -0.00175   0.00174  -0.00002   1.83918
   R13        3.69635  -0.00273   0.00107  -0.01906  -0.01799   3.67836
   R14        2.08837  -0.00317  -0.00505  -0.00397  -0.00901   2.07935
   R15        2.08653  -0.00280  -0.00475  -0.00294  -0.00769   2.07884
   R16        3.69717  -0.00107   0.00132  -0.00764  -0.00632   3.69085
   R17        2.08821  -0.00341  -0.00525  -0.00428  -0.00953   2.07868
   R18        2.07773  -0.00117  -0.00245  -0.00346  -0.00591   2.07182
    A1        1.90469   0.00075   0.00332  -0.00450  -0.00118   1.90351
    A2        1.96143   0.00687   0.00505   0.00829   0.01334   1.97478
    A3        1.94138  -0.00249   0.00170  -0.01160  -0.00989   1.93149
    A4        1.86259  -0.00250  -0.00559   0.00300  -0.00264   1.85995
    A5        1.92450  -0.00194  -0.00323  -0.00040  -0.00360   1.92090
    A6        1.89933  -0.00092  -0.00008   0.00068   0.00058   1.89991
    A7        1.87086   0.00071   0.00194   0.00003   0.00195   1.87281
    A8        1.90227   0.00323   0.00001   0.01473   0.01447   1.91674
    A9        1.93892  -0.00310  -0.00198  -0.01689  -0.01881   1.92012
   A10        1.94618   0.00051   0.00032   0.00499   0.00508   1.95126
   A11        1.94425  -0.00078   0.00225  -0.01626  -0.01396   1.93028
   A12        1.84931  -0.00175  -0.00661   0.02156   0.01483   1.86414
   A13        1.88129   0.00192   0.00589  -0.00675  -0.00079   1.88050
   A14        1.97954   0.00170  -0.00673   0.01664   0.00995   1.98949
   A15        1.91532  -0.00010   0.00055  -0.00375  -0.00308   1.91224
   A16        1.87808  -0.00064   0.00475  -0.00022   0.00453   1.88260
   A17        1.87444  -0.00250  -0.00906  -0.00021  -0.00921   1.86523
   A18        1.95069   0.00096   0.00467  -0.01115  -0.00655   1.94413
   A19        1.86236   0.00052   0.00641  -0.00241   0.00399   1.86635
   A20        1.87337   0.00297   0.01039  -0.01463  -0.00424   1.86913
   A21        2.03406  -0.00515  -0.00659  -0.02258  -0.02921   2.00484
   A22        1.92612   0.00089   0.00198   0.00384   0.00579   1.93192
   A23        1.93258   0.00027   0.00005   0.00214   0.00212   1.93471
   A24        1.83481   0.00215   0.00162   0.00683   0.00845   1.84325
   A25        1.83912   0.00192  -0.00009   0.00603   0.00586   1.84498
   A26        1.88933   0.00028   0.00360   0.00552   0.00908   1.89841
   A27        2.02489  -0.00312  -0.00662  -0.00988  -0.01650   2.00839
   A28        1.94159  -0.00012  -0.00090  -0.00132  -0.00224   1.93936
   A29        1.91857  -0.00057  -0.00186   0.00530   0.00346   1.92203
   A30        1.84205   0.00173   0.00210   0.00445   0.00652   1.84857
   A31        1.84806   0.00176   0.00256   0.00449   0.00708   1.85514
   A32        1.88102   0.00068   0.00576  -0.00261   0.00316   1.88418
    D1        1.40500  -0.00040  -0.00304   0.00687   0.00379   1.40880
    D2       -0.76244  -0.00110  -0.00390   0.01001   0.00615  -0.75629
    D3       -2.79755   0.00083  -0.00384   0.01438   0.01053  -2.78702
    D4        1.08874   0.00038  -0.00811   0.05305   0.04501   1.13375
    D5       -3.04573  -0.00044  -0.00658   0.03145   0.02484  -3.02089
    D6       -0.94674   0.00023  -0.00023   0.01475   0.01451  -0.93223
    D7       -3.01768   0.00070  -0.00462   0.04367   0.03912  -2.97856
    D8       -0.86896  -0.00012  -0.00309   0.02208   0.01894  -0.85002
    D9        1.23003   0.00056   0.00325   0.00538   0.00862   1.23865
   D10       -0.97029  -0.00009  -0.00418   0.04388   0.03975  -0.93053
   D11        1.17843  -0.00091  -0.00265   0.02229   0.01958   1.19801
   D12       -3.00576  -0.00024   0.00369   0.00559   0.00926  -2.99651
   D13       -1.06042  -0.00378  -0.08691  -0.01572  -0.10275  -1.16317
   D14        3.12651  -0.00165  -0.07143  -0.02387  -0.09539   3.03111
   D15        1.10648  -0.00186  -0.08201  -0.01892  -0.10099   1.00548
   D16        3.07723  -0.00158  -0.08591   0.00624  -0.07969   2.99754
   D17        0.98097   0.00055  -0.07043  -0.00191  -0.07233   0.90864
   D18       -1.03906   0.00034  -0.08101   0.00304  -0.07793  -1.11699
   D19        1.03593  -0.00244  -0.09022   0.01014  -0.08002   0.95591
   D20       -1.06033  -0.00031  -0.07473   0.00199  -0.07266  -1.13299
   D21       -3.08036  -0.00053  -0.08531   0.00694  -0.07826   3.12456
   D22       -1.03753  -0.00002   0.00499   0.00731   0.01220  -1.02533
   D23       -3.12788   0.00010   0.00598   0.01133   0.01724  -3.11064
   D24        1.06369  -0.00100   0.00014   0.00057   0.00064   1.06433
   D25        1.08687   0.00141   0.00518   0.00303   0.00828   1.09515
   D26       -1.00348   0.00152   0.00617   0.00705   0.01332  -0.99016
   D27       -3.09510   0.00043   0.00033  -0.00371  -0.00328  -3.09838
   D28        3.10863   0.00001   0.00193   0.01613   0.01803   3.12666
   D29        1.01828   0.00013   0.00292   0.02015   0.02307   1.04135
   D30       -1.07334  -0.00097  -0.00292   0.00939   0.00647  -1.06687
   D31       -0.89975   0.00203  -0.00399   0.03358   0.02961  -0.87015
   D32       -3.00534   0.00213  -0.00123   0.03601   0.03476  -2.97058
   D33        1.19572   0.00172  -0.00664   0.03665   0.03001   1.22573
   D34       -2.96721  -0.00107  -0.00022   0.00018   0.00001  -2.96720
   D35        1.21039  -0.00098   0.00254   0.00261   0.00516   1.21555
   D36       -0.87173  -0.00139  -0.00287   0.00325   0.00040  -0.87133
   D37        1.23280  -0.00022  -0.00230   0.01119   0.00887   1.24167
   D38       -0.87279  -0.00013   0.00046   0.01361   0.01403  -0.85876
   D39       -2.95491  -0.00053  -0.00495   0.01426   0.00927  -2.94564
   D40        0.88790  -0.00078   0.01004  -0.01120  -0.00110   0.88680
   D41        3.00724  -0.00158   0.00047  -0.00556  -0.00520   3.00204
   D42       -1.23898  -0.00193   0.00526  -0.01476  -0.00945  -1.24843
         Item               Value     Threshold  Converged?
 Maximum Force            0.006875     0.000015     NO 
 RMS     Force            0.001933     0.000010     NO 
 Maximum Displacement     0.219689     0.000060     NO 
 RMS     Displacement     0.052103     0.000040     NO 
 GradGradGradGradGradGradGradGradGradGradGradGradGradGradGradGradGradGrad

                    Distance matrix (angstroms):
                    1          2          3          4          5
     1  O    0.000000
     2  C    1.411293   0.000000
     3  C    2.467708   1.544194   0.000000
     4  C    3.019691   2.536993   1.556283   0.000000
     5  O    2.849144   3.046453   2.478287   1.397102   0.000000
     6  C    3.783161   2.516060   1.527051   2.534956   3.790450
     7  Br   4.628706   3.290288   2.936127   3.354870   4.679083
     8  C    2.938440   2.549883   1.535166   2.482016   2.867123
     9  Br   3.578982   3.245979   2.951707   4.295619   4.649079
    10  H    0.968473   1.955122   2.808036   3.586943   3.343928
    11  H    2.077780   1.106132   2.186270   3.497729   4.087346
    12  H    2.022630   1.101316   2.167195   2.702049   3.320176
    13  H    4.046526   3.492903   2.189349   1.104550   2.016823
    14  H    3.345481   2.727383   2.170432   1.108976   2.076511
    15  H    2.065088   2.603409   2.564930   1.923134   0.973254
    16  H    4.622892   3.482140   2.174857   2.757645   4.025778
    17  H    4.052229   2.775481   2.176668   3.500461   4.630367
    18  H    3.999462   3.504663   2.187114   2.807199   3.313288
    19  H    2.732163   2.880304   2.171839   2.623984   2.427325
                    6          7          8          9         10
     6  C    0.000000
     7  Br   1.946506   0.000000
     8  C    2.473371   4.282082   0.000000
     9  Br   3.403026   5.177671   1.953113   0.000000
    10  H    4.096047   5.220406   2.784998   3.004054   0.000000
    11  H    2.674802   3.475840   2.892035   2.892001   2.239799
    12  H    2.815238   2.873122   3.487096   4.304104   2.816512
    13  H    2.713897   3.616642   2.750110   4.646486   4.500381
    14  H    2.785216   2.883793   3.442827   5.103002   4.108654
    15  H    4.007984   4.819549   3.027622   4.541174   2.639792
    16  H    1.100345   2.480397   2.712781   3.816905   4.886447
    17  H    1.100075   2.481654   2.727331   2.950011   4.178691
    18  H    2.638748   4.510834   1.099988   2.490556   3.875116
    19  H    3.430148   5.091036   1.096357   2.493601   2.489186
                   11         12         13         14         15
    11  H    0.000000
    12  H    1.777955   0.000000
    13  H    4.334426   3.695792   0.000000
    14  H    3.697176   2.424804   1.778599   0.000000
    15  H    3.650473   2.874440   2.818689   2.383531   0.000000
    16  H    3.716924   3.798873   2.474086   3.127588   4.473389
    17  H    2.476143   3.224344   3.731751   3.796315   4.719641
    18  H    3.825014   4.330221   2.622125   3.804163   3.740530
    19  H    3.405468   3.810612   2.982716   3.654969   2.512563
                   16         17         18         19
    16  H    0.000000
    17  H    1.788837   0.000000
    18  H    2.411805   2.949463   0.000000
    19  H    3.665372   3.773530   1.776381   0.000000
 Framework group  C1[X(C5H10Br2O2)]
 Deg. of freedom    51
                         Standard orientation:                         
 ---------------------------------------------------------------------
 Center     Atomic      Atomic             Coordinates (Angstroms)
 Number     Number       Type             X           Y           Z
 ---------------------------------------------------------------------
      1          8           0       -0.898762    1.730164    1.677318
      2          6           0       -0.034606    0.684992    1.286679
      3          6           0        0.054392    0.511480   -0.245152
      4          6           0        0.702336    1.774762   -0.882571
      5          8           0       -0.076587    2.929380   -0.772892
      6          6           0        0.865755   -0.737173   -0.583442
      7         35           0        2.685153   -0.743486    0.108394
      8          6           0       -1.333299    0.354693   -0.882699
      9         35           0       -2.484993   -0.979272   -0.040803
     10          1           0       -1.813044    1.412030    1.648723
     11          1           0       -0.336312   -0.268347    1.759592
     12          1           0        0.963763    0.941480    1.674452
     13          1           0        0.868295    1.601278   -1.960714
     14          1           0        1.700682    1.914956   -0.420535
     15          1           0       -0.332376    3.014128    0.162316
     16          1           0        0.962955   -0.854223   -1.673217
     17          1           0        0.387471   -1.638305   -0.171894
     18          1           0       -1.252923    0.060007   -1.939427
     19          1           0       -1.878791    1.304627   -0.837276
 ---------------------------------------------------------------------
 Rotational constants (GHZ):           1.0115621           0.4078520           0.3367755
   182 basis functions,   375 primitive gaussians,   195 cartesian basis functions
    63 alpha electrons       63 beta electrons
       nuclear repulsion energy      1070.6770304751 Hartrees.
 NAtoms=   19 NActive=   19 NUniq=   19 SFac= 1.00D+00 NAtFMM=   60 NAOKFM=F Big=F
 Nuclear repulsion after empirical dispersion term =     1070.6614887939 Hartrees.
   1 Symmetry operations used in ECPInt.
 ECPInt:  NShTT=    3741 NPrTT=   17221 LenC2=    3600 LenP2D=   12193.
 LDataN:  DoStor=T MaxTD1= 4 Len=   56
 Lowest energy guess from the checkpoint file:  "monomer.chk"
 B after Tr=     0.000000   -0.000000    0.000000
         Rot=    0.999917   -0.006127    0.002606    0.011051 Ang=  -1.48 deg.
 B after Tr=     0.000000   -0.000000    0.000000
         Rot=    0.999911   -0.012650    0.000582    0.004300 Ang=  -1.53 deg.
     Accept linear search using points  3 and  4.
     Accept linear search using points  1 and  2.
     Accept linear search using points  1 and  2.
     Accept linear search using points  1 and  2.
     Accept linear search using points  3 and  4.
     Minimum is close to point  4 DX= -1.44D-01 DF= -2.16D-07 DXR=  6.38D-02 DFR=  4.86D-03 which will be used.
     Accept linear search using points  1 and  2.
     Minimum is close to point  2 DX= -1.12D-04 DF=  0.00D+00 DXR=  1.12D-04 DFR=  0.00D+00 which will be used.
 SCF Done:  E(RwB97XD) =  -5494.41191286     a.u. after   11 cycles
            Convg  =    0.6877D-09                    44 Fock formations.
              S**2 =  0.0000                  -V/T =  2.0016
   1 Symmetry operations used in ECPInt.
 ECPInt:  NShTT=    3741 NPrTT=   17221 LenC2=    3600 LenP2D=   12193.
 LDataN:  DoStor=T MaxTD1= 5 Len=  102
 Calling FoFJK, ICntrl=      2127 FMM=F ISym2X=0 I1Cent= 0 IOpClX= 0 NMat=1 NMatS=1 NMatT=0.

 GradGradGradGradGradGradGradGradGradGradGradGradGradGradGradGradGradGrad
 Using GEDIIS/GDIIS optimizer.
 FormGI is forming the generalized inverse of G from B-inverse, IUseBI=4.
 Internal  Forces:  Max     0.006261851 RMS     0.001404616
 Step number   4 out of a maximum of  102
 All quantities printed in internal units (Hartrees-Bohrs-Radians)
 Mixed Optimization -- RFO/linear search
 Trust test= 3.25D-01 RLast= 2.44D-01 DXMaxT set to 1.50D-01
 ITU=  0 -1  0  0
 Use linear search instead of GDIIS.
     Eigenvalues ---    0.00246   0.00378   0.00440   0.00794   0.01575
     Eigenvalues ---    0.01747   0.04545   0.04665   0.05024   0.05121
     Eigenvalues ---    0.05209   0.05368   0.05636   0.05695   0.05815
     Eigenvalues ---    0.05893   0.06699   0.11721   0.11869   0.14052
     Eigenvalues ---    0.14158   0.14366   0.15375   0.15670   0.15940
     Eigenvalues ---    0.16000   0.16000   0.16002   0.16052   0.16181
     Eigenvalues ---    0.17900   0.22218   0.22646   0.23978   0.26085
     Eigenvalues ---    0.28102   0.29339   0.29836   0.33167   0.33996
     Eigenvalues ---    0.34194   0.34299   0.34639   0.34751   0.34804
     Eigenvalues ---    0.34836   0.39879   0.44480   0.46119   0.53090
     Eigenvalues ---    0.54570
 Quartic linear search produced a step of -0.40621.
 Iteration  1 RMS(Cart)=  0.03059652 RMS(Int)=  0.00043727
 Iteration  2 RMS(Cart)=  0.00056973 RMS(Int)=  0.00001894
 Iteration  3 RMS(Cart)=  0.00000011 RMS(Int)=  0.00001894
 Variable       Old X    -DE/DX   Delta X   Delta X   Delta X     New X
                                 (Linear)    (Quad)   (Total)
    R1        2.66696  -0.00037  -0.00129   0.00108  -0.00021   2.66675
    R2        1.83015  -0.00022  -0.00052   0.00051  -0.00001   1.83014
    R3        2.91810  -0.00142   0.00323  -0.00439  -0.00116   2.91694
    R4        2.09029  -0.00019  -0.00027   0.00050   0.00022   2.09051
    R5        2.08118  -0.00039  -0.00048   0.00042  -0.00006   2.08112
    R6        2.94095  -0.00438  -0.00308  -0.00242  -0.00550   2.93545
    R7        2.88571   0.00382   0.00627  -0.00079   0.00548   2.89119
    R8        2.90104  -0.00028   0.00040  -0.00036   0.00004   2.90108
    R9        2.64014   0.00100   0.00309  -0.00180   0.00129   2.64143
   R10        2.08730   0.00002  -0.00010   0.00060   0.00050   2.08780
   R11        2.09566  -0.00043  -0.00146   0.00129  -0.00017   2.09549
   R12        1.83918   0.00013  -0.00128   0.00127  -0.00001   1.83917
   R13        3.67836   0.00192   0.00810  -0.00275   0.00534   3.68371
   R14        2.07935  -0.00009  -0.00005   0.00047   0.00041   2.07977
   R15        2.07884  -0.00018  -0.00037   0.00061   0.00023   2.07908
   R16        3.69085   0.00026   0.00354  -0.00249   0.00104   3.69189
   R17        2.07868  -0.00009   0.00001   0.00043   0.00044   2.07912
   R18        2.07182   0.00082   0.00060   0.00063   0.00123   2.07305
    A1        1.90351  -0.00009   0.00292  -0.00265   0.00028   1.90378
    A2        1.97478  -0.00402  -0.00170  -0.00462  -0.00632   1.96846
    A3        1.93149   0.00238   0.00527   0.00150   0.00677   1.93826
    A4        1.85995   0.00028  -0.00304  -0.00041  -0.00346   1.85650
    A5        1.92090   0.00063  -0.00091   0.00282   0.00191   1.92280
    A6        1.89991   0.00123  -0.00029   0.00077   0.00047   1.90037
    A7        1.87281  -0.00036   0.00063   0.00005   0.00067   1.87349
    A8        1.91674  -0.00181  -0.00587  -0.00262  -0.00842   1.90832
    A9        1.92012   0.00113   0.00618   0.00266   0.00884   1.92896
   A10        1.95126   0.00023  -0.00183  -0.00065  -0.00239   1.94887
   A11        1.93028   0.00162   0.00733   0.00044   0.00774   1.93802
   A12        1.86414  -0.00116  -0.01089   0.00030  -0.01055   1.85358
   A13        1.88050   0.00001   0.00465  -0.00015   0.00447   1.88497
   A14        1.98949  -0.00626  -0.00899  -0.00211  -0.01108   1.97841
   A15        1.91224   0.00135   0.00166  -0.00002   0.00169   1.91393
   A16        1.88260   0.00109   0.00165  -0.00077   0.00087   1.88348
   A17        1.86523   0.00204  -0.00293   0.00462   0.00173   1.86696
   A18        1.94413   0.00245   0.00610  -0.00077   0.00530   1.94944
   A19        1.86635  -0.00035   0.00309  -0.00087   0.00223   1.86857
   A20        1.86913   0.00239   0.00937  -0.00281   0.00655   1.87568
   A21        2.00484   0.00299   0.00702  -0.00007   0.00696   2.01180
   A22        1.93192  -0.00031  -0.00089  -0.00001  -0.00090   1.93101
   A23        1.93471  -0.00054  -0.00083  -0.00058  -0.00140   1.93330
   A24        1.84325  -0.00111  -0.00224   0.00088  -0.00135   1.84190
   A25        1.84498  -0.00104  -0.00245   0.00100  -0.00145   1.84353
   A26        1.89841  -0.00014  -0.00104  -0.00122  -0.00226   1.89615
   A27        2.00839   0.00087   0.00183   0.00055   0.00238   2.01078
   A28        1.93936  -0.00016   0.00025  -0.00012   0.00012   1.93948
   A29        1.92203  -0.00064  -0.00277   0.00064  -0.00213   1.91990
   A30        1.84857  -0.00022  -0.00110   0.00095  -0.00016   1.84841
   A31        1.85514  -0.00016  -0.00099   0.00011  -0.00088   1.85426
   A32        1.88418   0.00032   0.00296  -0.00232   0.00063   1.88481
    D1        1.40880  -0.00007  -0.00378   0.00134  -0.00245   1.40635
    D2       -0.75629   0.00025  -0.00537  -0.00009  -0.00545  -0.76174
    D3       -2.78702  -0.00072  -0.00711  -0.00068  -0.00779  -2.79481
    D4        1.13375  -0.00233  -0.02425  -0.03627  -0.06052   1.07323
    D5       -3.02089  -0.00076  -0.01493  -0.03571  -0.05063  -3.07152
    D6       -0.93223   0.00015  -0.00607  -0.03454  -0.04061  -0.97284
    D7       -2.97856  -0.00167  -0.01929  -0.03554  -0.05483  -3.03339
    D8       -0.85002  -0.00010  -0.00997  -0.03498  -0.04494  -0.89496
    D9        1.23865   0.00081  -0.00111  -0.03381  -0.03492   1.20372
   D10       -0.93053  -0.00102  -0.01922  -0.03342  -0.05264  -0.98318
   D11        1.19801   0.00055  -0.00990  -0.03286  -0.04276   1.15526
   D12       -2.99651   0.00146  -0.00104  -0.03169  -0.03274  -3.02924
   D13       -1.16317   0.00095  -0.02220   0.03155   0.00937  -1.15380
   D14        3.03111   0.00152  -0.01380   0.02705   0.01327   3.04439
   D15        1.00548   0.00062  -0.01931   0.02851   0.00923   1.01472
   D16        2.99754  -0.00032  -0.03084   0.02967  -0.00116   2.99638
   D17        0.90864   0.00025  -0.02243   0.02517   0.00274   0.91138
   D18       -1.11699  -0.00065  -0.02794   0.02663  -0.00130  -1.11829
   D19        0.95591  -0.00052  -0.03387   0.02944  -0.00447   0.95144
   D20       -1.13299   0.00005  -0.02547   0.02493  -0.00057  -1.13356
   D21        3.12456  -0.00085  -0.03098   0.02640  -0.00461   3.11996
   D22       -1.02533   0.00052  -0.00129   0.00356   0.00229  -1.02304
   D23       -3.11064   0.00011  -0.00260   0.00247  -0.00013  -3.11077
   D24        1.06433   0.00086  -0.00016   0.00439   0.00424   1.06857
[...]
 624294,0.00639295,-0.00358713,0.00322022,0.00202345,0.00845133,-0.0008
 6331,-0.00186859,-0.13707643,0.10045026,0.00508683,0.20260782,-0.00359
 897,0.00303863,0.00579850,0.00201300,-0.00013761,-0.00452011,0.0210443
 7,-0.04250520,-0.00531348,0.09098470,-0.20251901,0.00327212,-0.1572949
 4,0.30942340,0.00375820,0.01015909,-0.00872230,0.00306551,-0.00728824,
 -0.00171747,-0.00999899,0.00762272,0.00612374,0.02672079,-0.03025790,-
 0.10513406,-0.14184884,0.02800569,0.53800052,0.00114313,-0.00134481,-0
 .00140179,-0.00355622,0.00429026,0.00786271,-0.09339917,0.03975961,0.0
 1732578,0.01140675,-0.00332178,-0.00632654,-0.00112095,-0.00733852,0.0
 0111256,0.35787457,-0.00124002,0.00216386,0.00118425,0.00486171,-0.007
 25261,-0.00712485,0.04576890,-0.16180028,-0.02019473,0.01725819,-0.028
 04716,-0.00539744,-0.00227517,-0.00467257,0.00182541,0.04593125,0.5110
 8122,0.00161170,-0.00458575,-0.00922920,0.02016076,-0.02740390,-0.0034
 7399,0.02219840,-0.02451066,-0.09031637,-0.00831189,0.00868128,0.00345
 200,0.00033098,0.00472238,-0.00070926,-0.07134205,-0.02936347,0.559210
 81,-0.00001420,0.00027442,0.00044599,-0.00038935,0.00119010,-0.0005187
 3,-0.02280181,-0.00080347,-0.00927778,-0.00054897,-0.00115728,0.000565
 44,0.00077979,0.00071412,0.00026198,-0.10435352,-0.00413919,-0.0314592
 7,0.16683285,0.00047845,0.00019846,0.00010353,0.00040694,-0.00100114,-
 0.00101199,0.01534444,0.00385012,0.00775716,-0.00002599,-0.00169974,0.
 00008949,0.00113277,-0.00018587,0.00001511,-0.00155969,-0.02862556,-0.
 00029086,-0.00750035,0.02686382,0.00091127,0.00011046,0.00066470,0.001
 00013,-0.00153829,-0.00151184,-0.00112013,0.00146681,0.00041864,-0.000
 54647,0.00008782,0.00038857,-0.00003390,0.00029346,0.00016849,-0.03002
 225,-0.00135757,-0.04194256,0.05357314,0.00080891,0.04153565,-0.002749
 82,0.00238766,0.00122015,0.00254222,-0.00554069,-0.00967862,-0.1547998
 3,0.00645866,-0.03839471,-0.01948300,-0.01874807,-0.00003455,-0.004251
 93,0.00340697,0.00037324,-0.02617043,0.00552319,-0.00641494,-0.0006829
 0,0.00088371,0.00022566,0.40595262,-0.00117849,-0.00006108,0.00194458,
 -0.00547869,-0.00132022,-0.00574631,0.00600480,-0.07282263,-0.00591256
 ,-0.02715193,-0.00728676,-0.00625897,-0.00144191,-0.00038451,-0.000369
 05,0.02308821,0.00226337,0.00929050,0.00637336,-0.00354120,0.00097550,
 -0.10407509,0.48971555,-0.00048377,0.00239707,0.00125330,-0.03553698,-
 0.00567859,-0.01835492,-0.04279130,-0.00721600,-0.09876913,0.01080986,
 -0.00084497,0.00466236,-0.00161252,0.00036192,0.00143980,0.00179693,0.
 00221912,0.00093800,0.00212787,-0.00075959,0.00036695,0.01388183,0.076
 73546,0.52128234,0.00054714,-0.00075620,-0.00038581,-0.00217486,0.0004
 2445,0.00016484,-0.01564898,-0.02118446,0.01349209,-0.00603715,0.00350
 690,-0.00401445,0.00139576,-0.00053473,-0.00023131,-0.00122241,-0.0010
 9165,0.00013246,0.00023406,0.00005661,-0.00005029,-0.05138287,-0.03162
 270,0.02406256,0.08507639,-0.00126626,-0.00072981,-0.00058033,-0.00060
 402,-0.00024499,0.00053496,-0.00852497,-0.00931370,0.00411005,-0.00175
 830,0.00151565,-0.00231760,-0.00104897,-0.00021261,-0.00025030,0.00134
 941,-0.00054597,-0.00022531,0.00016286,0.00046385,-0.00009914,-0.02885
 671,-0.06751805,0.02859302,0.06559854,0.09107048,-0.00216986,-0.000612
 34,0.00055614,-0.00164729,-0.00212200,-0.00239288,0.00144860,-0.000527
 74,0.00175584,-0.00021162,-0.00127920,0.00067287,0.00013772,0.00041158
 ,0.00045499,-0.00009674,0.00049960,0.00045226,0.00008602,-0.00012844,0
 .00012577,0.02085555,0.02678906,-0.04857115,-0.03748988,-0.04684896,0.
 05451999,-0.44566754,-0.11507403,-0.00346163,-0.02689226,-0.00753848,-
 0.00220450,0.00022897,-0.00113671,0.00008778,-0.00053271,0.00008291,-0
 .00011252,0.00041531,0.00032457,-0.00118134,-0.00034175,0.00014744,-0.
 00087324,0.00003722,0.00003107,0.00013883,0.00130763,0.00073981,-0.000
 21464,-0.00027526,0.00060181,0.00085963,0.46979383,-0.16432684,-0.0922
 8216,-0.01137469,0.03863977,0.00754756,-0.00023994,0.00062519,-0.00106
 259,0.00017283,-0.00029455,0.00029437,-0.00007587,0.00080824,-0.000570
 72,0.00091598,0.00023434,0.00004029,-0.00001100,-0.00009471,-0.0001371
 2,-0.00019850,0.00098505,0.00140660,-0.00202347,-0.00015923,0.00046465
 ,0.00159591,0.12111499,0.08797851,-0.01588473,-0.01580753,-0.00807158,
 0.01049322,0.00277567,-0.00139935,0.00266807,-0.00024164,0.00006917,0.
 00046171,0.00004019,-0.00011932,-0.00116478,0.00014887,-0.00117168,0.0
 0007610,-0.00038803,-0.00015244,-0.00049728,0.00017260,-0.00011574,0.0
 0055738,-0.00143717,-0.00071974,-0.00044758,-0.00002290,0.00003647,0.0
 0432925,0.01368288,0.01152029,0.00372611,0.03056319,-0.00784938,-0.082
 03737,-0.07612738,0.03864435,0.00033580,-0.00051356,-0.00083457,-0.000
 18830,0.00048413,0.00101921,0.00034945,-0.00015990,-0.00040740,0.00037
 887,-0.00052943,0.00072398,-0.00018113,0.00010467,-0.00019930,0.000348
 16,0.00062744,0.00015912,-0.00215628,-0.00064669,-0.00181685,0.0025022
 5,0.00102675,-0.00095471,0.08221138,0.00438566,-0.03145582,0.00607941,
 -0.06771967,-0.22768705,0.09652597,0.00025254,0.00355984,-0.00116396,0
 .00039840,0.00025024,-0.00111513,-0.00040114,0.00014433,0.00067329,0.0
 0056344,0.00106181,-0.00046011,-0.00029999,0.00016812,0.00007314,-0.00
 011332,-0.00023793,0.00058450,-0.00176377,-0.00031302,-0.00168840,-0.0
 0163329,0.00037898,-0.00065207,0.06787057,0.25604451,-0.00246801,-0.01
 413966,0.00767331,0.03740335,0.09846943,-0.10456958,0.01167662,0.02649
 638,-0.01499328,-0.00052642,-0.00359181,-0.00661030,-0.00076898,0.0004
 3235,0.00113488,-0.00017029,0.00159916,0.00089184,0.00023108,-0.000102
 12,-0.00011814,0.00235662,0.00147108,0.00035999,-0.00129290,-0.0009418
 6,0.00043473,-0.00102614,0.00067536,0.00083088,-0.04309565,-0.10054579
 ,0.10999795,-0.02373586,0.00270782,-0.00110567,-0.27042704,-0.06151378
 ,-0.08680188,0.00192796,-0.00078063,0.00003087,0.00061329,-0.00027343,
 0.00111646,0.00018638,0.00019722,-0.00008018,0.00010445,-0.00015198,-0
 .00080610,-0.00152234,0.00165000,0.00169544,0.00024459,0.00012594,0.00
 095738,0.00004468,0.00005064,-0.00020508,-0.00063992,0.00393685,-0.001
 03911,-0.00533704,-0.00197629,-0.00324881,0.29851493,0.03580555,0.0030
 8555,0.00535181,-0.07190700,-0.06976394,-0.02384309,-0.00252144,0.0006
 4423,0.00186071,0.00102033,0.00014285,0.00095595,-0.00028971,0.0001340
 9,0.00011415,-0.00099854,-0.00016227,-0.00047752,0.00078065,-0.0004172
 5,-0.00023702,-0.00019169,-0.00040321,-0.00048917,-0.00010518,0.000251
 44,-0.00062722,0.00444055,-0.00406131,0.00027514,-0.02253408,-0.003186
 96,-0.00998571,0.05614930,0.07318271,0.01432350,0.00051845,0.00447211,
 -0.08999166,-0.02080402,-0.08457142,-0.02903384,-0.00756966,-0.0131192
 3,-0.00249590,-0.00114829,0.00131898,0.00055557,0.00038539,0.00012877,
 -0.00152790,0.00051585,-0.00014311,0.00106130,-0.00023280,0.00030424,0
 .00232488,-0.00110044,-0.00651074,0.00048226,0.00005039,0.00049692,0.0
 0214222,-0.00179568,0.00048158,0.01340689,0.00318420,0.00649062,0.0892
 2897,0.02738841,0.09155846,-0.00012754,-0.00012337,-0.00000287,-0.0008
 3519,-0.00247038,-0.00020463,-0.00178994,0.00062380,0.01542029,-0.0545
 2964,-0.00023454,0.01293965,-0.00529831,0.00954165,0.02510366,0.000428
 74,0.00092627,-0.00050385,-0.00014062,-0.00002868,0.00015324,0.0001008
 8,0.00004013,0.00148673,0.00032972,0.00028803,-0.00036110,0.00013240,0
 .00001853,-0.00004427,0.00033401,-0.00002510,0.00088650,0.00024085,-0.
 00000712,0.00034959,0.05703689,-0.00015668,0.00150741,-0.00091421,-0.0
 0184203,-0.00565110,0.00117410,-0.00184036,0.00304750,0.02573478,-0.00
 057294,-0.05194677,-0.02493026,0.01274327,-0.01198302,-0.03563857,-0.0
 0026939,0.00131389,0.00149155,-0.00007932,0.00012387,-0.00012737,0.000
 42676,0.00033599,0.00076866,0.00035535,0.00019445,-0.00023911,0.000080
 79,-0.00001228,0.00004937,-0.00034248,0.00036203,0.00171069,-0.0000616
 3,-0.00007367,-0.00020452,-0.00916017,0.06778825,0.00027105,-0.0002273
 6,-0.00004253,0.00099202,0.00310715,0.00030945,0.00031573,-0.00130111,
 -0.01246606,0.02074237,-0.03278506,-0.30712640,0.00522871,-0.00496745,
 0.00003556,0.00011617,-0.00092846,0.00026391,-0.00020821,0.00033006,-0
 .00005758,-0.00090826,-0.00050644,0.00020388,-0.00005295,0.00008711,0.
 00031344,-0.00014733,-0.00001282,0.00000479,0.00022874,-0.00002956,-0.
 00083105,0.00010833,-0.00004158,0.00042204,-0.02740772,0.03750451,0.32
 586629,0.00035133,-0.00045159,0.00071677,-0.00025042,0.00100459,-0.001
 63427,-0.01351569,-0.00547317,-0.00634838,-0.25182890,-0.03597911,-0.0
 8926307,-0.01934101,0.01363169,-0.00237711,-0.00123595,-0.00019458,-0.
 00009574,0.00001892,0.00248711,-0.00036288,0.00036840,-0.00174783,0.00
 158576,-0.00056982,-0.00027614,0.00007390,0.00004581,0.00000466,-0.000
 22670,0.00046605,-0.00003300,-0.00003862,0.00028185,-0.00008318,0.0011
 0609,0.00503860,-0.00024985,0.00139221,0.27960939,-0.00005167,0.000709
 91,-0.00027272,0.00026580,0.00030197,-0.00173035,-0.02423825,-0.004272
 52,-0.00904459,-0.03714502,-0.05391842,-0.01790608,0.03918182,-0.00649
 326,0.01085897,-0.00138029,0.00084042,-0.00072811,0.00139559,-0.001587
 40,0.00060753,0.00023299,-0.00316653,0.00230143,-0.00193893,-0.0009982
 6,0.00037255,-0.00003716,-0.00020038,-0.00001379,0.00020574,0.00004644
 ,-0.00015871,0.00020873,0.00025075,0.00075003,-0.00344426,0.00122174,-
 0.00067947,0.02701705,0.06691490,-0.00014107,-0.00016101,-0.00015360,0
 .00167713,0.00027749,0.00126646,0.01398174,0.00536763,0.00434519,-0.09
 242255,-0.01822254,-0.09828336,0.00632260,0.00198965,0.00911049,-0.000
 17268,-0.00076129,0.00010149,-0.00041059,0.00093951,-0.00015214,-0.000
 36283,0.00158552,-0.00126148,0.00083591,0.00043403,0.00018783,0.000018
 12,0.00002475,-0.00000710,-0.00012595,-0.00010497,0.00020290,-0.000009
 81,0.00018261,-0.00042804,-0.02759453,-0.00566350,-0.01032133,0.097090
 06,0.01340977,0.09490242,-0.00704490,0.00345376,-0.00129943,0.00437917
 ,-0.00086621,-0.00199682,0.00184203,0.00079041,-0.00085323,-0.00920712
 ,0.00674149,0.02558076,-0.04959587,0.02613328,0.09574956,-0.00006936,-
 0.00051659,0.00050167,-0.00030528,-0.00013014,-0.00008221,0.00018874,-
 0.00037521,0.00038999,-0.00020312,0.00009035,0.00008937,-0.00070196,-0
 .00216794,0.00215290,-0.00075865,0.00070809,0.00036449,-0.00067403,0.0
 0037552,-0.00036814,-0.00088082,0.00155033,-0.00103540,-0.00014766,-0.
 00044758,0.00100796,0.06388878,0.00076368,0.00090767,-0.00325774,0.003
 43702,-0.00752838,0.00195795,-0.00057315,0.00020757,-0.00173478,0.0136
 5715,-0.00833814,-0.04101091,0.01599330,-0.03749611,0.01167124,0.00090
 366,0.00006237,0.00029663,-0.00036410,0.00003290,-0.00001579,-0.000801
 09,-0.00071709,0.00020258,0.00017406,0.00029228,0.00008094,-0.00141743
 ,0.00062311,0.00015667,-0.00013602,0.00066949,0.00005554,-0.00016141,0
 .00010121,0.00008107,0.00433651,-0.00551829,-0.00075777,0.00027572,0.0
 0046959,0.00064721,-0.03487711,0.05573540,0.00132653,-0.00294188,-0.00
 621783,-0.00575423,0.00568095,0.00379442,-0.00005845,0.00181598,0.0013
 7320,0.00250802,-0.00501192,-0.00515195,0.12107296,-0.03049780,-0.4390
 9098,0.00083019,0.00068865,-0.00107670,-0.00013863,0.00013465,-0.00019
 255,-0.00065613,-0.00069683,0.00002379,0.00043867,0.00044779,-0.000588
 66,0.00164087,-0.00163875,0.00111992,0.00070674,-0.00137950,-0.0008361
 7,0.00011318,-0.00013366,-0.00035221,0.00030783,0.00043607,0.00243557,
 -0.00170422,0.00184463,0.00027617,-0.11912927,0.03205184,0.44451871,-0
 .00042726,0.00124841,0.00150326,-0.00121930,0.00191361,-0.00141617,-0.
 00106331,0.00152360,0.01535929,-0.00016810,-0.00070159,-0.00026415,-0.
 00000507,0.00004264,-0.00010755,-0.04001258,-0.00017773,0.02470548,-0.
 01399439,-0.00099034,-0.02640243,0.00070935,0.00046892,0.00179232,-0.0
 0007490,-0.00006293,-0.00020361,0.00024803,-0.00002045,-0.00005452,-0.
 00003538,-0.00002526,-0.00032025,-0.00001520,0.00016982,0.00022667,0.0
 0028618,0.00007157,-0.00018288,0.00001465,0.00005668,-0.00005772,-0.00
 010015,-0.00021123,0.00012240,0.05541406,0.00083065,-0.00121019,-0.002
 18642,0.00267606,-0.00353033,0.00244644,0.00296052,-0.00344782,-0.0284
 8625,0.00031484,0.00063839,-0.00239902,-0.00036860,0.00052240,0.000758
 49,0.00203907,-0.05312061,-0.02413491,0.00027345,0.00104941,0.00014101
 ,-0.00095108,0.00071534,-0.00071446,-0.00027445,-0.00010861,0.00011297
 ,-0.00018398,-0.00006927,-0.00001518,0.00010541,0.00014092,-0.00014226
 ,-0.00016762,0.00008080,0.00006510,-0.00000888,-0.00062527,0.00092010,
 -0.00009044,-0.00010283,0.00013738,0.00010903,0.00036242,-0.00032295,-
 0.00663139,0.05344063,0.00026712,-0.00035605,-0.00039782,0.00078020,-0
 .00083926,0.00143834,0.00076155,-0.00030814,-0.00676067,-0.00025597,0.
 00089674,0.00036572,-0.00000193,0.00001740,0.00041876,0.02932262,-0.02
 555607,-0.32670482,-0.00345308,0.00000881,-0.00260436,-0.00067086,0.00
 072864,0.00057148,0.00013340,-0.00008269,0.00001170,-0.00008351,-0.000
 03584,-0.00004504,-0.00008067,0.00010551,0.00019937,-0.00011048,0.0000
 4555,0.00003592,-0.00026787,-0.00052445,0.00033823,0.00007379,0.000036
 74,0.00007019,0.00003735,0.00022006,-0.00011288,-0.02771310,0.02814259
 ,0.34011477,-0.00012177,-0.00005832,0.00008305,0.00019713,0.00007560,-
 0.00071745,0.00910345,0.01384534,-0.00599089,-0.00245983,0.00101619,0.
 00149833,0.00007427,0.00198154,-0.00017785,-0.09692308,-0.10742631,0.0
 5393297,-0.02185735,-0.01312340,0.00103208,0.00105529,0.00083326,-0.00
 036617,-0.00153277,0.00006952,0.00029598,0.00005270,0.00003855,0.00003
 710,0.00009091,-0.00017393,0.00014604,-0.00003907,0.00002247,0.0000456
 2,-0.00011345,-0.00009891,0.00001575,0.00010575,0.00011701,-0.00001651
 ,0.00007518,-0.00016378,-0.00025958,0.00119932,-0.00085309,0.00080727,
 0.11102946,0.00014872,0.00080444,-0.00015015,-0.00060107,-0.00001603,0
 .00142195,-0.01135141,-0.02164790,0.01034458,0.00459633,-0.00084761,-0
 .00268645,-0.00017152,-0.00240828,0.00040619,-0.10296990,-0.23440530,0
 .08631760,0.00443202,0.00442920,-0.00067466,-0.00133058,-0.00033504,0.
 00037407,0.00003978,0.00096448,-0.00029648,0.00001629,-0.00012399,0.00
 001149,0.00022970,0.00005914,-0.00106391,0.00007612,0.00008545,-0.0000
 1300,0.00007777,0.00018997,0.00011176,-0.00022533,0.00017179,-0.000066
 22,-0.00018892,0.00016072,0.00048282,0.00300368,0.00498189,-0.00248458
 ,0.10418331,0.24799693,-0.00018061,0.00064789,0.00002235,-0.00084483,-
 0.00166444,0.00084757,-0.00456566,-0.00748170,0.00370259,0.00122840,-0
 .00082315,-0.00074097,-0.00012153,-0.00051164,0.00055580,0.05306710,0.
 08427308,-0.09069186,-0.01232501,-0.00804176,0.00213104,-0.00008060,0.
 00067639,0.00031487,0.00021341,-0.00018668,-0.00008778,0.00011328,-0.0
 0001148,0.00006455,0.00027948,0.00002827,-0.00032704,-0.00000114,-0.00
 003318,-0.00007548,-0.00007866,-0.00022973,0.00036479,0.00005471,0.000
 18936,-0.00005661,-0.00003040,0.00012758,0.00010648,0.01361649,0.02500
 532,-0.00772585,-0.05040636,-0.09197513,0.09181554,0.00085596,-0.00029
 529,0.00058516,-0.00686996,0.00004792,-0.00026098,0.00198134,-0.007256
 23,-0.02888280,0.00113956,0.00075137,-0.00097952,0.00005077,0.00007631
 ,0.00015818,0.00021081,-0.00070220,-0.00199600,0.00065562,-0.00005863,
 0.00039807,-0.04605053,0.00989949,0.01651057,-0.00640851,-0.00348818,0
 .01567185,-0.00015825,-0.00011532,-0.00010641,0.00001060,0.00007785,-0
 .00003455,0.00024711,-0.00016177,-0.00186008,-0.00029311,-0.00029809,0
 .00057525,0.00005434,0.00017749,0.00023139,-0.00008114,0.00017797,-0.0
 0014733,-0.00082301,0.00045849,0.00050657,-0.00003895,0.00017022,0.000
 10947,0.05491401,-0.00052156,0.00032852,-0.00068796,0.00050645,0.00004
 012,0.00036108,0.00108317,0.00047853,-0.00011278,0.00021002,0.00029605
 ,-0.00120481,-0.00054942,-0.00054536,0.00083540,0.00078687,-0.00003942
 ,0.00138233,-0.00039929,-0.00005300,-0.00013857,0.01089957,-0.06699863
 ,-0.07891700,-0.00927982,-0.00316431,0.02123729,-0.00029618,-0.0002920
 5,0.00075272,-0.00021823,0.00000231,-0.00026832,0.00003625,0.00010406,
 -0.00006212,-0.00048345,-0.00010799,0.00018473,-0.00007177,0.00001400,
 0.00011241,0.00045495,0.00045784,0.00007538,0.00041105,0.00027381,-0.0
 0004349,-0.00018019,-0.00003209,0.00007567,-0.00302615,0.07260771,0.00
 022759,0.00003508,0.00044185,-0.00292337,-0.00028065,0.00062688,0.0006
 4817,-0.00349650,-0.01140698,0.00047764,0.00021307,0.00012779,-0.00027
 971,-0.00011230,0.00004164,0.00097143,-0.00046610,0.00031362,0.0004297
 1,-0.00005312,0.00043554,0.01310842,-0.08177379,-0.30736929,0.00360060
 ,0.00212966,-0.00576770,-0.00001175,0.00007567,0.00002785,0.00014829,0
 .00006736,0.00011504,0.00011240,-0.00014789,-0.00071605,-0.00019563,-0
 .00028995,0.00039633,-0.00002545,0.00002039,0.00033206,0.00006029,0.00
 016918,-0.00005325,-0.00046737,0.00055124,0.00043148,-0.00002102,0.000
 02566,-0.00006791,-0.01471745,0.08304780,0.32066216,0.00107845,-0.0009
 4505,0.00062501,-0.00066285,0.00107155,0.00105412,-0.01399879,0.023714
 06,0.00198965,-0.00224639,0.00352891,0.00029577,0.00212199,-0.00116497
 ,0.00010689,-0.00314188,-0.00197209,-0.00249531,-0.00176659,0.00084144
 ,-0.00030800,-0.10724658,0.12487048,0.00544446,0.00005918,-0.02167798,
 0.00468344,0.00044550,-0.00025389,-0.00035563,-0.00005945,-0.00009180,
 -0.00007408,-0.00001559,0.00003553,0.00002396,0.00008036,-0.00025621,-
 0.00004355,0.00053437,-0.00017574,0.00014933,-0.00060385,-0.00101376,-
 0.00121954,0.00006707,-0.00023801,-0.00005241,0.00010281,-0.00013522,-
 0.00004754,0.00060333,0.00063773,-0.00114279,0.12464892,-0.00066951,-0
 .00024576,-0.00116430,0.00053601,-0.00023492,-0.00017113,-0.00002869,0
 .00464683,-0.00018785,-0.00071457,0.00015495,0.00075809,-0.00258226,-0
 .00314872,-0.00005766,0.00023680,-0.00015549,0.00000935,-0.00075887,0.
 00006853,-0.00017775,0.12940377,-0.26964397,-0.01789458,-0.00144457,-0
 .01206796,0.00326999,-0.00026295,0.00007778,0.00051273,-0.00000982,-0.
 00000740,0.00003016,-0.00005213,0.00000548,-0.00000837,0.00013327,-0.0
 0016670,-0.00000831,0.00045517,-0.00020190,-0.00012843,-0.00083747,-0.
 00048455,-0.00103547,-0.00008906,0.00000892,0.00002851,-0.00010487,-0.
 00002777,-0.00006467,0.00356474,-0.00337010,0.00028520,-0.12677498,0.2
 8479275,0.00121471,-0.00071690,-0.00001586,-0.00058980,0.00165817,0.00
 051277,-0.00704674,0.01270344,0.00216492,0.00061413,0.00006738,0.00094
 953,0.00054901,0.00008348,-0.00106769,-0.00142135,-0.00126712,-0.00118
 363,-0.00049394,0.00026085,0.00015534,0.00229780,-0.01639516,-0.049860
 33,0.00040897,0.01516878,-0.00261077,-0.00001336,0.00027467,-0.0023535
 2,0.00004770,-0.00018215,-0.00004593,0.00004524,-0.00015828,0.00020665
 ,0.00001363,-0.00010806,-0.00010936,-0.00001686,0.00014240,-0.00013155
 ,-0.00113945,-0.00094149,0.00002493,-0.00013614,0.00012079,0.00035549,
 0.00006164,-0.00008555,-0.00015207,0.01423860,-0.02662974,0.00142894,-
 0.00863378,0.01600450,0.05173212\\-0.00000074,-0.00000216,0.00000030,-
 0.00000161,-0.00000111,0.00000008,-0.00000036,-0.00000020,-0.00000028,
 0.00000145,0.00000043,0.00000195,0.00000271,0.00000044,0.00000252,-0.0
 0000034,-0.00000004,-0.00000066,-0.00000149,-0.00000227,0.00000064,0.0
 0000034,0.00000147,-0.00000115,-0.00000121,0.00000199,-0.00000444,-0.0
 0000091,-0.00000064,-0.00000060,-0.00000241,-0.00000215,-0.00000141,-0
 .00000162,-0.00000313,0.00000145,0.00000262,0.00000160,0.00000208,0.00
 000148,-0.00000106,0.00000319,0.00000120,0.00000002,0.00000297,0.00000
 024,0.00000119,-0.00000092,-0.00000190,-0.00000014,-0.00000266,0.00000
 129,0.00000341,-0.00000198,0.00000128,0.00000235,-0.00000110\\\@


 IT WAS A GAME, A VERY INTERESTING GAME ONE COULD
 PLAY.  WHENEVER ONE SOLVED ONE OF THE LITTLE PROBLEMS,
 ONE COULD WRITE A PAPER ABOUT IT.  IT WAS VERY EASY IN
 THOSE DAYS FOR ANY SECOND-RATE PHYSICIST TO DO
 FIRST-RATE WORK.  THERE HAS NOT BEEN SUCH A GLORIOUS
 TIME SINCE.  IT IS VERY DIFFICULT NOW FOR A FIRST-RATE
 PHYSICIST TO DO SECOND-RATE WORK.
     P.A.M. DIRAC, ON THE EARLY DAYS OF QUANTUM MECHANICS
                   DIRECTIONS IN PHYSICS, 1978, P. 7
 File lengths (MBytes):  RWF=     99 Int=      0 D2E=      0 Chk=      4 Scr=      1
 Normal termination of Gaussian 16 at Fri Mar 29 15:48:09 2024.
real 860.24
user 3181.25
sys 20.37
