 Entering Gaussian System, Link 0=g16
 Input=gaussian_test.inp
 Output=gaussian_test.log
 Initial command:
 /sw/restricted/lms/sw/Gaussian/g16_B01/g16/l1.exe "/scratch/user/peterchao1/peterchao1/8625362_1689034692000000501263545/Gau-133308.inp" -scrdir="/scratch/user/peterchao1/peterchao1/8625362_1689034692000000501263545/"
 Entering Link 1 = /sw/restricted/lms/sw/Gaussian/g16_B01/g16/l1.exe PID=    133309.
  
 Copyright (c) 1988-2017, Gaussian, Inc.  All Rights Reserved.
  
 This is part of the Gaussian(R) 16 program.  It is based on
 the Gaussian(R) 09 system (copyright 2009, Gaussian, Inc.),
 the Gaussian(R) 03 system (copyright 2003, Gaussian, Inc.),
 the Gaussian(R) 98 system (copyright 1998, Gaussian, Inc.),
 the Gaussian(R) 94 system (copyright 1995, Gaussian, Inc.),
 the Gaussian 92(TM) system (copyright 1992, Gaussian, Inc.),
 the Gaussian 90(TM) system (copyright 1990, Gaussian, Inc.),
 the Gaussian 88(TM) system (copyright 1988, Gaussian, Inc.),
 the Gaussian 86(TM) system (copyright 1986, Carnegie Mellon
 University), and the Gaussian 82(TM) system (copyright 1983,
 Carnegie Mellon University). Gaussian is a federally registered
 trademark of Gaussian, Inc.
  
 This software contains proprietary and confidential information,
 including trade secrets, belonging to Gaussian, Inc.
  
 This software is provided under written license and may be
 used, copied, transmitted, or stored only in accord with that
 written license.
  
 The following legend is applicable only to US Government
 contracts under FAR:
  
                    RESTRICTED RIGHTS LEGEND
  
 Use, reproduction and disclosure by the US Government is
 subject to restrictions as set forth in subparagraphs (a)
 and (c) of the Commercial Computer Software - Restricted
 Rights clause in FAR 52.227-19.
  
 Gaussian, Inc.
 340 Quinnipiac St., Bldg. 40, Wallingford CT 06492
  
  
 ---------------------------------------------------------------
 Warning -- This program may not be used in any manner that
 competes with the business of Gaussian, Inc. or will provide
 assistance to any competitor of Gaussian, Inc.  The licensee
 of this program is prohibited from giving any competitor of
 Gaussian, Inc. access to this program.  By using this program,
 the user acknowledges that Gaussian, Inc. is engaged in the
 business of creating and licensing software in the field of
 computational chemistry and represents and warrants to the
 licensee that it is not a competitor of Gaussian, Inc. and that
 it will not use this program in any manner prohibited above.
 ---------------------------------------------------------------
  

 Cite this work as:
 Gaussian 16, Revision B.01,
 M. J. Frisch, G. W. Trucks, H. B. Schlegel, G. E. Scuseria, 
 M. A. Robb, J. R. Cheeseman, G. Scalmani, V. Barone, 
 G. A. Petersson, H. Nakatsuji, X. Li, M. Caricato, A. V. Marenich, 
 J. Bloino, B. G. Janesko, R. Gomperts, B. Mennucci, H. P. Hratchian, 
 J. V. Ortiz, A. F. Izmaylov, J. L. Sonnenberg, D. Williams-Young, 
 F. Ding, F. Lipparini, F. Egidi, J. Goings, B. Peng, A. Petrone, 
 T. Henderson, D. Ranasinghe, V. G. Zakrzewski, J. Gao, N. Rega, 
 G. Zheng, W. Liang, M. Hada, M. Ehara, K. Toyota, R. Fukuda, 
 J. Hasegawa, M. Ishida, T. Nakajima, Y. Honda, O. Kitao, H. Nakai, 
 T. Vreven, K. Throssell, J. A. Montgomery, Jr., J. E. Peralta, 
 F. Ogliaro, M. J. Bearpark, J. J. Heyd, E. N. Brothers, K. N. Kudin, 
 V. N. Staroverov, T. A. Keith, R. Kobayashi, J. Normand, 
 K. Raghavachari, A. P. Rendell, J. C. Burant, S. S. Iyengar, 
 J. Tomasi, M. Cossi, J. M. Millam, M. Klene, C. Adamo, R. Cammi, 
 J. W. Ochterski, R. L. Martin, K. Morokuma, O. Farkas, 
 J. B. Foresman, and D. J. Fox, Gaussian, Inc., Wallingford CT, 2016.
 
 ******************************************
 Gaussian 16:  ES64L-G16RevB.01 20-Dec-2017
                10-Jul-2023 
 ******************************************
 %nprocshared=4
 Will use up to    4 processors via shared memory.
 %mem=8000mb
 %chk=20.chk
 %mem=8000mb
 ----------------------------------------------------------------------
 #T wB97XD/def2svpp opt=tight freq int(grid=ultrafine) scf=(verytight,q
 c)
 ----------------------------------------------------------------------
 -------
 comment
 -------
 Symbolic Z-matrix:
 Charge =  1 Multiplicity = 2
 C                    -0.57783  -0.87023   1.67074 
 C                    -0.1676   -0.0179    0.46125 
 C                     0.24487  -0.89742  -0.72841 
 Cl                    1.63275  -1.97932  -0.36942 
 C                    -1.33006   0.88892   0.01899 
 Cl                   -2.80573  -0.0068   -0.47856 
 C                     0.99174   0.88282   0.9175 
 Cl                    1.60069   2.00531  -0.34952 
 H                    -1.41469  -1.53646   1.40588 
 H                    -0.90529  -0.22925   2.5079 
 H                     0.26292  -1.4934    2.01504 
 H                     0.54829  -0.2755   -1.58313 
 H                    -0.59119  -1.54235  -1.03155 
 H                    -1.03822   1.51524  -0.83546 
 H                    -1.62951   1.54665   0.84936 
 H                     1.84758   0.26332   1.22058 
 H                     0.68239   1.50834   1.76836 
 

 GradGradGradGradGradGradGradGradGradGradGradGradGradGradGradGradGradGrad
 Initialization pass.
                           ----------------------------
                           !    Initial Parameters    !
                           ! (Angstroms and Degrees)  !
 --------------------------                            --------------------------
 ! Name  Definition              Value          Derivative Info.                !
 --------------------------------------------------------------------------------
 ! R1    R(1,2)                  1.5355         estimate D2E/DX2                !
 ! R2    R(1,9)                  1.102          estimate D2E/DX2                !
 ! R3    R(1,10)                 1.104          estimate D2E/DX2                !
 ! R4    R(1,11)                 1.1017         estimate D2E/DX2                !
 ! R5    R(2,3)                  1.5359         estimate D2E/DX2                !
 ! R6    R(2,5)                  1.5392         estimate D2E/DX2                !
 ! R7    R(2,7)                  1.5374         estimate D2E/DX2                !
 ! R8    R(3,4)                  1.796          estimate D2E/DX2                !
 ! R9    R(3,12)                 1.0997         estimate D2E/DX2                !
 ! R10   R(3,13)                 1.0986         estimate D2E/DX2                !
 ! R11   R(5,6)                  1.7965         estimate D2E/DX2                !
 ! R12   R(5,14)                 1.0989         estimate D2E/DX2                !
 ! R13   R(5,15)                 1.1008         estimate D2E/DX2                !
 ! R14   R(7,8)                  1.7989         estimate D2E/DX2                !
 ! R15   R(7,16)                 1.0991         estimate D2E/DX2                !
 ! R16   R(7,17)                 1.1004         estimate D2E/DX2                !
 ! A1    A(2,1,9)              110.4362         estimate D2E/DX2                !
 ! A2    A(2,1,10)             110.7478         estimate D2E/DX2                !
 ! A3    A(2,1,11)             110.8711         estimate D2E/DX2                !
 ! A4    A(9,1,10)             107.9391         estimate D2E/DX2                !
 ! A5    A(9,1,11)             108.221          estimate D2E/DX2                !
 ! A6    A(10,1,11)            108.529          estimate D2E/DX2                !
 ! A7    A(1,2,3)              111.347          estimate D2E/DX2                !
 ! A8    A(1,2,5)              110.5845         estimate D2E/DX2                !
 ! A9    A(1,2,7)              107.0332         estimate D2E/DX2                !
 ! A10   A(3,2,5)              108.5196         estimate D2E/DX2                !
 ! A11   A(3,2,7)              111.2755         estimate D2E/DX2                !
 ! A12   A(5,2,7)              108.0362         estimate D2E/DX2                !
 ! A13   A(2,3,4)              113.4319         estimate D2E/DX2                !
 ! A14   A(2,3,12)             110.6254         estimate D2E/DX2                !
 ! A15   A(2,3,13)             110.2146         estimate D2E/DX2                !
 ! A16   A(4,3,12)             106.4281         estimate D2E/DX2                !
 ! A17   A(4,3,13)             106.8352         estimate D2E/DX2                !
 ! A18   A(12,3,13)            109.1184         estimate D2E/DX2                !
 ! A19   A(2,5,6)              113.9652         estimate D2E/DX2                !
 ! A20   A(2,5,14)             111.0163         estimate D2E/DX2                !
 ! A21   A(2,5,15)             109.9204         estimate D2E/DX2                !
 ! A22   A(6,5,14)             106.6769         estimate D2E/DX2                !
 ! A23   A(6,5,15)             106.4614         estimate D2E/DX2                !
 ! A24   A(14,5,15)            108.5557         estimate D2E/DX2                !
 ! A25   A(2,7,8)              114.3192         estimate D2E/DX2                !
 ! A26   A(2,7,16)             109.8035         estimate D2E/DX2                !
 ! A27   A(2,7,17)             110.5182         estimate D2E/DX2                !
 ! A28   A(8,7,16)             106.3993         estimate D2E/DX2                !
 ! A29   A(8,7,17)             106.5624         estimate D2E/DX2                !
 ! A30   A(16,7,17)            109.0303         estimate D2E/DX2                !
 ! D1    D(9,1,2,3)            -58.5378         estimate D2E/DX2                !
 ! D2    D(9,1,2,5)             62.197          estimate D2E/DX2                !
 ! D3    D(9,1,2,7)            179.6464         estimate D2E/DX2                !
 ! D4    D(10,1,2,3)          -178.0523         estimate D2E/DX2                !
 ! D5    D(10,1,2,5)           -57.3175         estimate D2E/DX2                !
 ! D6    D(10,1,2,7)            60.132          estimate D2E/DX2                !
 ! D7    D(11,1,2,3)            61.4086         estimate D2E/DX2                !
 ! D8    D(11,1,2,5)          -177.8566         estimate D2E/DX2                !
 ! D9    D(11,1,2,7)           -60.4071         estimate D2E/DX2                !
 ! D10   D(1,2,3,4)            -59.7797         estimate D2E/DX2                !
 ! D11   D(1,2,3,12)          -179.2823         estimate D2E/DX2                !
 ! D12   D(1,2,3,13)            59.953          estimate D2E/DX2                !
 ! D13   D(5,2,3,4)            178.2811         estimate D2E/DX2                !
 ! D14   D(5,2,3,12)            58.7784         estimate D2E/DX2                !
 ! D15   D(5,2,3,13)           -61.9862         estimate D2E/DX2                !
 ! D16   D(7,2,3,4)             59.5405         estimate D2E/DX2                !
 ! D17   D(7,2,3,12)           -59.9622         estimate D2E/DX2                !
 ! D18   D(7,2,3,13)           179.2732         estimate D2E/DX2                !
 ! D19   D(1,2,5,6)            -60.5289         estimate D2E/DX2                !
 ! D20   D(1,2,5,14)           178.9936         estimate D2E/DX2                !
 ! D21   D(1,2,5,15)            58.8725         estimate D2E/DX2                !
 ! D22   D(3,2,5,6)             61.8749         estimate D2E/DX2                !
 ! D23   D(3,2,5,14)           -58.6027         estimate D2E/DX2                !
 ! D24   D(3,2,5,15)          -178.7238         estimate D2E/DX2                !
 ! D25   D(7,2,5,6)           -177.3601         estimate D2E/DX2                !
 ! D26   D(7,2,5,14)            62.1624         estimate D2E/DX2                !
 ! D27   D(7,2,5,15)           -57.9587         estimate D2E/DX2                !
 ! D28   D(1,2,7,8)           -178.4506         estimate D2E/DX2                !
 ! D29   D(1,2,7,16)            62.0753         estimate D2E/DX2                !
 ! D30   D(1,2,7,17)           -58.2429         estimate D2E/DX2                !
 ! D31   D(3,2,7,8)             59.6888         estimate D2E/DX2                !
 ! D32   D(3,2,7,16)           -59.7853         estimate D2E/DX2                !
 ! D33   D(3,2,7,17)           179.8965         estimate D2E/DX2                !
 ! D34   D(5,2,7,8)            -59.3412         estimate D2E/DX2                !
 ! D35   D(5,2,7,16)          -178.8153         estimate D2E/DX2                !
 ! D36   D(5,2,7,17)            60.8665         estimate D2E/DX2                !
 --------------------------------------------------------------------------------
 Number of steps in this run=     92 maximum allowed number of steps=    102.
 GradGradGradGradGradGradGradGradGradGradGradGradGradGradGradGradGradGrad

                    Distance matrix (angstroms):
                    1          2          3          4          5
     1  C    0.000000
     2  C    1.535455   0.000000
     3  C    2.536439   1.535898   0.000000
     4  Cl   3.206090   2.788989   1.795999   0.000000
     5  C    2.527594   1.539225   2.495998   4.141969   0.000000
     6  Cl   3.213807   2.800550   3.187755   4.858280   1.796518
     7  C    2.470653   1.537385   2.536950   3.202955   2.489601
     8  Cl   4.134748   2.806704   3.226090   3.984813   3.157750
     9  H    1.101975   2.180268   2.778078   3.554537   2.795187
    10  H    1.104049   2.185778   3.499006   4.217036   2.761409
    11  H    1.101701   2.185566   2.807495   2.792520   3.492452
    12  H    3.494213   2.181362   1.099722   2.356303   2.729622
    13  H    2.784658   2.175278   1.098556   2.361203   2.749664
    14  H    3.490489   2.188600   2.734723   4.423037   1.098885
    15  H    2.760799   2.176146   3.460652   4.955827   1.100811
    16  H    2.714811   2.171783   2.777517   2.757481   3.454357
    17  H    2.693563   2.181843   3.494709   4.199652   2.737502
                    6          7          8          9         10
     6  Cl   0.000000
     7  C    4.142609   0.000000
     8  Cl   4.845796   1.798927   0.000000
     9  H    2.797491   3.447079   4.971727   0.000000
    10  H    3.546841   2.713818   4.408858   1.784022   0.000000
    11  H    4.224291   2.717020   4.429642   1.785306   1.790456
    12  H    3.541429   2.791326   2.798468   3.791765   4.341837
    13  H    2.750985   3.490839   4.225568   2.572793   3.788221
    14  H    2.359681   2.755645   2.727656   3.805028   3.773459
    15  H    2.357978   2.704859   3.475891   3.140288   2.535559
    16  H    4.961185   1.099136   2.358119   3.730410   3.078655
    17  H    4.417157   1.100426   2.361287   3.714826   2.467156
                   11         12         13         14         15
    11  H    0.000000
    12  H    3.809396   0.000000
    13  H    3.164426   1.790970   0.000000
    14  H    4.343990   2.506543   3.096318   0.000000
    15  H    3.765901   3.738984   3.762693   1.785842   0.000000
    16  H    2.495669   3.136764   3.778912   3.757988   3.724901
    17  H    3.040929   3.799019   4.332234   3.120968   2.488152
                   16         17
    16  H    0.000000
    17  H    1.791035   0.000000
 Framework group  C1[X(C5H9Cl3)]
 Deg. of freedom    45
                         Standard orientation:                         
 ---------------------------------------------------------------------
 Center     Atomic      Atomic             Coordinates (Angstroms)
 Number     Number       Type             X           Y           Z
 ---------------------------------------------------------------------
      1          6           0       -0.577829   -0.870231    1.670744
      2          6           0       -0.167603   -0.017902    0.461251
      3          6           0        0.244866   -0.897420   -0.728413
      4         17           0        1.632751   -1.979322   -0.369420
      5          6           0       -1.330057    0.888919    0.018994
      6         17           0       -2.805731   -0.006797   -0.478556
      7          6           0        0.991744    0.882821    0.917501
      8         17           0        1.600685    2.005312   -0.349521
      9          1           0       -1.414692   -1.536457    1.405882
     10          1           0       -0.905291   -0.229247    2.507901
     11          1           0        0.262924   -1.493402    2.015035
     12          1           0        0.548287   -0.275498   -1.583128
     13          1           0       -0.591192   -1.542354   -1.031550
     14          1           0       -1.038217    1.515244   -0.835462
     15          1           0       -1.629506    1.546650    0.849359
     16          1           0        1.847582    0.263319    1.220583
     17          1           0        0.682391    1.508339    1.768362
 ---------------------------------------------------------------------
 Rotational constants (GHZ):           1.2009699           0.8440508           0.6039063
   142 basis functions,   272 primitive gaussians,   150 cartesian basis functions
    45 alpha electrons       44 beta electrons
       nuclear repulsion energy       634.1584275762 Hartrees.
 NAtoms=   17 NActive=   17 NUniq=   17 SFac= 1.00D+00 NAtFMM=   60 NAOKFM=F Big=F
 Nuclear repulsion after empirical dispersion term =      634.1460949024 Hartrees.
   1 Symmetry operations used in ECPInt.
 ECPInt:  NShTT=    2628 NPrTT=   11486 LenC2=    2576 LenP2D=    8556.
 LDataN:  DoStor=T MaxTD1= 4 Len=   56
 ExpMin= 1.22D-01 ExpMax= 1.04D+04 ExpMxC= 1.57D+03 IAcc=3 IRadAn=         5 AccDes= 0.00D+00
 Harris functional with IExCor= 4639 and IRadAn=       5 diagonalized for initial guess.
 HarFok:  IExCor= 4639 AccDes= 0.00D+00 IRadAn=         5 IDoV= 1 UseB2=F ITyADJ=14
 ICtDFT=  3500011 ScaDFX=  1.000000  1.000000  1.000000  1.000000
 FoFCou: FMM=F IPFlag=           0 FMFlag=      100000 FMFlg1=           0
         NFxFlg=           0 DoJE=T BraDBF=F KetDBF=T FulRan=T
         wScrn=  0.000000 ICntrl=       500 IOpCl=  0 I1Cent=   200000004 NGrid=           0
         NMat0=    1 NMatS0=      1 NMatT0=    0 NMatD0=    1 NMtDS0=    0 NMtDT0=    0
 Petite list used in FoFCou.
 Initial guess <Sx>= 0.0000 <Sy>= 0.0000 <Sz>= 0.5000 <S**2>= 0.7500 S= 0.5000
     Minimum is close to point  4 DX=  3.30D-02 DF= -1.10D-03 DXR=  5.21D-02 DFR=  2.73D-03 which will be used.
     Accept linear search using points  2 and  3.
     Accept linear search using points  2 and  3.
     Accept linear search using points  1 and  2.
     Accept linear search using points  2 and  3.
     Accept linear search using points  1 and  2.
     Accept linear search using points  1 and  2.
     Minimum is close to point  2 DX=  1.75D-02 DF= -2.42D-08 DXR=  1.72D-02 DFR=  2.95D-04 which will be used.
     Minimum is close to point  2 DX=  9.40D-03 DF= -1.61D-11 DXR=  9.31D-03 DFR=  8.82D-05 which will be used.
 SCF Done:  E(UwB97XD) =  -1575.52338575     a.u. after   11 cycles
            Convg  =    0.6799D-06                    92 Fock formations.
              S**2 =  0.7526                  -V/T =  2.0032
 <Sx>= 0.0000 <Sy>= 0.0000 <Sz>= 0.5000 <S**2>= 0.7526 S= 0.5013
 <L.S>=  0.00000000000    
 Annihilation of the first spin contaminant:
 S**2 before annihilation     0.7526,   after     0.7500

 **********************************************************************

            Population analysis using the SCF Density.

 **********************************************************************

 Orbital symmetries:
 Alpha Orbitals:
       Occupied  (A) (A) (A) (A) (A) (A) (A) (A) (A) (A) (A) (A)
                 (A) (A) (A) (A) (A) (A) (A) (A) (A) (A) (A) (A)
                 (A) (A) (A) (A) (A) (A) (A) (A) (A) (A) (A) (A)
                 (A) (A) (A) (A) (A) (A) (A) (A) (A)
       Virtual   (A) (A) (A) (A) (A) (A) (A) (A) (A) (A) (A) (A)
                 (A) (A) (A) (A) (A) (A) (A) (A) (A) (A) (A) (A)
                 (A) (A) (A) (A) (A) (A) (A) (A) (A) (A) (A) (A)
                 (A) (A) (A) (A) (A) (A) (A) (A) (A) (A) (A) (A)
                 (A) (A) (A) (A) (A) (A) (A) (A) (A) (A) (A) (A)
                 (A) (A) (A) (A) (A) (A) (A) (A) (A) (A) (A) (A)
                 (A) (A) (A) (A) (A) (A) (A) (A) (A) (A) (A) (A)
                 (A) (A) (A) (A) (A) (A) (A) (A) (A) (A) (A) (A)
                 (A)
 Beta  Orbitals:
       Occupied  (A) (A) (A) (A) (A) (A) (A) (A) (A) (A) (A) (A)
                 (A) (A) (A) (A) (A) (A) (A) (A) (A) (A) (A) (A)
                 (A) (A) (A) (A) (A) (A) (A) (A) (A) (A) (A) (A)
                 (A) (A) (A) (A) (A) (A) (A) (A)
       Virtual   (A) (A) (A) (A) (A) (A) (A) (A) (A) (A) (A) (A)
                 (A) (A) (A) (A) (A) (A) (A) (A) (A) (A) (A) (A)
                 (A) (A) (A) (A) (A) (A) (A) (A) (A) (A) (A) (A)
                 (A) (A) (A) (A) (A) (A) (A) (A) (A) (A) (A) (A)
                 (A) (A) (A) (A) (A) (A) (A) (A) (A) (A) (A) (A)
                 (A) (A) (A) (A) (A) (A) (A) (A) (A) (A) (A) (A)
                 (A) (A) (A) (A) (A) (A) (A) (A) (A) (A) (A) (A)
                 (A) (A) (A) (A) (A) (A) (A) (A) (A) (A) (A) (A)
                 (A) (A)
 The electronic state is 2-A.
 Alpha  occ. eigenvalues -- -101.89447-101.88823-101.87797 -10.55371 -10.55212
 Alpha  occ. eigenvalues --  -10.55087 -10.54509 -10.46354  -9.80060  -9.79460
 Alpha  occ. eigenvalues --   -9.78443  -7.55277  -7.55013  -7.54691  -7.54339
 Alpha  occ. eigenvalues --   -7.54254  -7.53728  -7.53689  -7.53206  -7.52707
 Alpha  occ. eigenvalues --   -1.19579  -1.15662  -1.15254  -1.08538  -0.97601
 Alpha  occ. eigenvalues --   -0.96243  -0.95142  -0.83504  -0.78180  -0.76796
 Alpha  occ. eigenvalues --   -0.75529  -0.73173  -0.71087  -0.69250  -0.67723
 Alpha  occ. eigenvalues --   -0.66904  -0.64020  -0.63510  -0.63200  -0.60730
 Alpha  occ. eigenvalues --   -0.59141  -0.58440  -0.57755  -0.57548  -0.56948
 Alpha virt. eigenvalues --   -0.08488  -0.07767  -0.07743  -0.02437   0.00045
 Alpha virt. eigenvalues --    0.01191   0.01423   0.03293   0.04302   0.06208
 Alpha virt. eigenvalues --    0.07542   0.07904   0.08796   0.09604   0.10495
 Alpha virt. eigenvalues --    0.11663   0.28211   0.28739   0.30150   0.30466
 Alpha virt. eigenvalues --    0.31555   0.35717   0.37719   0.40477   0.44129
 Alpha virt. eigenvalues --    0.45360   0.46188   0.48080   0.49118   0.51556
 Alpha virt. eigenvalues --    0.53779   0.54075   0.55405   0.56000   0.57295
 Alpha virt. eigenvalues --    0.57807   0.58497   0.59457   0.60131   0.61372
 Alpha virt. eigenvalues --    0.61954   0.63434   0.64636   0.65220   0.66616
 Alpha virt. eigenvalues --    0.67296   0.68053   0.68151   0.68929   0.69838
 Alpha virt. eigenvalues --    0.70439   0.70808   0.71364   0.72269   0.74422
 Alpha virt. eigenvalues --    0.74918   0.76252   0.81527   0.82067   0.88393
 Alpha virt. eigenvalues --    0.93274   0.94088   0.96702   0.98216   1.00806
 Alpha virt. eigenvalues --    1.01105   1.04198   1.08741   1.10221   1.21741
 Alpha virt. eigenvalues --    1.23870   1.24546   1.32274   1.36615   1.60048
 Alpha virt. eigenvalues --    1.61054   1.63160   1.68105   1.69646   1.71636
 Alpha virt. eigenvalues --    1.89565   1.90236   1.90964   1.92177   1.92493
 Alpha virt. eigenvalues --    2.01624   2.03149   2.04011   2.06290   2.08023
 Alpha virt. eigenvalues --    2.09901   2.13274   2.40153   2.42079   2.53988
 Alpha virt. eigenvalues --    2.55524   2.57018
  Beta  occ. eigenvalues -- -101.89238-101.88643-101.87643 -10.55305 -10.55147
  Beta  occ. eigenvalues --  -10.55046 -10.54412 -10.46357  -9.79827  -9.79259
  Beta  occ. eigenvalues --   -9.78271  -7.55120  -7.54558  -7.54274  -7.54098
  Beta  occ. eigenvalues --   -7.53698  -7.53607  -7.53553  -7.52667  -7.52593
  Beta  occ. eigenvalues --   -1.18946  -1.14631  -1.14413  -1.07671  -0.96986
  Beta  occ. eigenvalues --   -0.95658  -0.94571  -0.82725  -0.77730  -0.76199
  Beta  occ. eigenvalues --   -0.74942  -0.72606  -0.70642  -0.68628  -0.66985
  Beta  occ. eigenvalues --   -0.66325  -0.63280  -0.63218  -0.62699  -0.58033
  Beta  occ. eigenvalues --   -0.57539  -0.57171  -0.54885  -0.54234
  Beta virt. eigenvalues --   -0.40123  -0.08084  -0.07432  -0.07392  -0.02321
  Beta virt. eigenvalues --    0.00181   0.01358   0.01645   0.03362   0.04366
  Beta virt. eigenvalues --    0.06332   0.07791   0.08092   0.08960   0.09692
  Beta virt. eigenvalues --    0.10767   0.11995   0.28489   0.28896   0.30437
  Beta virt. eigenvalues --    0.30777   0.31798   0.36032   0.38119   0.40873
  Beta virt. eigenvalues --    0.44514   0.45674   0.46724   0.48502   0.49573
  Beta virt. eigenvalues --    0.52091   0.54082   0.54464   0.55939   0.56501
  Beta virt. eigenvalues --    0.57655   0.58247   0.58795   0.59944   0.60358
  Beta virt. eigenvalues --    0.61819   0.62313   0.63896   0.64975   0.66063
  Beta virt. eigenvalues --    0.67118   0.67950   0.68754   0.69047   0.69668
  Beta virt. eigenvalues --    0.70854   0.71358   0.71517   0.71993   0.72883
  Beta virt. eigenvalues --    0.74812   0.75595   0.76747   0.82148   0.82588
  Beta virt. eigenvalues --    0.89007   0.93776   0.94690   0.97439   0.98597
  Beta virt. eigenvalues --    1.01218   1.01475   1.04512   1.09056   1.10508
  Beta virt. eigenvalues --    1.22189   1.24231   1.24851   1.32672   1.36887
  Beta virt. eigenvalues --    1.60254   1.61347   1.63359   1.68439   1.69990
  Beta virt. eigenvalues --    1.71800   1.89778   1.90459   1.91172   1.92317
  Beta virt. eigenvalues --    1.92684   2.01900   2.03290   2.04182   2.06455
  Beta virt. eigenvalues --    2.08261   2.10102   2.13484   2.40371   2.42369
  Beta virt. eigenvalues --    2.54412   2.55807   2.57226
          Condensed to atoms (all electrons):
          Atomic-Atomic Spin Densities.
 Mulliken charges and spin densities:
               1          2
     1  C   -0.291096   0.001007
     2  C   -0.334746   0.059458
     3  C   -0.143035   0.025610
     4  Cl   0.104571   0.301412
     5  C   -0.157490   0.013917
     6  Cl   0.061658   0.219926
     7  C   -0.149949   0.027694
     8  Cl   0.071613   0.259016
     9  H    0.180273   0.004248
    10  H    0.170812   0.002684
    11  H    0.172004  -0.000695
    12  H    0.208272  -0.002464
    13  H    0.228429   0.027175
    14  H    0.212536   0.016844
    15  H    0.230343   0.032052
    16  H    0.218143   0.012617
    17  H    0.217660  -0.000499
 Sum of Mulliken charges =   1.00000   1.00000
 Mulliken charges and spin densities with hydrogens summed into heavy atoms:
               1          2
     1  C    0.231993   0.007244
     2  C   -0.334746   0.059458
     3  C    0.293667   0.050320
     4  Cl   0.104571   0.301412
     5  C    0.285390   0.062812
     6  Cl   0.061658   0.219926
     7  C    0.285854   0.039812
     8  Cl   0.071613   0.259016
 Electronic spatial extent (au):  <R**2>=           1832.5650
 Charge=              1.0000 electrons
 Dipole moment (field-independent basis, Debye):
    X=             -0.0808    Y=              0.5786    Z=              1.1256  Tot=              1.2681
                          Isotropic Fermi Contact Couplings
        Atom                 a.u.       MegaHertz       Gauss      10(-4) cm-1
     1  C(13)             -0.00366      -4.11666      -1.46893      -1.37317
     2  C(13)             -0.00277      -3.11521      -1.11158      -1.03912
     3  C(13)             -0.00411      -4.61876      -1.64809      -1.54065
     4  Cl(35)             0.04857      21.29413       7.59828       7.10296
     5  C(13)             -0.00648      -7.28694      -2.60016      -2.43066
     6  Cl(35)             0.03507      15.37770       5.48714       5.12945
     7  C(13)             -0.00156      -1.75172      -0.62506      -0.58431
     8  Cl(35)             0.04157      18.22528       6.50323       6.07930
     9  H(1)               0.00129       5.75367       2.05305       1.91922
    10  H(1)               0.00114       5.07629       1.81134       1.69327
    11  H(1)               0.00027       1.22126       0.43578       0.40737
    12  H(1)              -0.00058      -2.58101      -0.92097      -0.86093
    13  H(1)               0.01637      73.18612      26.11463      24.41226
    14  H(1)               0.01268      56.66182      20.21835      18.90035
    15  H(1)               0.01586      70.90890      25.30206      23.65266
    16  H(1)               0.01064      47.54970      16.96692      15.86087
    17  H(1)              -0.00028      -1.25182      -0.44668      -0.41756
 --------------------------------------------------------
       Center         ----  Spin Dipole Couplings  ----
                      3XX-RR        3YY-RR        3ZZ-RR
 --------------------------------------------------------
     1   Atom       -0.001168     -0.003820      0.004988
     2   Atom       -0.045510      0.018206      0.027303
     3   Atom       -0.036430      0.008308      0.028122
     4   Atom       -0.550445      0.065958      0.484487
     5   Atom       -0.022577     -0.036717      0.059293
     6   Atom       -0.575217     -0.669185      1.244401
     7   Atom        0.066112     -0.043648     -0.022464
     8   Atom        1.043849     -0.798187     -0.245662
     9   Atom        0.000644     -0.000134     -0.000510
    10   Atom       -0.000543     -0.001629      0.002172
    11   Atom       -0.001101     -0.000967      0.002068
    12   Atom       -0.003426      0.003237      0.000189
    13   Atom        0.011799     -0.001318     -0.010482
    14   Atom       -0.001132      0.001857     -0.000725
    15   Atom       -0.002775      0.004551     -0.001776
    16   Atom        0.000272      0.006136     -0.006408
    17   Atom       -0.001228     -0.001405      0.002633
 --------------------------------------------------------
                        XY            XZ            YZ
 --------------------------------------------------------
     1   Atom       -0.000478      0.001758     -0.001716
     2   Atom        0.030396      0.035445      0.080788
     3   Atom        0.020285      0.028262      0.065112
     4   Atom        0.612568      0.737003      1.187371
     5   Atom        0.002941     -0.025816     -0.011824
     6   Atom       -0.048888     -0.465707      0.197127
     7   Atom        0.007063      0.049218      0.002936
     8   Atom       -0.075141      1.012465     -0.044432
     9   Atom        0.000109     -0.001009     -0.002554
    10   Atom       -0.000537     -0.001345     -0.000839
    11   Atom       -0.000997     -0.002123     -0.001466
    12   Atom        0.002527     -0.001575     -0.003112
    13   Atom        0.008396      0.001620      0.000923
    14   Atom        0.004823     -0.001846     -0.010309
    15   Atom       -0.003299     -0.002804      0.009470
    16   Atom       -0.009953      0.002884     -0.000959
    17   Atom       -0.001553     -0.002052      0.005413
 --------------------------------------------------------


 ---------------------------------------------------------------------------------
              Anisotropic Spin Dipole Couplings in Principal Axis System
 ---------------------------------------------------------------------------------

       Atom             a.u.   MegaHertz   Gauss  10(-4) cm-1        Axes

              Baa    -0.0042    -0.557    -0.199    -0.186  0.0550  0.9832  0.1740
     1 C(13)  Bbb    -0.0016    -0.219    -0.078    -0.073  0.9659 -0.0083 -0.2586
              Bcc     0.0058     0.776     0.277     0.259  0.2528 -0.1823  0.9502
 
              Baa    -0.0607    -8.149    -2.908    -2.718  0.7343  0.3264 -0.5952
     2 C(13)  Bbb    -0.0563    -7.558    -2.697    -2.521 -0.6203  0.6789 -0.3929
              Bcc     0.1171    15.707     5.605     5.239  0.2758  0.6577  0.7010
 
              Baa    -0.0498    -6.677    -2.383    -2.227 -0.5655 -0.5202  0.6401
     3 C(13)  Bbb    -0.0436    -5.847    -2.086    -1.950  0.7833 -0.5816  0.2194
              Bcc     0.0933    12.525     4.469     4.178  0.2581  0.6254  0.7363
 
              Baa    -0.9350   -48.938   -17.462   -16.324  0.6856  0.3425 -0.6424
     4 Cl(35) Bbb    -0.9266   -48.496   -17.305   -16.177 -0.6274  0.7255 -0.2828
              Bcc     1.8616    97.434    34.767    32.500  0.3692  0.5969  0.7123
 
              Baa    -0.0382    -5.120    -1.827    -1.708  0.0217  0.9918  0.1261
     5 C(13)  Bbb    -0.0300    -4.027    -1.437    -1.343  0.9611 -0.0554  0.2705
              Bcc     0.0682     9.147     3.264     3.051 -0.2753 -0.1153  0.9544
 
              Baa    -0.6900   -36.115   -12.887   -12.047  0.4684  0.8832  0.0228
     6 Cl(35) Bbb    -0.6868   -35.945   -12.826   -11.990  0.8522 -0.4584  0.2523
              Bcc     1.3768    72.060    25.713    24.037 -0.2333  0.0988  0.9674
 
              Baa    -0.0445    -5.969    -2.130    -1.991 -0.3883  0.4406  0.8094
     7 C(13)  Bbb    -0.0440    -5.904    -2.107    -1.969  0.1322  0.8959 -0.4242
              Bcc     0.0885    11.873     4.237     3.960  0.9120  0.0578  0.4061
 
              Baa    -0.8041   -42.085   -15.017   -14.038 -0.3138  0.7141  0.6257
     8 Cl(35) Bbb    -0.7985   -41.791   -14.912   -13.940  0.3661  0.6991 -0.6143
              Bcc     1.6026    83.876    29.929    27.978  0.8761 -0.0363  0.4808
 
              Baa    -0.0030    -1.605    -0.573    -0.535  0.1844  0.6490  0.7381
     9 H(1)   Bbb     0.0004     0.239     0.085     0.080  0.9042 -0.4065  0.1315
              Bcc     0.0026     1.365     0.487     0.455 -0.3853 -0.6431  0.6618
 
              Baa    -0.0023    -1.208    -0.431    -0.403  0.4917  0.8162  0.3033
    10 H(1)   Bbb    -0.0005    -0.287    -0.102    -0.096  0.7968 -0.5623  0.2213
              Bcc     0.0028     1.495     0.533     0.499 -0.3512 -0.1329  0.9268
 
              Baa    -0.0033    -1.742    -0.621    -0.581  0.6918  0.5771  0.4340
    11 H(1)   Bbb    -0.0001    -0.033    -0.012    -0.011 -0.6130  0.7870 -0.0694
              Bcc     0.0033     1.774     0.633     0.592 -0.3816 -0.2181  0.8982
 
              Baa    -0.0044    -2.324    -0.829    -0.775  0.9545 -0.2533  0.1573
    12 H(1)   Bbb    -0.0018    -0.935    -0.333    -0.312  0.0005  0.5290  0.8486
              Bcc     0.0061     3.259     1.163     1.087  0.2981  0.8099 -0.5051
 
              Baa    -0.0106    -5.664    -2.021    -1.889 -0.0529 -0.0513  0.9973
    13 H(1)   Bbb    -0.0054    -2.887    -1.030    -0.963 -0.4401  0.8977  0.0228
              Bcc     0.0160     8.551     3.051     2.852  0.8964  0.4377  0.0700
 
              Baa    -0.0102    -5.459    -1.948    -1.821 -0.2202  0.6823  0.6971
    14 H(1)   Bbb    -0.0024    -1.300    -0.464    -0.434  0.9166 -0.0998  0.3872
              Bcc     0.0127     6.760     2.412     2.255  0.3338  0.7242 -0.6034
 
              Baa    -0.0086    -4.600    -1.641    -1.534  0.0705 -0.5706  0.8182
    15 H(1)   Bbb    -0.0040    -2.115    -0.755    -0.705  0.9601  0.2613  0.0995
              Bcc     0.0126     6.714     2.396     2.240 -0.2706  0.7786  0.5662
 
              Baa    -0.0087    -4.632    -1.653    -1.545 -0.6464 -0.3918  0.6547
    16 H(1)   Bbb    -0.0052    -2.778    -0.991    -0.927  0.4682  0.4739  0.7458
              Bcc     0.0139     7.410     2.644     2.472 -0.6025  0.7886 -0.1229
 
              Baa    -0.0052    -2.757    -0.984    -0.920  0.0313  0.8250 -0.5643
    17 H(1)   Bbb    -0.0020    -1.073    -0.383    -0.358  0.9557  0.1406  0.2585
              Bcc     0.0072     3.830     1.367     1.277 -0.2926  0.5474  0.7840
 

 ---------------------------------------------------------------------------------

   1 Symmetry operations used in ECPInt.
 ECPInt:  NShTT=    2628 NPrTT=   11486 LenC2=    2576 LenP2D=    8556.
 LDataN:  DoStor=T MaxTD1= 5 Len=  102
 Calling FoFJK, ICntrl=      2127 FMM=F ISym2X=0 I1Cent= 0 IOpClX= 1 NMat=1 NMatS=1 NMatT=0.

 GradGradGradGradGradGradGradGradGradGradGradGradGradGradGradGradGradGrad
 FormGI is forming the generalized inverse of G from B-inverse, IUseBI=4.
 Internal  Forces:  Max     0.014320180 RMS     0.003509462
 Step number   1 out of a maximum of   92
 All quantities printed in internal units (Hartrees-Bohrs-Radians)
 Mixed Optimization -- RFO/linear search
 Second derivative matrix not updated -- first step.
 ITU=  0
     Eigenvalues ---    0.00247   0.00271   0.00291   0.00297   0.04466
     Eigenvalues ---    0.04723   0.05136   0.05165   0.05176   0.05282
     Eigenvalues ---    0.05500   0.05570   0.05743   0.05766   0.05791
     Eigenvalues ---    0.14055   0.14739   0.16000   0.16000   0.16000
     Eigenvalues ---    0.16000   0.16000   0.16000   0.16000   0.16000
     Eigenvalues ---    0.16000   0.22286   0.22313   0.22316   0.26201
     Eigenvalues ---    0.26393   0.26434   0.28588   0.28752   0.28885
     Eigenvalues ---    0.28925   0.33238   0.33465   0.33495   0.33593
     Eigenvalues ---    0.33635   0.33713   0.33778   0.33806   0.33842
 Linear search not attempted -- first point.
 Iteration  1 RMS(Cart)=  0.05036162 RMS(Int)=  0.00169544
 Iteration  2 RMS(Cart)=  0.00188844 RMS(Int)=  0.00029155
 Iteration  3 RMS(Cart)=  0.00000227 RMS(Int)=  0.00029154
 Iteration  4 RMS(Cart)=  0.00000000 RMS(Int)=  0.00029154
 Variable       Old X    -DE/DX   Delta X   Delta X   Delta X     New X
                                 (Linear)    (Quad)   (Total)
    R1        2.90159   0.00175   0.00000   0.00593   0.00593   2.90752
    R2        2.08243  -0.00042   0.00000  -0.00125  -0.00125   2.08118
    R3        2.08635  -0.00074   0.00000  -0.00218  -0.00218   2.08417
    R4        2.08191   0.00002   0.00000   0.00006   0.00006   2.08197
    R5        2.90243   0.00521   0.00000   0.01769   0.01769   2.92012
    R6        2.90871  -0.00590   0.00000  -0.02021  -0.02021   2.88850
    R7        2.90524   0.00549   0.00000   0.01873   0.01873   2.92397
    R8        3.39395  -0.01432   0.00000  -0.05302  -0.05302   3.34093
    R9        2.07817   0.00062   0.00000   0.00180   0.00180   2.07997
   R10        2.07597   0.00672   0.00000   0.01952   0.01952   2.09548
   R11        3.39493  -0.01306   0.00000  -0.04844  -0.04844   3.34649
   R12        2.07659   0.00780   0.00000   0.02270   0.02270   2.09929
   R13        2.08023   0.00367   0.00000   0.01074   0.01074   2.09097
   R14        3.39948  -0.01116   0.00000  -0.04169  -0.04169   3.35779
   R15        2.07707   0.00664   0.00000   0.01932   0.01932   2.09639
   R16        2.07950  -0.00043   0.00000  -0.00126  -0.00126   2.07825
    A1        1.92748   0.00129   0.00000   0.00827   0.00825   1.93573
    A2        1.93291  -0.00020   0.00000  -0.00095  -0.00095   1.93196
    A3        1.93507   0.00101   0.00000   0.00538   0.00537   1.94044
    A4        1.88389  -0.00040   0.00000  -0.00104  -0.00105   1.88285
    A5        1.88881  -0.00126   0.00000  -0.00809  -0.00811   1.88070
    A6        1.89419  -0.00053   0.00000  -0.00409  -0.00409   1.89010
    A7        1.94337   0.00072   0.00000   0.01500   0.01537   1.95874
    A8        1.93006   0.00203   0.00000   0.03731   0.03748   1.96754
    A9        1.86808   0.00125   0.00000   0.02069   0.02097   1.88905
   A10        1.89402  -0.00107   0.00000  -0.01937  -0.02048   1.87354
   A11        1.94212  -0.00211   0.00000  -0.03773  -0.03828   1.90385
   A12        1.88559  -0.00081   0.00000  -0.01595  -0.01723   1.86835
   A13        1.97976  -0.00081   0.00000  -0.00720  -0.00770   1.97206
   A14        1.93078   0.00393   0.00000   0.03356   0.03369   1.96446
   A15        1.92361  -0.00598   0.00000  -0.04185  -0.04211   1.88150
   A16        1.85752  -0.00071   0.00000   0.00387   0.00373   1.86126
   A17        1.86463   0.00143   0.00000  -0.01144  -0.01234   1.85228
   A18        1.90448   0.00239   0.00000   0.02463   0.02502   1.92949
   A19        1.98907  -0.00118   0.00000  -0.00313  -0.00316   1.98591
   A20        1.93760   0.00184   0.00000   0.00816   0.00815   1.94575
   A21        1.91847   0.00420   0.00000   0.02512   0.02506   1.94353
   A22        1.86186  -0.00040   0.00000  -0.00271  -0.00270   1.85916
   A23        1.85810  -0.00113   0.00000  -0.00215  -0.00222   1.85588
   A24        1.89466  -0.00377   0.00000  -0.02810  -0.02813   1.86652
   A25        1.99525  -0.00474   0.00000  -0.02480  -0.02505   1.97020
   A26        1.91643  -0.00334   0.00000  -0.02219  -0.02249   1.89394
   A27        1.92891   0.00216   0.00000   0.01739   0.01750   1.94641
   A28        1.85702   0.00282   0.00000   0.00197   0.00131   1.85833
   A29        1.85986   0.00117   0.00000   0.00366   0.00378   1.86365
   A30        1.90294   0.00235   0.00000   0.02652   0.02660   1.92954
    D1       -1.02168  -0.00032   0.00000   0.01391   0.01381  -1.00787
    D2        1.08554   0.00019   0.00000   0.02475   0.02472   1.11026
    D3        3.13542   0.00104   0.00000   0.03787   0.03800  -3.10976
    D4       -3.10760  -0.00053   0.00000   0.01048   0.01037  -3.09723
    D5       -1.00038  -0.00002   0.00000   0.02131   0.02128  -0.97910
    D6        1.04950   0.00083   0.00000   0.03444   0.03456   1.08406
    D7        1.07178  -0.00039   0.00000   0.01269   0.01259   1.08438
    D8       -3.10418   0.00011   0.00000   0.02352   0.02350  -3.08068
    D9       -1.05430   0.00097   0.00000   0.03665   0.03679  -1.01752
   D10       -1.04335   0.00176   0.00000   0.01002   0.00979  -1.03356
   D11       -3.12907   0.00043   0.00000  -0.01392  -0.01408   3.14004
   D12        1.04638  -0.00120   0.00000  -0.03915  -0.03883   1.00755
   D13        3.11159  -0.00052   0.00000  -0.03320  -0.03316   3.07843
   D14        1.02588  -0.00185   0.00000  -0.05714  -0.05703   0.96884
   D15       -1.08186  -0.00348   0.00000  -0.08237  -0.08178  -1.16364
   D16        1.03918   0.00240   0.00000   0.02100   0.02057   1.05974
   D17       -1.04654   0.00107   0.00000  -0.00294  -0.00331  -1.04984
   D18        3.12891  -0.00056   0.00000  -0.02817  -0.02805   3.10086
   D19       -1.05643  -0.00018   0.00000  -0.02029  -0.02031  -1.07674
   D20        3.12403  -0.00019   0.00000  -0.02060  -0.02059   3.10344
   D21        1.02752   0.00059   0.00000  -0.00718  -0.00717   1.02035
   D22        1.07992   0.00130   0.00000   0.00932   0.00919   1.08911
   D23       -1.02281   0.00129   0.00000   0.00901   0.00891  -1.01390
   D24       -3.11932   0.00207   0.00000   0.02243   0.02233  -3.09699
   D25       -3.09552  -0.00233   0.00000  -0.05657  -0.05648   3.13119
   D26        1.08494  -0.00234   0.00000  -0.05688  -0.05676   1.02818
   D27       -1.01157  -0.00156   0.00000  -0.04346  -0.04334  -1.05491
   D28       -3.11455  -0.00069   0.00000   0.05253   0.05273  -3.06182
   D29        1.08342   0.00126   0.00000   0.08262   0.08242   1.16584
   D30       -1.01653  -0.00088   0.00000   0.05290   0.05289  -0.96364
   D31        1.04177  -0.00111   0.00000   0.04337   0.04380   1.08557
   D32       -1.04345   0.00084   0.00000   0.07347   0.07349  -0.96996
   D33        3.13979  -0.00130   0.00000   0.04375   0.04396  -3.09944
   D34       -1.03570   0.00195   0.00000   0.09926   0.09925  -0.93645
   D35       -3.12092   0.00390   0.00000   0.12936   0.12894  -2.99198
   D36        1.06232   0.00176   0.00000   0.09964   0.09941   1.16173
         Item               Value     Threshold  Converged?
 Maximum Force            0.014320     0.000015     NO 
 RMS     Force            0.003509     0.000010     NO 
 Maximum Displacement     0.228985     0.000060     NO 
 RMS     Displacement     0.050626     0.000040     NO 
 GradGradGradGradGradGradGradGradGradGradGradGradGradGradGradGradGradGrad

                    Distance matrix (angstroms):
                    1          2          3          4          5
     1  C    0.000000
     2  C    1.538592   0.000000
     3  C    2.560053   1.545260   0.000000
     4  Cl   3.200763   2.765420   1.767944   0.000000
     5  C    2.553666   1.528529   2.476416   4.094067   0.000000
     6  Cl   3.241728   2.766897   3.145689   4.802624   1.770884
     7  C    2.500253   1.547298   2.518991   3.158431   2.473327
     8  Cl   4.120838   2.773020   3.179456   3.965980   3.032588
     9  H    1.101315   2.188522   2.804471   3.541262   2.849330
    10  H    1.102896   2.186986   3.517657   4.214589   2.788302
    11  H    1.101731   2.192235   2.843231   2.812994   3.510168
    12  H    3.529459   2.214524   1.100675   2.334889   2.711854
    13  H    2.760457   2.159907   1.108883   2.333325   2.738430
    14  H    3.523426   2.194135   2.715428   4.365773   1.110897
    15  H    2.815430   2.189191   3.463673   4.938800   1.106492
    16  H    2.774895   2.171400   2.699105   2.644872   3.434256
    17  H    2.718770   2.202746   3.492330   4.140730   2.783441
                    6          7          8          9         10
     6  Cl   0.000000
     7  C    4.108377   0.000000
     8  Cl   4.684092   1.776865   0.000000
     9  H    2.874451   3.475127   4.950043   0.000000
    10  H    3.573301   2.761499   4.399316   1.781877   0.000000
    11  H    4.254722   2.736539   4.437948   1.779544   1.786907
    12  H    3.472110   2.794491   2.772664   3.824109   4.375828
    13  H    2.716341   3.471427   4.184164   2.547506   3.760084
    14  H    2.342875   2.717540   2.555585   3.870280   3.806979
    15  H    2.337204   2.726730   3.366466   3.216251   2.596573
    16  H    4.921523   1.109360   2.346476   3.767492   3.188895
    17  H    4.448653   1.099761   2.344136   3.754870   2.520716
                   11         12         13         14         15
    11  H    0.000000
    12  H    3.854891   0.000000
    13  H    3.154692   1.816050   0.000000
    14  H    4.363967   2.480351   3.115941   0.000000
    15  H    3.812401   3.739428   3.759690   1.781819   0.000000
    16  H    2.553506   3.060744   3.704817   3.693701   3.774287
    17  H    3.024261   3.823045   4.329196   3.149230   2.578899
                   16         17
    16  H    0.000000
    17  H    1.815725   0.000000
 Framework group  C1[X(C5H9Cl3)]
 Deg. of freedom    45
                         Standard orientation:                         
 ---------------------------------------------------------------------
 Center     Atomic      Atomic             Coordinates (Angstroms)
 Number     Number       Type             X           Y           Z
 ---------------------------------------------------------------------
      1          6           0       -0.507544   -0.960058    1.695093
      2          6           0       -0.160923   -0.059690    0.496570
      3          6           0        0.296090   -0.874868   -0.734061
      4         17           0        1.722935   -1.868250   -0.413233
      5          6           0       -1.335215    0.813232    0.054480
      6         17           0       -2.745244   -0.109106   -0.490629
      7          6           0        0.979352    0.895583    0.922433
      8         17           0        1.391249    2.083034   -0.333573
      9          1           0       -1.295487   -1.682144    1.429326
     10          1           0       -0.873111   -0.356757    2.542895
     11          1           0        0.372375   -1.531501    2.031255
     12          1           0        0.543987   -0.235957   -1.595354
     13          1           0       -0.518426   -1.580754   -0.994655
     14          1           0       -1.051201    1.482183   -0.785718
     15          1           0       -1.687484    1.462248    0.878500
     16          1           0        1.894810    0.294518    1.099461
     17          1           0        0.711992    1.466447    1.823602
 ---------------------------------------------------------------------
 Rotational constants (GHZ):           1.2005626           0.8743649           0.6237403
   142 basis functions,   272 primitive gaussians,   150 cartesian basis functions
    45 alpha electrons       44 beta electrons
       nuclear repulsion energy       639.5644309977 Hartrees.
 NAtoms=   17 NActive=   17 NUniq=   17 SFac= 1.00D+00 NAtFMM=   60 NAOKFM=F Big=F
 Nuclear repulsion after empirical dispersion term =      639.5521924746 Hartrees.
   1 Symmetry operations used in ECPInt.
 ECPInt:  NShTT=    2628 NPrTT=   11486 LenC2=    2578 LenP2D=    8567.
 LDataN:  DoStor=T MaxTD1= 4 Len=   56
 Initial guess from the checkpoint file:  "20.chk"
 B after Tr=    -0.000000    0.000000    0.000000
         Rot=    0.999559   -0.009512   -0.003379   -0.027938 Ang=  -3.40 deg.
 Initial guess <Sx>= 0.0000 <Sy>= 0.0000 <Sz>= 0.5000 <S**2>= 0.7527 S= 0.5013
 ExpMin= 1.22D-01 ExpMax= 1.04D+04 ExpMxC= 1.57D+03 IAcc=3 IRadAn=         5 AccDes= 0.00D+00
 Harris functional with IExCor= 4639 and IRadAn=       5 diagonalized for initial guess.
 HarFok:  IExCor= 4639 AccDes= 0.00D+00 IRadAn=         5 IDoV= 1 UseB2=F ITyADJ=14
 ICtDFT=  3500011 ScaDFX=  1.000000  1.000000  1.000000  1.000000
 FoFCou: FMM=F IPFlag=           0 FMFlag=      100000 FMFlg1=           0
         NFxFlg=           0 DoJE=T BraDBF=F KetDBF=T FulRan=T
         wScrn=  0.000000 ICntrl=       500 IOpCl=  0 I1Cent=   200000004 NGrid=           0
         NMat0=    1 NMatS0=      1 NMatT0=    0 NMatD0=    1 NMtDS0=    0 NMtDT0=    0
 Petite list used in FoFCou.
     Minimum is close to point  4 DX=  8.14D-02 DF= -1.43D-05 DXR=  6.35D-02 DFR=  4.05D-03 which will be used.
     Accept linear search using points  2 and  3.
     Minimum is close to point  2 DX=  7.02D-02 DF= -1.19D-06 DXR=  6.00D-02 DFR=  3.61D-03 which will be used.
     Accept linear search using points  1 and  2.
     Accept linear search using points  1 and  2.
     Minimum is close to point  2 DX= -9.77D-02 DF= -9.82D-07 DXR=  9.75D-02 DFR=  1.11D-02 which will be used.
     Accept linear search using points  1 and  2.
     Accept linear search using points  1 and  2.
     Minimum is close to point  2 DX= -2.05D-04 DF= -7.96D-12 DXR=  2.05D-04 DFR=  4.13D-08 which will be used.
     Minimum is close to point  2 DX=  1.92D-03 DF= -4.55D-13 DXR=  1.92D-03 DFR=  3.61D-06 which will be used.
 SCF Done:  E(UwB97XD) =  -1575.52677760     a.u. after   10 cycles
            Convg  =    0.2729D-07                    68 Fock formations.
              S**2 =  0.7527                  -V/T =  2.0032
 <Sx>= 0.0000 <Sy>= 0.0000 <Sz>= 0.5000 <S**2>= 0.7527 S= 0.5013
 <L.S>=  0.00000000000    
 Annihilation of the first spin contaminant:
 S**2 before annihilation     0.7527,   after     0.7500
   1 Symmetry operations used in ECPInt.
 ECPInt:  NShTT=    2628 NPrTT=   11486 LenC2=    2578 LenP2D=    8567.
 LDataN:  DoStor=T MaxTD1= 5 Len=  102
 Calling FoFJK, ICntrl=      2127 FMM=F ISym2X=0 I1Cent= 0 IOpClX= 1 NMat=1 NMatS=1 NMatT=0.

 GradGradGradGradGradGradGradGradGradGradGradGradGradGradGradGradGradGrad
 Using GEDIIS/GDIIS optimizer.
 FormGI is forming the generalized inverse of G from B-inverse, IUseBI=4.
 Internal  Forces:  Max     0.006615178 RMS     0.001372838
 Step number   2 out of a maximum of   92
 All quantities printed in internal units (Hartrees-Bohrs-Radians)
 Mixed Optimization -- RFO/linear search
 Trust test= 1.07D+00 RLast= 3.30D-01 DXMaxT set to 5.05D-01
 ITU=  1  0
 Use linear search instead of GDIIS.
     Eigenvalues ---    0.00247   0.00283   0.00295   0.00302   0.04207
     Eigenvalues ---    0.04632   0.04977   0.05097   0.05329   0.05420
     Eigenvalues ---    0.05466   0.05516   0.05671   0.05844   0.06703
     Eigenvalues ---    0.13728   0.14242   0.14738   0.16000   0.16000
     Eigenvalues ---    0.16000   0.16000   0.16000   0.16000   0.16000
     Eigenvalues ---    0.16383   0.21968   0.22245   0.22397   0.22762
     Eigenvalues ---    0.26254   0.26423   0.28381   0.28769   0.28846
     Eigenvalues ---    0.30592   0.33240   0.33448   0.33495   0.33533
     Eigenvalues ---    0.33633   0.33641   0.33755   0.33814   0.34458
 Quartic linear search produced a step of  0.16829.
 Iteration  1 RMS(Cart)=  0.04528430 RMS(Int)=  0.00142984
 Iteration  2 RMS(Cart)=  0.00147867 RMS(Int)=  0.00006280
 Iteration  3 RMS(Cart)=  0.00000153 RMS(Int)=  0.00006279
 Iteration  4 RMS(Cart)=  0.00000000 RMS(Int)=  0.00006279
 Variable       Old X    -DE/DX   Delta X   Delta X   Delta X     New X
                                 (Linear)    (Quad)   (Total)
    R1        2.90752  -0.00440   0.00100  -0.01738  -0.01638   2.89113
    R2        2.08118   0.00033  -0.00021   0.00110   0.00089   2.08207
    R3        2.08417  -0.00002  -0.00037  -0.00015  -0.00052   2.08365
    R4        2.08197  -0.00001   0.00001  -0.00002  -0.00001   2.08196
    R5        2.92012   0.00409   0.00298   0.01706   0.02003   2.94015
    R6        2.88850  -0.00125  -0.00340  -0.00584  -0.00924   2.87926
    R7        2.92397   0.00662   0.00315   0.02735   0.03050   2.95447
    R8        3.34093  -0.00269  -0.00892  -0.01376  -0.02269   3.31824
    R9        2.07997  -0.00093   0.00030  -0.00313  -0.00283   2.07715
   R10        2.09548   0.00053   0.00328   0.00258   0.00587   2.10135
   R11        3.34649  -0.00329  -0.00815  -0.01622  -0.02437   3.32212
   R12        2.09929   0.00211   0.00382   0.00810   0.01192   2.11121
   R13        2.09097   0.00079   0.00181   0.00313   0.00494   2.09591
   R14        3.35779  -0.00242  -0.00702  -0.01222  -0.01923   3.33855
   R15        2.09639   0.00042   0.00325   0.00217   0.00542   2.10181
   R16        2.07825  -0.00008  -0.00021  -0.00033  -0.00054   2.07771
    A1        1.93573   0.00025   0.00139   0.00270   0.00409   1.93982
    A2        1.93196  -0.00063  -0.00016  -0.00464  -0.00480   1.92716
    A3        1.94044  -0.00064   0.00090  -0.00502  -0.00413   1.93631
    A4        1.88285   0.00031  -0.00018   0.00327   0.00309   1.88594
    A5        1.88070   0.00021  -0.00136   0.00138   0.00001   1.88072
    A6        1.89010   0.00056  -0.00069   0.00272   0.00201   1.89211
    A7        1.95874  -0.00014   0.00259  -0.00550  -0.00289   1.95585
    A8        1.96754  -0.00063   0.00631  -0.00367   0.00266   1.97020
    A9        1.88905   0.00012   0.00353  -0.00278   0.00073   1.88979
   A10        1.87354   0.00072  -0.00345   0.00948   0.00588   1.87942
   A11        1.90385  -0.00061  -0.00644  -0.00638  -0.01293   1.89092
   A12        1.86835   0.00056  -0.00290   0.00935   0.00625   1.87460
   A13        1.97206   0.00095  -0.00130   0.00865   0.00722   1.97928
   A14        1.96446  -0.00067   0.00567  -0.00374   0.00178   1.96625
   A15        1.88150  -0.00218  -0.00709  -0.02171  -0.02893   1.85257
   A16        1.86126   0.00070   0.00063   0.01541   0.01590   1.87716
   A17        1.85228   0.00092  -0.00208   0.00972   0.00752   1.85980
   A18        1.92949   0.00042   0.00421  -0.00751  -0.00343   1.92606
   A19        1.98591   0.00043  -0.00053   0.00745   0.00682   1.99272
   A20        1.94575  -0.00104   0.00137  -0.01032  -0.00894   1.93680
   A21        1.94353   0.00173   0.00422   0.01017   0.01428   1.95782
   A22        1.85916   0.00101  -0.00045   0.01512   0.01468   1.87384
   A23        1.85588  -0.00053  -0.00037   0.00407   0.00351   1.85940
   A24        1.86652  -0.00175  -0.00473  -0.02796  -0.03270   1.83382
   A25        1.97020   0.00148  -0.00422   0.00914   0.00488   1.97508
   A26        1.89394  -0.00239  -0.00378  -0.02027  -0.02417   1.86978
   A27        1.94641  -0.00087   0.00295  -0.00554  -0.00264   1.94377
   A28        1.85833   0.00071   0.00022   0.00814   0.00826   1.86659
   A29        1.86365   0.00019   0.00064   0.00828   0.00892   1.87257
   A30        1.92954   0.00103   0.00448   0.00137   0.00573   1.93527
    D1       -1.00787  -0.00021   0.00232   0.02337   0.02566  -0.98221
    D2        1.11026   0.00017   0.00416   0.02902   0.03318   1.14343
    D3       -3.10976   0.00057   0.00639   0.03660   0.04302  -3.06674
    D4       -3.09723  -0.00034   0.00175   0.02055   0.02227  -3.07495
    D5       -0.97910   0.00004   0.00358   0.02621   0.02979  -0.94931
    D6        1.08406   0.00043   0.00582   0.03378   0.03963   1.12370
    D7        1.08438  -0.00020   0.00212   0.02357   0.02566   1.11003
    D8       -3.08068   0.00018   0.00396   0.02923   0.03317  -3.04751
    D9       -1.01752   0.00058   0.00619   0.03680   0.04302  -0.97450
   D10       -1.03356   0.00022   0.00165   0.00523   0.00686  -1.02670
   D11        3.14004  -0.00090  -0.00237  -0.01860  -0.02100   3.11904
   D12        1.00755   0.00051  -0.00653   0.00829   0.00173   1.00928
   D13        3.07843   0.00060  -0.00558   0.00677   0.00122   3.07965
   D14        0.96884  -0.00052  -0.00960  -0.01707  -0.02663   0.94222
   D15       -1.16364   0.00089  -0.01376   0.00982  -0.00390  -1.16754
   D16        1.05974  -0.00014   0.00346  -0.00602  -0.00258   1.05717
   D17       -1.04984  -0.00125  -0.00056  -0.02986  -0.03043  -1.08027
   D18        3.10086   0.00015  -0.00472  -0.00297  -0.00770   3.09316
   D19       -1.07674   0.00029  -0.00342   0.07823   0.07476  -1.00198
   D20        3.10344  -0.00057  -0.00347   0.06081   0.05735  -3.12240
   D21        1.02035   0.00118  -0.00121   0.09630   0.09513   1.11548
   D22        1.08911   0.00021   0.00155   0.07562   0.07710   1.16620
   D23       -1.01390  -0.00065   0.00150   0.05821   0.05968  -0.95422
   D24       -3.09699   0.00110   0.00376   0.09369   0.09747  -2.99952
   D25        3.13119   0.00015  -0.00950   0.07772   0.06820  -3.08380
   D26        1.02818  -0.00071  -0.00955   0.06031   0.05079   1.07897
   D27       -1.05491   0.00104  -0.00729   0.09579   0.08857  -0.96634
   D28       -3.06182   0.00009   0.00887   0.04314   0.05204  -3.00977
   D29        1.16584  -0.00013   0.01387   0.04079   0.05466   1.22050
   D30       -0.96364   0.00075   0.00890   0.05628   0.06515  -0.89849
   D31        1.08557   0.00056   0.00737   0.05546   0.06289   1.14846
   D32       -0.96996   0.00034   0.01237   0.05311   0.06551  -0.90446
   D33       -3.09944   0.00122   0.00740   0.06861   0.07600  -3.02344
   D34       -0.93645  -0.00027   0.01670   0.04259   0.05929  -0.87715
   D35       -2.99198  -0.00049   0.02170   0.04023   0.06191  -2.93007
   D36        1.16173   0.00039   0.01673   0.05573   0.07240   1.23413
         Item               Value     Threshold  Converged?
 Maximum Force            0.006615     0.000015     NO 
 RMS     Force            0.001373     0.000010     NO 
 Maximum Displacement     0.169606     0.000060     NO 
 RMS     Displacement     0.045263     0.000040     NO 
 GradGradGradGradGradGradGradGradGradGradGradGradGradGradGradGradGradGrad

                    Distance matrix (angstroms):
                    1          2          3          4          5
     1  C    0.000000
     2  C    1.529922   0.000000
     3  C    2.559206   1.555861   0.000000
     4  Cl   3.199909   2.770280   1.755940   0.000000
     5  C    2.544621   1.523640   2.486419   4.092827   0.000000
     6  Cl   3.190740   2.757867   3.205520   4.840214   1.757989
     7  C    2.507043   1.563438   2.529022   3.160063   2.488183
     8  Cl   4.113959   2.781822   3.225549   4.024939   3.016491
     9  H    1.101786   2.184178   2.792616   3.513415   2.860117
    10  H    1.102621   2.175654   3.516443   4.222664   2.763083
    11  H    1.101727   2.181603   2.847656   2.824335   3.498055
    12  H    3.526718   2.224073   1.099179   2.335749   2.714475
    13  H    2.736921   2.149273   1.111986   2.330836   2.729511
    14  H    3.515348   2.188157   2.690418   4.338200   1.117203
    15  H    2.864563   2.197092   3.478213   4.945314   1.109106
    16  H    2.793074   2.169277   2.652860   2.595458   3.431157
    17  H    2.697875   2.214926   3.500416   4.114707   2.834492
                    6          7          8          9         10
     6  Cl   0.000000
     7  C    4.114138   0.000000
     8  Cl   4.696444   1.766687   0.000000
     9  H    2.845585   3.485331   4.952346   0.000000
    10  H    3.465771   2.780068   4.379023   1.784040   0.000000
    11  H    4.224238   2.715597   4.424267   1.779931   1.787980
    12  H    3.536887   2.814272   2.845439   3.808949   4.372597
    13  H    2.770177   3.473528   4.222065   2.509388   3.727924
    14  H    2.347533   2.749861   2.566588   3.865808   3.801912
    15  H    2.330346   2.710495   3.251693   3.310095   2.635341
    16  H    4.911582   1.112231   2.346023   3.766753   3.246173
    17  H    4.454933   1.099474   2.341937   3.751268   2.518219
                   11         12         13         14         15
    11  H    0.000000
    12  H    3.859327   0.000000
    13  H    3.152073   1.815217   0.000000
    14  H    4.350380   2.443559   3.070082   0.000000
    15  H    3.839161   3.723719   3.775433   1.767086   0.000000
    16  H    2.550877   3.020169   3.661070   3.688190   3.770408
    17  H    2.946707   3.854799   4.325896   3.247114   2.611975
                   16         17
    16  H    0.000000
    17  H    1.821457   0.000000
 Framework group  C1[X(C5H9Cl3)]
 Deg. of freedom    45
                         Standard orientation:                         
 ---------------------------------------------------------------------
 Center     Atomic      Atomic             Coordinates (Angstroms)
 Number     Number       Type             X           Y           Z
 ---------------------------------------------------------------------
      1          6           0       -0.516699   -0.956083    1.661997
      2          6           0       -0.161733   -0.068302    0.467633
      3          6           0        0.342380   -0.898222   -0.748017
      4         17           0        1.763108   -1.866291   -0.390664
      5          6           0       -1.333061    0.782791   -0.006824
      6         17           0       -2.758964   -0.141722   -0.456937
      7          6           0        0.979027    0.907677    0.904061
      8         17           0        1.345518    2.136145   -0.311559
      9          1           0       -1.265256   -1.715327    1.384247
     10          1           0       -0.934042   -0.348707    2.482176
     11          1           0        0.373857   -1.484239    2.038511
     12          1           0        0.578818   -0.271677   -1.619644
     13          1           0       -0.473683   -1.612127   -0.994785
     14          1           0       -1.044874    1.402551   -0.890560
     15          1           0       -1.659478    1.511880    0.762590
     16          1           0        1.899515    0.297503    1.036146
     17          1           0        0.721417    1.434739    1.833946
 ---------------------------------------------------------------------
 Rotational constants (GHZ):           1.1910316           0.8758710           0.6150996
   142 basis functions,   272 primitive gaussians,   150 cartesian basis functions
    45 alpha electrons       44 beta electrons
       nuclear repulsion energy       638.9306904452 Hartrees.
 NAtoms=   17 NActive=   17 NUniq=   17 SFac= 1.00D+00 NAtFMM=   60 NAOKFM=F Big=F
 Nuclear repulsion after empirical dispersion term =      638.9184255290 Hartrees.
   1 Symmetry operations used in ECPInt.
 ECPInt:  NShTT=    2628 NPrTT=   11486 LenC2=    2577 LenP2D=    8561.
 LDataN:  DoStor=T MaxTD1= 4 Len=   56
 Initial guess from the checkpoint file:  "20.chk"
 B after Tr=     0.000000   -0.000000    0.000000
         Rot=    0.999969    0.001553    0.001282   -0.007590 Ang=   0.90 deg.
 Initial guess <Sx>= 0.0000 <Sy>= 0.0000 <Sz>= 0.5000 <S**2>= 0.7527 S= 0.5014
 ExpMin= 1.22D-01 ExpMax= 1.04D+04 ExpMxC= 1.57D+03 IAcc=3 IRadAn=         5 AccDes= 0.00D+00
 Harris functional with IExCor= 4639 and IRadAn=       5 diagonalized for initial guess.
 HarFok:  IExCor= 4639 AccDes= 0.00D+00 IRadAn=         5 IDoV= 1 UseB2=F ITyADJ=14
 ICtDFT=  3500011 ScaDFX=  1.000000  1.000000  1.000000  1.000000
 FoFCou: FMM=F IPFlag=           0 FMFlag=      100000 FMFlg1=           0
         NFxFlg=           0 DoJE=T BraDBF=F KetDBF=T FulRan=T
         wScrn=  0.000000 ICntrl=       500 IOpCl=  0 I1Cent=   200000004 NGrid=           0
         NMat0=    1 NMatS0=      1 NMatT0=    0 NMatD0=    1 NMtDS0=    0 NMtDT0=    0
 Petite list used in FoFCou.
     Minimum is close to point  2 DX=  5.62D-02 DF= -5.60D-07 DXR=  4.86D-02 DFR=  2.37D-03 which will be used.
     Accept linear search using points  1 and  2.
     Minimum is close to point  2 DX= -3.78D-02 DF= -1.78D-07 DXR=  3.93D-02 DFR=  1.54D-03 which will be used.
     Accept linear search using points  1 and  2.
     Accept linear search using points  1 and  2.
     Minimum is close to point  2 DX= -3.19D-03 DF= -1.84D-09 DXR=  3.20D-03 DFR=  1.03D-05 which will be used.
     Minimum is close to point  2 DX=  2.99D-04 DF=  0.00D+00 DXR=  2.99D-04 DFR=  0.00D+00 which will be used.
 QCLLim is confused:  Bigger=T Turned=T
 NLin=  3 IMin12=  1  2 I12=  0  2 IX=  1 XLMin= 0.000D+00 XLMax= 0.000D+00
 X = 0.000D+00 1.000D+00 2.000D+00
 DE= 0.000D+00 9.095D-13 3.183D-12
 QCLLim is confused:  Bigger=T Turned=T
 NLin=  6 IMin12=  1  2 I12=  0  2 IX=  1 XLMin= 0.000D+00 XLMax= 0.000D+00
 X = 0.000D+00 1.000D+00 2.000D+00 4.000D+00 8.000D+00 1.600D+01
 DE= 0.000D+00 9.095D-13 3.183D-12 2.228D-11 1.237D-10 5.311D-10
 Search did not lower the energy significantly.
 No lower point found -- using Newton-Raphson step.
 SCF Done:  E(UwB97XD) =  -1575.52753556     a.u. after   10 cycles
            Convg  =    0.1031D-07                    92 Fock formations.
              S**2 =  0.7527                  -V/T =  2.0032
 <Sx>= 0.0000 <Sy>= 0.0000 <Sz>= 0.5000 <S**2>= 0.7527 S= 0.5014
 <L.S>=  0.00000000000    
 Annihilation of the first spin contaminant:
 S**2 before annihilation     0.7527,   after     0.7500
   1 Symmetry operations used in ECPInt.
 ECPInt:  NShTT=    2628 NPrTT=   11486 LenC2=    2577 LenP2D=    8561.
 LDataN:  DoStor=T MaxTD1= 5 Len=  102
 Calling FoFJK, ICntrl=      2127 FMM=F ISym2X=0 I1Cent= 0 IOpClX= 1 NMat=1 NMatS=1 NMatT=0.

 GradGradGradGradGradGradGradGradGradGradGradGradGradGradGradGradGradGrad
 Using GEDIIS/GDIIS optimizer.
 FormGI is forming the generalized inverse of G from B-inverse, IUseBI=4.
 Internal  Forces:  Max     0.002253638 RMS     0.000575713
 Step number   3 out of a maximum of   92
 All quantities printed in internal units (Hartrees-Bohrs-Radians)
 Mixed Optimization -- En-DIIS/RFO-DIIS
 Trust test= 9.40D-01 RLast= 3.29D-01 DXMaxT set to 8.49D-01
 ITU=  1  1  0
 Use linear search instead of GDIIS.
     Eigenvalues ---    0.00277   0.00281   0.00293   0.00437   0.03321
     Eigenvalues ---    0.04351   0.04895   0.05035   0.05298   0.05383
     Eigenvalues ---    0.05484   0.05538   0.05795   0.06018   0.06715
     Eigenvalues ---    0.12183   0.14241   0.14675   0.16000   0.16000
     Eigenvalues ---    0.16000   0.16000   0.16000   0.16000   0.16258
     Eigenvalues ---    0.16768   0.21535   0.22126   0.22426   0.22860
     Eigenvalues ---    0.26407   0.26555   0.28306   0.28778   0.28946
     Eigenvalues ---    0.30288   0.33241   0.33475   0.33495   0.33618
     Eigenvalues ---    0.33636   0.33747   0.33780   0.33843   0.35193
 Quartic linear search produced a step of  0.03720.
 Iteration  1 RMS(Cart)=  0.03474631 RMS(Int)=  0.00078517
 Iteration  2 RMS(Cart)=  0.00081255 RMS(Int)=  0.00004884
 Iteration  3 RMS(Cart)=  0.00000038 RMS(Int)=  0.00004884
 Variable       Old X    -DE/DX   Delta X   Delta X   Delta X     New X
                                 (Linear)    (Quad)   (Total)
    R1        2.89113  -0.00058  -0.00061  -0.00705  -0.00766   2.88347
    R2        2.08207  -0.00011   0.00003  -0.00015  -0.00011   2.08196
    R3        2.08365   0.00027  -0.00002   0.00044   0.00042   2.08407
    R4        2.08196   0.00018  -0.00000   0.00054   0.00054   2.08251
    R5        2.94015   0.00049   0.00075   0.01041   0.01116   2.95131
    R6        2.87926   0.00001  -0.00034  -0.00518  -0.00553   2.87374
    R7        2.95447   0.00225   0.00113   0.02043   0.02157   2.97604
    R8        3.31824   0.00023  -0.00084  -0.01227  -0.01311   3.30513
    R9        2.07715   0.00014  -0.00011  -0.00036  -0.00046   2.07669
   R10        2.10135  -0.00095   0.00022   0.00110   0.00131   2.10266
   R11        3.32212   0.00064  -0.00091  -0.01078  -0.01168   3.31043
   R12        2.11121  -0.00077   0.00044   0.00405   0.00449   2.11570
   R13        2.09591  -0.00075   0.00018   0.00049   0.00068   2.09658
   R14        3.33855  -0.00118  -0.00072  -0.01550  -0.01622   3.32234
   R15        2.10181  -0.00127   0.00020  -0.00005   0.00015   2.10196
   R16        2.07771   0.00012  -0.00002   0.00007   0.00005   2.07775
    A1        1.93982   0.00004   0.00015   0.00195   0.00210   1.94192
    A2        1.92716   0.00025  -0.00018   0.00013  -0.00004   1.92712
    A3        1.93631   0.00014  -0.00015   0.00031   0.00016   1.93646
    A4        1.88594  -0.00021   0.00012  -0.00096  -0.00084   1.88509
    A5        1.88072  -0.00014   0.00000  -0.00217  -0.00217   1.87855
    A6        1.89211  -0.00010   0.00007   0.00064   0.00071   1.89282
    A7        1.95585   0.00020  -0.00011   0.00197   0.00177   1.95762
    A8        1.97020   0.00002   0.00010   0.00908   0.00916   1.97936
    A9        1.88979  -0.00009   0.00003  -0.00088  -0.00090   1.88888
   A10        1.87942   0.00019   0.00022   0.00376   0.00394   1.88336
   A11        1.89092  -0.00056  -0.00048  -0.01703  -0.01750   1.87341
   A12        1.87460   0.00022   0.00023   0.00194   0.00217   1.87677
   A13        1.97928   0.00026   0.00027   0.00507   0.00534   1.98463
   A14        1.96625  -0.00091   0.00007  -0.00421  -0.00424   1.96201
   A15        1.85257  -0.00039  -0.00108  -0.01712  -0.01828   1.83429
   A16        1.87716   0.00049   0.00059   0.01035   0.01093   1.88809
   A17        1.85980   0.00074   0.00028   0.01227   0.01259   1.87239
   A18        1.92606  -0.00012  -0.00013  -0.00614  -0.00647   1.91959
   A19        1.99272   0.00032   0.00025   0.00565   0.00585   1.99857
   A20        1.93680  -0.00074  -0.00033  -0.00975  -0.01010   1.92670
   A21        1.95782  -0.00057   0.00053   0.00406   0.00449   1.96231
   A22        1.87384   0.00032   0.00055   0.00744   0.00801   1.88185
   A23        1.85940   0.00069   0.00013   0.01119   0.01122   1.87062
   A24        1.83382   0.00004  -0.00122  -0.01984  -0.02113   1.81269
   A25        1.97508  -0.00013   0.00018  -0.00034  -0.00017   1.97491
   A26        1.86978  -0.00110  -0.00090  -0.01911  -0.02012   1.84966
   A27        1.94377  -0.00156  -0.00010  -0.00927  -0.00945   1.93432
   A28        1.86659   0.00069   0.00031   0.00780   0.00808   1.87467
   A29        1.87257   0.00123   0.00033   0.01408   0.01442   1.88700
   A30        1.93527   0.00099   0.00021   0.00779   0.00782   1.94309
    D1       -0.98221  -0.00022   0.00095   0.04019   0.04113  -0.94108
    D2        1.14343   0.00019   0.00123   0.05330   0.05454   1.19797
    D3       -3.06674   0.00042   0.00160   0.06066   0.06227  -3.00447
    D4       -3.07495  -0.00015   0.00083   0.04003   0.04085  -3.03411
    D5       -0.94931   0.00026   0.00111   0.05315   0.05426  -0.89505
    D6        1.12370   0.00049   0.00147   0.06050   0.06199   1.18569
    D7        1.11003  -0.00028   0.00095   0.03895   0.03988   1.14992
    D8       -3.04751   0.00013   0.00123   0.05206   0.05330  -2.99421
    D9       -0.97450   0.00036   0.00160   0.05941   0.06102  -0.91347
   D10       -1.02670   0.00009   0.00026   0.03245   0.03272  -0.99399
   D11        3.11904  -0.00006  -0.00078   0.01802   0.01728   3.13632
   D12        1.00928   0.00088   0.00006   0.03935   0.03934   1.04863
   D13        3.07965  -0.00021   0.00005   0.01692   0.01698   3.09663
   D14        0.94222  -0.00035  -0.00099   0.00248   0.00154   0.94376
   D15       -1.16754   0.00059  -0.00015   0.02382   0.02361  -1.14394
   D16        1.05717  -0.00027  -0.00010   0.02146   0.02138   1.07855
   D17       -1.08027  -0.00042  -0.00113   0.00702   0.00595  -1.07433
   D18        3.09316   0.00053  -0.00029   0.02835   0.02801   3.12116
   D19       -1.00198  -0.00053   0.00278  -0.05832  -0.05558  -1.05756
   D20       -3.12240  -0.00061   0.00213  -0.06477  -0.06261   3.09817
   D21        1.11548   0.00019   0.00354  -0.03608  -0.03253   1.08295
   D22        1.16620  -0.00013   0.00287  -0.04697  -0.04412   1.12208
   D23       -0.95422  -0.00021   0.00222  -0.05341  -0.05116  -1.00538
   D24       -2.99952   0.00059   0.00363  -0.02472  -0.02108  -3.02060
   D25       -3.08380  -0.00058   0.00254  -0.06392  -0.06143   3.13796
   D26        1.07897  -0.00066   0.00189  -0.07037  -0.06846   1.01050
   D27       -0.96634   0.00014   0.00329  -0.04168  -0.03838  -1.00472
   D28       -3.00977  -0.00037   0.00194  -0.04635  -0.04438  -3.05416
   D29        1.22050  -0.00043   0.00203  -0.04343  -0.04134   1.17916
   D30       -0.89849  -0.00001   0.00242  -0.03509  -0.03270  -0.93119
   D31        1.14846  -0.00022   0.00234  -0.03810  -0.03576   1.11270
   D32       -0.90446  -0.00029   0.00244  -0.03518  -0.03272  -0.93717
   D33       -3.02344   0.00014   0.00283  -0.02683  -0.02408  -3.04752
   D34       -0.87715  -0.00027   0.00221  -0.03481  -0.03260  -0.90975
   D35       -2.93007  -0.00033   0.00230  -0.03189  -0.02955  -2.95962
   D36        1.23413   0.00009   0.00269  -0.02355  -0.02091   1.21322
         Item               Value     Threshold  Converged?
 Maximum Force            0.002254     0.000015     NO 
 RMS     Force            0.000576     0.000010     NO 
 Maximum Displacement     0.114060     0.000060     NO 
 RMS     Displacement     0.034745     0.000040     NO 
 GradGradGradGradGradGradGradGradGradGradGradGradGradGradGradGradGradGrad

                    Distance matrix (angstroms):
                    1          2          3          4          5
     1  C    0.000000
     2  C    1.525868   0.000000
     3  C    2.562301   1.561766   0.000000
     4  Cl   3.187903   2.773975   1.749001   0.000000
     5  C    2.546491   1.520716   2.492451   4.093368   0.000000
     6  Cl   3.233125   2.755308   3.183439   4.813108   1.751807
     7  C    2.512274   1.574851   2.526905   3.166358   2.497105
     8  Cl   4.111856   2.783607   3.188349   3.988338   3.042855
     9  H    1.101726   2.182063   2.778528   3.453233   2.890800
    10  H    1.102844   2.172223   3.518747   4.227789   2.745064
    11  H    1.102015   2.178359   2.868862   2.837765   3.495579
    12  H    3.526399   2.226125   1.098935   2.337945   2.719489
    13  H    2.743717   2.140654   1.112681   2.335207   2.709143
    14  H    3.511941   2.180029   2.712166   4.350709   1.119582
    15  H    2.858364   2.197975   3.487578   4.951946   1.109464
    16  H    2.760832   2.163733   2.642748   2.596663   3.430405
    17  H    2.710524   2.218203   3.498560   4.128232   2.826806
                    6          7          8          9         10
     6  Cl   0.000000
     7  C    4.122067   0.000000
     8  Cl   4.688464   1.758104   0.000000
     9  H    2.931741   3.490135   4.952044   0.000000
    10  H    3.485498   2.814102   4.412364   1.783625   0.000000
    11  H    4.273136   2.689879   4.386880   1.778703   1.788852
    12  H    3.498353   2.800036   2.790400   3.801807   4.371032
    13  H    2.719656   3.468399   4.180045   2.501874   3.715783
    14  H    2.350075   2.714886   2.545757   3.902490   3.774416
    15  H    2.334051   2.739310   3.325232   3.335148   2.607815
    16  H    4.902428   1.112309   2.344876   3.719173   3.251728
    17  H    4.468149   1.099499   2.345636   3.771686   2.565837
                   11         12         13         14         15
    11  H    0.000000
    12  H    3.869435   0.000000
    13  H    3.200257   1.811496   0.000000
    14  H    4.337700   2.466734   3.080814   0.000000
    15  H    3.820423   3.735870   3.753594   1.754839   0.000000
    16  H    2.485817   3.013827   3.650555   3.666167   3.784903
    17  H    2.922890   3.836320   4.319780   3.181987   2.621591
                   16         17
    16  H    0.000000
    17  H    1.826433   0.000000
 Framework group  C1[X(C5H9Cl3)]
 Deg. of freedom    45
                         Standard orientation:                         
 ---------------------------------------------------------------------
 Center     Atomic      Atomic             Coordinates (Angstroms)
 Number     Number       Type             X           Y           Z
 ---------------------------------------------------------------------
      1          6           0       -0.497065   -0.958564    1.683334
      2          6           0       -0.172967   -0.063245    0.491010
      3          6           0        0.328039   -0.881545   -0.741260
      4         17           0        1.731899   -1.869332   -0.405912
      5          6           0       -1.347805    0.790155    0.039302
      6         17           0       -2.751953   -0.121188   -0.477077
      7          6           0        0.989369    0.913300    0.909927
      8         17           0        1.373141    2.102058   -0.327208
      9          1           0       -1.206461   -1.754054    1.404493
     10          1           0       -0.950268   -0.367248    2.496487
     11          1           0        0.413360   -1.443898    2.070652
     12          1           0        0.557659   -0.241112   -1.604265
     13          1           0       -0.508971   -1.570756   -0.991187
     14          1           0       -1.042749    1.457811   -0.806061
     15          1           0       -1.686076    1.495365    0.826171
     16          1           0        1.889877    0.275426    1.049324
     17          1           0        0.733718    1.451717    1.833858
 ---------------------------------------------------------------------
 Rotational constants (GHZ):           1.1969929           0.8749468           0.6203825
   142 basis functions,   272 primitive gaussians,   150 cartesian basis functions
    45 alpha electrons       44 beta electrons
       nuclear repulsion energy       639.6866497373 Hartrees.
 NAtoms=   17 NActive=   17 NUniq=   17 SFac= 1.00D+00 NAtFMM=   60 NAOKFM=F Big=F
 Nuclear repulsion after empirical dispersion term =      639.6743803040 Hartrees.
   1 Symmetry operations used in ECPInt.
 ECPInt:  NShTT=    2628 NPrTT=   11486 LenC2=    2579 LenP2D=    8563.
 LDataN:  DoStor=T MaxTD1= 4 Len=   56
 Initial guess from the checkpoint file:  "20.chk"
 B after Tr=    -0.000000   -0.000000   -0.000000
         Rot=    0.999989   -0.000755   -0.001576    0.004399 Ang=  -0.54 deg.
 Initial guess <Sx>= 0.0000 <Sy>= 0.0000 <Sz>= 0.5000 <S**2>= 0.7528 S= 0.5014
 ExpMin= 1.22D-01 ExpMax= 1.04D+04 ExpMxC= 1.57D+03 IAcc=3 IRadAn=         5 AccDes= 0.00D+00
 Harris functional with IExCor= 4639 and IRadAn=       5 diagonalized for initial guess.
 HarFok:  IExCor= 4639 AccDes= 0.00D+00 IRadAn=         5 IDoV= 1 UseB2=F ITyADJ=14
 ICtDFT=  3500011 ScaDFX=  1.000000  1.000000  1.000000  1.000000
 FoFCou: FMM=F IPFlag=           0 FMFlag=      100000 FMFlg1=           0
         NFxFlg=           0 DoJE=T BraDBF=F KetDBF=T FulRan=T
         wScrn=  0.000000 ICntrl=       500 IOpCl=  0 I1Cent=   200000004 NGrid=           0
         NMat0=    1 NMatS0=      1 NMatT0=    0 NMatD0=    1 NMtDS0=    0 NMtDT0=    0
 Petite list used in FoFCou.
     Minimum is close to point  2 DX=  5.16D-02 DF= -2.62D-07 DXR=  4.48D-02 DFR=  2.01D-03 which will be used.
     Accept linear search using points  1 and  2.
     Minimum is close to point  2 DX= -6.33D-02 DF= -2.81D-07 DXR=  6.76D-02 DFR=  4.59D-03 which will be used.
     Accept linear search using points  1 and  2.
     Minimum is close to point  2 DX= -2.82D-03 DF= -8.45D-10 DXR=  2.83D-03 DFR=  8.02D-06 which will be used.
     Accept linear search using points  2 and  3.
     Minimum is close to point  2 DX=  1.81D-04 DF=  0.00D+00 DXR=  1.81D-04 DFR=  0.00D+00 which will be used.
 SCF Done:  E(UwB97XD) =  -1575.52758496     a.u. after    7 cycles
            Convg  =    0.3548D-06                    47 Fock formations.
              S**2 =  0.7528                  -V/T =  2.0032
 <Sx>= 0.0000 <Sy>= 0.0000 <Sz>= 0.5000 <S**2>= 0.7528 S= 0.5014
 <L.S>=  0.00000000000    
 Annihilation of the first spin contaminant:
[...]
   yy         0.128296D+03      0.190115D+02      0.211531D+02
   zx         0.820861D+01      0.121639D+01      0.135342D+01
   zy        -0.237261D+02     -0.351585D+01     -0.391191D+01
   zz         0.836991D+02      0.124029D+02      0.138001D+02

 ----------------------------------------------------------------------
 1\1\GINC-C278\Freq\UwB97XD\def2SVPP\C5H9Cl3(1+,2)\PETERCHAO1\10-Jul-20
 23\0\\#T Geom=AllCheck Guess=TCheck SCRF=Check GenChk UwB97XD/def2SVPP
  Freq\\comment\\1,2\C,-0.5697722416,-0.8803898179,1.6968898863\C,-0.17
 3819121,0.025503067,0.5464553022\C,0.2724439631,-0.9026247604,-0.78381
 86157\Cl,1.4466105181,-2.0958955893,-0.4470527264\C,-1.327284691,0.852
 8848227,-0.0205650283\Cl,-2.7593195116,-0.0874392899,-0.4438899379\C,1
 .0373549511,0.8947918188,0.9137518667\Cl,1.5564410242,2.0289781937,-0.
 343756154\H,-1.2989157845,-1.6458749884,1.3832049129\H,-1.0620605882,-
 0.2748813989,2.4800486662\H,0.302935572,-1.3819634237,2.1432663091\H,0
 .6567987887,-0.1846019749,-1.5257022072\H,-0.7042909241,-1.372817675,-
 1.023851824\H,-1.0341995453,1.4558427684,-0.8927481738\H,-1.6316352821
 ,1.5566559347,0.7816781197\H,1.8984022399,0.2758214095,1.2031880793\H,
 0.7414226324,1.4979849036,1.792463525\\Version=ES64L-G16RevB.01\State=
 2-A\HF=-1575.5293265\S2=0.75327\S2-1=0.\S2A=0.750008\RMSD=3.226e-09\RM
 SF=1.159e-06\ZeroPoint=0.1299083\Thermal=0.1399663\Dipole=0.013741,-0.
 350822,0.6086602\DipoleDeriv=-0.0906441,-0.0746887,0.2325384,0.0009858
 ,0.053897,-0.033086,0.0963718,0.1235847,-0.2529088,-0.3293127,-0.28987
 72,-0.240879,0.3434542,0.081704,0.2967764,-0.0400856,-0.2543802,0.6155
 535,0.3702755,-0.6803289,-0.0423471,-1.1316647,0.5771296,-0.2854142,-0
 .0873358,0.4842773,-0.0740341,-0.1755791,0.5570807,0.0705559,0.2791058
 ,-0.3754278,-0.049249,-0.1779401,0.1212136,0.108239,0.1185534,0.233272
 2,0.0290429,0.9731583,-0.3141192,0.0711948,1.0646813,-0.0422708,-0.059
 3614,-0.6668461,-0.0255028,-0.0948396,-0.4692479,0.1182796,-0.0309088,
 -0.258951,0.0509291,0.0037057,0.6681831,0.6009728,0.0596264,-0.1347254
 ,-0.010796,-0.3455033,-0.9546789,-0.8771367,-0.0692637,-0.1446998,-0.2
 435649,0.0089232,-0.2535518,-0.2589834,0.0623104,0.4253181,0.4938711,-
 0.0860453,0.0711144,0.0059544,-0.0712092,0.028244,0.0745308,-0.0118457
 ,-0.0585273,-0.0796723,0.070779,0.0775846,0.0197813,-0.051306,0.024608
 ,-0.0234897,-0.0036742,-0.0603257,0.0155713,0.0764632,0.0507954,0.0448
 21,-0.0328162,-0.0293941,0.0584452,0.0192338,0.0137065,-0.0399591,0.07
 81353,0.247459,0.0025102,-0.0077449,0.3829987,0.1642196,0.1042613,0.13
 80133,-0.0145267,0.1595888,0.4423467,0.1977573,0.1052377,0.031595,0.17
 68206,0.1063328,0.0847528,-0.0856597,0.1032366,0.1652442,-0.0936131,0.
 0156852,-0.1453556,0.1731085,-0.0214453,0.0167102,-0.0392641,0.0723891
 ,0.2656206,-0.133982,-0.0027455,-0.1244872,0.2381142,-0.0227189,-0.337
 5754,0.0081497,0.0742127,0.1350944,0.013913,0.0253082,0.109139,0.02763
 36,0.0923651,0.0533908,0.0255973,0.0831109,-0.2051893,-0.1345053,-0.00
 30304,0.1151378,0.2389332,0.0513707,0.0824749,0.1096756,0.0961994\Pola
 r=177.5049156,-8.3852472,137.6160142,2.3802277,7.5839589,74.1559914\Qu
 adrupole=-0.7560588,0.5278948,0.228164,-2.5413048,-0.0502188,1.9154566
 \PG=C01 [X(C5H9Cl3)]\NImag=0\\0.59073324,-0.02228050,0.54558726,0.0410
 0232,0.02969868,0.50986045,-0.09012962,-0.01839690,0.01469112,0.395415
 58,-0.01877572,-0.09908164,0.06707367,0.03129885,0.36165782,0.00787335
 ,0.07220394,-0.13263873,0.02300695,-0.12986274,0.34251036,-0.00504510,
 0.00238207,0.00961196,0.00443331,-0.00016555,-0.00372857,0.46815177,0.
 00353096,-0.01550744,-0.00734372,-0.00796458,0.03360969,0.05774950,0.0
 9109344,0.36461991,0.01430587,-0.01820669,-0.02929345,0.00400183,0.033
 68201,0.00598503,0.01085024,-0.17101504,0.31336732,-0.00124894,-0.0004
 9463,0.00047742,-0.01321645,0.01406609,0.00462038,-0.11573838,0.077412
 08,-0.03943044,0.14759917,-0.00113252,0.00319488,0.00246748,0.01299798
 ,-0.02267460,-0.01012862,0.08010308,-0.11137002,0.05072732,-0.12175120
 ,0.15087586,0.00220015,-0.00434763,-0.00367172,0.00369540,-0.00355119,
 -0.00036948,-0.02129330,0.02904601,-0.03925889,0.03294666,-0.03680959,
 0.03745815,0.01382715,0.00318819,-0.00306472,-0.10913255,0.03867771,-0
 .00567817,-0.01766383,0.01023925,-0.00704590,-0.00164558,0.00233173,0.
 00182589,0.37850517,0.01045705,-0.01658453,0.01355373,0.02572009,-0.09
 627994,0.02909022,0.00698305,-0.01759221,-0.00804269,0.00460635,-0.002
 09484,0.00339402,0.00211728,0.44977146,-0.02199966,0.01771289,-0.01243
 848,0.00373276,0.03418859,-0.06141000,-0.00560791,-0.01380471,-0.02067
 416,0.00386722,-0.00074876,0.00451757,-0.07667557,-0.02671081,0.533833
 66,0.00142364,-0.00006324,-0.00004633,-0.03620080,-0.01142004,-0.00752
 791,-0.00806430,-0.01144258,-0.00487481,0.00073165,0.00012596,0.000181
 81,-0.11699127,-0.05570322,-0.01249515,0.17642565,0.00316953,-0.000879
 70,0.00015946,-0.00082339,0.00242486,-0.00130603,0.01253499,-0.0009539
 0,0.00105827,-0.00136870,0.00072081,-0.00201355,-0.06211219,-0.0689107
 4,-0.00611082,0.08656405,0.08843811,-0.00249187,0.00002220,0.00021412,
 -0.01223361,-0.00925663,-0.00529406,0.00501340,-0.00176885,0.00122994,
 -0.00048516,0.00035752,-0.00115460,-0.02432370,-0.01073143,-0.03924396
 ,0.04409704,0.02222536,0.03872880,-0.01062772,-0.01981753,0.00256347,-
 0.10558220,-0.02373223,-0.01321147,-0.01488288,-0.00966876,-0.00597049
 ,-0.00172663,0.00358166,-0.00025399,-0.02927989,-0.01035060,-0.0245287
 1,0.00196414,0.00299575,-0.00108832,0.47989369,-0.01712386,-0.01697091
 ,0.00431397,-0.02117792,-0.08878912,-0.00116299,-0.01419938,-0.0235283
 4,-0.01505729,-0.00057635,-0.00318723,-0.00198069,-0.00034954,0.021937
 24,-0.00144465,0.00460957,-0.00124300,0.00220305,-0.11314191,0.4555984
 6,0.01694138,0.01220975,0.00886613,-0.03093677,0.00745910,-0.06281051,
 -0.00242062,-0.02566964,-0.01311044,-0.00054382,-0.00418230,-0.0028626
 3,-0.01453015,0.00389023,0.00542100,-0.00615152,-0.00218413,-0.0024690
 3,0.01536258,0.03065679,0.43713815,-0.00328612,-0.00095345,-0.00223972
 ,-0.00905027,-0.01674178,0.01586041,-0.00199150,-0.00058306,0.00311269
 ,0.00104003,-0.00120766,0.00010119,-0.00307105,-0.00434791,0.00130709,
 0.00005070,-0.00009456,0.00068890,-0.04274539,-0.01953905,0.02433142,0
 .05060195,-0.00303588,0.00082847,-0.00275042,-0.01266566,-0.01978742,0
 .01531721,-0.00423009,-0.00492047,0.00349664,0.00045515,0.00014508,-0.
 00030323,-0.00045324,0.00034434,0.00218849,-0.00092789,0.00021915,-0.0
 0026357,-0.01135368,-0.08532053,0.05664862,0.04495330,0.11721977,0.001
 22251,-0.00129832,0.00033301,0.00975835,0.00505671,-0.00083075,-0.0034
 7905,-0.00434463,-0.00504219,-0.00178400,0.00209772,0.00024929,-0.0004
 6636,-0.00220676,-0.00525388,0.00163434,0.00030304,0.00090418,0.015852
 23,0.06299637,-0.09480493,-0.04056774,-0.09374066,0.12923631,-0.163670
 83,-0.12504895,-0.05775146,-0.00672397,-0.00710597,0.00438569,0.000218
 94,-0.00185541,-0.00191520,-0.00033415,0.00046224,-0.00011680,-0.00192
 816,0.00333629,-0.00042732,-0.00130989,0.00045335,-0.00074820,0.001160
 59,0.00020369,0.00218418,0.00003158,-0.00070925,-0.00026547,0.17403388
 ,-0.12624457,-0.17897663,-0.05428763,-0.01013406,-0.01286986,-0.008249
 26,-0.00082180,0.00130283,0.00013664,0.00020962,-0.00021293,0.00065820
 ,-0.00041512,-0.00116340,-0.00017618,0.00079033,0.00074428,0.00021747,
 0.00005471,-0.00040122,0.00317696,-0.00063349,-0.00029358,-0.00009839,
 0.13762218,0.18906764,-0.05620942,-0.05512547,-0.06889074,0.02027343,0
 .01556544,0.00740654,0.00094637,0.00290416,0.00100110,0.00030468,-0.00
 020074,0.00014605,-0.00068891,0.00020062,-0.00036470,-0.00095599,0.000
 52159,-0.00058261,0.00062802,0.00098679,-0.00423296,0.00094423,0.00104
 964,0.00011656,0.05591582,0.05794454,0.07464170,-0.09603453,0.07004586
 ,0.08141033,-0.00744192,0.00321609,0.00767757,-0.00139824,-0.00251823,
 0.00014289,0.00085881,-0.00065521,0.00050795,-0.00007568,0.00289741,0.
 00038287,-0.00086139,-0.00098145,0.00059643,0.00163588,0.00073196,0.00
 014469,-0.00003907,-0.00064452,0.00001403,0.00946461,-0.01165837,-0.01
 504799,0.10009848,0.06813641,-0.12529856,-0.10364440,-0.00838081,0.004
 18865,0.01025723,-0.00055270,0.00443041,0.00447282,0.00015010,-0.00059
 205,0.00019314,-0.00049578,0.00059870,-0.00034347,0.00020283,0.0003459
 0,0.00005191,0.00142322,-0.00032910,-0.00014009,-0.00015974,-0.0004280
 2,0.00055152,0.01113361,-0.01038058,-0.01442709,-0.07165045,0.13589008
 ,0.08398519,-0.10659776,-0.17940636,0.00869138,-0.00813951,-0.01801453
 ,0.00121251,-0.00129281,-0.00415993,-0.00087962,0.00084021,0.00049460,
 0.00118445,-0.00082472,0.00244682,-0.00097750,-0.00056875,-0.00031400,
 -0.00082851,-0.00109495,-0.00158156,-0.00008161,0.00009942,0.00034904,
 0.00422924,-0.00352092,-0.00480869,-0.09292647,0.11099544,0.19269728,-
 0.22900981,0.10175854,-0.09117600,0.01175595,-0.00713390,0.00684373,0.
 00011149,0.00099642,-0.00105740,-0.00019668,0.00022436,0.00131957,-0.0
 0232467,-0.00144489,0.00008248,0.00052523,0.00080147,-0.00031615,-0.00
 029532,-0.00125631,0.00122195,0.00029314,0.00034638,-0.00042135,-0.012
 68569,0.01097118,-0.00560423,-0.00788936,0.00290344,-0.00539031,0.2397
 5307,0.09938663,-0.10490419,0.05127662,0.01342329,-0.00976251,0.002605
 72,-0.00028672,0.00036192,0.00128703,0.00027477,-0.00011819,-0.0006606
 9,-0.00140295,-0.00189121,0.00573913,-0.00064119,0.00025456,-0.0005364
 7,0.00240274,-0.00022952,-0.00057166,-0.00015057,0.00028967,-0.0000657
 6,-0.01734470,0.01246882,-0.00866613,0.01103666,-0.00649378,0.00761054
 ,-0.10666560,0.10946942,-0.08780736,0.04968698,-0.09137078,-0.02226457
 ,0.01180375,-0.01305265,-0.00171595,0.00086230,0.00145894,0.00142661,-
 0.00143236,-0.00027697,0.00437416,0.00104880,-0.00133838,0.00002916,-0
 .00002118,0.00023278,0.00034022,-0.00023309,-0.00042766,-0.00028576,-0
 .00072037,0.00054836,-0.00529386,0.00381487,-0.00324407,0.01800740,-0.
 00929416,0.01111351,0.09374728,-0.05800059,0.09647691,0.00000990,0.003
 14435,0.00123549,-0.00397035,-0.01021844,0.00556626,-0.08440931,-0.066
 10056,0.06801794,0.00049455,0.02402568,-0.01515722,-0.00016381,-0.0026
 6380,-0.00168761,0.00098801,0.00103243,0.00045321,0.00260312,0.0005933
 0,-0.00169525,-0.00014087,0.00082586,0.00046986,0.00006413,0.00016400,
 -0.00045207,0.00017139,-0.00067496,0.00092279,-0.00021360,0.00021219,0
 .00016517,0.09008923,-0.00086504,0.00315651,0.00088058,0.00354306,-0.0
 1309578,-0.01607887,-0.06313269,-0.13777344,0.13290047,0.00341778,-0.0
 1645947,0.01365953,0.00168514,-0.00194473,-0.00406224,0.00326540,0.000
 02482,0.00087427,0.00214625,0.00391909,0.00134092,0.00070024,0.0013099
 3,0.00015988,0.00023819,-0.00019430,-0.00035784,0.00089736,-0.00098620
 ,0.00050838,-0.00035516,0.00018754,0.00023200,0.05882612,0.16481127,0.
 00040618,0.00043314,-0.00026031,0.00792576,-0.00331968,-0.02246314,0.0
 7027658,0.14324943,-0.16918484,0.00064330,-0.00009610,0.00247469,0.000
 17218,0.00026073,-0.00006786,0.00163438,0.00014621,0.00010622,0.002058
 01,0.00258382,-0.00013519,0.00005979,0.00099345,0.00177113,0.00014735,
 -0.00011100,-0.00029663,0.00057709,-0.00032401,-0.00005121,-0.00027094
 ,0.00007366,0.00020837,-0.07627789,-0.13671983,0.17793165,-0.00124551,
 0.00254197,0.00219535,-0.00857816,-0.01256786,-0.00468220,-0.22354378,
 -0.09355231,-0.04556805,-0.01889553,0.00270560,-0.00696976,0.00279262,
 0.00946819,0.00726610,0.00388101,-0.00400183,-0.00136836,0.00175445,0.
 00314403,0.00144485,0.00120421,0.00179567,-0.00124651,0.00061405,0.000
 21550,0.00021846,0.00119677,-0.00050719,0.00075521,-0.00040638,0.00028
 356,0.00023251,-0.00386062,-0.00917202,-0.00611694,0.24765251,-0.00096
 865,0.00115676,0.00246615,-0.00520938,-0.01329660,-0.01511764,-0.11364
 111,-0.08818936,-0.00982536,0.02765325,-0.00020576,0.00518805,-0.00066
 479,-0.00119385,-0.00123647,0.00110601,-0.00032603,0.00026019,-0.00191
 685,-0.00055317,0.00166182,0.00025629,-0.00019456,-0.00177413,0.000313
 40,0.00052151,0.00013930,0.00058177,-0.00043039,0.00038590,0.00000523,
 0.00002534,0.00026568,-0.01020702,-0.00276183,-0.00748302,0.10321640,0
 .10603130,-0.00139041,0.00040029,0.00058570,-0.00365534,-0.01587746,-0
 .01324701,-0.06311428,-0.01320795,-0.05108302,-0.00182984,-0.00208935,
 0.00280832,-0.00091113,-0.00451451,-0.00375342,-0.00085219,0.00344732,
 0.00073745,-0.00159738,-0.00215036,-0.00096084,-0.00024531,0.00059647,
 0.00054423,0.00041661,-0.00003620,-0.00109476,-0.00029742,-0.00013696,
 0.00056323,0.00015919,-0.00018348,-0.00024633,0.01764963,0.00693308,0.
 00983505,0.05612021,0.02511053,0.05439100,-0.00584009,0.00184828,-0.00
 019924,0.01220129,0.01155321,-0.02123352,-0.00127043,0.00261944,0.0004
 0622,0.00066403,-0.00079486,0.00023290,-0.06201426,-0.03697533,0.06211
 325,-0.01421036,-0.01674301,0.01104460,-0.00040286,0.00097931,-0.00004
 852,-0.00000655,-0.00033083,0.00029561,0.00032783,0.00001956,0.0000727
 7,0.00025658,-0.00030465,0.00039472,0.00038341,0.00111544,-0.00101477,
 -0.00072558,0.00034794,0.00007191,-0.00018329,-0.00021633,-0.00036925,
 0.07118481,0.00466193,0.00157846,-0.00022560,0.00337125,-0.01146037,0.
 01797882,0.00048986,-0.00076639,0.00056399,-0.00115310,0.00083726,-0.0
 0085495,-0.03889624,-0.12049519,0.12071083,-0.01132574,-0.01020052,0.0
 0610190,-0.00120106,-0.00254903,-0.00326314,0.00032421,-0.00010761,0.0
 0001844,-0.00107657,0.00019835,-0.00058293,-0.00060656,-0.00019212,0.0
 0028022,-0.00062038,-0.00010391,0.00104472,0.00117256,0.00023457,-0.00
 020109,-0.00098137,-0.00015465,0.00058277,0.04082602,0.13272734,-0.002
 02794,0.00116022,0.00054595,0.00188471,0.00048114,-0.00851721,0.000522
 43,0.00118022,0.00176680,0.00048418,-0.00068554,0.00017982,0.06189437,
 0.12353590,-0.23225749,-0.00866704,-0.01031743,0.00919524,0.00080651,0
 .00129212,-0.00063193,0.00055544,-0.00031958,0.00096987,0.00008953,0.0
 0012267,-0.00014911,-0.00001698,-0.00026288,0.00049872,0.00026613,0.00
 037290,-0.00013732,0.00008793,-0.00093245,0.00014048,-0.00038650,0.000
 14384,-0.00011553,-0.05922235,-0.12860384,0.24351139,-0.00062109,0.000
 30401,0.00134497,-0.01070907,0.01128505,0.00512924,-0.00222458,0.00783
 271,0.00625249,0.00044437,-0.00099674,0.00002840,-0.05006882,0.0483368
 4,0.06067795,-0.00593810,-0.02054117,-0.01799838,0.00098342,0.00163450
 ,0.00066487,0.00004008,-0.00009214,0.00032640,0.00029601,-0.00051379,0
 .00002000,0.00044738,-0.00026596,-0.00020400,0.00013569,-0.00063144,-0
 .00047131,-0.00014929,-0.00094920,-0.00108436,-0.00136593,-0.00084909,
 -0.00087297,-0.00067175,0.00524815,0.00395478,0.07031830,0.00079600,0.
 00128931,-0.00113568,0.01596722,-0.01400848,-0.00471448,0.00133685,-0.
 00322177,-0.00211399,-0.00081381,0.00066480,-0.00074927,0.04426047,-0.
 13689488,-0.12582536,-0.00441499,-0.01125998,-0.00967146,-0.00340155,-
 0.00155406,-0.00269066,0.00132366,-0.00023797,0.00009213,-0.00053301,0
 .00016070,-0.00036355,-0.00009322,-0.00043632,0.00100433,-0.00044205,0
 .00078103,0.00079762,0.00030754,0.00101173,0.00039805,-0.00054984,-0.0
 0000122,0.00060002,-0.00385342,0.00939428,0.01280750,-0.04959692,0.152
 77641,0.00119768,0.00032678,-0.00137090,-0.00939995,0.00586909,0.00146
 771,0.00467985,0.00034910,0.00381518,-0.00071499,-0.00035418,-0.001495
 01,0.05979648,-0.11626988,-0.17399647,-0.00454919,-0.00591905,-0.00284
 461,0.00355487,-0.00086323,-0.00319400,-0.00041491,-0.00038500,0.00155
 926,-0.00037192,0.00023786,0.00034980,-0.00131887,0.00134253,-0.000656
 35,0.00033063,-0.00057260,-0.00018500,0.00044990,0.00061563,0.00030192
 ,-0.00172216,0.00023737,0.00119112,0.00695986,-0.01501890,-0.01464202,
 -0.05638726,0.12933620,0.18998914,0.00027249,0.00060132,-0.00084173,-0
 .01822729,0.01202222,-0.00523825,0.00026973,0.00193285,0.00001872,0.00
 089966,0.00014017,0.00059175,-0.00070050,-0.00445944,-0.00100470,-0.00
 055066,0.00032324,-0.00041531,-0.22742096,0.13056326,-0.05596265,0.009
 24524,-0.01153080,0.00779501,0.00032757,-0.00016481,0.00008228,0.00014
 701,0.00001823,0.00000832,-0.00021497,-0.00070002,0.00065186,-0.000273
 42,-0.00071173,-0.00035280,-0.00063300,0.00009475,0.00021231,-0.000167
 69,0.00028070,-0.00005604,0.00016166,-0.00003157,0.00040477,0.24016431
 ,-0.00027740,0.00064041,-0.00151333,-0.02266038,0.00910228,-0.00841427
 ,0.00094915,0.00193914,0.00037787,-0.00014643,-0.00085541,-0.00062893,
 0.00115243,-0.00595980,0.00136430,-0.00124158,0.00040884,-0.00046887,0
 .13599497,-0.13463054,0.04109482,0.00577547,-0.01194752,0.00989833,0.0
 0010816,-0.00001236,0.00012265,0.00004769,0.00020933,0.00008088,-0.000
 18873,-0.00025378,0.00017080,-0.00022239,-0.00074969,-0.00031182,-0.00
 070370,0.00005885,0.00029813,-0.00008644,0.00095528,-0.00026429,-0.000
 47518,0.00092819,0.00005626,-0.13040504,0.14693364,0.00109615,-0.00000
 572,-0.00037418,-0.01528530,-0.00023296,-0.00809756,-0.00090377,0.0025
 0815,0.00215704,0.00091659,-0.00083847,0.00028811,0.00197172,-0.003800
 70,0.00308366,-0.00052105,0.00036594,0.00016474,-0.05339284,0.03928080
 ,-0.05922315,-0.01008021,0.01781178,-0.01189836,0.00007179,0.00004134,
 -0.00014765,0.00019137,0.00013462,0.00017576,0.00042006,0.00030189,0.0
 0023648,0.00002612,-0.00000621,-0.00026483,0.00004254,0.00002348,-0.00
 004293,0.00034011,0.00097617,-0.00022434,-0.00068982,0.00127425,-0.000
 34141,0.05698402,-0.04516476,0.06692543,0.00049295,0.00124060,0.000786
 78,-0.00484347,-0.01425772,-0.01966349,0.00304709,-0.00197166,-0.00124
 663,0.00027004,-0.00016025,0.00015940,-0.00006488,0.00202264,0.0049969
 3,-0.00186326,-0.00120853,-0.00042450,-0.05703145,0.04490470,0.0499934
 0,-0.00217612,-0.00240240,0.01086213,0.00011350,0.00053892,-0.00044745
 ,-0.00053671,-0.00097559,-0.00009577,0.00027850,-0.00031211,-0.0001207
 9,-0.00051348,0.00011836,0.00013039,-0.00038344,0.00044612,0.00057756,
 0.00047490,-0.00051365,-0.00016915,-0.00107828,-0.00026134,-0.00249478
 ,-0.00329918,0.01237937,0.01881254,0.06711329,0.00056563,0.00077152,-0
 .00098958,0.00109134,-0.00987698,-0.01016774,0.00115757,-0.00244058,-0
 .00444198,-0.00194096,0.00133181,-0.00023923,0.00113764,-0.00164642,-0
 .00144074,0.00051631,0.00019254,0.00038343,0.04598486,-0.12216904,-0.1
 1943740,-0.00892192,0.00288124,0.02235452,-0.00019725,0.00004072,0.000
 28902,-0.00064680,-0.00009598,0.00023410,0.00009998,-0.00008123,-0.000
 02575,-0.00021686,-0.00069002,0.00042809,-0.00133481,-0.00048634,0.000
 22767,-0.00000432,0.00010425,0.00028948,0.00027038,0.00060821,0.001012
 04,0.00202668,-0.00676686,-0.01266961,-0.03958748,0.13832317,0.0016958
 9,0.00172674,-0.00068971,-0.00388618,-0.01093933,-0.01062401,-0.000849
 88,0.00059849,0.00102558,-0.00001917,0.00107577,0.00047270,0.00216535,
 -0.00187276,0.00149610,0.00004194,0.00021376,0.00038940,0.05970581,-0.
 12032643,-0.20498044,0.00695413,0.00028114,-0.01875110,-0.00054996,0.0
 0012903,0.00015018,-0.00004488,0.00057385,0.00065368,-0.00015463,-0.00
 001010,0.00000382,0.00022575,0.00005269,-0.00004550,-0.00021473,-0.000
 44570,-0.00011225,0.00015570,0.00049260,-0.00013331,-0.00069100,0.0009
 5434,0.00005162,-0.00287755,0.00330223,0.00758319,-0.06165658,0.124193
 67,0.22351005\\0.00000076,0.00000077,0.00000127,0.00000022,0.00000062,
 0.,-0.00000021,-0.00000038,0.00000080,0.00000065,-0.00000004,0.0000013
 7,-0.00000037,-0.00000147,-0.00000117,-0.00000015,-0.00000201,0.000001
 16,-0.00000021,0.00000062,-0.00000160,-0.00000144,0.00000006,-0.000002
 39,0.00000125,0.00000028,0.00000210,0.00000085,0.00000154,0.00000047,0
 .00000129,0.00000184,0.00000105,-0.00000065,-0.00000159,-0.00000012,0.
 00000024,-0.00000178,0.00000148,-0.00000116,-0.00000190,-0.00000084,-0
 .00000074,-0.00000034,-0.00000073,-0.00000004,0.00000194,-0.00000111,-
 0.00000029,0.00000184,-0.00000173\\\@


 If fifty million people say a stupid thing,
 it is still a stupid thing.
                   -- Anatole France
 Job cpu time:       0 days  0 hours  9 minutes 53.5 seconds.
 Elapsed time:       0 days  0 hours  2 minutes 29.4 seconds.
 File lengths (MBytes):  RWF=    102 Int=      0 D2E=      0 Chk=      3 Scr=      1
 Normal termination of Gaussian 16 at Mon Jul 10 20:07:24 2023.
real 2951.52
user 10959.71
sys 36.49
