You are running Q-Chem version: 5.3.2

#
# job setting
#
local host:  tnxt-0470.cluster
current dir: /scratch/user/peterli3819/peterli3819/12613581_1663277313000000230419624
input file:  qchem_test.inp
output file: 
nprocs     : 0
nthreads   : 8
#
# qchem installation setting
#
QC:          /sw/restricted/qchem/sw/5.3.2
QCAUX:       /sw/restricted/qchem/sw/5.3.2/qcaux
QCPROG:      /sw/restricted/qchem/sw/5.3.2/exe/qcprog.exe_s
QCPROG_S:    /sw/restricted/qchem/sw/5.3.2/exe/qcprog.exe_s
PARALLEL:    -DSERIAL
QCMPI:       seq
#
# qchem directory setting
#
qcrun:       qchem13448
QCSCRATCH:   /scratch/user/peterli3819/peterli3819/12613581_1663277313000000230419624
QCLOCALSCR:  
QCTMPDIR:    /scratch/user/peterli3819/peterli3819/12613581_1663277313000000230419624
QCFILEPREF:  /scratch/user/peterli3819/peterli3819/12613581_1663277313000000230419624/qchem13448
QCSAVEDIR:   
workdirs:    /scratch/user/peterli3819/peterli3819/12613581_1663277313000000230419624/qchem13448
workdir0:    /scratch/user/peterli3819/peterli3819/12613581_1663277313000000230419624/qchem13448
partmpdirs =  
#
# parallel setting
#
QCRSH:           ssh
QCMPI:           seq
QCMPIRUN:        
QCMACHINEFILE:   /scratch/user/peterli3819/peterli3819/12613581_1663277313000000230419624/qchem13448/hostfile

#
# env setting
#
exported envs:   QC QCAUX QCSCRATCH QCRUNNAME QCFILEPREF QCPROG QCPROG_S GUIFILE

Running Job 1 of 1 qchem_test.inp
qchem qchem_test.inp_13448.0 /scratch/user/peterli3819/peterli3819/12613581_1663277313000000230419624/qchem13448/ 0
/sw/restricted/qchem/sw/5.3.2/exe/qcprog.exe_s qchem_test.inp_13448.0 /scratch/user/peterli3819/peterli3819/12613581_1663277313000000230419624/qchem13448/
                  Welcome to Q-Chem
     A Quantum Leap Into The Future Of Chemistry


 Q-Chem 5.3, Q-Chem, Inc., Pleasanton, CA (2020)

 License issued to: MRG Daniel Tabor and Mike Hall, Texas A&M University

 Yihan Shao,  Zhengting Gan,  E. Epifanovsky,  A. T. B. Gilbert,  M. Wormit,  
 J. Kussmann,  A. W. Lange,  A. Behn,  Jia Deng,  Xintian Feng,  D. Ghosh,  
 M. Goldey,  P. R. Horn,  L. D. Jacobson,  I. Kaliman,  T. Kus,  A. Landau,  
 Jie Liu,  E. I. Proynov,  R. M. Richard,  R. P. Steele,  E. J. Sundstrom,  
 H. L. Woodcock III,  P. M. Zimmerman,  D. Zuev,  B. Alam,  B. Albrecht,  
 A. Aldossary,  E. Alguire,  S. A. Baeppler,  D. Barton,  Z. Benda,  
 Y. A. Bernard,  E. J. Berquist,  K. B. Bravaya,  H. Burton,  K. Carter-Fenk,  
 D. Casanova,  Chun-Min Chang,  Yunqing Chen,  A. Chien,  K. D. Closser,  
 M. P. Coons,  S. Coriani,  S. Dasgupta,  A. L. Dempwolff,  M. Diedenhofen,  
 Hainam Do,  R. G. Edgar,  Po-Tung Fang,  S. Faraji,  S. Fatehi,  
 Qingguo Feng,  J. Fosso-Tande,  J. Gayvert,  Qinghui Ge,  A. Ghysels,  
 G. Gidofalvi,  J. Gomes,  J. Gonthier,  S. Gulania,  A. Gunina,  D. Hait,  
 M. W. D. Hanson-Heine,  S. Hammes-Schiffer,  P. H. P. Harbach,  
 A. W. Hauser,  M. F. Herbst,  J. E. Herr,  E. G. Hohenstein,  Z. C. Holden,  
 S. Houck,  Kerwin Hui,  B. C. Huynh,  M. Ivanov,  T.-C. Jagau,  Hyunjun Ji,  
 B. Kaduk,  K. Khistyaev,  Jaehoon Kim,  P. Klunzinger,  K. Koh,  
 D. Kosenkov,  L. Koulias,  T. Kowalczyk,  C. M. Krauter,  A. Kunitsa,  
 Ka Un Lao,  A. Laurent,  K. V. Lawler,  Joonho Lee,  D. Lefrancois,  
 S. Lehtola,  D. S. Levine,  Yi-Pei Li,  You-Sheng Lin,  Fenglai Liu,  
 Kuan-Yu Liu,  E. Livshits,  M. Loipersberger,  A. Luenser,  A. Manjanath,  
 P. Manohar,  E. Mansoor,  S. F. Manzer,  Shan-Ping Mao,  Yuezhi Mao,  
 N. Mardirossian,  A. V. Marenich,  T. Markovich,  L. A. Martinez-Martinez,  
 S. A. Maurer,  N. J. Mayhall,  S. C. McKenzie,  J.-M. Mewes,  P. Morgante,  
 A. F. Morrison,  J. W. Mullinax,  K. Nanda,  T. S. Nguyen-Beck,  
 R. Olivares-Amaya,  K. J. Oosterbaan,  J. A. Parkhill,  S. K. Paul,  
 F. Pavosevic,  Zheng Pei,  T. M. Perrine,  F. Plasser,  P. Pokhilko,  
 S. Prager,  A. Prociuk,  E. Ramos,  B. Rana,  D. R. Rehn,  F. Rob,  
 E. Rossomme,  M. Scheurer,  M. Schneider,  N. Sergueev,  S. M. Sharada,  
 S. Sharma,  W. Skomorowski,  D. W. Small,  T. Stauch,  C. J. Stein,  
 T. Stein,  Yu-Chuan Su,  S. P. Veccham,  Zhen Tao,  A. J. W. Thom,  
 A. Tkatchenko,  T. Tsuchimochi,  N. M. Tubman,  L. Vogt,  M. L. Vidal,  
 O. Vydrov,  M. A. Watson,  J. Wenzel,  M. de Wergifosse,  T. A. Wesolowski,  
 A. White,  J. Witte,  A. Yamada,  Jun Yang,  K. Yao,  S. Yeganeh,  
 S. R. Yost,  Zhi-Qiang You,  A. Zech,  Igor Ying Zhang,  Xing Zhang,  
 Yan Zhao,  Ying Zhu,  B. R. Brooks,  G. K. L. Chan,  C. J. Cramer,  
 M. S. Gordon,  W. J. Hehre,  A. Klamt,  M. W. Schmidt,  C. D. Sherrill,  
 D. G. Truhlar,  A. Aspuru-Guzik,  R. Baer,  A. T. Bell,  N. A. Besley,  
 Jeng-Da Chai,  A. E. DePrince, III,  R. A. DiStasio Jr.,  A. Dreuw,  
 B. D. Dunietz,  T. R. Furlani,  Chao-Ping Hsu,  Yousung Jung,  Jing Kong,  
 D. S. Lambrecht,  WanZhen Liang,  C. Ochsenfeld,  V. A. Rassolov,  
 L. V. Slipchenko,  J. E. Subotnik,  T. Van Voorhis,  J. M. Herbert,  
 A. I. Krylov,  P. M. W. Gill,  M. Head-Gordon

 Contributors to earlier versions of Q-Chem not listed above: 
 R. D. Adamson,  B. Austin,  J. Baker,  G. J. O. Beran,  K. Brandhorst,  
 S. T. Brown,  E. F. C. Byrd,  A. K. Chakraborty,  C.-L. Cheng,  
 Siu Hung Chien,  D. M. Chipman,  D. L. Crittenden,  H. Dachsel,  
 R. J. Doerksen,  A. D. Dutoi,  L. Fusti-Molnar,  W. A. Goddard III,  
 A. Golubeva-Zadorozhnaya,  S. R. Gwaltney,  G. Hawkins,  A. Heyden,  
 S. Hirata,  G. Kedziora,  F. J. Keil,  C. Kelley,  Jihan Kim,  R. A. King,  
 R. Z. Khaliullin,  P. P. Korambath,  W. Kurlancheek,  A. M. Lee,  M. S. Lee,  
 S. V. Levchenko,  Ching Yeh Lin,  D. Liotard,  R. C. Lochan,  I. Lotan,  
 P. E. Maslen,  N. Nair,  D. P. O'Neill,  D. Neuhauser,  E. Neuscamman,  
 C. M. Oana,  R. Olson,  B. Peters,  R. Peverati,  P. A. Pieniazek,  
 Y. M. Rhee,  J. Ritchie,  M. A. Rohrdanz,  E. Rosta,  N. J. Russ,  
 H. F. Schaefer III,  N. E. Schultz,  N. Shenvi,  A. C. Simmonett,  A. Sodt,  
 D. Stuck,  K. S. Thanthiriwatte,  V. Vanovschi,  Tao Wang,  A. Warshel,  
 C. F. Williams,  Q. Wu,  X. Xu,  W. Zhang

 Please cite Q-Chem as follows:
 Y. Shao et al., Mol. Phys. 113, 184-215 (2015)
 DOI: 10.1080/00268976.2014.952696

 Q-Chem 5.3.2 for Intel X86 EM64T Linux

 Parts of Q-Chem use Armadillo 9.800.1 (Horizon Scraper).
 http://arma.sourceforge.net/

 Q-Chem begins on Thu Sep 15 16:29:07 2022  

Host: 
0

     Scratch files written to /scratch/user/peterli3819/peterli3819/12613581_1663277313000000230419624/qchem13448//
 Dec820 |scratch|qcdevops|jenkins|workspace|build_RNUM 7711   
Processing $rem in /sw/restricted/qchem/sw/5.3.2/config/preferences:
Processing $rem in /home/peterli3819/.qchemrc:

 Q-Chem warning in module libgen/rem_setup.C, line 2945:

 Neither GIA nor STOLL is specified by user. Use STOLL as the default


Checking the input file for inconsistencies... 	...done.

--------------------------------------------------------------
User input:
--------------------------------------------------------------
$molecule
0 1
--
0 1
O       -5.169425    0.917503    0.419634
C       -4.026088    0.621256    1.195458
C       -3.006245   -0.271261    0.456970
C       -1.808113   -0.495875    1.394104
O       -0.849836   -1.395128    0.888407
C       -3.635758   -1.651860    0.142606
O       -4.863654   -1.590450   -0.552093
C       -2.579803    0.373100   -0.883958
O       -3.627354    0.598597   -1.735042
Cl       -1.651624    1.946869   -0.582053
H       -5.584891    0.060378    0.202684
H       -4.317687    0.124954    2.142591
H       -3.563253    1.587097    1.452471
H       -2.175818   -0.932207    2.337885
H       -1.349840    0.481527    1.636682
H       -0.432611   -1.020413    0.072106
H       -3.851710   -2.160376    1.096814
H       -2.903428   -2.277347   -0.399706
H       -4.683962   -1.223949   -1.433916
H       -1.843267   -0.245687   -1.414368
H       -4.336349    1.038897   -1.211432
--
0 1
O        0.587331   -0.320181   -1.055645
C        1.839492   -0.935575   -1.280693
C        2.928364   -0.673075   -0.216249
C        2.583037   -1.263650    1.167516
O        1.548291   -0.587272    1.847393
C        4.213356   -1.369065   -0.723606
O        4.795394   -0.730189   -1.827101
C        3.131968    0.853617   -0.134953
O        2.046359    1.519014    0.357869
Cl        4.655790    1.246970    0.842338
H        0.706382    0.628546   -0.856246
H        2.237214   -0.632983   -2.267067
H        1.637774   -2.019108   -1.322073
H        3.478162   -1.193997    1.807735
H        2.340465   -2.337818    1.051794
H        0.678833   -1.008127    1.655282
H        3.958640   -2.393435   -1.046823
H        4.931778   -1.459529    0.111204
H        5.341864   -0.000086   -1.501463
H        3.364029    1.264138   -1.126666
H        1.718734    1.003416    1.137126
$end

$rem
JOBTYPE           eda
EDA2              2
METHOD            wB97X-D
BASIS             def2-SV(P)
SCF_CONVERGENCE   8
THRESH            14
SYMMETRY          false
DISP_FREE_X       wB97X-D
DISP_FREE_C       none
EDA_BSSE          true
$end
--------------------------------------------------------------
 ----------------------------------------------------------------
             Standard Nuclear Orientation (Angstroms)
    I     Atom           X                Y                Z
 ----------------------------------------------------------------
    1      O      -5.1694249711    -0.9175031030    -0.4196336179
    2      C      -4.0260879665    -0.6212564112    -1.1954577290
    3      C      -3.0062449331     0.2712608144    -0.4569700479
    4      C      -1.8081129319     0.4958744480    -1.3941041342
    5      O      -0.8498358998     1.3951275941    -0.8884074551
    6      C      -3.6357578867     1.6518599447    -0.1426065270
    7      O      -4.8636538842     1.5904502273     0.5520925023
    8      C      -2.5798029452    -0.3730997299     0.8839581749
    9      O      -3.6273539470    -0.5985963984     1.7350422605
   10      Cl     -1.6516239977    -1.9468688654     0.5820537198
   11      H      -5.5848909421    -0.0603780137    -0.2026839153
   12      H      -4.3176869566    -0.1249547334    -2.1425909008
   13      H      -3.5632529992    -1.5870975161    -1.4524703939
   14      H      -2.1758179239     0.9322061295    -2.3378852845
   15      H      -1.3498399649    -0.4815276517    -1.6366817950
   16      H      -0.4326109066     1.0204128664    -0.0721063266
   17      H      -3.8517098765     2.1603756177    -1.0968147036
   18      H      -2.9034278631     2.2773471110     0.3997052493
   19      H      -4.6839618904     1.2239495302     1.4339156294
   20      H      -1.8432669219     0.2456874320     1.4143679536
   21      H      -4.3363489645    -1.0388965589     1.2114324192
   22      O       0.5873310782     0.3201812284     1.0556449119
   23      C       1.8394920994     0.9355752669     1.2806926885
   24      C       2.9283640841     0.6730748594     0.2162487734
   25      C       2.5830370942     1.2636493861    -1.1675164311
   26      O       1.5482910681     0.5872711814    -1.8473931877
   27      C       4.2133561097     1.3690649956     0.7236055216
   28      O       4.7953940963     0.7301893632     1.8271007415
   29      C       3.1319680345    -0.8536171756     0.1349533065
   30      O       2.0463590100    -1.5190143132    -0.3578684537
   31      Cl      4.6557900156    -1.2469705666    -0.8423375657
   32      H       0.7063820464    -0.6285458452     0.8562462432
   33      H       2.2372140960     0.6329835993     2.2670667919
   34      H       1.6377741345     2.0191082879     1.3220723106
   35      H       3.4781620879     1.1939961333    -1.8077354124
   36      H       2.3404651295     2.3378174344    -1.0517948055
   37      H       0.6788330829     1.0081262766    -1.6552823294
   38      H       3.9586401447     2.3934351169     1.0468221647
   39      H       4.9317781073     1.4595286804    -0.1112045147
   40      H       5.3418640707     0.0000862316     1.5014629935
   41      H       3.3640290277    -1.2641378360     1.1266664486
   42      H       1.7187340216    -1.0034165754    -1.1371256321
 ----------------------------------------------------------------
 Molecular Point Group                 C1    NOp =  1
 Largest Abelian Subgroup              C1    NOp =  1
 Nuclear Repulsion Energy =        2188.00411709 hartrees
 There are       90 alpha and       90 beta electrons
 Requested basis set is def2-SV(P)
 There are 168 shells and 332 basis functions

 Total QAlloc Memory Limit  56000 MB
 Mega-Array Size       188 MB
 MEM_STATIC part       192 MB
 A cutoff of  1.0D-14 yielded  10978 shell pairs
 There are     40706 function pairs (     45225 Cartesian)
 Smallest overlap matrix eigenvalue = 1.32E-03

 Scale SEOQF with 1.000000e-02/1.000000e-01/1.000000e-01

 Standard Electronic Orientation quadrupole field applied
 Nucleus-field energy     =     0.0000000034 hartrees

 -----------------------------------------------------------------------
  General SCF calculation program by
  Eric Jon Sundstrom, Paul Horn, Yuezhi Mao, Dmitri Zuev, Alec White,
  David Stuck, Shaama M.S., Shane Yost, Joonho Lee, David Small,
  Daniel Levine, Susi Lehtola, Hugh Burton, Evgeny Epifanovsky,
  Bang C. Huynh
 -----------------------------------------------------------------------
================================================================
                 ALMO-EDA with the EDA2 driver                  
================================================================
 The second-generation ALMO-EDA (for DFT):                      
 P. R. Horn, Y. Mao and M. Head-Gordon, PCCP, 18, 23067 (2016)  
 Decomposition of the frozen energy:                            
 P. R. Horn, Y. Mao and M. Head-Gordon, JCP, 144, 114107 (2016) 
Using eda2 option set 2
Option set summary: Frozen orbital wavefunction, initial wavefunction decomposition, and traditional AO-based POL.
--------------------------------
Printing EDA Options
--------------------------------
eda_child_super_basis      0
fragmo_guess_mode          0
child_mp                   0
child_mp_orders            0
cls_elec                   1
cls_disp                   0
scfmi_mode                 1
scfmi_occs                 0
scfmi_virts                0
frz_relax                  0
frz_relax_method           0
dc_pen_start               0
dc_pen_conv                0
dc_pen_increment           0
dc_pen_steps               0
dc_pen_thresh_factor       0
dc_pen_pre_newton_thresh   0
frz_ortho_decomp           1
frz_ortho_decomp_conv      6
plot_mo_ortho_frz          0
frgm_method                2
scfmi_freeze_ss            0
separate_rehyb             0
plot_diff_den              0
eda_nocv                   0
eda_vct_relax              1
disp_free_x                -110
disp_free_c                0
eda_bsse                   1
eda_pct_a                  0
eda_covp                   0
--------------------------------
Attempting to make child job directory: /scratch/user/peterli3819/peterli3819/12613581_1663277313000000230419624/qchem13448//Frg1/
Attempting to make child job directory: /scratch/user/peterli3819/peterli3819/12613581_1663277313000000230419624/qchem13448//Frg2/
Creating input file /scratch/user/peterli3819/peterli3819/12613581_1663277313000000230419624/qchem13448/Frg1.input
using default PutDataFrgm: nothing
calling putenv with: QCSCRATCH=/scratch/user/peterli3819/peterli3819/12613581_1663277313000000230419624/qchem13448/ 
Spawning Job For Fragment 0
Done Job For Fragment 0
calling putenv with: QCSCRATCH=/scratch/user/peterli3819/peterli3819/12613581_1663277313000000230419624 
calling putenv with: QCTHREADS=8 
Creating input file /scratch/user/peterli3819/peterli3819/12613581_1663277313000000230419624/qchem13448/Frg2.input
using default PutDataFrgm: nothing
calling putenv with: QCSCRATCH=/scratch/user/peterli3819/peterli3819/12613581_1663277313000000230419624/qchem13448/ 
Spawning Job For Fragment 1
Done Job For Fragment 1
calling putenv with: QCSCRATCH=/scratch/user/peterli3819/peterli3819/12613581_1663277313000000230419624 
calling putenv with: QCTHREADS=8 
Doing General SCFMI
 Exchange:     0.2220 Hartree-Fock + 1.0000 wB97X-D + LR-HF
 Correlation:  1.0000 wB97X-D
 Using SG-2 standard quadrature grid
 Dispersion:   Grimme D
performing fock build before subrot guess so that all methods have access
Printing subrot_rss_gen Method Specification:
Occupied Subspace Method is 0
Virtual Subspace Method is 0
Energy of the unrelaxed supersystem initial determinant -1915.018309507970
write pseudocanon occs and virts to disk
write pseudocanon orbital energies to disk
Tolerance of ortho_decomp_scf: 1.00e-06
GDM subspace size: 20
Beginning the Orthogonal Decomposition of the Initial Supersystem Wavefunction
    1   -1914.8898475082      4.77e-02     ortho_decomp Preconditoned Steepest Descent
    2   -1914.9041254658      7.68e-04     ortho_decomp BFGS Step
    3   -1914.9041466914      5.82e-05     ortho_decomp BFGS Step
    4   -1914.9041467574      2.36e-06     ortho_decomp BFGS Step
    5   -1914.9041467575      7.75e-08     ortho_decomp 00000 Convergence criterion met
 Exchange:     0.2220 Hartree-Fock + 1.0000 wB97X-D + LR-HF
 Correlation:  1.0000 wB97X-D
 Using SG-2 standard quadrature grid
 Dispersion:   Grimme D
 Long-range K will be added via erf
 Coulomb attenuation parameter = 0.2 bohr**(-1)
 Exchange:     0.2220 Hartree-Fock + 1.0000 wB97X-D + LR-HF
 Correlation:  1.0000 wB97X-D
 Using SG-2 standard quadrature grid
 Dispersion:   Grimme D
 Long-range K will be added via erf
 Coulomb attenuation parameter = 0.2 bohr**(-1)
 Exchange:     0.2220 Hartree-Fock + 1.0000 wB97X-D + LR-HF
 Correlation:  1.0000 wB97X-D
 Using SG-2 standard quadrature grid
 Dispersion:   Grimme D
 Long-range K will be added via erf
 Coulomb attenuation parameter = 0.2 bohr**(-1)
Doing General SCFMI
 Exchange:     0.2220 Hartree-Fock + 1.0000 wB97X-D + LR-HF
 Correlation:  1.0000 wB97X-D
 Using SG-2 standard quadrature grid
 Dispersion:   Grimme D
performing fock build at end of subrot_r(subrot) constructor so that all methods have access
<S^2> of initial wavefunction before polarization iterations 0.0000000000
Beginning iterations for the determination of the polarized wavefunction
Energy prior to optimization (guess energy) = -1915.018309507972
Begin Timing: Total SCF Calculation
begin iterations for algorithm: DIIS         
the SCF tolerance is set to 1.00e-08
    1   -1915.0183095080      3.88e-04     00000 
    2   -1915.0252500579      1.01e-04     00000 
    3   -1915.0258275236      5.03e-05     00000 
    4   -1915.0259273619      2.33e-05     00000 
    5   -1915.0259492698      7.97e-06     00000 
    6   -1915.0259525563      2.97e-06     00000 
    7   -1915.0259528024      8.46e-07     00000 
    8   -1915.0259528256      2.51e-07     00000 
    9   -1915.0259528277      8.99e-08     00000 
   10   -1915.0259528281      2.72e-08     00000 
   11   -1915.0259528281      9.47e-09     00000 Convergence criterion met
write pseudocanon occs and virts to disk
write pseudocanon orbital energies to disk
Timing for Total SCF: 64.00s (wall), 493.21s (cpu)
<S^2> of polarized wavefunction after polarization iterations 0.0000000000
relaxing scfmi constraint to allow all rotations in the entire AO span
Doing General SCFMI
 Exchange:     0.2220 Hartree-Fock + 1.0000 wB97X-D + LR-HF
 Correlation:  1.0000 wB97X-D
 Using SG-2 standard quadrature grid
 Dispersion:   Grimme D
performing fock build at end of subrot_r(subrot) constructor so that all methods have access
<S^2> of polarized wavefunction before ct-allowed iterations 0.0000000000
Beginning iterations for the determination of the CT-Allowed wavefunction
Energy prior to optimization (guess energy) = -1915.025952828111
Begin Timing: Total SCF Calculation
begin iterations for algorithm: DIIS         
the SCF tolerance is set to 1.00e-08
    1   -1915.0259528281      5.68e-04     00000 
    2   -1915.0517741361      1.11e-04     00000 
    3   -1915.0530949866      6.34e-05     00000 
    4   -1915.0532775277      2.41e-05     00000 
    5   -1915.0533114865      4.37e-06     00000 
    6   -1915.0533128009      1.35e-06     00000 
    7   -1915.0533129313      4.48e-07     00000 
    8   -1915.0533129440      1.17e-07     00000 
    9   -1915.0533129448      4.05e-08     00000 
   10   -1915.0533129449      1.11e-08     00000 
   11   -1915.0533129449      3.31e-09     00000 Convergence criterion met
write pseudocanon occs and virts to disk
write pseudocanon orbital energies to disk
Timing for Total SCF: 64.00s (wall), 497.09s (cpu)
<S^2> of ct_allowed wavefunction after ct-allowed iterations 0.0000000000
Attempting to make child job directory: /scratch/user/peterli3819/peterli3819/12613581_1663277313000000230419624/qchem13448//FrgBSSE1/
Attempting to make child job directory: /scratch/user/peterli3819/peterli3819/12613581_1663277313000000230419624/qchem13448//FrgBSSE2/
Creating input file /scratch/user/peterli3819/peterli3819/12613581_1663277313000000230419624/qchem13448/FrgBSSE1.input
calling putenv with: QCSCRATCH=/scratch/user/peterli3819/peterli3819/12613581_1663277313000000230419624/qchem13448/ 
Spawning Job For Fragment 0
Done Job For Fragment 0
calling putenv with: QCSCRATCH=/scratch/user/peterli3819/peterli3819/12613581_1663277313000000230419624 
calling putenv with: QCTHREADS=8 
Creating input file /scratch/user/peterli3819/peterli3819/12613581_1663277313000000230419624/qchem13448/FrgBSSE2.input
calling putenv with: QCSCRATCH=/scratch/user/peterli3819/peterli3819/12613581_1663277313000000230419624/qchem13448/ 
Spawning Job For Fragment 1
Done Job For Fragment 1
calling putenv with: QCSCRATCH=/scratch/user/peterli3819/peterli3819/12613581_1663277313000000230419624 
calling putenv with: QCTHREADS=8 
====================================================================
   Evaluating the BSSE with fragment SCF in the supersystem basis
   Fragment contributions (kJ/mol) 
   Frgm 1: 15.2792
   Frgm 2: 14.5299
   BSSE (kJ/mol) = 29.8091
====================================================================

================================
        Results of EDA2         
================================
Basic EDA Quantities
--------------------
Fragment Energies (Ha):
1 -957.5096835918
2 -957.5061908921
--------------------
  E_prp (kJ/mol) = -0.0000
  E_frz (kJ/mol) = -6.3932
  E_pol (kJ/mol) = -20.0678
  E_vct (kJ/mol) = -42.0257 (CP-corrected)
  E_int (kJ/mol) = -68.4867 (CP-corrected)
--------------------


Decomposition of frozen interaction energy
--------------------
  --------------------
  Orthogonal Frozen Decomposition:
  --------------------
     E_elec   (ELEC)   (kJ/mol) = -215.1856
     E_pauli  (PAULI)  (kJ/mol) = 227.9162
     E_disp   (DISP)   (kJ/mol) = -19.1239
  --------------------
  Classical Frozen Decomposition:
  --------------------
     E_cls_elec  (CLS ELEC)  (kJ/mol) = -114.6821
     E_mod_pauli (MOD PAULI) (kJ/mol) = 127.4128 (FRZ - CLS ELEC - DISP)
     E_disp      (DISP)      (kJ/mol) = -19.1239
  --------------------
--------------------

Simplified EDA Summary (kJ/mol)
--------------------
 PREPARATION      -0.0000
 FROZEN           -6.3932 (ELEC + PAULI + DISP)
[ELEC + PAULI = 12.7306, DISP = -19.1239]
 POLARIZATION    -20.0678
 CHARGE TRANSFER -42.0257     (counterpoise-corrected)
 TOTAL           -68.4867     (PRP + FRZ + POL + CT)
--------------------
 
 --------------------------------------------------------------
 
                    Orbital Energies (a.u.)
 --------------------------------------------------------------
 
 Alpha MOs
 -- Occupied --
********-101.6580 -19.2902 -19.2866 -19.2828 -19.2779 -19.2750 -19.2748
-19.2701 -19.2681 -10.4182 -10.4173 -10.3661 -10.3633 -10.3618 -10.3613
-10.3612 -10.3597 -10.3365 -10.3345  -9.5746  -9.5727  -7.3283  -7.3264
 -7.3199  -7.3195  -7.3180  -7.3175  -1.1747  -1.1732  -1.1489  -1.1412
 -1.1368  -1.1339  -1.1285  -1.1231  -0.9499  -0.9482  -0.9078  -0.9048
 -0.7977  -0.7936  -0.7808  -0.7773  -0.7717  -0.7715  -0.7050  -0.7016
 -0.6538  -0.6493  -0.6449  -0.6369  -0.6318  -0.6153  -0.5945  -0.5853
 -0.5784  -0.5737  -0.5700  -0.5632  -0.5496  -0.5489  -0.5386  -0.5336
 -0.5222  -0.5207  -0.5137  -0.5118  -0.5077  -0.5022  -0.4826  -0.4765
 -0.4628  -0.4579  -0.4532  -0.4419  -0.4320  -0.4277  -0.4081  -0.4069
 -0.3978  -0.3955  -0.3888  -0.3849  -0.3792  -0.3770  -0.3698  -0.3680
 -0.3644  -0.3632
 -- Virtual --
  0.0979   0.1002   0.1201   0.1276   0.1306   0.1335   0.1397   0.1602
  0.1655   0.1702   0.1735   0.1783   0.1885   0.1941   0.1970   0.2081
  0.2120   0.2138   0.2187   0.2283   0.2347   0.2379   0.2433   0.2489
  0.2563   0.2659   0.2821   0.2899   0.2970   0.2993   0.3019   0.3097
  0.3202   0.3251   0.3356   0.3376   0.3435   0.3556   0.3767   0.3840
  0.4789   0.4845   0.4953   0.5051   0.5203   0.5227   0.5492   0.5545
  0.5635   0.5702   0.5776   0.5950   0.5999   0.6068   0.6133   0.6248
  0.6293   0.6376   0.6452   0.6542   0.6558   0.6650   0.6736   0.6751
  0.6787   0.6841   0.6983   0.7040   0.7068   0.7117   0.7181   0.7311
  0.7381   0.7396   0.7519   0.7527   0.7544   0.7604   0.7673   0.7711
  0.7751   0.7857   0.7883   0.7911   0.7936   0.8016   0.8139   0.8172
  0.8190   0.8258   0.8300   0.8386   0.8511   0.8580   0.8602   0.8681
  0.8749   0.8907   0.8962   0.9108   0.9131   0.9213   0.9422   0.9669
  0.9911   1.0014   1.0186   1.0342   1.0444   1.0578   1.0756   1.0836
  1.1003   1.1087   1.1358   1.1399   1.1545   1.1579   1.1685   1.1756
  1.1946   1.2042   1.2169   1.2205   1.2260   1.2307   1.2555   1.2650
  1.2703   1.2817   1.2902   1.3025   1.3284   1.3415   1.3652   1.3731
  1.3844   1.4142   1.4278   1.4449   1.4647   1.4733   1.4892   1.4986
  1.5134   1.5378   1.5622   1.5776   1.6071   1.6368   1.6535   1.6665
  1.6846   1.7110   1.7373   1.7436   1.7664   1.7728   1.7936   1.8043
  1.8157   1.8346   1.8595   1.8814   1.8887   1.8899   1.8934   1.8989
  1.9888   2.0079   2.0166   2.0312   2.0477   2.0550   2.0633   2.0649
  2.0705   2.1252   2.1317   2.1506   2.1526   2.1667   2.1722   2.1775
  2.1989   2.2072   2.2147   2.2251   2.2441   2.2487   2.2743   2.2846
  2.4824   2.4850   2.4991   2.5061   2.5979   2.6005   2.6470   2.6515
  2.6616   2.6892   2.6917   2.7064   2.7124   2.7222   2.7240   2.7360
  2.7419   2.7556   2.8707   2.8725   2.8902   2.8926   2.9082   2.9140
  2.9432   2.9575   2.9989   2.9998   3.0128   3.0312   3.0426   3.0593
  3.0614   3.0762   3.0838   3.0851   3.0928   3.0989   3.1146   3.1222
  3.1489   3.1587   3.4371   3.4428   3.4555   3.4588   3.4740   3.4938
  3.5234   3.5282
 --------------------------------------------------------------
 
          Ground-State Mulliken Net Atomic Charges

     Atom                 Charge (a.u.)
  ----------------------------------------
      1 O                    -0.513012
      2 C                     0.071069
      3 C                    -0.375550
      4 C                     0.062403
      5 O                    -0.545730
      6 C                     0.077751
      7 O                    -0.509316
      8 C                     0.106850
      9 O                    -0.448644
     10 Cl                   -0.162861
     11 H                     0.336686
     12 H                     0.111064
     13 H                     0.130785
     14 H                     0.112133
     15 H                     0.120312
     16 H                     0.357205
     17 H                     0.116990
     18 H                     0.121387
     19 H                     0.333076
     20 H                     0.152657
     21 H                     0.340011
     22 O                    -0.535521
     23 C                     0.070306
     24 C                    -0.348152
     25 C                     0.062559
     26 O                    -0.540508
     27 C                     0.055272
     28 O                    -0.483276
     29 C                     0.101760
     30 O                    -0.446729
     31 Cl                   -0.175858
     32 H                     0.350594
     33 H                     0.134631
     34 H                     0.116697
     35 H                     0.124835
     36 H                     0.114420
     37 H                     0.351038
     38 H                     0.110568
     39 H                     0.119666
     40 H                     0.327540
     41 H                     0.143452
     42 H                     0.351439
  ----------------------------------------
  Sum of atomic charges =     0.000000

 -----------------------------------------------------------------
                    Cartesian Multipole Moments
 -----------------------------------------------------------------
    Charge (ESU x 10^10)
                 0.0000
    Dipole Moment (Debye)
         X       0.0047      Y       3.0492      Z      -0.5055
       Tot       3.0908
    Quadrupole Moments (Debye-Ang)
        XX    -138.8628     XY       1.1679     YY    -140.3144
        XZ       4.4518     YZ      -1.3909     ZZ    -138.5303
    Octopole Moments (Debye-Ang^2)
       XXX      27.0715    XXY      17.1136    XYY      18.1559
       YYY       5.9644    XXZ      -5.1023    XYZ     -17.9639
       YYZ       4.1780    XZZ     -32.8082    YZZ      -2.8676
       ZZZ      -6.7798
    Hexadecapole Moments (Debye-Ang^3)
      XXXX   -9042.3820   XXXY     -48.5708   XXYY   -1814.6170
      XYYY      41.7782   YYYY   -1274.9170   XXXZ     -99.5145
      XXYZ    -112.8787   XYYZ       1.0695   YYYZ       2.8722
      XXZZ   -1684.7683   XYZZ     -61.2197   YYZZ    -371.0252
      XZZZ     -22.7490   YZZZ       0.3352   ZZZZ   -1066.2397
 -----------------------------------------------------------------
Archival summary:
1\1\tnxt-0470.cluster\SP\ProcedureUnspecified\BasisUnspecified\l281022\peterli3\ThuSep1516:36:052022ThuSep1516:36:052022\0\\#,ProcedureUnspecified,BasisUnspecified,\\0,1\Cl\C,1,1.85187\H,2,1.09851,1,102.789\O,2,1.36841,1,110.184,3,-114.679,0\H,4,0.985244,2,107.097,1,-76.6473,0\C,2,1.54762,1,110.529,3,119.248,0\C,6,1.53759,2,111.974,1,-55.091,0\H,7,1.10287,6,108.636,2,178.635,0\H,7,1.10642,6,109.107,2,61.7723,0\O,7,1.40808,6,113.873,2,-63.057,0\H,10,0.990371,7,109.943,6,64.6972,0\C,6,1.54338,2,110.848,1,65.4908,0\H,12,1.10142,6,109.943,2,-62.9068,0\H,12,1.10834,6,108.892,2,179.333,0\O,12,1.41311,6,113.152,2,56.0432,0\H,15,0.976905,12,106.385,6,59.815,0\C,6,1.54957,2,107.886,1,-173.877,0\H,17,1.1026,6,108.355,2,174.507,0\H,17,1.10528,6,109.546,2,58.0315,0\O,17,1.41213,6,114.476,2,-67.4616,0\H,20,0.971712,17,107.581,6,66.0501,0\O,11,1.67405,10,165.977,7,104.888,0\H,22,0.976737,11,110.061,10,-68.8263,0\C,22,1.41325,11,117.707,10,58.7354,0\H,24,1.10293,22,105.767,11,42.971,0\H,24,1.10575,22,109.973,11,158.793,0\C,24,1.54518,22,116.148,11,-77.7536,0\C,27,1.54235,24,107.307,22,-58.0464,0\H,28,1.09812,27,110.508,24,-54.9202,0\O,28,1.36535,27,113.357,24,66.6914,0\H,30,0.990162,28,107.061,27,43.7536,0\C,27,1.54364,24,113.259,22,65.0112,0\H,32,1.10272,27,108.342,24,169.865,0\H,32,1.10728,27,109.054,24,53.2077,0\O,32,1.41082,27,114.371,24,-71.4396,0\H,35,0.984877,32,110.403,27,92.8375,0\C,27,1.54694,24,106.439,22,-176.563,0\H,37,1.10394,27,108.775,24,-47.5417,0\H,37,1.10509,27,109.214,24,-164.2,0\O,37,1.40165,27,113.458,24,71.1043,0\H,40,0.968359,37,108.255,27,83.0487,0\Cl,28,1.85253,27,110.278,24,-168.016,0\\\@

 Total job time:  418.08s(wall), 2030.36s(cpu) 
 Thu Sep 15 16:36:05 2022

        *************************************************************
        *                                                           *
        *  Thank you very much for using Q-Chem.  Have a nice day.  *
        *                                                           *
        *************************************************************


remove work dirs /scratch/user/peterli3819/peterli3819/12613581_1663277313000000230419624/qchem13448.0 -- /scratch/user/peterli3819/peterli3819/12613581_1663277313000000230419624/qchem13448.-1
rm -rf /scratch/user/peterli3819/peterli3819/12613581_1663277313000000230419624/qchem13448
real 428.70
user 3069.87
sys 70.72
