 Entering Gaussian System, Link 0=g16
 Input=gaussian_test.inp
 Output=gaussian_test.log
 Initial command:
 /sw/restricted/lms/sw/Gaussian/g16_B01/g16/l1.exe "/scratch/user/peterchao1/peterchao1/8493849_1687818339000000165196862/Gau-118670.inp" -scrdir="/scratch/user/peterchao1/peterchao1/8493849_1687818339000000165196862/"
 Entering Link 1 = /sw/restricted/lms/sw/Gaussian/g16_B01/g16/l1.exe PID=    118671.
  
 Copyright (c) 1988-2017, Gaussian, Inc.  All Rights Reserved.
  
 This is part of the Gaussian(R) 16 program.  It is based on
 the Gaussian(R) 09 system (copyright 2009, Gaussian, Inc.),
 the Gaussian(R) 03 system (copyright 2003, Gaussian, Inc.),
 the Gaussian(R) 98 system (copyright 1998, Gaussian, Inc.),
 the Gaussian(R) 94 system (copyright 1995, Gaussian, Inc.),
 the Gaussian 92(TM) system (copyright 1992, Gaussian, Inc.),
 the Gaussian 90(TM) system (copyright 1990, Gaussian, Inc.),
 the Gaussian 88(TM) system (copyright 1988, Gaussian, Inc.),
 the Gaussian 86(TM) system (copyright 1986, Carnegie Mellon
 University), and the Gaussian 82(TM) system (copyright 1983,
 Carnegie Mellon University). Gaussian is a federally registered
 trademark of Gaussian, Inc.
  
 This software contains proprietary and confidential information,
 including trade secrets, belonging to Gaussian, Inc.
  
 This software is provided under written license and may be
 used, copied, transmitted, or stored only in accord with that
 written license.
  
 The following legend is applicable only to US Government
 contracts under FAR:
  
                    RESTRICTED RIGHTS LEGEND
  
 Use, reproduction and disclosure by the US Government is
 subject to restrictions as set forth in subparagraphs (a)
 and (c) of the Commercial Computer Software - Restricted
 Rights clause in FAR 52.227-19.
  
 Gaussian, Inc.
 340 Quinnipiac St., Bldg. 40, Wallingford CT 06492
  
  
 ---------------------------------------------------------------
 Warning -- This program may not be used in any manner that
 competes with the business of Gaussian, Inc. or will provide
 assistance to any competitor of Gaussian, Inc.  The licensee
 of this program is prohibited from giving any competitor of
 Gaussian, Inc. access to this program.  By using this program,
 the user acknowledges that Gaussian, Inc. is engaged in the
 business of creating and licensing software in the field of
 computational chemistry and represents and warrants to the
 licensee that it is not a competitor of Gaussian, Inc. and that
 it will not use this program in any manner prohibited above.
 ---------------------------------------------------------------
  

 Cite this work as:
 Gaussian 16, Revision B.01,
 M. J. Frisch, G. W. Trucks, H. B. Schlegel, G. E. Scuseria, 
 M. A. Robb, J. R. Cheeseman, G. Scalmani, V. Barone, 
 G. A. Petersson, H. Nakatsuji, X. Li, M. Caricato, A. V. Marenich, 
 J. Bloino, B. G. Janesko, R. Gomperts, B. Mennucci, H. P. Hratchian, 
 J. V. Ortiz, A. F. Izmaylov, J. L. Sonnenberg, D. Williams-Young, 
 F. Ding, F. Lipparini, F. Egidi, J. Goings, B. Peng, A. Petrone, 
 T. Henderson, D. Ranasinghe, V. G. Zakrzewski, J. Gao, N. Rega, 
 G. Zheng, W. Liang, M. Hada, M. Ehara, K. Toyota, R. Fukuda, 
 J. Hasegawa, M. Ishida, T. Nakajima, Y. Honda, O. Kitao, H. Nakai, 
 T. Vreven, K. Throssell, J. A. Montgomery, Jr., J. E. Peralta, 
 F. Ogliaro, M. J. Bearpark, J. J. Heyd, E. N. Brothers, K. N. Kudin, 
 V. N. Staroverov, T. A. Keith, R. Kobayashi, J. Normand, 
 K. Raghavachari, A. P. Rendell, J. C. Burant, S. S. Iyengar, 
 J. Tomasi, M. Cossi, J. M. Millam, M. Klene, C. Adamo, R. Cammi, 
 J. W. Ochterski, R. L. Martin, K. Morokuma, O. Farkas, 
 J. B. Foresman, and D. J. Fox, Gaussian, Inc., Wallingford CT, 2016.
 
 ******************************************
 Gaussian 16:  ES64L-G16RevB.01 20-Dec-2017
                26-Jun-2023 
 ******************************************
 %chk=45.chk
 %nprocshared=4
 Will use up to    4 processors via shared memory.
 %mem=8000mb
 ----------------------------------------------------------------------
 #T wB97XD/def2svpp opt=tight freq int(grid=ultrafine) scf=(verytight,q
 c)
 ----------------------------------------------------------------------
 --------------
 Comment gs min
 --------------
 Symbolic Z-matrix:
 Charge =  0 Multiplicity = 1
 O                     2.73545   1.49383  -0.17034 
 C                     2.42195   0.11476   0.05582 
 C                     2.99798  -0.45384   1.35226 
 N                     2.48791   0.33424   2.49429 
 O                     3.17533   1.26479   2.94196 
 O                     1.32553   0.10477   2.87234 
 N                     2.57731  -1.86708   1.54228 
 O                     2.79009  -2.43078   2.62614 
 O                     2.03535  -2.437     0.5783 
 N                     4.47885  -0.49243   1.37103 
 O                     5.06722  -0.78082   2.42395 
 O                     5.07427  -0.30208   0.29638 
 H                     2.46073   1.72651  -1.07912 
 H                     2.77599  -0.44107  -0.82215 
 H                     1.32619   0.0485    0.0525 
 

 GradGradGradGradGradGradGradGradGradGradGradGradGradGradGradGradGradGrad
 Initialization pass.
                           ----------------------------
                           !    Initial Parameters    !
                           ! (Angstroms and Degrees)  !
 --------------------------                            --------------------------
 ! Name  Definition              Value          Derivative Info.                !
 --------------------------------------------------------------------------------
 ! R1    R(1,2)                  1.4322         estimate D2E/DX2                !
 ! R2    R(1,13)                 0.9775         estimate D2E/DX2                !
 ! R3    R(2,3)                  1.5284         estimate D2E/DX2                !
 ! R4    R(2,14)                 1.0978         estimate D2E/DX2                !
 ! R5    R(2,15)                 1.0978         estimate D2E/DX2                !
 ! R6    R(3,4)                  1.4783         estimate D2E/DX2                !
 ! R7    R(3,7)                  1.4867         estimate D2E/DX2                !
 ! R8    R(3,10)                 1.4815         estimate D2E/DX2                !
 ! R9    R(4,5)                  1.2405         estimate D2E/DX2                !
 ! R10   R(4,6)                  1.2437         estimate D2E/DX2                !
 ! R11   R(7,8)                  1.2401         estimate D2E/DX2                !
 ! R12   R(7,9)                  1.2441         estimate D2E/DX2                !
 ! R13   R(10,11)                1.2402         estimate D2E/DX2                !
 ! R14   R(10,12)                1.2432         estimate D2E/DX2                !
 ! A1    A(2,1,13)             108.3302         estimate D2E/DX2                !
 ! A2    A(1,2,3)              114.1844         estimate D2E/DX2                !
 ! A3    A(1,2,14)             106.8967         estimate D2E/DX2                !
 ! A4    A(1,2,15)             106.0295         estimate D2E/DX2                !
 ! A5    A(3,2,14)             111.6225         estimate D2E/DX2                !
 ! A6    A(3,2,15)             110.8741         estimate D2E/DX2                !
 ! A7    A(14,2,15)            106.7943         estimate D2E/DX2                !
 ! A8    A(2,3,4)              109.0821         estimate D2E/DX2                !
 ! A9    A(2,3,7)              110.8193         estimate D2E/DX2                !
 ! A10   A(2,3,10)             113.4017         estimate D2E/DX2                !
 ! A11   A(4,3,7)              108.082          estimate D2E/DX2                !
 ! A12   A(4,3,10)             110.4252         estimate D2E/DX2                !
 ! A13   A(7,3,10)             104.8598         estimate D2E/DX2                !
 ! A14   A(3,4,5)              119.1744         estimate D2E/DX2                !
 ! A15   A(3,4,6)              117.3192         estimate D2E/DX2                !
 ! A16   A(5,4,6)              123.1362         estimate D2E/DX2                !
 ! A17   A(3,7,8)              119.6872         estimate D2E/DX2                !
 ! A18   A(3,7,9)              117.3668         estimate D2E/DX2                !
 ! A19   A(8,7,9)              122.9388         estimate D2E/DX2                !
 ! A20   A(3,10,11)            119.4094         estimate D2E/DX2                !
 ! A21   A(3,10,12)            117.6318         estimate D2E/DX2                !
 ! A22   A(11,10,12)           122.8389         estimate D2E/DX2                !
 ! D1    D(13,1,2,3)           170.5819         estimate D2E/DX2                !
 ! D2    D(13,1,2,14)           46.6239         estimate D2E/DX2                !
 ! D3    D(13,1,2,15)          -67.0455         estimate D2E/DX2                !
 ! D4    D(1,2,3,4)             58.5565         estimate D2E/DX2                !
 ! D5    D(1,2,3,7)            177.4319         estimate D2E/DX2                !
 ! D6    D(1,2,3,10)           -64.9535         estimate D2E/DX2                !
 ! D7    D(14,2,3,4)           179.9384         estimate D2E/DX2                !
 ! D8    D(14,2,3,7)           -61.1862         estimate D2E/DX2                !
 ! D9    D(14,2,3,10)           56.4284         estimate D2E/DX2                !
 ! D10   D(15,2,3,4)           -61.1278         estimate D2E/DX2                !
 ! D11   D(15,2,3,7)            57.7476         estimate D2E/DX2                !
 ! D12   D(15,2,3,10)          175.3622         estimate D2E/DX2                !
 ! D13   D(2,3,4,5)            -95.3215         estimate D2E/DX2                !
 ! D14   D(2,3,4,6)             77.9141         estimate D2E/DX2                !
 ! D15   D(7,3,4,5)            144.1097         estimate D2E/DX2                !
 ! D16   D(7,3,4,6)            -42.6547         estimate D2E/DX2                !
 ! D17   D(10,3,4,5)            29.9385         estimate D2E/DX2                !
 ! D18   D(10,3,4,6)          -156.826          estimate D2E/DX2                !
 ! D19   D(2,3,7,8)           -169.7893         estimate D2E/DX2                !
 ! D20   D(2,3,7,9)             11.1583         estimate D2E/DX2                !
 ! D21   D(4,3,7,8)            -50.3118         estimate D2E/DX2                !
 ! D22   D(4,3,7,9)            130.6359         estimate D2E/DX2                !
 ! D23   D(10,3,7,8)            67.4921         estimate D2E/DX2                !
 ! D24   D(10,3,7,9)          -111.5602         estimate D2E/DX2                !
 ! D25   D(2,3,10,11)          171.3978         estimate D2E/DX2                !
 ! D26   D(2,3,10,12)          -12.4689         estimate D2E/DX2                !
 ! D27   D(4,3,10,11)           48.6266         estimate D2E/DX2                !
 ! D28   D(4,3,10,12)         -135.2401         estimate D2E/DX2                !
 ! D29   D(7,3,10,11)          -67.571          estimate D2E/DX2                !
 ! D30   D(7,3,10,12)          108.5623         estimate D2E/DX2                !
 --------------------------------------------------------------------------------
 Number of steps in this run=     76 maximum allowed number of steps=    100.
 GradGradGradGradGradGradGradGradGradGradGradGradGradGradGradGradGradGrad

                    Distance matrix (angstroms):
                    1          2          3          4          5
     1  O    0.000000
     2  C    1.432224   0.000000
     3  C    2.486092   1.528356   0.000000
     4  N    2.916535   2.449216   1.478335   0.000000
     5  O    3.151565   3.196866   2.347826   1.240515   0.000000
     6  O    3.629775   3.022420   2.328042   1.243666   2.184549
     7  N    3.775419   2.482215   1.486714   2.400026   3.482146
     8  O    4.819320   3.636186   2.360991   2.784606   3.728993
     9  O    4.062269   2.633235   2.336363   3.399353   4.537587
    10  N    3.059492   2.515809   1.481492   2.430831   2.693475
    11  O    4.164316   3.661633   2.353123   2.810898   2.834096
    12  O    2.985498   2.695631   2.334287   3.453255   3.613883
    13  H    0.977493   1.971631   3.309709   3.835155   4.110100
    14  H    2.042140   1.097781   2.185750   3.418021   4.151862
    15  H    2.030923   1.097767   2.176374   2.719114   3.639733
                    6          7          8          9         10
     6  O    0.000000
     7  N    2.687788   0.000000
     8  O    2.938463   1.240075   0.000000
     9  O    3.496721   1.244101   2.182503   0.000000
    10  N    3.543163   2.352625   2.860841   3.221873   0.000000
    11  O    3.871120   2.856038   2.819321   3.916834   1.240157
    12  O    4.566634   3.199422   3.895719   3.724567   1.243234
    13  H    4.419588   4.449631   5.578574   4.501423   3.872950
    14  H    4.006374   2.768304   3.981187   2.548243   2.777122
    15  H    2.820401   2.730237   3.861794   2.637628   3.459825
                   11         12         13         14         15
    11  O    0.000000
    12  O    2.180779   0.000000
    13  H    5.035076   3.582983   0.000000
    14  H    3.987773   2.559789   2.205408   0.000000
    15  H    4.506312   3.772332   2.320229   1.762558   0.000000
 Framework group  C1[X(C2H3N3O7)]
 Deg. of freedom    39
                         Standard orientation:                         
 ---------------------------------------------------------------------
 Center     Atomic      Atomic             Coordinates (Angstroms)
 Number     Number       Type             X           Y           Z
 ---------------------------------------------------------------------
      1          8           0       -2.340006    0.356005    0.986532
      2          6           0       -0.972473    0.134817    1.350116
      3          6           0       -0.022578   -0.001828    0.160620
      4          7           0       -0.094914    1.226233   -0.659202
      5          8           0       -0.851122    1.253416   -1.642202
      6          8           0        0.516938    2.226339   -0.244316
      7          7           0        1.381183   -0.166862    0.621637
      8          8           0        2.308722   -0.102182   -0.198896
      9          8           0        1.563479   -0.384601    1.832895
     10          7           0       -0.291641   -1.196585   -0.673033
     11          8           0        0.303462   -1.332481   -1.752558
     12          8           0       -1.059610   -2.059414   -0.213273
     13          1           0       -2.888461    0.279755    1.792060
     14          1           0       -0.952443   -0.758077    1.988444
     15          1           0       -0.686098    0.984235    1.983811
 ---------------------------------------------------------------------
 Rotational constants (GHZ):           1.0925369           0.9886339           0.9260052
   174 basis functions,   312 primitive gaussians,   186 cartesian basis functions
    46 alpha electrons       46 beta electrons
       nuclear repulsion energy       813.2059400751 Hartrees.
 NAtoms=   15 NActive=   15 NUniq=   15 SFac= 1.00D+00 NAtFMM=   60 NAOKFM=F Big=F
 Nuclear repulsion after empirical dispersion term =      813.1977990699 Hartrees.
   1 Symmetry operations used in ECPInt.
 ECPInt:  NShTT=    3081 NPrTT=   12411 LenC2=    3022 LenP2D=    9024.
 LDataN:  DoStor=T MaxTD1= 4 Len=   56
 ExpMin= 1.22D-01 ExpMax= 2.27D+03 ExpMxC= 3.41D+02 IAcc=3 IRadAn=         5 AccDes= 0.00D+00
 Harris functional with IExCor= 4639 and IRadAn=       5 diagonalized for initial guess.
 HarFok:  IExCor= 4639 AccDes= 0.00D+00 IRadAn=         5 IDoV= 1 UseB2=F ITyADJ=14
 ICtDFT=  3500011 ScaDFX=  1.000000  1.000000  1.000000  1.000000
 FoFCou: FMM=F IPFlag=           0 FMFlag=      100000 FMFlg1=           0
         NFxFlg=           0 DoJE=T BraDBF=F KetDBF=T FulRan=T
         wScrn=  0.000000 ICntrl=       500 IOpCl=  0 I1Cent=   200000004 NGrid=           0
         NMat0=    1 NMatS0=      1 NMatT0=    0 NMatD0=    1 NMtDS0=    0 NMtDT0=    0
 Petite list used in FoFCou.
     Minimum is close to point  2 DX=  2.52D-03 DF= -1.99D-08 DXR=  4.18D-03 DFR=  1.75D-05 which will be used.
     Minimum is close to point  2 DX=  5.70D-03 DF= -2.93D-08 DXR=  9.40D-03 DFR=  8.84D-05 which will be used.
     Minimum is close to point  2 DX=  1.80D-02 DF= -9.05D-08 DXR=  2.90D-02 DFR=  8.45D-04 which will be used.
     Accept linear search using points  1 and  2.
     Minimum is close to point  2 DX= -1.22D-03 DF= -9.31D-11 DXR=  1.22D-03 DFR=  1.49D-06 which will be used.
 SCF Done:  E(RwB97XD) =  -767.627416410     a.u. after    9 cycles
            Convg  =    0.2756D-09                    54 Fock formations.
              S**2 =  0.0000                  -V/T =  2.0070

 **********************************************************************

            Population analysis using the SCF Density.

 **********************************************************************

 Orbital symmetries:
       Occupied  (A) (A) (A) (A) (A) (A) (A) (A) (A) (A) (A) (A)
                 (A) (A) (A) (A) (A) (A) (A) (A) (A) (A) (A) (A)
                 (A) (A) (A) (A) (A) (A) (A) (A) (A) (A) (A) (A)
                 (A) (A) (A) (A) (A) (A) (A) (A) (A) (A)
       Virtual   (A) (A) (A) (A) (A) (A) (A) (A) (A) (A) (A) (A)
                 (A) (A) (A) (A) (A) (A) (A) (A) (A) (A) (A) (A)
                 (A) (A) (A) (A) (A) (A) (A) (A) (A) (A) (A) (A)
                 (A) (A) (A) (A) (A) (A) (A) (A) (A) (A) (A) (A)
                 (A) (A) (A) (A) (A) (A) (A) (A) (A) (A) (A) (A)
                 (A) (A) (A) (A) (A) (A) (A) (A) (A) (A) (A) (A)
                 (A) (A) (A) (A) (A) (A) (A) (A) (A) (A) (A) (A)
                 (A) (A) (A) (A) (A) (A) (A) (A) (A) (A) (A) (A)
                 (A) (A) (A) (A) (A) (A) (A) (A) (A) (A) (A) (A)
                 (A) (A) (A) (A) (A) (A) (A) (A) (A) (A) (A) (A)
                 (A) (A) (A) (A) (A) (A) (A) (A)
 The electronic state is 1-A.
 Alpha  occ. eigenvalues --  -19.35435 -19.35384 -19.34796 -19.34646 -19.34638
 Alpha  occ. eigenvalues --  -19.34577 -19.30491 -14.74967 -14.74294 -14.74244
 Alpha  occ. eigenvalues --  -10.52259 -10.42127  -1.39393  -1.36709  -1.36374
 Alpha  occ. eigenvalues --   -1.20172  -1.19478  -1.18894  -1.16317  -1.06727
 Alpha  occ. eigenvalues --   -0.88535  -0.87390  -0.85552  -0.71793  -0.71173
 Alpha  occ. eigenvalues --   -0.70246  -0.69162  -0.67170  -0.65403  -0.65106
 Alpha  occ. eigenvalues --   -0.64687  -0.64510  -0.64088  -0.60479  -0.59015
 Alpha  occ. eigenvalues --   -0.49700  -0.46761  -0.46107  -0.45779  -0.45016
 Alpha  occ. eigenvalues --   -0.44448  -0.43751  -0.43480  -0.42664  -0.42327
 Alpha  occ. eigenvalues --   -0.40903
 Alpha virt. eigenvalues --   -0.08806  -0.06443  -0.04961   0.07307   0.12491
 Alpha virt. eigenvalues --    0.14014   0.16681   0.17445   0.19804   0.21842
 Alpha virt. eigenvalues --    0.24479   0.30603   0.30870   0.32059   0.34445
 Alpha virt. eigenvalues --    0.40092   0.42195   0.45940   0.49915   0.52376
 Alpha virt. eigenvalues --    0.52901   0.56031   0.58647   0.61072   0.63995
 Alpha virt. eigenvalues --    0.67088   0.71221   0.71771   0.73081   0.75651
 Alpha virt. eigenvalues --    0.76662   0.78169   0.82024   0.88611   0.90559
 Alpha virt. eigenvalues --    0.91641   0.94208   0.94292   0.94919   0.96736
 Alpha virt. eigenvalues --    0.97496   0.97997   0.99870   1.00704   1.03289
 Alpha virt. eigenvalues --    1.04592   1.05737   1.07458   1.09824   1.10703
 Alpha virt. eigenvalues --    1.11177   1.13526   1.16195   1.17277   1.19220
 Alpha virt. eigenvalues --    1.20695   1.24135   1.24626   1.29916   1.33170
 Alpha virt. eigenvalues --    1.35802   1.40994   1.42467   1.43985   1.46992
 Alpha virt. eigenvalues --    1.51212   1.52484   1.60739   1.69039   1.70714
 Alpha virt. eigenvalues --    1.78057   1.79051   1.80897   1.82939   1.84245
 Alpha virt. eigenvalues --    1.96360   1.96620   2.05492   2.08249   2.11106
 Alpha virt. eigenvalues --    2.17767   2.22473   2.29647   2.33023   2.38245
 Alpha virt. eigenvalues --    2.39486   2.43663   2.47915   2.49471   2.51678
 Alpha virt. eigenvalues --    2.56737   2.60419   2.60771   2.64296   2.65874
 Alpha virt. eigenvalues --    2.66200   2.67113   2.67886   2.69419   2.69752
 Alpha virt. eigenvalues --    2.71586   2.74248   2.75132   2.78585   2.81450
 Alpha virt. eigenvalues --    2.82278   2.92048   2.93082   3.02946   3.05683
 Alpha virt. eigenvalues --    3.06990   3.11037   3.12091   3.17830   3.20356
 Alpha virt. eigenvalues --    3.25648   3.26909   3.27900   3.36772   3.40000
 Alpha virt. eigenvalues --    3.44576   3.45168   3.73570   3.74601   3.75974
 Alpha virt. eigenvalues --    3.76773   3.78725   3.80259
          Condensed to atoms (all electrons):
 Mulliken charges:
               1
     1  O   -0.482633
     2  C    0.106519
     3  C    0.176007
     4  N    0.232258
     5  O   -0.176356
     6  O   -0.207576
     7  N    0.210938
     8  O   -0.165126
     9  O   -0.197026
    10  N    0.211956
    11  O   -0.172390
    12  O   -0.191553
    13  H    0.348526
    14  H    0.156429
    15  H    0.150027
 Sum of Mulliken charges =   0.00000
 Mulliken charges with hydrogens summed into heavy atoms:
               1
     1  O   -0.134107
     2  C    0.412975
     3  C    0.176007
     4  N    0.232258
     5  O   -0.176356
     6  O   -0.207576
     7  N    0.210938
     8  O   -0.165126
     9  O   -0.197026
    10  N    0.211956
    11  O   -0.172390
    12  O   -0.191553
 Electronic spatial extent (au):  <R**2>=           1550.2827
 Charge=              0.0000 electrons
 Dipole moment (field-independent basis, Debye):
    X=             -2.1773    Y=             -0.0650    Z=              4.1475  Tot=              4.6848
   1 Symmetry operations used in ECPInt.
 ECPInt:  NShTT=    3081 NPrTT=   12411 LenC2=    3022 LenP2D=    9024.
 LDataN:  DoStor=T MaxTD1= 5 Len=  102
 Calling FoFJK, ICntrl=      2127 FMM=F ISym2X=0 I1Cent= 0 IOpClX= 0 NMat=1 NMatS=1 NMatT=0.

 GradGradGradGradGradGradGradGradGradGradGradGradGradGradGradGradGradGrad
 FormGI is forming the generalized inverse of G from B-inverse, IUseBI=4.
 Internal  Forces:  Max     0.057786916 RMS     0.019126895
 Step number   1 out of a maximum of   76
 All quantities printed in internal units (Hartrees-Bohrs-Radians)
 Mixed Optimization -- RFO/linear search
 Second derivative matrix not updated -- first step.
 ITU=  0
     Eigenvalues ---    0.00391   0.00545   0.00546   0.00614   0.00635
     Eigenvalues ---    0.00656   0.00720   0.01266   0.04577   0.05209
     Eigenvalues ---    0.05543   0.05779   0.07500   0.12008   0.14097
     Eigenvalues ---    0.15961   0.16000   0.16799   0.22010   0.25000
     Eigenvalues ---    0.25000   0.25000   0.25000   0.25000   0.25000
     Eigenvalues ---    0.29576   0.33812   0.33929   0.33930   0.34399
     Eigenvalues ---    0.34761   0.40671   0.51875   0.85455   0.85622
     Eigenvalues ---    0.85788   0.86842   0.86982   0.87014
 Linear search not attempted -- first point.
 Maximum step size (   0.300) exceeded in Quadratic search.
    -- Step size scaled by   0.907
 Iteration  1 RMS(Cart)=  0.06905516 RMS(Int)=  0.00285726
 Iteration  2 RMS(Cart)=  0.00282102 RMS(Int)=  0.00166533
 Iteration  3 RMS(Cart)=  0.00000763 RMS(Int)=  0.00166533
 Iteration  4 RMS(Cart)=  0.00000006 RMS(Int)=  0.00166533
 Variable       Old X    -DE/DX   Delta X   Delta X   Delta X     New X
                                 (Linear)    (Quad)   (Total)
    R1        2.70651  -0.02197   0.00000  -0.04420  -0.04420   2.66231
    R2        1.84719  -0.01206   0.00000  -0.01944  -0.01944   1.82776
    R3        2.88817  -0.01249   0.00000  -0.03334  -0.03334   2.85484
    R4        2.07451   0.00152   0.00000   0.00359   0.00359   2.07810
    R5        2.07448   0.00399   0.00000   0.00945   0.00945   2.08393
    R6        2.79365   0.00963   0.00000   0.02230   0.02230   2.81595
    R7        2.80948   0.01206   0.00000   0.02861   0.02861   2.83809
    R8        2.79961   0.01430   0.00000   0.03342   0.03342   2.83304
    R9        2.34423  -0.05739   0.00000  -0.05705  -0.05705   2.28718
   R10        2.35019  -0.05295   0.00000  -0.05335  -0.05335   2.29684
   R11        2.34340  -0.05779   0.00000  -0.05734  -0.05734   2.28607
   R12        2.35101  -0.04997   0.00000  -0.05044  -0.05044   2.30057
   R13        2.34356  -0.05467   0.00000  -0.05426  -0.05426   2.28930
   R14        2.34937  -0.05076   0.00000  -0.05104  -0.05104   2.29833
    A1        1.89072  -0.00433   0.00000  -0.01924  -0.01924   1.87148
    A2        1.99289  -0.03308   0.00000  -0.11486  -0.11505   1.87784
    A3        1.86570   0.02260   0.00000   0.10138   0.09674   1.96244
    A4        1.85056   0.02156   0.00000   0.09414   0.08872   1.93928
    A5        1.94818  -0.00501   0.00000  -0.04434  -0.04289   1.90529
    A6        1.93512  -0.00601   0.00000  -0.05104  -0.04997   1.88515
    A7        1.86391   0.00404   0.00000   0.03405   0.02825   1.89216
    A8        1.90384   0.00158   0.00000   0.00033   0.00026   1.90410
    A9        1.93416  -0.00190   0.00000  -0.00630  -0.00631   1.92786
   A10        1.97923  -0.00121   0.00000  -0.00591  -0.00595   1.97328
   A11        1.88639  -0.00056   0.00000  -0.00152  -0.00148   1.88491
   A12        1.92728  -0.00211   0.00000  -0.01138  -0.01143   1.91585
   A13        1.83015   0.00422   0.00000   0.02542   0.02545   1.85560
   A14        2.07999  -0.01234   0.00000  -0.03714  -0.03719   2.04279
   A15        2.04761  -0.01473   0.00000  -0.04451  -0.04456   2.00304
   A16        2.14913   0.02704   0.00000   0.08428   0.08423   2.23336
   A17        2.08894  -0.01626   0.00000  -0.05015  -0.05016   2.03878
   A18        2.04844  -0.00702   0.00000  -0.02167  -0.02167   2.02677
   A19        2.14569   0.02327   0.00000   0.07174   0.07173   2.21742
   A20        2.08409  -0.01458   0.00000  -0.04458  -0.04462   2.03946
   A21        2.05306  -0.00965   0.00000  -0.02937  -0.02942   2.02364
   A22        2.14394   0.02426   0.00000   0.07519   0.07514   2.21908
    D1        2.97722  -0.00011   0.00000  -0.00436  -0.00446   2.97276
    D2        0.81374   0.01158   0.00000   0.05374   0.06052   0.87426
    D3       -1.17016  -0.01297   0.00000  -0.07334  -0.08002  -1.25018
    D4        1.02200  -0.00154   0.00000  -0.02073  -0.02057   1.00144
    D5        3.09677  -0.00240   0.00000  -0.02620  -0.02601   3.07076
    D6       -1.13365   0.00086   0.00000  -0.00208  -0.00190  -1.13556
    D7        3.14052   0.00006   0.00000  -0.00558  -0.00480   3.13571
    D8       -1.06790  -0.00079   0.00000  -0.01105  -0.01025  -1.07815
    D9        0.98486   0.00247   0.00000   0.01307   0.01386   0.99872
   D10       -1.06688  -0.00212   0.00000  -0.02561  -0.02658  -1.09346
   D11        1.00788  -0.00298   0.00000  -0.03108  -0.03202   0.97586
   D12        3.06065   0.00028   0.00000  -0.00696  -0.00792   3.05273
   D13       -1.66367  -0.00099   0.00000  -0.01624  -0.01625  -1.67993
   D14        1.35986   0.00070   0.00000   0.01359   0.01358   1.37344
   D15        2.51519   0.00072   0.00000  -0.00792  -0.00792   2.50727
   D16       -0.74447   0.00241   0.00000   0.02192   0.02192  -0.72255
   D17        0.52253  -0.00287   0.00000  -0.03133  -0.03132   0.49121
   D18       -2.73713  -0.00118   0.00000  -0.00149  -0.00148  -2.73861
   D19       -2.96338   0.00012   0.00000   0.00751   0.00751  -2.95587
   D20        0.19475   0.00038   0.00000   0.01229   0.01229   0.20704
   D21       -0.87811   0.00058   0.00000   0.00325   0.00322  -0.87488
   D22        2.28003   0.00084   0.00000   0.00803   0.00800   2.28803
   D23        1.17796   0.00002   0.00000   0.00235   0.00237   1.18033
   D24       -1.94709   0.00028   0.00000   0.00712   0.00714  -1.93995
   D25        2.99146  -0.00143   0.00000  -0.03063  -0.03060   2.96085
   D26       -0.21762  -0.00014   0.00000  -0.00761  -0.00759  -0.22521
   D27        0.84869  -0.00102   0.00000  -0.01820  -0.01826   0.83043
   D28       -2.36039   0.00026   0.00000   0.00481   0.00475  -2.35563
   D29       -1.17934  -0.00165   0.00000  -0.02485  -0.02481  -1.20415
   D30        1.89477  -0.00037   0.00000  -0.00183  -0.00180   1.89297
         Item               Value     Threshold  Converged?
 Maximum Force            0.057787     0.000015     NO 
 RMS     Force            0.019127     0.000010     NO 
 Maximum Displacement     0.264028     0.000060     NO 
 RMS     Displacement     0.068924     0.000040     NO 
 GradGradGradGradGradGradGradGradGradGradGradGradGradGradGradGradGradGrad

                    Distance matrix (angstroms):
                    1          2          3          4          5
     1  O    0.000000
     2  C    1.408836   0.000000
     3  C    2.356615   1.510716   0.000000
     4  N    2.761058   2.444541   1.490138   0.000000
     5  O    2.955316   3.155926   2.307686   1.210325   0.000000
     6  O    3.481428   2.975895   2.283688   1.215436   2.179907
     7  N    3.689469   2.474643   1.501852   2.420537   3.457614
     8  O    4.652115   3.578619   2.314759   2.739003   3.643244
     9  O    3.992303   2.598863   2.312537   3.388408   4.479297
    10  N    2.917787   2.510794   1.499178   2.445266   2.638234
    11  O    3.958415   3.607734   2.314271   2.755813   2.718032
    12  O    2.857295   2.654252   2.306999   3.429007   3.534933
    13  H    0.967208   1.930662   3.190726   3.681426   3.894944
    14  H    2.092095   1.099683   2.140642   3.398996   4.090813
    15  H    2.078494   1.102766   2.128050   2.682854   3.593398
                    6          7          8          9         10
     6  O    0.000000
     7  N    2.638416   0.000000
     8  O    2.846367   1.209734   0.000000
     9  O    3.430599   1.217411   2.172597   0.000000
    10  N    3.514977   2.401734   2.854481   3.232198   0.000000
    11  O    3.783613   2.867321   2.797750   3.901755   1.211443
    12  O    4.495944   3.207857   3.863625   3.700923   1.216222
    13  H    4.277871   4.389344   5.442699   4.470188   3.725054
    14  H    3.945351   2.724036   3.896864   2.487996   2.734371
    15  H    2.739339   2.659711   3.748787   2.551271   3.439864
                   11         12         13         14         15
    11  O    0.000000
    12  O    2.173963   0.000000
    13  H    4.828097   3.430054   0.000000
    14  H    3.910373   2.492626   2.270494   0.000000
    15  H    4.424428   3.727824   2.385651   1.786474   0.000000
 Framework group  C1[X(C2H3N3O7)]
 Deg. of freedom    39
                         Standard orientation:                         
 ---------------------------------------------------------------------
 Center     Atomic      Atomic             Coordinates (Angstroms)
 Number     Number       Type             X           Y           Z
 ---------------------------------------------------------------------
      1          8           0       -2.100618    0.472421    1.131814
      2          6           0       -0.774662    0.135266    1.467949
      3          6           0       -0.000577   -0.013276    0.179155
      4          7           0       -0.093752    1.256780   -0.594659
      5          8           0       -0.944383    1.316713   -1.453565
      6          8           0        0.643580    2.142936   -0.209490
      7          7           0        1.449979   -0.276859    0.465459
      8          8           0        2.210860   -0.218398   -0.473209
      9          8           0        1.727750   -0.549741    1.618918
     10          7           0       -0.478089   -1.157092   -0.664173
     11          8           0       -0.041874   -1.224628   -1.792335
     12          8           0       -1.227710   -1.944052   -0.118317
     13          1           0       -2.625051    0.415148    1.942481
     14          1           0       -0.711674   -0.803526    2.037163
     15          1           0       -0.299654    0.934625    2.060812
 ---------------------------------------------------------------------
 Rotational constants (GHZ):           1.1418511           1.0240421           0.9566522
   174 basis functions,   312 primitive gaussians,   186 cartesian basis functions
    46 alpha electrons       46 beta electrons
       nuclear repulsion energy       826.3130851631 Hartrees.
 NAtoms=   15 NActive=   15 NUniq=   15 SFac= 1.00D+00 NAtFMM=   60 NAOKFM=F Big=F
 Nuclear repulsion after empirical dispersion term =      826.3049238489 Hartrees.
   1 Symmetry operations used in ECPInt.
 ECPInt:  NShTT=    3081 NPrTT=   12411 LenC2=    3028 LenP2D=    9077.
 LDataN:  DoStor=T MaxTD1= 4 Len=   56
 Initial guess from the checkpoint file:  "45.chk"
 B after Tr=    -0.000000    0.000000    0.000000
         Rot=    0.997525   -0.017104   -0.058270    0.035427 Ang=  -8.06 deg.
 ExpMin= 1.22D-01 ExpMax= 2.27D+03 ExpMxC= 3.41D+02 IAcc=3 IRadAn=         5 AccDes= 0.00D+00
 Harris functional with IExCor= 4639 and IRadAn=       5 diagonalized for initial guess.
 HarFok:  IExCor= 4639 AccDes= 0.00D+00 IRadAn=         5 IDoV= 1 UseB2=F ITyADJ=14
 ICtDFT=  3500011 ScaDFX=  1.000000  1.000000  1.000000  1.000000
 FoFCou: FMM=F IPFlag=           0 FMFlag=      100000 FMFlg1=           0
         NFxFlg=           0 DoJE=T BraDBF=F KetDBF=T FulRan=T
         wScrn=  0.000000 ICntrl=       500 IOpCl=  0 I1Cent=   200000004 NGrid=           0
         NMat0=    1 NMatS0=      1 NMatT0=    0 NMatD0=    1 NMtDS0=    0 NMtDT0=    0
 Petite list used in FoFCou.
     Accept linear search using points  3 and  4.
     Minimum is close to point  4 DX= -6.24D-02 DF= -8.73D-06 DXR=  5.49D-02 DFR=  7.19D-04 which will be used.
     Minimum is close to point  2 DX=  2.38D-02 DF= -6.27D-07 DXR=  2.32D-02 DFR=  5.39D-04 which will be used.
     Accept linear search using points  1 and  2.
     Accept linear search using points  1 and  2.
     Minimum is close to point  2 DX= -3.31D-02 DF= -3.44D-07 DXR=  3.42D-02 DFR=  1.17D-03 which will be used.
     Accept linear search using points  1 and  2.
     Minimum is close to point  2 DX= -6.72D-02 DF= -8.72D-07 DXR=  8.07D-02 DFR=  5.38D-03 which will be used.
     Minimum is close to point  2 DX=  1.05D-02 DF= -1.22D-08 DXR=  1.16D-02 DFR=  1.34D-04 which will be used.
     Minimum is close to point  2 DX=  8.75D-02 DF= -4.25D-07 DXR=  8.86D-02 DFR=  7.91D-03 which will be used.
     Minimum is close to point  2 DX=  2.79D-04 DF= -8.41D-12 DXR=  2.79D-04 DFR=  7.75D-08 which will be used.
 SCF Done:  E(RwB97XD) =  -767.652354362     a.u. after   11 cycles
            Convg  =    0.6405D-09                    54 Fock formations.
              S**2 =  0.0000                  -V/T =  2.0064
   1 Symmetry operations used in ECPInt.
 ECPInt:  NShTT=    3081 NPrTT=   12411 LenC2=    3028 LenP2D=    9077.
 LDataN:  DoStor=T MaxTD1= 5 Len=  102
 Calling FoFJK, ICntrl=      2127 FMM=F ISym2X=0 I1Cent= 0 IOpClX= 0 NMat=1 NMatS=1 NMatT=0.

 GradGradGradGradGradGradGradGradGradGradGradGradGradGradGradGradGradGrad
 Using GEDIIS/GDIIS optimizer.
 FormGI is forming the generalized inverse of G from B-inverse, IUseBI=4.
 Internal  Forces:  Max     0.019567653 RMS     0.006232078
 Step number   2 out of a maximum of   76
 All quantities printed in internal units (Hartrees-Bohrs-Radians)
 Mixed Optimization -- RFO/linear search
 Trust test= 1.02D+00 RLast= 3.24D-01 DXMaxT set to 5.05D-01
 ITU=  1  0
 Use linear search instead of GDIIS.
     Eigenvalues ---    0.00390   0.00545   0.00547   0.00614   0.00627
     Eigenvalues ---    0.00655   0.00703   0.01266   0.05303   0.05394
     Eigenvalues ---    0.05806   0.06137   0.07391   0.11254   0.13554
     Eigenvalues ---    0.16048   0.16086   0.16772   0.22300   0.24857
     Eigenvalues ---    0.25000   0.25000   0.25000   0.25000   0.27199
     Eigenvalues ---    0.30471   0.33704   0.33929   0.33947   0.34300
     Eigenvalues ---    0.35056   0.40319   0.51974   0.72429   0.85530
     Eigenvalues ---    0.85733   0.86262   0.86924   0.87033
 Quartic linear search produced a step of  0.25548.
 Iteration  1 RMS(Cart)=  0.06764644 RMS(Int)=  0.00316606
 Iteration  2 RMS(Cart)=  0.00309835 RMS(Int)=  0.00088298
 Iteration  3 RMS(Cart)=  0.00000903 RMS(Int)=  0.00088294
 Iteration  4 RMS(Cart)=  0.00000001 RMS(Int)=  0.00088294
 Variable       Old X    -DE/DX   Delta X   Delta X   Delta X     New X
                                 (Linear)    (Quad)   (Total)
    R1        2.66231  -0.00895  -0.01129  -0.01867  -0.02996   2.63236
    R2        1.82776  -0.00131  -0.00497   0.00044  -0.00452   1.82324
    R3        2.85484   0.00490  -0.00852   0.02752   0.01901   2.87385
    R4        2.07810   0.00078   0.00092   0.00210   0.00302   2.08112
    R5        2.08393   0.00160   0.00241   0.00391   0.00632   2.09025
    R6        2.81595   0.01354   0.00570   0.04360   0.04930   2.86525
    R7        2.83809   0.01183   0.00731   0.03735   0.04466   2.88275
    R8        2.83304   0.01390   0.00854   0.04312   0.05166   2.88469
    R9        2.28718  -0.01957  -0.01458  -0.01849  -0.03306   2.25412
   R10        2.29684  -0.01533  -0.01363  -0.01332  -0.02695   2.26989
   R11        2.28607  -0.01661  -0.01465  -0.01415  -0.02880   2.25727
   R12        2.30057  -0.01650  -0.01289  -0.01555  -0.02844   2.27214
   R13        2.28930  -0.01758  -0.01386  -0.01607  -0.02993   2.25937
   R14        2.29833  -0.01734  -0.01304  -0.01659  -0.02963   2.26869
    A1        1.87148   0.00583  -0.00492   0.04940   0.04449   1.91596
    A2        1.87784  -0.00456  -0.02939   0.00176  -0.02761   1.85022
    A3        1.96244   0.00408   0.02471   0.01064   0.03356   1.99600
    A4        1.93928   0.00316   0.02266   0.00136   0.02188   1.96116
    A5        1.90529  -0.00214  -0.01096  -0.01035  -0.02078   1.88451
    A6        1.88515  -0.00190  -0.01277  -0.00863  -0.02108   1.86407
    A7        1.89216   0.00100   0.00722   0.00410   0.00898   1.90114
    A8        1.90410  -0.00200   0.00007  -0.01324  -0.01317   1.89093
    A9        1.92786   0.00239  -0.00161   0.02267   0.02108   1.94893
   A10        1.97328   0.00023  -0.00152   0.00513   0.00363   1.97691
   A11        1.88491  -0.00020  -0.00038  -0.00354  -0.00384   1.88106
   A12        1.91585   0.00135  -0.00292   0.00952   0.00656   1.92241
   A13        1.85560  -0.00173   0.00650  -0.02069  -0.01422   1.84138
   A14        2.04279   0.00194  -0.00950   0.01638   0.00643   2.04922
   A15        2.00304  -0.00142  -0.01139   0.00150  -0.01033   1.99271
   A16        2.23336  -0.00051   0.02152  -0.02300  -0.00194   2.23142
   A17        2.03878  -0.00114  -0.01281   0.00568  -0.00714   2.03164
   A18        2.02677   0.00040  -0.00554   0.00684   0.00130   2.02806
   A19        2.21742   0.00073   0.01833  -0.01256   0.00576   2.22318
   A20        2.03946  -0.00200  -0.01140  -0.00168  -0.01594   2.02352
   A21        2.02364   0.00162  -0.00752   0.01268   0.00230   2.02594
   A22        2.21908   0.00035   0.01920  -0.01709  -0.00081   2.21827
    D1        2.97276  -0.00024  -0.00114  -0.00764  -0.00887   2.96389
    D2        0.87426   0.00295   0.01546  -0.00242   0.01549   0.88974
    D3       -1.25018  -0.00352  -0.02044  -0.01626  -0.03906  -1.28924
    D4        1.00144  -0.00090  -0.00525  -0.08310  -0.08827   0.91317
    D5        3.07076  -0.00095  -0.00664  -0.08201  -0.08864   2.98212
    D6       -1.13556  -0.00134  -0.00049  -0.08922  -0.08960  -1.22516
    D7        3.13571  -0.00000  -0.00123  -0.07527  -0.07624   3.05947
    D8       -1.07815  -0.00005  -0.00262  -0.07417  -0.07661  -1.15476
    D9        0.99872  -0.00044   0.00354  -0.08138  -0.07757   0.92115
   D10       -1.09346  -0.00106  -0.00679  -0.08092  -0.08799  -1.18145
   D11        0.97586  -0.00110  -0.00818  -0.07982  -0.08836   0.88751
   D12        3.05273  -0.00149  -0.00202  -0.08703  -0.08932   2.96341
   D13       -1.67993   0.00024  -0.00415   0.00156  -0.00260  -1.68253
   D14        1.37344   0.00021   0.00347  -0.05615  -0.05265   1.32079
   D15        2.50727  -0.00136  -0.00202  -0.01605  -0.01813   2.48914
   D16       -0.72255  -0.00140   0.00560  -0.07376  -0.06818  -0.79073
   D17        0.49121   0.00009  -0.00800   0.00543  -0.00258   0.48863
   D18       -2.73861   0.00005  -0.00038  -0.05229  -0.05262  -2.79124
   D19       -2.95587   0.00079   0.00192   0.01887   0.02076  -2.93511
   D20        0.20704   0.00089   0.00314   0.02107   0.02418   0.23122
   D21       -0.87488  -0.00037   0.00082   0.01380   0.01460  -0.86028
   D22        2.28803  -0.00027   0.00204   0.01601   0.01802   2.30605
   D23        1.18033   0.00019   0.00060   0.01234   0.01301   1.19334
   D24       -1.93995   0.00030   0.00182   0.01455   0.01643  -1.92352
   D25        2.96085  -0.00128  -0.00782   0.02161   0.01365   2.97450
   D26       -0.22521  -0.00212  -0.00194  -0.11454  -0.11628  -0.34149
   D27        0.83043   0.00015  -0.00467   0.02819   0.02333   0.85376
   D28       -2.35563  -0.00068   0.00121  -0.10796  -0.10660  -2.46223
   D29       -1.20415   0.00066  -0.00634   0.03887   0.03235  -1.17180
   D30        1.89297  -0.00018  -0.00046  -0.09728  -0.09758   1.79540
         Item               Value     Threshold  Converged?
 Maximum Force            0.019568     0.000015     NO 
 RMS     Force            0.006232     0.000010     NO 
 Maximum Displacement     0.266598     0.000060     NO 
 RMS     Displacement     0.067634     0.000040     NO 
 GradGradGradGradGradGradGradGradGradGradGradGradGradGradGradGradGradGrad

                    Distance matrix (angstroms):
                    1          2          3          4          5
     1  O    0.000000
     2  C    1.392983   0.000000
     3  C    2.328454   1.520774   0.000000
     4  N    2.680073   2.462308   1.516225   0.000000
     5  O    2.886807   3.165055   2.321006   1.192830   0.000000
     6  O    3.327605   2.947119   2.287662   1.201173   2.150353
     7  N    3.693626   2.520484   1.525486   2.457317   3.476003
     8  O    4.618989   3.599550   2.318312   2.750027   3.636221
     9  O    4.021326   2.654395   2.322145   3.418304   4.491269
    10  N    2.962631   2.545030   1.526514   2.494697   2.684998
    11  O    3.974255   3.618566   2.314386   2.790052   2.769817
    12  O    3.028795   2.706438   2.320082   3.495073   3.634026
    13  H    0.964815   1.944414   3.185660   3.614182   3.810303
    14  H    2.102104   1.101281   2.135237   3.411567   4.076395
    15  H    2.082428   1.106111   2.123398   2.721627   3.635469
                    6          7          8          9         10
     6  O    0.000000
     7  N    2.681763   0.000000
     8  O    2.894362   1.194494   0.000000
     9  O    3.462719   1.202362   2.148554   0.000000
    10  N    3.553212   2.429448   2.867594   3.239920   0.000000
    11  O    3.822673   2.850762   2.777138   3.861044   1.195605
    12  O    4.528330   3.176664   3.814238   3.644742   1.200541
    13  H    4.144170   4.438386   5.449335   4.564656   3.763108
    14  H    3.940452   2.789579   3.938289   2.593230   2.712253
    15  H    2.727640   2.648310   3.723154   2.536881   3.461464
                   11         12         13         14         15
    11  O    0.000000
    12  O    2.145305   0.000000
    13  H    4.836790   3.588860   0.000000
    14  H    3.872441   2.446560   2.325693   0.000000
    15  H    4.421439   3.751970   2.436304   1.796263   0.000000
 Framework group  C1[X(C2H3N3O7)]
 Deg. of freedom    39
                         Standard orientation:                         
 ---------------------------------------------------------------------
 Center     Atomic      Atomic             Coordinates (Angstroms)
 Number     Number       Type             X           Y           Z
 ---------------------------------------------------------------------
      1          8           0       -2.147789    0.185011    1.091734
      2          6           0       -0.814373    0.064819    1.476385
      3          6           0       -0.010967   -0.008903    0.187254
      4          7           0       -0.399071    1.169107   -0.684872
      5          8           0       -1.224953    0.981902   -1.524942
      6          8           0        0.069010    2.217581   -0.332140
      7          7           0        1.488589    0.081830    0.452218
      8          8           0        2.187174    0.252383   -0.501567
      9          8           0        1.834715   -0.053089    1.595751
     10          7           0       -0.212288   -1.316154   -0.574855
     11          8           0        0.251951   -1.356441   -1.675915
     12          8           0       -0.647969   -2.236273    0.061432
     13          1           0       -2.720415    0.076279    1.860593
     14          1           0       -0.591669   -0.837177    2.067676
     15          1           0       -0.453597    0.953324    2.027639
 ---------------------------------------------------------------------
 Rotational constants (GHZ):           1.1235314           1.0401167           0.9417548
   174 basis functions,   312 primitive gaussians,   186 cartesian basis functions
    46 alpha electrons       46 beta electrons
       nuclear repulsion energy       825.5787062445 Hartrees.
 NAtoms=   15 NActive=   15 NUniq=   15 SFac= 1.00D+00 NAtFMM=   60 NAOKFM=F Big=F
 Nuclear repulsion after empirical dispersion term =      825.5704837326 Hartrees.
   1 Symmetry operations used in ECPInt.
 ECPInt:  NShTT=    3081 NPrTT=   12411 LenC2=    3029 LenP2D=    9075.
 LDataN:  DoStor=T MaxTD1= 4 Len=   56
 Initial guess from the checkpoint file:  "45.chk"
 B after Tr=     0.000000    0.000000    0.000000
         Rot=    0.992611    0.037878   -0.004578   -0.115181 Ang=  13.94 deg.
 ExpMin= 1.22D-01 ExpMax= 2.27D+03 ExpMxC= 3.41D+02 IAcc=3 IRadAn=         5 AccDes= 0.00D+00
 Harris functional with IExCor= 4639 and IRadAn=       5 diagonalized for initial guess.
 HarFok:  IExCor= 4639 AccDes= 0.00D+00 IRadAn=         5 IDoV= 1 UseB2=F ITyADJ=14
 ICtDFT=  3500011 ScaDFX=  1.000000  1.000000  1.000000  1.000000
 FoFCou: FMM=F IPFlag=           0 FMFlag=      100000 FMFlg1=           0
         NFxFlg=           0 DoJE=T BraDBF=F KetDBF=T FulRan=T
         wScrn=  0.000000 ICntrl=       500 IOpCl=  0 I1Cent=   200000004 NGrid=           0
         NMat0=    1 NMatS0=      1 NMatT0=    0 NMatD0=    1 NMtDS0=    0 NMtDT0=    0
 Petite list used in FoFCou.
     Minimum is close to point  4 DX=  8.50D-02 DF= -5.96D-05 DXR=  6.62D-02 DFR=  4.40D-03 which will be used.
     Accept linear search using points  2 and  3.
     Accept linear search using points  1 and  2.
     Minimum is close to point  2 DX= -7.44D-02 DF= -9.34D-06 DXR=  7.26D-02 DFR=  6.17D-03 which will be used.
     Accept linear search using points  1 and  2.
     Accept linear search using points  1 and  2.
     Accept linear search using points  1 and  2.
     Accept linear search using points  1 and  2.
     Accept linear search using points  1 and  2.
     Minimum is close to point  2 DX= -6.48D-04 DF= -1.00D-10 DXR=  6.49D-04 DFR=  4.21D-07 which will be used.
     Minimum is close to point  2 DX=  1.58D-04 DF=  0.00D+00 DXR=  1.58D-04 DFR=  0.00D+00 which will be used.
 SCF Done:  E(RwB97XD) =  -767.654284442     a.u. after   13 cycles
            Convg  =    0.6222D-08                    62 Fock formations.
              S**2 =  0.0000                  -V/T =  2.0061
   1 Symmetry operations used in ECPInt.
 ECPInt:  NShTT=    3081 NPrTT=   12411 LenC2=    3029 LenP2D=    9075.
 LDataN:  DoStor=T MaxTD1= 5 Len=  102
 Calling FoFJK, ICntrl=      2127 FMM=F ISym2X=0 I1Cent= 0 IOpClX= 0 NMat=1 NMatS=1 NMatT=0.

 GradGradGradGradGradGradGradGradGradGradGradGradGradGradGradGradGradGrad
 Using GEDIIS/GDIIS optimizer.
 FormGI is forming the generalized inverse of G from B-inverse, IUseBI=4.
 Internal  Forces:  Max     0.008680781 RMS     0.003188852
 Step number   3 out of a maximum of   76
 All quantities printed in internal units (Hartrees-Bohrs-Radians)
 Mixed Optimization -- RFO/linear search
 Trust test= 4.54D-01 RLast= 3.69D-01 DXMaxT set to 5.05D-01
 ITU=  0  1  0
 Use linear search instead of GDIIS.
     Eigenvalues ---    0.00386   0.00539   0.00549   0.00594   0.00647
     Eigenvalues ---    0.00768   0.01190   0.01279   0.05273   0.05644
     Eigenvalues ---    0.05742   0.06350   0.07474   0.10847   0.13389
     Eigenvalues ---    0.15773   0.15967   0.17222   0.22420   0.23546
     Eigenvalues ---    0.25000   0.25000   0.25000   0.25239   0.25482
     Eigenvalues ---    0.29796   0.33819   0.33934   0.33973   0.34296
     Eigenvalues ---    0.35164   0.40101   0.51978   0.80123   0.85723
     Eigenvalues ---    0.85796   0.86283   0.87016   0.87118
 Quartic linear search produced a step of -0.32760.
 Iteration  1 RMS(Cart)=  0.07454361 RMS(Int)=  0.01781934
 Iteration  2 RMS(Cart)=  0.01799035 RMS(Int)=  0.00748828
 Iteration  3 RMS(Cart)=  0.00058050 RMS(Int)=  0.00746390
 Iteration  4 RMS(Cart)=  0.00000920 RMS(Int)=  0.00746389
 Iteration  5 RMS(Cart)=  0.00000024 RMS(Int)=  0.00746389
 Variable       Old X    -DE/DX   Delta X   Delta X   Delta X     New X
                                 (Linear)    (Quad)   (Total)
    R1        2.63236  -0.00100   0.00981  -0.04085  -0.03103   2.60132
    R2        1.82324   0.00076   0.00148  -0.00618  -0.00470   1.81854
    R3        2.87385  -0.00136  -0.00623   0.01517   0.00895   2.88279
    R4        2.08112   0.00060  -0.00099   0.00508   0.00409   2.08521
    R5        2.09025  -0.00009  -0.00207   0.00807   0.00600   2.09625
    R6        2.86525   0.00109  -0.01615   0.06131   0.04516   2.91041
    R7        2.88275   0.00018  -0.01463   0.05477   0.04014   2.92289
    R8        2.88469   0.00156  -0.01692   0.06615   0.04922   2.93392
    R9        2.25412   0.00769   0.01083  -0.03793  -0.02710   2.22702
   R10        2.26989   0.00819   0.00883  -0.02994  -0.02111   2.24878
   R11        2.25727   0.00810   0.00943  -0.03267  -0.02323   2.23403
   R12        2.27214   0.00587   0.00932  -0.03329  -0.02397   2.24816
   R13        2.25937   0.00868   0.00980  -0.03321  -0.02340   2.23597
   R14        2.26869   0.00797   0.00971  -0.03303  -0.02333   2.24537
    A1        1.91596   0.00033  -0.01457   0.04946   0.03488   1.95085
    A2        1.85022   0.00131   0.00905  -0.04028  -0.03119   1.81903
    A3        1.99600  -0.00106  -0.01099   0.03866   0.02676   2.02276
    A4        1.96116   0.00086  -0.00717   0.04483   0.03717   1.99833
    A5        1.88451  -0.00103   0.00681  -0.03727  -0.03049   1.85402
    A6        1.86407  -0.00031   0.00690  -0.02821  -0.02111   1.84296
    A7        1.90114   0.00021  -0.00294   0.01212   0.00820   1.90934
    A8        1.89093   0.00212   0.00431  -0.00580  -0.00149   1.88944
    A9        1.94893  -0.00100  -0.00690   0.01942   0.01252   1.96145
   A10        1.97691  -0.00094  -0.00119  -0.00089  -0.00210   1.97481
   A11        1.88106  -0.00074   0.00126  -0.00678  -0.00555   1.87552
   A12        1.92241  -0.00115  -0.00215   0.00103  -0.00113   1.92129
   A13        1.84138   0.00161   0.00466  -0.00717  -0.00251   1.83886
   A14        2.04922  -0.00106  -0.00211   0.01282   0.00039   2.04961
   A15        1.99271  -0.00156   0.00338  -0.00852  -0.01547   1.97725
   A16        2.23142   0.00337   0.00063   0.02847   0.01869   2.25012
   A17        2.03164   0.00053   0.00234  -0.01166  -0.00960   2.02204
   A18        2.02806  -0.00369  -0.00043  -0.01066  -0.01136   2.01670
   A19        2.22318   0.00318  -0.00189   0.02330   0.02114   2.24431
   A20        2.02352   0.00140   0.00522   0.00858  -0.01878   2.00474
   A21        2.02594  -0.00246  -0.00075   0.02039  -0.01293   2.01301
   A22        2.21827   0.00289   0.00027   0.04319   0.00926   2.22753
    D1        2.96389  -0.00077   0.00291  -0.02092  -0.01798   2.94591
    D2        0.88974   0.00024  -0.00507   0.03018   0.02585   0.91559
    D3       -1.28924   0.00009   0.01279  -0.05555  -0.04354  -1.33277
    D4        0.91317   0.00085   0.02892  -0.03582  -0.00703   0.90613
    D5        2.98212   0.00069   0.02904  -0.03630  -0.00736   2.97476
    D6       -1.22516   0.00141   0.02935  -0.03236  -0.00313  -1.22829
    D7        3.05947  -0.00023   0.02498  -0.03358  -0.00852   3.05094
    D8       -1.15476  -0.00039   0.02510  -0.03405  -0.00885  -1.16361
    D9        0.92115   0.00033   0.02541  -0.03011  -0.00462   0.91652
   D10       -1.18145  -0.00067   0.02883  -0.05286  -0.02402  -1.20546
   D11        0.88751  -0.00083   0.02894  -0.05334  -0.02434   0.86317
   D12        2.96341  -0.00011   0.02926  -0.04940  -0.02012   2.94330
   D13       -1.68253  -0.00318   0.00085  -0.15240  -0.15116  -1.83369
   D14        1.32079   0.00236   0.01725   0.07904   0.09589   1.41668
   D15        2.48914  -0.00277   0.00594  -0.16844  -0.16210   2.32705
   D16       -0.79073   0.00277   0.02233   0.06300   0.08495  -0.70577
   D17        0.48863  -0.00368   0.00084  -0.15674  -0.15551   0.33312
   D18       -2.79124   0.00186   0.01724   0.07470   0.09154  -2.69969
   D19       -2.93511   0.00012  -0.00680   0.05935   0.05257  -2.88254
   D20        0.23122  -0.00068  -0.00792   0.01979   0.01189   0.24311
   D21       -0.86028   0.00167  -0.00478   0.05934   0.05455  -0.80573
   D22        2.30605   0.00088  -0.00590   0.01977   0.01386   2.31992
   D23        1.19334   0.00081  -0.00426   0.05362   0.04934   1.24268
   D24       -1.92352   0.00001  -0.00538   0.01406   0.00866  -1.91486
   D25        2.97450  -0.00514  -0.00447  -0.26883  -0.27016   2.70434
   D26       -0.34149   0.00539   0.03809   0.13865   0.17360  -0.16789
   D27        0.85376  -0.00639  -0.00764  -0.26147  -0.26598   0.58778
   D28       -2.46223   0.00414   0.03492   0.14601   0.17779  -2.28444
   D29       -1.17180  -0.00585  -0.01060  -0.25013  -0.25758  -1.42938
   D30        1.79540   0.00468   0.03197   0.15735   0.18618   1.98158
         Item               Value     Threshold  Converged?
 Maximum Force            0.008681     0.000015     NO 
 RMS     Force            0.003189     0.000010     NO 
 Maximum Displacement     0.432464     0.000060     NO 
 RMS     Displacement     0.083847     0.000040     NO 
 GradGradGradGradGradGradGradGradGradGradGradGradGradGradGradGradGradGrad

                    Distance matrix (angstroms):
                    1          2          3          4          5
     1  O    0.000000
     2  C    1.376560   0.000000
     3  C    2.292158   1.525509   0.000000
     4  N    2.648946   2.484199   1.540121   0.000000
     5  O    2.973916   3.246397   2.330937   1.178489   0.000000
     6  O    3.359247   3.000007   2.288503   1.190004   2.137079
     7  N    3.688572   2.552751   1.546727   2.488724   3.446297
     8  O    4.580097   3.606809   2.320506   2.738163   3.527175
     9  O    4.019044   2.678824   2.322688   3.437759   4.473207
    10  N    2.942773   2.569002   1.552562   2.534650   2.679917
    11  O    3.802222   3.587425   2.314137   2.703859   2.493950
    12  O    2.902723   2.688870   2.324041   3.462170   3.553645
    13  H    0.962330   1.950344   3.165926   3.585381   3.887056
    14  H    2.106955   1.103444   2.117922   3.422525   4.130412
    15  H    2.095639   1.109287   2.113646   2.735459   3.713923
                    6          7          8          9         10
     6  O    0.000000
     7  N    2.653428   0.000000
     8  O    2.780415   1.182200   0.000000
     9  O    3.449937   1.189677   2.137154   0.000000
    10  N    3.559894   2.464734   2.909424   3.253228   0.000000
    11  O    3.728727   2.995990   2.975567   3.999287   1.183222
    12  O    4.499588   3.280465   3.929545   3.757084   1.188198
    13  H    4.196424   4.464310   5.437011   4.608132   3.739082
    14  H    3.974425   2.799646   3.936612   2.605807   2.700676
    15  H    2.787010   2.649809   3.692893   2.536252   3.477771
                   11         12         13         14         15
    11  O    0.000000
    12  O    2.128035   0.000000
    13  H    4.661651   3.457231   0.000000
    14  H    3.860455   2.450583   2.368798   0.000000
    15  H    4.400390   3.746962   2.490706   1.805864   0.000000
 Framework group  C1[X(C2H3N3O7)]
 Deg. of freedom    39
                         Standard orientation:                         
 ---------------------------------------------------------------------
 Center     Atomic      Atomic             Coordinates (Angstroms)
 Number     Number       Type             X           Y           Z
 ---------------------------------------------------------------------
      1          8           0       -1.857219    0.517723    1.393275
      2          6           0       -0.623324   -0.057387    1.597402
      3          6           0        0.017185   -0.071696    0.212945
      4          7           0       -0.066464    1.350517   -0.372105
      5          8           0       -0.866024    1.544366   -1.215884
      6          8           0        0.788013    2.075208    0.028896
      7          7           0        1.511776   -0.467166    0.259505
      8          8           0        2.136139   -0.238940   -0.718084
      9          8           0        1.884157   -0.946052    1.282897
     10          7           0       -0.646765   -1.086721   -0.756253
     11          8           0       -0.528049   -0.828582   -1.904854
     12          8           0       -1.426631   -1.831194   -0.256871
     13          1           0       -2.425965    0.425544    2.164061
     14          1           0       -0.631302   -1.104848    1.944318
     15          1           0        0.061183    0.537171    2.236517
 ---------------------------------------------------------------------
 Rotational constants (GHZ):           1.1448822           1.0177970           0.9511810
   174 basis functions,   312 primitive gaussians,   186 cartesian basis functions
    46 alpha electrons       46 beta electrons
       nuclear repulsion energy       827.3016902632 Hartrees.
 NAtoms=   15 NActive=   15 NUniq=   15 SFac= 1.00D+00 NAtFMM=   60 NAOKFM=F Big=F
 Nuclear repulsion after empirical dispersion term =      827.2934523849 Hartrees.
   1 Symmetry operations used in ECPInt.
 ECPInt:  NShTT=    3081 NPrTT=   12411 LenC2=    3026 LenP2D=    9076.
 LDataN:  DoStor=T MaxTD1= 4 Len=   56
 Initial guess from the checkpoint file:  "45.chk"
 B after Tr=    -0.000000   -0.000000   -0.000000
         Rot=    0.979338   -0.104399   -0.059829    0.162537 Ang= -23.33 deg.
 ExpMin= 1.22D-01 ExpMax= 2.27D+03 ExpMxC= 3.41D+02 IAcc=3 IRadAn=         5 AccDes= 0.00D+00
 Harris functional with IExCor= 4639 and IRadAn=       5 diagonalized for initial guess.
 HarFok:  IExCor= 4639 AccDes= 0.00D+00 IRadAn=         5 IDoV= 1 UseB2=F ITyADJ=14
 ICtDFT=  3500011 ScaDFX=  1.000000  1.000000  1.000000  1.000000
 FoFCou: FMM=F IPFlag=           0 FMFlag=      100000 FMFlg1=           0
         NFxFlg=           0 DoJE=T BraDBF=F KetDBF=T FulRan=T
         wScrn=  0.000000 ICntrl=       500 IOpCl=  0 I1Cent=   200000004 NGrid=           0
         NMat0=    1 NMatS0=      1 NMatT0=    0 NMatD0=    1 NMtDS0=    0 NMtDT0=    0
 Petite list used in FoFCou.
     Minimum is close to point  4 DX=  2.62D-02 DF= -2.82D-05 DXR=  2.14D-02 DFR=  4.58D-04 which will be used.
     Minimum is close to point  2 DX=  4.60D-02 DF= -1.62D-05 DXR=  4.40D-02 DFR=  1.94D-03 which will be used.
     Minimum is close to point  2 DX=  2.93D-02 DF= -4.47D-06 DXR=  3.15D-02 DFR=  9.94D-04 which will be used.
     Minimum is close to point  2 DX=  3.74D-02 DF= -3.52D-06 DXR=  3.61D-02 DFR=  1.30D-03 which will be used.
     Accept linear search using points  1 and  2.
     Minimum is close to point  2 DX= -5.61D-02 DF= -6.05D-06 DXR=  5.94D-02 DFR=  3.54D-03 which will be used.
     Accept linear search using points  1 and  2.
     Accept linear search using points  1 and  2.
     Minimum is close to point  2 DX=  6.44D-02 DF= -1.86D-06 DXR=  6.05D-02 DFR=  3.67D-03 which will be used.
     Accept linear search using points  1 and  2.
     Minimum is close to point  2 DX= -2.85D-02 DF= -3.44D-07 DXR=  2.93D-02 DFR=  8.58D-04 which will be used.
     Accept linear search using points  1 and  2.
     Accept linear search using points  1 and  2.
     Accept linear search using points  1 and  2.
     Minimum is close to point  2 DX= -2.87D-02 DF= -1.34D-07 DXR=  3.30D-02 DFR=  8.76D-04 which will be used.
     Minimum is close to point  2 DX=  6.06D-02 DF= -5.09D-07 DXR=  6.31D-02 DFR=  4.00D-03 which will be used.
     Accept linear search using points  1 and  2.
     Accept linear search using points  1 and  2.
     Minimum is close to point  2 DX= -7.28D-02 DF= -4.15D-07 DXR=  8.80D-02 DFR=  6.42D-03 which will be used.
     Minimum is close to point  2 DX=  1.05D-02 DF= -7.24D-09 DXR=  1.16D-02 DFR=  1.34D-04 which will be used.
     Accept linear search using points  1 and  2.
     Minimum is close to point  2 DX= -1.59D-03 DF= -7.67D-10 DXR=  1.60D-03 DFR=  2.55D-06 which will be used.
     Minimum is close to point  2 DX=  4.95D-05 DF=  0.00D+00 DXR=  4.95D-05 DFR=  0.00D+00 which will be used.
 SCF Done:  E(RwB97XD) =  -767.642661029     a.u. after   25 cycles
            Convg  =    0.5705D-08                    85 Fock formations.
              S**2 =  0.0000                  -V/T =  2.0058
   1 Symmetry operations used in ECPInt.
 ECPInt:  NShTT=    3081 NPrTT=   12411 LenC2=    3026 LenP2D=    9076.
 LDataN:  DoStor=T MaxTD1= 5 Len=  102
 Calling FoFJK, ICntrl=      2127 FMM=F ISym2X=0 I1Cent= 0 IOpClX= 0 NMat=1 NMatS=1 NMatT=0.

 GradGradGradGradGradGradGradGradGradGradGradGradGradGradGradGradGradGrad
 Using GEDIIS/GDIIS optimizer.
 FormGI is forming the generalized inverse of G from B-inverse, IUseBI=4.
 Internal  Forces:  Max     0.030675706 RMS     0.010732654
 Step number   4 out of a maximum of   76
 All quantities printed in internal units (Hartrees-Bohrs-Radians)
 Mixed Optimization -- RFO/linear search
 Trust test=-1.82D+00 RLast= 6.61D-01 DXMaxT set to 2.52D-01
 ITU= -1  0  1  0
 Use linear search instead of GDIIS.
     Eigenvalues ---    0.00398   0.00541   0.00551   0.00618   0.00651
     Eigenvalues ---    0.00806   0.01265   0.05220   0.05668   0.05854
     Eigenvalues ---    0.06589   0.07338   0.09000   0.10496   0.13171
     Eigenvalues ---    0.15422   0.16114   0.16906   0.22618   0.23429
     Eigenvalues ---    0.24827   0.25000   0.25001   0.25206   0.26267
     Eigenvalues ---    0.28417   0.29863   0.33922   0.33934   0.34118
     Eigenvalues ---    0.34638   0.40379   0.51938   0.84548   0.85709
     Eigenvalues ---    0.85999   0.86317   0.86984   0.87924
 Quartic linear search produced a step of -0.77785.
 Iteration  1 RMS(Cart)=  0.06381689 RMS(Int)=  0.00614701
 Iteration  2 RMS(Cart)=  0.00607680 RMS(Int)=  0.00235848
 Iteration  3 RMS(Cart)=  0.00003497 RMS(Int)=  0.00235828
 Iteration  4 RMS(Cart)=  0.00000003 RMS(Int)=  0.00235828
 Variable       Old X    -DE/DX   Delta X   Delta X   Delta X     New X
                                 (Linear)    (Quad)   (Total)
    R1        2.60132   0.00942   0.02414   0.00492   0.02906   2.63038
    R2        1.81854   0.00298   0.00365   0.00202   0.00567   1.82421
    R3        2.88279  -0.00260  -0.00696  -0.00870  -0.01566   2.86714
    R4        2.08521   0.00003  -0.00318   0.00102  -0.00216   2.08305
    R5        2.09625  -0.00135  -0.00467  -0.00134  -0.00601   2.09024
    R6        2.91041   0.00195  -0.03513  -0.00133  -0.03645   2.87395
    R7        2.92289  -0.00813  -0.03122  -0.00863  -0.03985   2.88304
    R8        2.93392  -0.00044  -0.03829  -0.00163  -0.03991   2.89400
    R9        2.22702   0.02859   0.02108   0.01504   0.03612   2.26314
   R10        2.24878   0.02731   0.01642   0.01472   0.03114   2.27992
   R11        2.23403   0.02989   0.01807   0.01516   0.03323   2.26727
   R12        2.24816   0.02664   0.01865   0.01299   0.03164   2.27980
   R13        2.23597   0.03022   0.01820   0.01593   0.03414   2.27010
   R14        2.24537   0.03068   0.01814   0.01574   0.03388   2.27925
    A1        1.95085  -0.00285  -0.02713  -0.00865  -0.03578   1.91507
    A2        1.81903   0.00810   0.02426   0.00881   0.03303   1.85206
    A3        2.02276  -0.00485  -0.02081  -0.01289  -0.03349   1.98927
    A4        1.99833  -0.00384  -0.02891   0.00984  -0.01932   1.97901
    A5        1.85402   0.00192   0.02371  -0.00515   0.01877   1.87279
    A6        1.84296   0.00088   0.01642   0.00289   0.01918   1.86215
    A7        1.90934  -0.00060  -0.00637  -0.00253  -0.00872   1.90062
    A8        1.88944  -0.00230   0.00116   0.00809   0.00926   1.89870
    A9        1.96145   0.00115  -0.00974  -0.00898  -0.01872   1.94273
   A10        1.97481  -0.00167   0.00163  -0.00766  -0.00606   1.96875
   A11        1.87552  -0.00047   0.00432  -0.00251   0.00181   1.87733
   A12        1.92129   0.00561   0.00088   0.00541   0.00629   1.92757
   A13        1.83886  -0.00203   0.00196   0.00581   0.00767   1.84653
   A14        2.04961   0.01079  -0.00030   0.00252   0.00346   2.05307
   A15        1.97725  -0.00385   0.01203  -0.00982   0.00346   1.98070
   A16        2.25012  -0.00484  -0.01454   0.00819  -0.00510   2.24502
   A17        2.02204   0.00204   0.00747   0.00191   0.00714   2.02918
   A18        2.01670  -0.00035   0.00884  -0.01108  -0.00447   2.01223
   A19        2.24431  -0.00160  -0.01644   0.01063  -0.00806   2.23626
   A20        2.00474   0.01222   0.01461   0.00521   0.03057   2.03531
   A21        2.01301  -0.00009   0.01006  -0.01704   0.00377   2.01678
   A22        2.22753  -0.00354  -0.00720  -0.00056   0.00300   2.23053
    D1        2.94591   0.00019   0.01398  -0.01885  -0.00500   2.94091
    D2        0.91559  -0.00503  -0.02011  -0.01166  -0.03174   0.88385
    D3       -1.33277   0.00439   0.03387  -0.00509   0.02887  -1.30390
    D4        0.90613   0.00192   0.00547   0.00673   0.01233   0.91846
    D5        2.97476   0.00053   0.00572   0.00349   0.00927   2.98403
    D6       -1.22829  -0.00246   0.00244  -0.00088   0.00172  -1.22657
    D7        3.05094   0.00142   0.00663  -0.00613   0.00051   3.05145
    D8       -1.16361   0.00003   0.00688  -0.00937  -0.00255  -1.16616
    D9        0.91652  -0.00297   0.00360  -0.01374  -0.01010   0.90642
   D10       -1.20546   0.00201   0.01868  -0.01000   0.00858  -1.19688
   D11        0.86317   0.00062   0.01893  -0.01324   0.00552   0.86869
   D12        2.94330  -0.00238   0.01565  -0.01761  -0.00202   2.94127
   D13       -1.83369   0.00906   0.11758  -0.03020   0.08740  -1.74629
   D14        1.41668  -0.00888  -0.07459  -0.03852  -0.11317   1.30351
   D15        2.32705   0.00928   0.12609  -0.02261   0.10351   2.43055
   D16       -0.70577  -0.00866  -0.06608  -0.03093  -0.09707  -0.80284
   D17        0.33312   0.00907   0.12096  -0.03086   0.09018   0.42330
   D18       -2.69969  -0.00887  -0.07120  -0.03918  -0.11039  -2.81009
   D19       -2.88254  -0.00317  -0.04089  -0.01304  -0.05389  -2.93642
   D20        0.24311   0.00211  -0.00925   0.07484   0.06548   0.30859
   D21       -0.80573  -0.00564  -0.04243  -0.00997  -0.05231  -0.85804
   D22        2.31992  -0.00036  -0.01078   0.07791   0.06706   2.38697
   D23        1.24268  -0.00042  -0.03838  -0.00205  -0.04033   1.20235
   D24       -1.91486   0.00486  -0.00673   0.08582   0.07903  -1.83583
   D25        2.70434   0.01674   0.21014  -0.01678   0.19349   2.89783
   D26       -0.16789  -0.01234  -0.13503   0.02612  -0.10903  -0.27692
   D27        0.58778   0.01680   0.20689  -0.02583   0.18121   0.76899
   D28       -2.28444  -0.01228  -0.13829   0.01706  -0.12132  -2.40576
   D29       -1.42938   0.01575   0.20036  -0.02861   0.17183  -1.25755
   D30        1.98158  -0.01333  -0.14482   0.01428  -0.13070   1.85088
         Item               Value     Threshold  Converged?
 Maximum Force            0.030676     0.000015     NO 
 RMS     Force            0.010733     0.000010     NO 
 Maximum Displacement     0.314551     0.000060     NO 
 RMS     Displacement     0.064571     0.000040     NO 
 GradGradGradGradGradGradGradGradGradGradGradGradGradGradGradGradGradGrad

                    Distance matrix (angstroms):
                    1          2          3          4          5
     1  O    0.000000
     2  C    1.391939   0.000000
     3  C    2.326342   1.517225   0.000000
     4  N    2.692953   2.470056   1.520831   0.000000
     5  O    2.957572   3.209344   2.331663   1.197603   0.000000
     6  O    3.329057   2.941012   2.287138   1.206482   2.166544
     7  N    3.688434   2.512367   1.525640   2.457804   3.466201
     8  O    4.619304   3.596486   2.320991   2.747223   3.603005
     9  O    4.008083   2.640193   2.314245   3.441866   4.502655
    10  N    2.956767   2.539324   1.531440   2.507012   2.688250
    11  O    3.943353   3.617726   2.331679   2.783621   2.692479
    12  O    2.972328   2.679597   2.322400   3.490699   3.623986
    13  H    0.965332   1.943290   3.181356   3.631412   3.887216
    14  H    2.097518   1.102304   2.124124   3.413285   4.106196
    15  H    2.093642   1.106108   2.118860   2.735989   3.689093
                    6          7          8          9         10
     6  O    0.000000
     7  N    2.676840   0.000000
     8  O    2.893484   1.199787   0.000000
     9  O    3.503276   1.206418   2.163861   0.000000
    10  N    3.566563   2.438254   2.881861   3.200795   0.000000
    11  O    3.840631   2.917516   2.857820   3.890141   1.201285
    12  O    4.525315   3.210711   3.860208   3.618097   1.206128
    13  H    4.153060   4.430377   5.447748   4.545308   3.745690
    14  H    3.933542   2.776274   3.928346   2.549991   2.686094
    15  H    2.725109   2.628084   3.710544   2.535985   3.456095
                   11         12         13         14         15
    11  O    0.000000
    12  O    2.161926   0.000000
    13  H    4.797286   3.512516   0.000000
    14  H    3.864132   2.409328   2.317224   0.000000
    15  H    4.430373   3.728870   2.453921   1.796756   0.000000
 Framework group  C1[X(C2H3N3O7)]
 Deg. of freedom    39
                         Standard orientation:                         
 ---------------------------------------------------------------------
 Center     Atomic      Atomic             Coordinates (Angstroms)
 Number     Number       Type             X           Y           Z
 ---------------------------------------------------------------------
      1          8           0       -2.088347    0.290224    1.166913
      2          6           0       -0.762674    0.028495    1.500951
      3          6           0        0.001016   -0.015373    0.190675
      4          7           0       -0.290140    1.257640   -0.588807
      5          8           0       -1.099977    1.197038   -1.469002
      6          8           0        0.275001    2.229460   -0.150877
      7          7           0        1.506835   -0.075444    0.428331
      8          8           0        2.203453    0.106145   -0.531480
      9          8           0        1.840512   -0.410432    1.538235
     10          7           0       -0.337501   -1.248113   -0.652574
     11          8           0        0.018479   -1.229709   -1.799755
     12          8           0       -0.902076   -2.139303   -0.067953
     13          1           0       -2.652083    0.152061    1.938261
     14          1           0       -0.610085   -0.941425    2.001997
     15          1           0       -0.298593    0.824659    2.112691
 ---------------------------------------------------------------------
 Rotational constants (GHZ):           1.1157111           1.0353881           0.9454823
   174 basis functions,   312 primitive gaussians,   186 cartesian basis functions
    46 alpha electrons       46 beta electrons
       nuclear repulsion energy       824.0781538873 Hartrees.
 NAtoms=   15 NActive=   15 NUniq=   15 SFac= 1.00D+00 NAtFMM=   60 NAOKFM=F Big=F
 Nuclear repulsion after empirical dispersion term =      824.0699328201 Hartrees.
   1 Symmetry operations used in ECPInt.
 ECPInt:  NShTT=    3081 NPrTT=   12411 LenC2=    3029 LenP2D=    9073.
 LDataN:  DoStor=T MaxTD1= 4 Len=   56
 Lowest energy guess from the checkpoint file:  "45.chk"
 B after Tr=    -0.000000   -0.000000   -0.000000
         Rot=    0.997838   -0.039278   -0.011447    0.051431 Ang=  -7.54 deg.
 B after Tr=     0.000000   -0.000000    0.000000
         Rot=    0.990363    0.066919    0.049449   -0.110717 Ang=  15.92 deg.
     Accept linear search using points  3 and  4.
     Accept linear search using points  2 and  3.
     Accept linear search using points  1 and  2.
     Accept linear search using points  1 and  2.
     Accept linear search using points  1 and  2.
     Minimum is close to point  3 DX=  1.05D-02 DF= -7.51D-08 DXR=  3.39D-02 DFR=  1.15D-03 which will be used.
     Minimum is close to point  3 DX= -6.65D-03 DF= -1.63D-08 DXR=  2.27D-02 DFR=  5.15D-04 which will be used.
     Accept linear search using points  1 and  2.
     Minimum is close to point  2 DX= -2.40D-04 DF= -3.98D-12 DXR=  2.40D-04 DFR=  5.82D-08 which will be used.
 SCF Done:  E(RwB97XD) =  -767.655486969     a.u. after   13 cycles
            Convg  =    0.3051D-09                    63 Fock formations.
              S**2 =  0.0000                  -V/T =  2.0063
   1 Symmetry operations used in ECPInt.
 ECPInt:  NShTT=    3081 NPrTT=   12411 LenC2=    3029 LenP2D=    9073.
 LDataN:  DoStor=T MaxTD1= 5 Len=  102
 Calling FoFJK, ICntrl=      2127 FMM=F ISym2X=0 I1Cent= 0 IOpClX= 0 NMat=1 NMatS=1 NMatT=0.

 GradGradGradGradGradGradGradGradGradGradGradGradGradGradGradGradGradGrad
 Using GEDIIS/GDIIS optimizer.
 FormGI is forming the generalized inverse of G from B-inverse, IUseBI=4.
 Internal  Forces:  Max     0.004282299 RMS     0.001463298
 Step number   5 out of a maximum of   76
 All quantities printed in internal units (Hartrees-Bohrs-Radians)
 Mixed Optimization -- RFO/linear search
 Trust test= 5.10D-01 RLast= 2.62D-01 DXMaxT set to 4.24D-01
 ITU=  1 -1  0  1  0
 Use linear search instead of GDIIS.
     Eigenvalues ---    0.00343   0.00457   0.00605   0.00627   0.00681
     Eigenvalues ---    0.01236   0.01842   0.05253   0.05573   0.05756
     Eigenvalues ---    0.06404   0.07373   0.07924   0.10868   0.13395
     Eigenvalues ---    0.15606   0.16129   0.17315   0.21487   0.22764
     Eigenvalues ---    0.24994   0.25003   0.25102   0.25865   0.26441
     Eigenvalues ---    0.29586   0.31489   0.33917   0.33937   0.34046
     Eigenvalues ---    0.34666   0.40332   0.51917   0.85038   0.85626
     Eigenvalues ---    0.86061   0.86669   0.86930   0.90813
 Quartic linear search produced a step of -0.25219.
 Iteration  1 RMS(Cart)=  0.05684910 RMS(Int)=  0.00620063
 Iteration  2 RMS(Cart)=  0.00574812 RMS(Int)=  0.00294909
 Iteration  3 RMS(Cart)=  0.00005995 RMS(Int)=  0.00294853
 Iteration  4 RMS(Cart)=  0.00000048 RMS(Int)=  0.00294853
 Variable       Old X    -DE/DX   Delta X   Delta X   Delta X     New X
                                 (Linear)    (Quad)   (Total)
    R1        2.63038  -0.00064   0.00050  -0.01167  -0.01117   2.61921
    R2        1.82421   0.00020  -0.00025   0.00106   0.00082   1.82503
    R3        2.86714   0.00067   0.00169  -0.00281  -0.00111   2.86603
    R4        2.08305  -0.00029  -0.00049   0.00356   0.00308   2.08613
    R5        2.09024  -0.00003   0.00000   0.00161   0.00161   2.09185
    R6        2.87395  -0.00022  -0.00220   0.02970   0.02750   2.90146
    R7        2.88304  -0.00066  -0.00007   0.01239   0.01231   2.89536
    R8        2.89400  -0.00001  -0.00235   0.03116   0.02881   2.92281
    R9        2.26314  -0.00333  -0.00227   0.00470   0.00242   2.26556
   R10        2.27992  -0.00144  -0.00253   0.00933   0.00680   2.28672
   R11        2.26727  -0.00124  -0.00252   0.00904   0.00652   2.27379
   R12        2.27980  -0.00111  -0.00193   0.00513   0.00319   2.28299
   R13        2.27010  -0.00428  -0.00271   0.00792   0.00521   2.27531
   R14        2.27925  -0.00296  -0.00266   0.00848   0.00582   2.28507
    A1        1.91507   0.00068   0.00023   0.01532   0.01555   1.93062
    A2        1.85206   0.00038  -0.00046  -0.00086  -0.00136   1.85071
    A3        1.98927  -0.00030   0.00170  -0.00421  -0.00264   1.98663
    A4        1.97901  -0.00075  -0.00450   0.02843   0.02392   2.00292
    A5        1.87279   0.00023   0.00296  -0.02190  -0.01902   1.85377
    A6        1.86215   0.00067   0.00049  -0.00566  -0.00522   1.85692
    A7        1.90062  -0.00007   0.00013   0.00089   0.00087   1.90150
    A8        1.89870  -0.00074  -0.00196   0.00608   0.00413   1.90283
    A9        1.94273   0.00131   0.00156   0.00307   0.00462   1.94735
   A10        1.96875   0.00058   0.00206  -0.00913  -0.00709   1.96166
   A11        1.87733  -0.00014   0.00094  -0.00920  -0.00825   1.86908
   A12        1.92757   0.00023  -0.00130   0.01183   0.01052   1.93810
   A13        1.84653  -0.00126  -0.00130  -0.00284  -0.00411   1.84242
   A14        2.05307   0.00207  -0.00097   0.01576   0.01406   2.06713
   A15        1.98070  -0.00005   0.00303  -0.02231  -0.02001   1.96069
   A16        2.24502  -0.00188  -0.00343   0.01423   0.01007   2.25509
   A17        2.02918   0.00080   0.00062   0.00871  -0.00430   2.02488
   A18        2.01223   0.00265   0.00399  -0.00710  -0.01675   1.99548
   A19        2.23626  -0.00280  -0.00330   0.02668   0.00944   2.24570
   A20        2.03531  -0.00104  -0.00297   0.00789   0.00560   2.04091
   A21        2.01678   0.00148   0.00231  -0.01698  -0.01399   2.00279
   A22        2.23053  -0.00049  -0.00309   0.00924   0.00683   2.23737
    D1        2.94091  -0.00026   0.00579  -0.04343  -0.03766   2.90326
    D2        0.88385  -0.00062   0.00149  -0.01356  -0.01203   0.87182
    D3       -1.30390   0.00038   0.00370  -0.03545  -0.03177  -1.33567
    D4        0.91846  -0.00010  -0.00134  -0.01765  -0.01903   0.89942
    D5        2.98403   0.00005  -0.00048  -0.02331  -0.02381   2.96022
    D6       -1.22657  -0.00026   0.00036  -0.03098  -0.03066  -1.25723
    D7        3.05145  -0.00012   0.00202  -0.03486  -0.03286   3.01860
    D8       -1.16616   0.00002   0.00287  -0.04052  -0.03763  -1.20379
    D9        0.90642  -0.00028   0.00371  -0.04819  -0.04448   0.86195
   D10       -1.19688   0.00024   0.00389  -0.04742  -0.04350  -1.24038
   D11        0.86869   0.00038   0.00475  -0.05307  -0.04828   0.82041
   D12        2.94127   0.00008   0.00558  -0.06074  -0.05512   2.88615
   D13       -1.74629  -0.00042   0.01608  -0.10112  -0.08506  -1.83135
   D14        1.30351   0.00090   0.00436  -0.02015  -0.01581   1.28770
   D15        2.43055  -0.00149   0.01478  -0.10290  -0.08813   2.34242
   D16       -0.80284  -0.00017   0.00306  -0.02193  -0.01887  -0.82171
   D17        0.42330  -0.00004   0.01648  -0.10056  -0.08407   0.33924
   D18       -2.81009   0.00129   0.00475  -0.01960  -0.01481  -2.82490
   D19       -2.93642   0.00358   0.00033   0.20756   0.20702  -2.72941
   D20        0.30859  -0.00233  -0.01951  -0.05813  -0.07677   0.23182
   D21       -0.85804   0.00335  -0.00056   0.21103   0.20957  -0.64847
   D22        2.38697  -0.00256  -0.02041  -0.05466  -0.07421   2.31276
   D23        1.20235   0.00291  -0.00227   0.21877   0.21564   1.41799
   D24       -1.83583  -0.00300  -0.02211  -0.04692  -0.06814  -1.90397
   D25        2.89783   0.00040   0.01934  -0.01069   0.00864   2.90647
   D26       -0.27692  -0.00101  -0.01628  -0.00604  -0.02236  -0.29928
   D27        0.76899   0.00078   0.02138  -0.02076   0.00063   0.76962
   D28       -2.40576  -0.00063  -0.01424  -0.01610  -0.03037  -2.43613
   D29       -1.25755   0.00153   0.02163  -0.01424   0.00743  -1.25013
   D30        1.85088   0.00011  -0.01399  -0.00958  -0.02357   1.82731
         Item               Value     Threshold  Converged?
 Maximum Force            0.004282     0.000015     NO 
[...]
 ! D22   D(4,3,7,9)            165.6261         -DE/DX =    0.0                 !
 ! D23   D(10,3,7,8)           100.2698         -DE/DX =    0.0                 !
 ! D24   D(10,3,7,9)           -78.4068         -DE/DX =    0.0                 !
 ! D25   D(2,3,10,11)         -152.1901         -DE/DX =    0.0                 !
 ! D26   D(2,3,10,12)           28.3623         -DE/DX =    0.0                 !
 ! D27   D(4,3,10,11)           86.887          -DE/DX =    0.0                 !
 ! D28   D(4,3,10,12)          -92.5607         -DE/DX =    0.0                 !
 ! D29   D(7,3,10,11)          -29.6009         -DE/DX =    0.0                 !
 ! D30   D(7,3,10,12)          150.9515         -DE/DX =    0.0                 !
 --------------------------------------------------------------------------------
 GradGradGradGradGradGradGradGradGradGradGradGradGradGradGradGradGradGrad


 ----------------------------------------------------------------------

 Electric dipole moment (input orientation):
 (Debye = 10**-18 statcoulomb cm , SI units = C m)
                  (au)            (Debye)         (10**-30 SI)
   Tot        0.109349D+01      0.277937D+01      0.927100D+01
   x         -0.856789D-01     -0.217774D+00     -0.726416D+00
   y          0.698480D-01      0.177536D+00      0.592196D+00
   z         -0.108789D+01     -0.276514D+01     -0.922350D+01

 Dipole polarizability, Alpha (input orientation).
 (esu units = cm**3 , SI units = C**2 m**2 J**-1)
 Alpha(0;0):
               (au)            (10**-24 esu)      (10**-40 SI)
   iso        0.617699D+02      0.915336D+01      0.101845D+02
   aniso      0.747933D+01      0.110832D+01      0.123317D+01
   xx         0.607312D+02      0.899943D+01      0.100132D+02
   yx         0.228953D+01      0.339273D+00      0.377493D+00
   yy         0.606498D+02      0.898737D+01      0.999980D+01
   zx        -0.520443D+00     -0.771217D-01     -0.858095D-01
   zy        -0.310430D+01     -0.460010D+00     -0.511830D+00
   zz         0.639288D+02      0.947327D+01      0.105404D+02

 ----------------------------------------------------------------------

 Dipole orientation:
     8          4.44317058         -2.57493823          0.16791558
     6          4.21638276         -0.01599287         -0.30328642
     6          5.32335558          0.67984682         -2.89313500
     7          4.37101330         -1.16533235         -4.87334433
     8          5.93117149         -2.35403523         -6.01679968
     8          2.11253737         -1.26152119         -5.05319166
     7          4.60555410          3.33509801         -3.68649687
     8          3.96746010          3.66879715         -5.83320837
     8          4.80671108          4.88269003         -2.02360422
     7          8.19649169          0.59448195         -2.90747694
     8          9.25935500          1.95266583         -4.37388129
     8          9.14797892         -0.86775027         -1.43347638
     1          6.21581560         -2.96843045          0.42171058
     1          5.12862744          1.20883633          1.11973689
     1          2.19015862          0.44767234         -0.37124180

 Electric dipole moment (dipole orientation):
 (Debye = 10**-18 statcoulomb cm , SI units = C m)
                  (au)            (Debye)         (10**-30 SI)
   Tot        0.109349D+01      0.277937D+01      0.927100D+01
   x          0.000000D+00      0.000000D+00      0.000000D+00
   y          0.000000D+00      0.000000D+00      0.000000D+00
   z          0.109349D+01      0.277937D+01      0.927100D+01

 Dipole polarizability, Alpha (dipole orientation).
 (esu units = cm**3 , SI units = C**2 m**2 J**-1)
 Alpha(0;0):
               (au)            (10**-24 esu)      (10**-40 SI)
   iso        0.617699D+02      0.915336D+01      0.101845D+02
   aniso      0.747933D+01      0.110832D+01      0.123317D+01
   xx         0.608448D+02      0.901627D+01      0.100320D+02
   yx        -0.247082D+01     -0.366138D+00     -0.407383D+00
   yy         0.602787D+02      0.893238D+01      0.993861D+01
   zx         0.930870D+00      0.137941D+00      0.153480D+00
   zy        -0.268627D+01     -0.398063D+00     -0.442905D+00
   zz         0.641863D+02      0.951143D+01      0.105829D+02

 ----------------------------------------------------------------------
 1\1\GINC-C792\Freq\RwB97XD\def2SVPP\C2H3N3O7\PETERCHAO1\26-Jun-2023\0\
 \#T Geom=AllCheck Guess=TCheck SCRF=Check GenChk RwB97XD/def2SVPP Freq
 \\Comment gs min\\0,1\O,2.3404449976,1.3713864955,-0.1855912072\C,2.23
 69434283,0.0037919933,-0.0146129587\C,2.9273843581,-0.4497493163,1.279
 4360863\N,2.5095325195,0.4564812831,2.4238069266\O,3.3815810766,1.0476
 496478,3.0012892292\O,1.3256612864,0.4982004901,2.6153849007\N,2.57807
 90332,-1.8797439203,1.6371242144\O,2.3300193383,-2.1293786486,2.782473
 1252\O,2.6131960472,-2.6405434594,0.7010152554\N,4.4438114417,-0.40133
 88367,1.1707434519\O,5.0635217959,-1.1667448105,1.8527774174\O,4.88659
 21822,0.4219456498,0.4047064633\H,3.2656008235,1.5901199007,-0.3794040
 478\H,2.6575680122,-0.5937221106,-0.8430126016\H,1.1702136594,-0.24605
 43579,0.0895037451\\Version=ES64L-G16RevB.01\State=1-A\HF=-767.6651715
 \RMSD=2.559e-11\RMSF=2.371e-06\ZeroPoint=0.0912254\Thermal=0.1018984\D
 ipole=-0.0856789,0.069848,-1.0878885\DipoleDeriv=-0.3174921,-0.054082,
 -0.0932849,-0.0371589,-0.8933215,0.2135739,-0.0466356,0.1759725,-0.607
 3745,0.1411765,-0.0097529,0.1158727,-0.0509253,0.6805393,-0.2105549,0.
 0588317,-0.2353896,0.4232247,0.2502397,-0.0005707,0.0352108,-0.0468005
 ,0.1498567,-0.0115799,0.0725604,0.0417514,0.1578721,1.536657,0.1069061
 ,0.0461452,0.0772637,0.6785325,0.5973507,-0.0217897,0.5602921,0.815791
 4,-0.7416649,-0.1103118,-0.0742314,-0.2337881,-0.4392089,-0.2907054,-0
 .2045714,-0.2996357,-0.4836958,-0.9879213,-0.0651821,-0.026971,0.09760
 09,-0.3355799,-0.1823915,0.1982634,-0.1469074,-0.3933718,0.2436005,0.3
 193583,-0.2440639,0.239185,1.2676953,0.1347542,-0.1995113,0.1117377,1.
 5328331,-0.1966656,-0.1022347,0.1818326,-0.1074923,-0.5262954,0.186453
 6,0.1276627,-0.0084311,-0.8991603,-0.2401123,-0.0899149,0.0386273,-0.0
 366005,-0.7207291,-0.3713193,0.0624817,-0.1105518,-0.8072987,1.1869717
 ,-0.0323403,-0.0862546,-0.1215799,0.9313467,-0.7454863,-0.0342636,-0.7
 548457,0.8213558,-0.6379348,0.2337672,-0.1890953,0.1076635,-0.5541145,
 0.3366521,-0.0492039,0.3269986,-0.4468982,-0.5888678,-0.2062398,0.2008
 495,0.0386107,-0.630444,0.3983193,-0.0055759,0.4224504,-0.5877484,0.26
 89627,-0.006221,0.0574922,0.0293406,0.3681049,-0.0917624,0.0129962,-0.
 0865884,0.4083067,0.0625693,0.0511929,0.0249332,0.0288687,-0.0179864,0
 .0055743,0.0141333,-0.0408026,0.0033009,0.0204813,-0.0343744,0.0129375
 ,0.0158124,0.0416044,0.0311216,0.014622,0.0439494,0.0628631\Polar=60.7
 311812,2.2895308,60.6497658,-0.5204431,-3.1043025,63.9288192\Quadrupol
 e=-0.483824,-2.0629293,2.5467533,1.6508529,0.5248479,-0.5720976\PG=C01
  [X(C2H3N3O7)]\NImag=0\\0.54763640,0.10391037,0.45252286,-0.10286397,-
 0.07061852,0.09041696,-0.10499606,0.00102876,0.01204319,0.63703887,-0.
 03493056,-0.29537226,0.03107019,0.03033877,0.56962446,0.01176954,0.009
 82823,-0.07021106,-0.07857948,0.06092521,0.51176531,0.00539863,0.00611
 034,0.00112208,-0.10201174,0.00768473,-0.03165755,0.43859762,0.0150721
 1,-0.04159506,0.03921850,-0.00065776,-0.06945144,0.00627281,0.00275475
 ,0.43884797,0.00081744,0.02396427,-0.00563583,-0.02758962,-0.00152771,
 -0.13920624,0.02225102,-0.01857543,0.48025536,-0.00387204,0.00091425,0
 .00203878,0.01288499,-0.01506515,-0.00657285,-0.06820496,0.00573092,0.
 00199584,1.13625681,-0.00228160,-0.00671098,-0.00191500,-0.00768811,0.
 02052931,-0.00216502,0.00334286,-0.08978264,0.01329356,0.14651531,0.45
 870294,0.00108911,-0.00680797,0.00401060,0.00281082,-0.01638397,-0.038
 91422,-0.00203950,0.00736524,-0.09681185,0.06913444,0.22448625,0.50831
 598,0.00181560,0.00160416,0.00099612,-0.00074045,-0.00129483,0.0003425
 8,0.00335236,-0.01475423,-0.01386165,-0.39323806,-0.18601675,-0.177838
 02,0.49417678,0.00184436,0.00385154,0.00214918,0.00307085,-0.01014446,
 -0.00071516,-0.02409808,-0.01258015,-0.03972206,-0.19985565,-0.2444206
 1,-0.17314312,0.25011459,0.24018597,0.00012518,0.00237824,0.00045866,0
 .00185924,-0.00406112,-0.00023310,-0.02467646,-0.04017991,-0.01858680,
 -0.19518881,-0.17662029,-0.25241990,0.23355794,0.21637099,0.24823489,0
 .00258529,-0.00141219,-0.00082559,-0.00329446,0.00293633,-0.00342837,-
 0.04707907,0.01686576,0.02731382,-0.65744338,0.02726068,0.10154524,-0.
 10625545,-0.02794301,-0.01538162,0.80596855,-0.00052546,0.00191431,0.0
 0096071,0.00153962,-0.00400039,-0.00099948,0.02548544,0.01126400,-0.01
 533296,0.04204057,-0.10317857,-0.03857351,-0.05325056,0.02537157,0.006
 57300,-0.01791250,0.07520657,0.00013825,0.00117471,-0.00123656,0.00081
 851,-0.00042464,-0.00042385,0.04029868,-0.01490957,-0.00263770,0.11664
 849,-0.03454695,-0.13458982,-0.04575644,0.00228850,0.03505966,-0.11550
 103,0.04925723,0.11074208,-0.00168516,0.00582192,-0.00713790,0.0103502
 4,0.01256102,0.00458435,-0.10244430,0.00336630,-0.00815402,0.00931961,
 0.00509884,-0.01250422,0.00026422,0.00117677,0.00341383,-0.00382489,-0
 .00137802,0.00296060,0.29695860,-0.00120633,0.00588033,-0.00502307,0.0
 0630014,-0.01672362,0.01860236,-0.00553520,-0.08865467,0.00806232,0.00
 710850,-0.03327657,-0.01775421,0.00122205,0.00333908,0.00502236,-0.005
 77383,0.00088605,0.00373010,0.06512683,0.67408715,-0.00329021,-0.00140
 739,-0.00735137,0.01175751,0.02854896,0.00228670,-0.00245709,0.0085920
 7,-0.07634326,-0.02161598,-0.03000244,0.02182886,0.00003333,-0.0040131
 4,-0.01248287,0.00848728,0.00754653,-0.00707288,-0.13632694,0.11539297
 ,1.12432069,0.00057158,-0.00275058,0.00200984,-0.00385455,-0.00136908,
 -0.00278888,0.01846147,-0.01159275,0.02092730,-0.00587315,0.00103166,0
 .00275728,0.00162957,-0.00009864,0.00012344,0.00314031,0.00333886,-0.0
 0195028,-0.10404176,-0.04192613,0.12285112,0.06625743,0.00112830,-0.00
 268083,0.00332594,-0.00500403,-0.00278015,-0.00439882,-0.01164528,-0.0
 1423562,0.04427529,0.00074079,0.00043836,0.00561741,-0.00028111,-0.000
 72590,-0.00055520,0.00035042,-0.00574797,0.00028679,-0.04525408,-0.173
 91720,0.14101550,0.04505571,0.16242775,-0.00064365,0.00365820,-0.00115
 249,0.00234873,0.00080721,0.00213755,0.01549406,0.02935797,-0.03240664
 ,0.00806964,-0.00151271,-0.00863347,-0.00009664,0.00150896,0.00355737,
 -0.00508765,-0.00271877,0.00377335,0.12213102,0.12125699,-0.62546466,-
 0.15820865,-0.13490034,0.76950869,0.00088671,-0.00046549,0.00102332,-0
 .00113644,-0.00079086,-0.00026258,0.02156472,-0.00840577,-0.00430106,-
 0.00127688,-0.00150299,0.00448577,-0.00039847,-0.00038173,-0.00157792,
 0.00102531,0.00047548,-0.00077140,-0.08103162,-0.00724067,0.01336449,0
 .02557827,0.01332639,0.02097350,0.03552008,0.00098949,-0.00102774,0.00
 121551,-0.00160029,-0.00131907,-0.00153204,-0.00297799,-0.05399670,-0.
 04254853,-0.00788588,-0.00405386,0.01112845,-0.00040968,-0.00242102,-0
 .00558357,0.00220738,0.00045940,-0.00165956,-0.00331666,-0.37043998,-0
 .27101592,0.00639391,0.04094479,-0.01846701,0.00271660,0.39672138,0.00
 061529,0.00167606,0.00293942,-0.00231906,0.00172536,-0.00579943,-0.000
 34500,-0.02701090,-0.00226721,0.00196281,0.00136624,0.00037000,-0.0001
 9902,0.00049482,0.00047260,-0.00152030,-0.00109110,0.00167044,0.015985
 52,-0.24806381,-0.41667494,0.01491885,-0.05714430,-0.11124537,-0.03034
 402,0.32707506,0.52706755,-0.00463589,-0.00701883,0.00271241,-0.019319
 16,0.00928496,-0.01311804,-0.08973926,0.00146960,0.00179061,-0.0146276
 6,0.02212385,0.02466740,-0.00662433,-0.00639161,-0.00621568,0.00433649
 ,-0.00435490,-0.00496374,-0.01103717,-0.03436628,0.00888955,-0.0016160
 8,0.00695850,-0.00766586,-0.00198819,0.00877924,0.00325346,0.68085564,
 -0.00856697,-0.00419848,-0.00121740,0.01087177,0.00997663,-0.00638767,
 -0.00312347,-0.09061981,-0.01416794,0.02717295,0.00977137,0.00690107,-
 0.00175967,-0.00548606,-0.00136789,0.00420964,-0.00465336,-0.00777747,
 -0.04562920,0.00374889,0.00066529,0.00364134,-0.00673359,0.00761479,0.
 00590771,-0.00481106,0.00056043,-0.05132016,0.74863160,0.00892960,0.00
 588881,0.00047184,-0.03444716,-0.00989294,0.01068174,-0.00150255,-0.01
 323318,-0.09077470,0.03719823,0.00705353,0.00361937,-0.00308786,-0.000
 90388,-0.00429063,0.00255302,-0.00666662,-0.00634055,0.01472811,0.0026
 0470,0.00483151,-0.00231767,0.00283402,-0.00573395,-0.00213721,0.00098
 507,-0.00101900,0.02565558,-0.45395755,0.66922369,0.00145660,0.0020901
 4,-0.00078539,-0.00857713,-0.00407747,0.00600824,-0.04076191,0.0339241
 0,-0.03272054,-0.00433296,-0.00647464,-0.00778216,0.00299876,0.0020367
 4,0.00253650,-0.00069316,0.00229787,0.00288852,-0.00317950,0.00852744,
 -0.00191815,-0.00181776,-0.00200395,0.00074532,-0.00025723,-0.00290114
 ,-0.00095487,-0.31668092,0.20124058,-0.17539478,0.32352059,0.00262853,
 0.00115929,-0.00023943,0.00205816,-0.00063137,-0.00045183,0.02171619,0
 .00336190,0.01677094,-0.00200008,0.00018010,-0.00001583,0.00064023,-0.
 00045217,-0.00096738,-0.00028469,0.00024973,0.00031583,0.00110808,-0.0
 0767498,0.00148851,-0.00162278,0.00251643,-0.00343759,-0.00292462,0.00
 322183,0.00099544,0.18802000,-0.32014660,0.21703778,-0.23138209,0.3744
 2846,-0.00263111,-0.00230946,0.00005693,0.00033437,0.00234185,-0.00162
 211,-0.01828887,0.01511836,0.01103840,-0.00761136,-0.00487512,-0.00658
 969,0.00503303,-0.00102488,0.00168416,0.00021210,0.00189418,0.00222988
 ,0.00004770,0.00279200,-0.00492606,0.00158335,-0.00105987,0.00371524,0
 .00006912,-0.00070031,0.00083449,-0.16557956,0.22134100,-0.27068272,0.
 20651568,-0.30761315,0.30494525,-0.00600120,0.00392235,-0.00338912,0.0
 0031231,-0.00031318,0.00176466,-0.02625235,-0.03790051,0.03108540,-0.0
 0377946,-0.00575625,-0.00545292,0.00226821,0.00206763,0.00179235,-0.00
 077914,0.00207591,0.00245706,-0.00911813,0.01000546,0.00075646,0.00091
 652,-0.00399590,0.00270494,0.00153881,-0.00304052,-0.00114788,-0.22618
 425,-0.14800550,0.13721503,0.04929929,0.02508962,-0.02261037,0.2285194
 5,0.00946110,0.00360821,0.00173846,-0.00039682,-0.00779795,0.00352006,
 -0.02291499,-0.00085622,0.02235441,-0.00551469,-0.00701801,-0.00584156
 ,0.00368536,0.00286325,-0.00102120,-0.00094618,0.00212509,0.00254804,0
 .00053621,0.00151601,0.00284600,-0.00030393,0.00019287,-0.00187972,-0.
 00036766,0.00010932,-0.00118827,-0.13245259,-0.33200646,0.24095301,-0.
 00424363,-0.05750853,0.07558499,0.15596341,0.39175541,-0.00669806,-0.0
 0256289,0.00216460,0.00043071,0.00416210,-0.00419396,0.01841913,0.0244
 3200,-0.00074478,-0.00345087,-0.00073850,0.00049874,0.00141761,-0.0004
 8297,-0.00063501,0.00090727,0.00026302,0.00028489,0.00204900,-0.004212
 50,-0.00203803,-0.00014223,0.00060098,0.00108346,-0.00024948,0.0006531
 2,0.00140117,0.12735646,0.23942882,-0.29851305,0.00293664,0.07700559,-
 0.04287018,-0.14481684,-0.33495638,0.34057815,-0.44963405,-0.10887558,
 0.09570347,-0.00312668,-0.00141910,0.00176875,0.00124438,0.00163842,-0
 .00037823,0.00153956,0.00018724,0.00083188,-0.00073903,-0.00037134,-0.
 00021356,-0.00112499,0.00007566,-0.00009898,-0.00134088,-0.00009376,0.
 00007769,0.00048887,0.00026135,-0.00056351,0.00003004,0.00017353,-0.00
 032289,0.00550463,0.00579417,-0.00609258,-0.00043194,-0.00308127,0.003
 24530,-0.00966669,-0.00219832,0.00238299,0.45483835,-0.05624726,-0.062
 39423,0.01528180,-0.04730071,-0.01936971,0.01175591,-0.00082355,0.0006
 1690,0.00099911,0.00040533,0.00122751,0.00126050,-0.00014389,-0.000855
 55,-0.00046390,0.00019035,-0.00027335,-0.00058348,-0.00027668,-0.00090
 166,0.00012261,0.00019488,0.00049096,-0.00049681,0.00025405,0.00040673
 ,-0.00015287,-0.00096171,-0.00573563,0.00571925,-0.00027870,0.00220312
 ,-0.00166753,-0.00048129,0.00241286,-0.00399784,0.10540184,0.08779775,
 0.09135069,0.02541137,-0.02931548,0.00320963,0.00166698,-0.00278373,0.
 00326298,0.00074678,0.00099701,0.00338105,0.00109631,-0.00041668,-0.00
 135400,-0.00115292,-0.00025547,-0.00154414,0.00023836,-0.00014931,0.00
 000194,0.00175042,0.00072155,-0.00012697,-0.00063894,0.00002502,-0.000
 05505,-0.00058760,-0.00059483,-0.00037815,0.00429245,-0.00388617,0.000
 65977,-0.00123230,0.00168038,-0.00012213,-0.00332317,-0.00003192,-0.09
 585581,-0.02773488,0.03210710,0.00692591,-0.00111622,-0.00344021,-0.09
 640486,0.05139134,0.08498702,0.00390594,-0.00594123,-0.01879347,-0.004
 27539,0.00367226,-0.00190616,0.00050836,-0.00142706,-0.00035976,0.0015
 7821,-0.00044562,0.00102679,0.00009121,-0.00043388,0.00108579,0.000371
 87,0.00007197,-0.00028013,-0.00042979,0.00028623,-0.00054102,0.0009142
 1,-0.00046286,-0.00034272,0.00027667,-0.00039905,0.00003575,-0.0011515
 1,-0.00051678,-0.00011993,0.00041615,-0.00049502,-0.00183022,0.0942102
 6,0.01015363,-0.03413888,-0.02336551,0.05083536,-0.11511739,-0.0993191
 4,-0.00418579,0.00581341,0.00512303,0.00100796,-0.00259939,0.00194433,
 0.00032969,0.00120682,0.00047806,-0.00010472,0.00073628,0.00037137,-0.
 00023604,0.00138433,-0.00028640,-0.00009329,0.00004224,-0.00067772,-0.
 00024729,-0.00301563,0.00103890,-0.00019654,0.00136914,-0.00048704,0.0
 0019281,-0.00034756,0.00010204,-0.00002503,0.00034375,0.00029367,0.002
 49242,0.00109809,-0.00022375,-0.05807328,0.13817440,-0.00514325,0.0051
 9383,0.01314092,0.07949765,-0.10230325,-0.20869568,0.01128950,-0.01237
 816,-0.02624120,-0.00285640,0.00429854,-0.00187586,-0.00035720,-0.0017
 9131,-0.00085717,0.00014078,-0.00064192,0.00007797,-0.00124096,-0.0033
 0983,-0.00387121,0.00019763,0.00077182,0.00154120,0.00004427,0.0007148
 1,0.00298308,0.00222913,0.00176386,-0.00068452,-0.00004364,-0.00042280
 ,0.00017345,-0.00016930,-0.00073428,0.00165955,-0.00020009,-0.00111081
 ,0.00087518,-0.08293976,0.10973131,0.22066080,0.00354769,-0.00376340,0
 .00079296,-0.31712489,-0.05493690,0.02518260,-0.01603153,-0.00156971,-
 0.00038284,-0.00307702,0.00048764,0.00020103,0.00098194,0.00025619,0.0
 0020532,0.00186039,0.00053766,0.00180498,0.00071952,-0.00171435,-0.001
 69485,-0.00021258,0.00029089,0.00007888,0.00037469,0.00058577,0.000958
 10,0.00084193,0.00002968,-0.00095704,-0.00081939,0.00043378,-0.0003551
 3,0.00007813,0.00020949,-0.00042240,0.00200229,0.00056237,-0.00059959,
 -0.00693723,-0.00184990,-0.00044837,0.33379607,-0.04142971,-0.02081809
 ,0.00741865,-0.04339571,-0.05742258,0.00506458,0.00821002,0.00186813,-
 0.00296830,-0.00131514,0.00019103,-0.00018309,0.00031463,0.00026769,-0
 .00000220,0.00035655,-0.00035938,-0.00007088,0.00129473,0.00074684,0.0
 0050688,0.00010083,-0.00023214,-0.00011345,-0.00035314,-0.00077838,-0.
 00028106,0.00042646,0.00089344,0.00206504,0.00105193,-0.00055964,0.000
 07590,0.00039379,0.00026042,0.00011178,0.00001475,-0.00672379,-0.00030
 913,0.01388920,0.00505040,0.00021818,0.06044079,0.07761605,0.00643514,
 0.00453252,0.00124286,0.02782497,0.00334577,-0.05478793,-0.03117044,-0
 .00481657,-0.00063455,-0.00313301,0.00078159,0.00160793,0.00117022,0.0
 0013698,0.00029359,0.00212919,-0.00070866,-0.00138762,-0.00053804,-0.0
 0085080,0.00223595,0.00016589,-0.00003027,-0.00070530,-0.00026176,0.00
 032251,-0.00013800,0.00136642,0.00230823,-0.00690287,-0.00269115,0.000
 76621,0.00033259,-0.00006735,-0.00060039,0.00135637,-0.00028445,0.0010
 6895,0.00102734,0.02341802,0.00527683,0.00111349,-0.02436365,-0.011532
 90,0.05534614\\0.00000021,0.00000160,-0.00000027,-0.00000118,-0.000006
 34,0.00000303,0.00000063,0.00000561,-0.00000301,-0.00000074,-0.0000026
 1,-0.00000128,0.00000190,0.00000134,-0.00000007,0.00000389,0.00000032,
 0.00000329,-0.00000031,-0.00000314,0.00000318,0.00000416,0.00000061,-0
 .00000011,0.00000121,-0.00000019,0.00000115,-0.00000040,0.00000066,-0.
 00000314,0.00000188,0.00000092,-0.00000199,-0.00000143,0.00000155,-0.0
 0000313,-0.00000519,0.00000003,-0.00000034,-0.00000325,0.00000061,0.00
 000123,-0.00000139,-0.00000098,0.00000143\\\@


 Change starts when someone sees the next step.
                            -- William Drayton
 File lengths (MBytes):  RWF=     66 Int=      0 D2E=      0 Chk=      3 Scr=      1
 Normal termination of Gaussian 16 at Mon Jun 26 18:03:54 2023.
real 2295.78
user 8254.45
sys 39.51
