 Entering Gaussian System, Link 0=g16
 Input=gaussian_test.inp
 Output=gaussian_test.log
 Initial command:
 /sw/restricted/lms/sw/Gaussian/g16_B01/g16/l1.exe "/scratch/user/peterchao1/peterchao1/6269694_1663082653000000866677118/Gau-250148.inp" -scrdir="/scratch/user/peterchao1/peterchao1/6269694_1663082653000000866677118/"
 Entering Link 1 = /sw/restricted/lms/sw/Gaussian/g16_B01/g16/l1.exe PID=    250149.
  
 Copyright (c) 1988-2017, Gaussian, Inc.  All Rights Reserved.
  
 This is part of the Gaussian(R) 16 program.  It is based on
 the Gaussian(R) 09 system (copyright 2009, Gaussian, Inc.),
 the Gaussian(R) 03 system (copyright 2003, Gaussian, Inc.),
 the Gaussian(R) 98 system (copyright 1998, Gaussian, Inc.),
 the Gaussian(R) 94 system (copyright 1995, Gaussian, Inc.),
 the Gaussian 92(TM) system (copyright 1992, Gaussian, Inc.),
 the Gaussian 90(TM) system (copyright 1990, Gaussian, Inc.),
 the Gaussian 88(TM) system (copyright 1988, Gaussian, Inc.),
 the Gaussian 86(TM) system (copyright 1986, Carnegie Mellon
 University), and the Gaussian 82(TM) system (copyright 1983,
 Carnegie Mellon University). Gaussian is a federally registered
 trademark of Gaussian, Inc.
  
 This software contains proprietary and confidential information,
 including trade secrets, belonging to Gaussian, Inc.
  
 This software is provided under written license and may be
 used, copied, transmitted, or stored only in accord with that
 written license.
  
 The following legend is applicable only to US Government
 contracts under FAR:
  
                    RESTRICTED RIGHTS LEGEND
  
 Use, reproduction and disclosure by the US Government is
 subject to restrictions as set forth in subparagraphs (a)
 and (c) of the Commercial Computer Software - Restricted
 Rights clause in FAR 52.227-19.
  
 Gaussian, Inc.
 340 Quinnipiac St., Bldg. 40, Wallingford CT 06492
  
  
 ---------------------------------------------------------------
 Warning -- This program may not be used in any manner that
 competes with the business of Gaussian, Inc. or will provide
 assistance to any competitor of Gaussian, Inc.  The licensee
 of this program is prohibited from giving any competitor of
 Gaussian, Inc. access to this program.  By using this program,
 the user acknowledges that Gaussian, Inc. is engaged in the
 business of creating and licensing software in the field of
 computational chemistry and represents and warrants to the
 licensee that it is not a competitor of Gaussian, Inc. and that
 it will not use this program in any manner prohibited above.
 ---------------------------------------------------------------
  

 Cite this work as:
 Gaussian 16, Revision B.01,
 M. J. Frisch, G. W. Trucks, H. B. Schlegel, G. E. Scuseria, 
 M. A. Robb, J. R. Cheeseman, G. Scalmani, V. Barone, 
 G. A. Petersson, H. Nakatsuji, X. Li, M. Caricato, A. V. Marenich, 
 J. Bloino, B. G. Janesko, R. Gomperts, B. Mennucci, H. P. Hratchian, 
 J. V. Ortiz, A. F. Izmaylov, J. L. Sonnenberg, D. Williams-Young, 
 F. Ding, F. Lipparini, F. Egidi, J. Goings, B. Peng, A. Petrone, 
 T. Henderson, D. Ranasinghe, V. G. Zakrzewski, J. Gao, N. Rega, 
 G. Zheng, W. Liang, M. Hada, M. Ehara, K. Toyota, R. Fukuda, 
 J. Hasegawa, M. Ishida, T. Nakajima, Y. Honda, O. Kitao, H. Nakai, 
 T. Vreven, K. Throssell, J. A. Montgomery, Jr., J. E. Peralta, 
 F. Ogliaro, M. J. Bearpark, J. J. Heyd, E. N. Brothers, K. N. Kudin, 
 V. N. Staroverov, T. A. Keith, R. Kobayashi, J. Normand, 
 K. Raghavachari, A. P. Rendell, J. C. Burant, S. S. Iyengar, 
 J. Tomasi, M. Cossi, J. M. Millam, M. Klene, C. Adamo, R. Cammi, 
 J. W. Ochterski, R. L. Martin, K. Morokuma, O. Farkas, 
 J. B. Foresman, and D. J. Fox, Gaussian, Inc., Wallingford CT, 2016.
 
 ******************************************
 Gaussian 16:  ES64L-G16RevB.01 20-Dec-2017
                13-Sep-2022 
 ******************************************
 %nprocshared=4
 Will use up to    4 processors via shared memory.
 %mem=8000mb
 ----------------------------------------------------------------------
 #T wB97XD/def2svpp opt(tight,calcall) int(grid=ultrafine) scf=(verytig
 ht,qc)
 ----------------------------------------------------------------------
 -----
 dimer
 -----
 Symbolic Z-matrix:
 Charge =  0 Multiplicity = 1
 F                    -1.19505   0.25749   1.75426 
 C                    -1.92285  -0.67966   1.06169 
 C                    -2.79611   0.00003  -0.00071 
 C                    -1.9228    0.67707  -1.06472 
 F                    -1.19794  -0.26228  -1.75757 
 C                    -3.67809  -1.06046  -0.67365 
 F                    -4.41237  -1.73612   0.26716 
 C                    -3.67343   1.06336   0.67383 
 F                    -4.40761   1.74104  -0.26564 
 H                    -2.53801  -1.20924   1.79414 
 H                    -1.20609  -1.36487   0.60127 
 H                    -1.20393   1.36091  -0.6056 
 H                    -2.53771   1.20746  -1.79677 
 H                    -3.06967  -1.80167  -1.19948 
 H                    -4.38869  -0.59137  -1.36081 
 H                    -3.06161   1.80281   1.19816 
 H                    -4.38402   0.59663   1.3626 
 F                     4.41921   0.27204   1.72958 
 C                     3.68271  -0.67062   1.05885 
 C                     2.79591  -0.00033   0.0007 
 C                     3.66839   0.67339  -1.06712 
 F                     4.40105  -0.26648  -1.74592 
 C                     1.92111  -1.06633  -0.67128 
 F                     1.20028  -1.75825   0.27179 
 C                     1.92424   1.06226   0.68214 
 F                     1.19315   1.75359  -0.25342 
 H                     3.07769  -1.19531   1.80362 
 H                     4.39181  -1.35824   0.5882 
 H                     4.37996   1.3638   -0.60434 
 H                     3.05318   1.19568  -1.80521 
 H                     2.53477  -1.79872  -1.20267 
 H                     1.19944  -0.60907  -1.35342 
 H                     2.54063   1.79555   1.20911 
 H                     1.20978   0.60198   1.36984 
 
 Add virtual bond connecting atoms F24        and H11        Dist= 4.65D+00.
 Add virtual bond connecting atoms F26        and H12        Dist= 4.64D+00.
 Add virtual bond connecting atoms H32        and F5         Dist= 4.64D+00.
 Add virtual bond connecting atoms H34        and F1         Dist= 4.65D+00.

 GradGradGradGradGradGradGradGradGradGradGradGradGradGradGradGradGradGrad
 Initialization pass.
                           ----------------------------
                           !    Initial Parameters    !
                           ! (Angstroms and Degrees)  !
 --------------------------                            --------------------------
 ! Name  Definition              Value          Derivative Info.                !
 --------------------------------------------------------------------------------
 ! R1    R(1,2)                  1.3739         calculate D2E/DX2 analytically  !
 ! R2    R(1,34)                 2.4596         calculate D2E/DX2 analytically  !
 ! R3    R(2,3)                  1.534          calculate D2E/DX2 analytically  !
 ! R4    R(2,10)                 1.0933         calculate D2E/DX2 analytically  !
 ! R5    R(2,11)                 1.0933         calculate D2E/DX2 analytically  !
 ! R6    R(3,4)                  1.534          calculate D2E/DX2 analytically  !
 ! R7    R(3,6)                  1.5347         calculate D2E/DX2 analytically  !
 ! R8    R(3,8)                  1.5347         calculate D2E/DX2 analytically  !
 ! R9    R(4,5)                  1.374          calculate D2E/DX2 analytically  !
 ! R10   R(4,12)                 1.0933         calculate D2E/DX2 analytically  !
 ! R11   R(4,13)                 1.0933         calculate D2E/DX2 analytically  !
 ! R12   R(5,32)                 2.4558         calculate D2E/DX2 analytically  !
 ! R13   R(6,7)                  1.3714         calculate D2E/DX2 analytically  !
 ! R14   R(6,14)                 1.0936         calculate D2E/DX2 analytically  !
 ! R15   R(6,15)                 1.0942         calculate D2E/DX2 analytically  !
 ! R16   R(8,9)                  1.3714         calculate D2E/DX2 analytically  !
 ! R17   R(8,16)                 1.0936         calculate D2E/DX2 analytically  !
 ! R18   R(8,17)                 1.0942         calculate D2E/DX2 analytically  !
 ! R19   R(11,24)                2.4605         calculate D2E/DX2 analytically  !
 ! R20   R(12,26)                2.4544         calculate D2E/DX2 analytically  !
 ! R21   R(18,19)                1.3715         calculate D2E/DX2 analytically  !
 ! R22   R(19,20)                1.5347         calculate D2E/DX2 analytically  !
 ! R23   R(19,27)                1.0936         calculate D2E/DX2 analytically  !
 ! R24   R(19,28)                1.0942         calculate D2E/DX2 analytically  !
 ! R25   R(20,21)                1.5347         calculate D2E/DX2 analytically  !
 ! R26   R(20,23)                1.534          calculate D2E/DX2 analytically  !
 ! R27   R(20,25)                1.534          calculate D2E/DX2 analytically  !
 ! R28   R(21,22)                1.3715         calculate D2E/DX2 analytically  !
 ! R29   R(21,29)                1.0941         calculate D2E/DX2 analytically  !
 ! R30   R(21,30)                1.0936         calculate D2E/DX2 analytically  !
 ! R31   R(23,24)                1.3739         calculate D2E/DX2 analytically  !
 ! R32   R(23,31)                1.0933         calculate D2E/DX2 analytically  !
 ! R33   R(23,32)                1.0933         calculate D2E/DX2 analytically  !
 ! R34   R(25,26)                1.3739         calculate D2E/DX2 analytically  !
 ! R35   R(25,33)                1.0933         calculate D2E/DX2 analytically  !
 ! R36   R(25,34)                1.0933         calculate D2E/DX2 analytically  !
 ! A1    A(2,1,34)             122.3232         calculate D2E/DX2 analytically  !
 ! A2    A(1,2,3)              110.3919         calculate D2E/DX2 analytically  !
 ! A3    A(1,2,10)             106.9031         calculate D2E/DX2 analytically  !
 ! A4    A(1,2,11)             107.0079         calculate D2E/DX2 analytically  !
 ! A5    A(3,2,10)             110.9949         calculate D2E/DX2 analytically  !
 ! A6    A(3,2,11)             111.0537         calculate D2E/DX2 analytically  !
 ! A7    A(10,2,11)            110.3302         calculate D2E/DX2 analytically  !
 ! A8    A(2,3,4)              110.5998         calculate D2E/DX2 analytically  !
 ! A9    A(2,3,6)              108.9441         calculate D2E/DX2 analytically  !
 ! A10   A(2,3,8)              109.1475         calculate D2E/DX2 analytically  !
 ! A11   A(4,3,6)              109.148          calculate D2E/DX2 analytically  !
 ! A12   A(4,3,8)              108.9361         calculate D2E/DX2 analytically  !
 ! A13   A(6,3,8)              110.0574         calculate D2E/DX2 analytically  !
 ! A14   A(3,4,5)              110.3874         calculate D2E/DX2 analytically  !
 ! A15   A(3,4,12)             111.0467         calculate D2E/DX2 analytically  !
 ! A16   A(3,4,13)             110.9985         calculate D2E/DX2 analytically  !
 ! A17   A(5,4,12)             107.0083         calculate D2E/DX2 analytically  !
 ! A18   A(5,4,13)             106.9024         calculate D2E/DX2 analytically  !
 ! A19   A(12,4,13)            110.3385         calculate D2E/DX2 analytically  !
 ! A20   A(4,5,32)             121.9083         calculate D2E/DX2 analytically  !
 ! A21   A(3,6,7)              110.3239         calculate D2E/DX2 analytically  !
 ! A22   A(3,6,14)             111.0652         calculate D2E/DX2 analytically  !
 ! A23   A(3,6,15)             110.6309         calculate D2E/DX2 analytically  !
 ! A24   A(7,6,14)             107.0856         calculate D2E/DX2 analytically  !
 ! A25   A(7,6,15)             107.1173         calculate D2E/DX2 analytically  !
 ! A26   A(14,6,15)            110.4819         calculate D2E/DX2 analytically  !
 ! A27   A(3,8,9)              110.3219         calculate D2E/DX2 analytically  !
 ! A28   A(3,8,16)             111.0627         calculate D2E/DX2 analytically  !
 ! A29   A(3,8,17)             110.6332         calculate D2E/DX2 analytically  !
 ! A30   A(9,8,16)             107.0856         calculate D2E/DX2 analytically  !
 ! A31   A(9,8,17)             107.1178         calculate D2E/DX2 analytically  !
 ! A32   A(16,8,17)            110.4836         calculate D2E/DX2 analytically  !
 ! A33   A(2,11,24)            142.9198         calculate D2E/DX2 analytically  !
 ! A34   A(4,12,26)            143.3717         calculate D2E/DX2 analytically  !
 ! A35   A(18,19,20)           110.3227         calculate D2E/DX2 analytically  !
 ! A36   A(18,19,27)           107.0853         calculate D2E/DX2 analytically  !
 ! A37   A(18,19,28)           107.1155         calculate D2E/DX2 analytically  !
 ! A38   A(20,19,27)           111.0635         calculate D2E/DX2 analytically  !
 ! A39   A(20,19,28)           110.6332         calculate D2E/DX2 analytically  !
 ! A40   A(27,19,28)           110.4844         calculate D2E/DX2 analytically  !
 ! A41   A(19,20,21)           110.0568         calculate D2E/DX2 analytically  !
 ! A42   A(19,20,23)           109.1499         calculate D2E/DX2 analytically  !
 ! A43   A(19,20,25)           108.9404         calculate D2E/DX2 analytically  !
 ! A44   A(21,20,23)           108.9331         calculate D2E/DX2 analytically  !
 ! A45   A(21,20,25)           109.1491         calculate D2E/DX2 analytically  !
 ! A46   A(23,20,25)           110.6037         calculate D2E/DX2 analytically  !
 ! A47   A(20,21,22)           110.3182         calculate D2E/DX2 analytically  !
 ! A48   A(20,21,29)           110.6364         calculate D2E/DX2 analytically  !
 ! A49   A(20,21,30)           111.065          calculate D2E/DX2 analytically  !
 ! A50   A(22,21,29)           107.1178         calculate D2E/DX2 analytically  !
 ! A51   A(22,21,30)           107.0833         calculate D2E/DX2 analytically  !
 ! A52   A(29,21,30)           110.4837         calculate D2E/DX2 analytically  !
 ! A53   A(20,23,24)           110.3936         calculate D2E/DX2 analytically  !
 ! A54   A(20,23,31)           110.9981         calculate D2E/DX2 analytically  !
 ! A55   A(20,23,32)           111.0455         calculate D2E/DX2 analytically  !
 ! A56   A(24,23,31)           106.9023         calculate D2E/DX2 analytically  !
 ! A57   A(24,23,32)           107.013          calculate D2E/DX2 analytically  !
 ! A58   A(31,23,32)           110.3295         calculate D2E/DX2 analytically  !
 ! A59   A(11,24,23)           121.6352         calculate D2E/DX2 analytically  !
 ! A60   A(20,25,26)           110.3906         calculate D2E/DX2 analytically  !
 ! A61   A(20,25,33)           110.9981         calculate D2E/DX2 analytically  !
 ! A62   A(20,25,34)           111.0473         calculate D2E/DX2 analytically  !
 ! A63   A(26,25,33)           106.901          calculate D2E/DX2 analytically  !
 ! A64   A(26,25,34)           107.0032         calculate D2E/DX2 analytically  !
 ! A65   A(33,25,34)           110.3413         calculate D2E/DX2 analytically  !
 ! A66   A(12,26,25)           122.472          calculate D2E/DX2 analytically  !
 ! A67   A(5,32,23)            143.721          calculate D2E/DX2 analytically  !
 ! A68   A(1,34,25)            142.7719         calculate D2E/DX2 analytically  !
 ! D1    D(34,1,2,3)          -104.6233         calculate D2E/DX2 analytically  !
 ! D2    D(34,1,2,10)          134.5487         calculate D2E/DX2 analytically  !
 ! D3    D(34,1,2,11)           16.3406         calculate D2E/DX2 analytically  !
 ! D4    D(2,1,34,25)           77.6362         calculate D2E/DX2 analytically  !
 ! D5    D(1,2,3,4)             64.6551         calculate D2E/DX2 analytically  !
 ! D6    D(1,2,3,6)           -175.3783         calculate D2E/DX2 analytically  !
 ! D7    D(1,2,3,8)            -55.1788         calculate D2E/DX2 analytically  !
 ! D8    D(10,2,3,4)          -176.9915         calculate D2E/DX2 analytically  !
 ! D9    D(10,2,3,6)           -57.0249         calculate D2E/DX2 analytically  !
 ! D10   D(10,2,3,8)            63.1745         calculate D2E/DX2 analytically  !
 ! D11   D(11,2,3,4)           -53.8657         calculate D2E/DX2 analytically  !
 ! D12   D(11,2,3,6)            66.1009         calculate D2E/DX2 analytically  !
 ! D13   D(11,2,3,8)          -173.6996         calculate D2E/DX2 analytically  !
 ! D14   D(1,2,11,24)           -4.3646         calculate D2E/DX2 analytically  !
 ! D15   D(3,2,11,24)          116.1784         calculate D2E/DX2 analytically  !
 ! D16   D(10,2,11,24)        -120.3143         calculate D2E/DX2 analytically  !
 ! D17   D(2,3,4,5)             64.5845         calculate D2E/DX2 analytically  !
 ! D18   D(2,3,4,12)           -53.9295         calculate D2E/DX2 analytically  !
 ! D19   D(2,3,4,13)          -177.0635         calculate D2E/DX2 analytically  !
 ! D20   D(6,3,4,5)            -55.2597         calculate D2E/DX2 analytically  !
 ! D21   D(6,3,4,12)          -173.7736         calculate D2E/DX2 analytically  !
 ! D22   D(6,3,4,13)            63.0923         calculate D2E/DX2 analytically  !
 ! D23   D(8,3,4,5)           -175.4546         calculate D2E/DX2 analytically  !
 ! D24   D(8,3,4,12)            66.0314         calculate D2E/DX2 analytically  !
 ! D25   D(8,3,4,13)           -57.1026         calculate D2E/DX2 analytically  !
 ! D26   D(2,3,6,7)             55.5796         calculate D2E/DX2 analytically  !
 ! D27   D(2,3,6,14)           -63.0015         calculate D2E/DX2 analytically  !
 ! D28   D(2,3,6,15)           173.9275         calculate D2E/DX2 analytically  !
 ! D29   D(4,3,6,7)            176.4402         calculate D2E/DX2 analytically  !
 ! D30   D(4,3,6,14)            57.8591         calculate D2E/DX2 analytically  !
 ! D31   D(4,3,6,15)           -65.2119         calculate D2E/DX2 analytically  !
 ! D32   D(8,3,6,7)            -64.0567         calculate D2E/DX2 analytically  !
 ! D33   D(8,3,6,14)           177.3622         calculate D2E/DX2 analytically  !
 ! D34   D(8,3,6,15)            54.2912         calculate D2E/DX2 analytically  !
 ! D35   D(2,3,8,9)            176.4526         calculate D2E/DX2 analytically  !
 ! D36   D(2,3,8,16)            57.8742         calculate D2E/DX2 analytically  !
 ! D37   D(2,3,8,17)           -65.1988         calculate D2E/DX2 analytically  !
 ! D38   D(4,3,8,9)             55.5972         calculate D2E/DX2 analytically  !
 ! D39   D(4,3,8,16)           -62.9812         calculate D2E/DX2 analytically  !
 ! D40   D(4,3,8,17)           173.9458         calculate D2E/DX2 analytically  !
 ! D41   D(6,3,8,9)            -64.0348         calculate D2E/DX2 analytically  !
 ! D42   D(6,3,8,16)           177.3868         calculate D2E/DX2 analytically  !
 ! D43   D(6,3,8,17)            54.3138         calculate D2E/DX2 analytically  !
 ! D44   D(3,4,5,32)          -104.1969         calculate D2E/DX2 analytically  !
 ! D45   D(12,4,5,32)           16.7561         calculate D2E/DX2 analytically  !
 ! D46   D(13,4,5,32)          134.9738         calculate D2E/DX2 analytically  !
 ! D47   D(3,4,12,26)          115.4042         calculate D2E/DX2 analytically  !
 ! D48   D(5,4,12,26)           -5.1296         calculate D2E/DX2 analytically  !
 ! D49   D(13,4,12,26)        -121.083          calculate D2E/DX2 analytically  !
 ! D50   D(4,5,32,23)           77.7548         calculate D2E/DX2 analytically  !
 ! D51   D(2,11,24,23)         -78.6475         calculate D2E/DX2 analytically  !
 ! D52   D(4,12,26,25)         -77.406          calculate D2E/DX2 analytically  !
 ! D53   D(18,19,20,21)         64.0218         calculate D2E/DX2 analytically  !
 ! D54   D(18,19,20,23)       -176.478          calculate D2E/DX2 analytically  !
 ! D55   D(18,19,20,25)        -55.6138         calculate D2E/DX2 analytically  !
 ! D56   D(27,19,20,21)       -177.3992         calculate D2E/DX2 analytically  !
 ! D57   D(27,19,20,23)        -57.899          calculate D2E/DX2 analytically  !
 ! D58   D(27,19,20,25)         62.9652         calculate D2E/DX2 analytically  !
 ! D59   D(28,19,20,21)        -54.3245         calculate D2E/DX2 analytically  !
 ! D60   D(28,19,20,23)         65.1756         calculate D2E/DX2 analytically  !
 ! D61   D(28,19,20,25)       -173.9602         calculate D2E/DX2 analytically  !
 ! D62   D(19,20,21,22)         64.0245         calculate D2E/DX2 analytically  !
 ! D63   D(19,20,21,29)        -54.3238         calculate D2E/DX2 analytically  !
 ! D64   D(19,20,21,30)       -177.4009         calculate D2E/DX2 analytically  !
 ! D65   D(23,20,21,22)        -55.6076         calculate D2E/DX2 analytically  !
 ! D66   D(23,20,21,29)       -173.9559         calculate D2E/DX2 analytically  !
 ! D67   D(23,20,21,30)         62.9671         calculate D2E/DX2 analytically  !
 ! D68   D(25,20,21,22)       -176.4668         calculate D2E/DX2 analytically  !
 ! D69   D(25,20,21,29)         65.1849         calculate D2E/DX2 analytically  !
 ! D70   D(25,20,21,30)        -57.8922         calculate D2E/DX2 analytically  !
 ! D71   D(19,20,23,24)         55.2781         calculate D2E/DX2 analytically  !
 ! D72   D(19,20,23,31)        -63.0775         calculate D2E/DX2 analytically  !
 ! D73   D(19,20,23,32)        173.8011         calculate D2E/DX2 analytically  !
 ! D74   D(21,20,23,24)        175.4716         calculate D2E/DX2 analytically  !
 ! D75   D(21,20,23,31)         57.1161         calculate D2E/DX2 analytically  !
 ! D76   D(21,20,23,32)        -66.0054         calculate D2E/DX2 analytically  !
 ! D77   D(25,20,23,24)        -64.5652         calculate D2E/DX2 analytically  !
 ! D78   D(25,20,23,31)        177.0793         calculate D2E/DX2 analytically  !
 ! D79   D(25,20,23,32)         53.9579         calculate D2E/DX2 analytically  !
 ! D80   D(19,20,25,26)        175.311          calculate D2E/DX2 analytically  !
 ! D81   D(19,20,25,33)         56.959          calculate D2E/DX2 analytically  !
 ! D82   D(19,20,25,34)        -66.1789         calculate D2E/DX2 analytically  !
 ! D83   D(21,20,25,26)         55.1135         calculate D2E/DX2 analytically  !
 ! D84   D(21,20,25,33)        -63.2385         calculate D2E/DX2 analytically  !
 ! D85   D(21,20,25,34)        173.6237         calculate D2E/DX2 analytically  !
 ! D86   D(23,20,25,26)        -64.7201         calculate D2E/DX2 analytically  !
 ! D87   D(23,20,25,33)        176.9279         calculate D2E/DX2 analytically  !
 ! D88   D(23,20,25,34)         53.79           calculate D2E/DX2 analytically  !
 ! D89   D(20,23,24,11)        104.8993         calculate D2E/DX2 analytically  !
 ! D90   D(31,23,24,11)       -134.2684         calculate D2E/DX2 analytically  !
 ! D91   D(32,23,24,11)        -16.0588         calculate D2E/DX2 analytically  !
 ! D92   D(20,23,32,5)        -115.8935         calculate D2E/DX2 analytically  !
 ! D93   D(24,23,32,5)           4.6502         calculate D2E/DX2 analytically  !
 ! D94   D(31,23,32,5)         120.6015         calculate D2E/DX2 analytically  !
 ! D95   D(20,25,26,12)        104.1502         calculate D2E/DX2 analytically  !
 ! D96   D(33,25,26,12)       -135.02           calculate D2E/DX2 analytically  !
 ! D97   D(34,25,26,12)        -16.8023         calculate D2E/DX2 analytically  !
 ! D98   D(20,25,34,1)        -115.3807         calculate D2E/DX2 analytically  !
 ! D99   D(26,25,34,1)           5.1541         calculate D2E/DX2 analytically  !
 ! D100  D(33,25,34,1)         121.1046         calculate D2E/DX2 analytically  !
 --------------------------------------------------------------------------------
 Number of steps in this run=    204 maximum allowed number of steps=    204.
 GradGradGradGradGradGradGradGradGradGradGradGradGradGradGradGradGradGrad

                    Distance matrix (angstroms):
                    1          2          3          4          5
     1  F    0.000000
     2  C    1.373897   0.000000
     3  C    2.389480   1.534039   0.000000
     4  C    2.941481   2.522372   1.534005   0.000000
     5  F    3.550083   2.940739   2.389457   1.373984   0.000000
     6  C    3.714465   2.497460   1.534726   2.500601   2.821901
     7  F    4.066586   2.818707   2.387110   3.714216   4.074843
     8  C    2.821194   2.500617   1.534721   2.497303   3.714445
     9  F    4.074488   3.714244   2.387092   2.818661   4.067077
    10  H    1.989076   1.093319   2.179553   3.479903   3.912434
    11  H    1.990361   1.093270   2.180253   2.731064   2.603824
    12  H    2.605102   2.731420   2.180122   1.093253   1.990427
    13  H    3.913436   3.479956   2.179560   1.093309   1.989134
    14  H    4.059423   2.772545   2.181285   2.734524   2.486879
    15  H    4.541316   3.457843   2.176216   2.788766   3.232120
    16  H    2.486231   2.734610   2.181244   2.772158   4.058849
    17  H    3.230783   2.788692   2.176234   3.457741   4.541396
    18  F    5.614327   6.447753   7.424874   6.942133   6.633103
    19  C    5.013730   5.605571   6.599060   6.143902   5.649752
    20  C    4.366824   4.884045   5.592022   4.884691   4.371610
    21  C    5.637919   6.133885   6.586380   5.591189   5.003334
    22  F    6.621334   6.931460   7.410528   6.430038   5.599005
    23  C    4.164871   4.234237   4.882520   4.239092   3.399269
    24  F    3.463879   3.397237   4.374578   4.179789   3.479609
    25  C    3.395151   4.240103   4.886344   4.242596   4.177871
    26  F    3.460137   4.166495   4.364978   3.395033   3.470377
    27  H    4.513236   5.081509   6.259870   6.061189   5.642125
    28  H    5.931550   6.368648   7.338803   6.837323   6.160287
    29  H    6.153668   6.832046   7.329411   6.356754   5.923431
    30  H    5.621160   6.041270   6.236990   5.057438   4.494438
    31  H    5.184876   5.123478   5.753131   5.100830   4.074516
    32  H    4.017729   3.947972   4.262075   3.389083   2.455819
    33  H    4.076527   5.105980   5.759197   5.132591   5.197378
    34  H    2.459601   3.398668   4.276440   3.968097   4.040393
                    6          7          8          9         10
     6  C    0.000000
     7  F    1.371431   0.000000
     8  C    2.515226   2.923783   0.000000
     9  F    2.923539   3.517747   1.371450   0.000000
    10  H    2.722484   2.474370   2.776504   4.054902   0.000000
    11  H    2.798012   3.244949   3.462559   4.543995   1.794755
    12  H    3.462537   4.543947   2.797133   3.244018   3.760877
    13  H    2.775852   4.054490   2.722963   2.474995   4.328403
    14  H    1.093643   1.989520   3.475948   3.900372   3.097643
    15  H    1.094160   1.990309   2.718361   2.576794   3.709514
    16  H    3.475933   3.900692   1.093637   1.989533   3.114775
    17  H    2.718567   2.577305   1.094152   1.990325   2.618232
    18  F    8.550868   9.174323   8.199488   9.167963   7.113451
    19  C    7.571986   8.203200   7.567545   8.545385   6.287139
    20  C    6.594796   7.419120   6.590669   7.415792   5.755740
    21  C    7.558560   8.537259   7.555483   8.185595   7.088754
    22  F    8.188573   9.159085   8.533519   9.154990   7.846740
    23  C    5.599209   6.437574   6.135458   6.935315   5.097298
    24  F    5.017893   5.612696   5.645895   6.631908   4.073537
    25  C    6.142497   6.939442   5.597680   6.438272   5.129124
    26  F    5.641319   6.623518   5.001982   5.600785   5.185785
    27  H    7.196917   7.665129   7.208022   8.302625   5.615720
    28  H    8.173392   8.818141   8.421383   9.368268   7.035547
    29  H    8.415109   9.363450   8.159728   8.802183   7.760897
    30  H    7.188927   8.284006   7.170113   7.637481   7.071092
    31  H    6.278896   7.101208   7.089043   7.848855   5.921269
    32  H    4.945321   5.948870   5.536396   6.176187   4.922994
    33  H    7.097470   7.855202   6.279902   7.103228   5.929885
    34  H    5.552557   6.187993   4.954094   5.960478   4.184073
                   11         12         13         14         15
    11  H    0.000000
    12  H    2.981009   0.000000
    13  H    3.760410   1.794824   0.000000
    14  H    2.628009   3.719623   3.113618   0.000000
    15  H    3.817982   3.811092   2.617629   1.797405   0.000000
    16  H    3.719336   2.626758   3.098153   4.329096   3.747211
    17  H    3.811338   3.817189   3.709933   3.747477   2.971248
    18  F    5.966285   6.185334   7.855497   8.304396   9.374168
    19  C    4.959010   5.547676   7.097558   7.209302   8.426656
    20  C    4.270676   4.268404   5.756487   6.252226   7.336314
    21  C    5.540631   4.942179   6.271623   7.179479   8.161028
    22  F    6.177040   5.946804   7.093762   7.646381   8.804170
    23  C    3.389384   3.957485   5.130104   5.072246   6.365113
    24  F    2.460471   4.034744   5.200665   4.516526   5.938312
    25  C    3.961880   3.396014   5.106375   6.056548   6.838218
    26  F    4.026369   2.454426   4.074247   5.630858   6.154841
    27  H    4.452546   5.538122   7.090045   6.868502   8.131736
    28  H    5.597927   6.334925   7.764613   7.685456   9.026849
    29  H    6.332703   5.583889   7.021429   8.116121   9.015772
    30  H    5.521684   4.425985   5.590910   6.844004   7.666323
    31  H    4.175703   4.931286   5.926221   5.604445   7.029722
    32  H    3.190402   3.196281   4.178831   4.435241   5.588166
    33  H    4.939192   4.183754   5.930486   7.086379   7.766421
    34  H    3.208684   3.210036   4.943450   5.540098   6.342193
                   16         17         18         19         20
    16  H    0.000000
    17  H    1.797411   0.000000
    18  F    7.654303   8.816849   0.000000
    19  C    7.184927   8.171310   1.371460   0.000000
    20  C    6.244663   7.332291   2.387111   1.534721   0.000000
    21  C    7.190273   8.411343   2.923411   2.515209   1.534718
    22  F    8.284983   9.358701   3.517016   2.923360   2.387047
    23  C    6.046021   6.830577   3.714272   2.500629   1.534009
    24  F    5.630545   6.157893   4.075380   2.822213   2.389521
    25  C    5.066897   6.361917   2.818942   2.497394   1.534033
    26  F    4.495832   5.920715   4.066291   3.714394   2.389489
    27  H    6.859031   7.686520   1.989535   1.093634   2.181253
    28  H    8.118986   9.024216   1.990305   1.094153   2.176235
    29  H    7.669342   9.014697   2.576951   2.718674   2.176268
    30  H    6.839561   8.105915   3.900493   3.475940   2.181270
    31  H    7.074925   7.758089   4.054286   2.775762   2.179565
    32  H    5.521263   6.324991   4.544019   3.462577   2.180117
    33  H    5.602256   7.029346   2.474071   2.721927   2.179586
    34  H    4.440300   5.593806   3.246337   2.798502   2.180168
                   21         22         23         24         25
    21  C    0.000000
    22  F    1.371464   0.000000
    23  C    2.497257   2.818636   0.000000
    24  F    3.714448   4.067123   1.373948   0.000000
    25  C    2.500634   3.714241   2.522428   2.940710   0.000000
    26  F    2.820595   4.074172   2.942193   3.550903   1.373936
    27  H    3.475927   3.900410   2.734847   2.487582   2.772137
    28  H    2.718632   2.576847   2.788522   3.232033   3.457828
    29  H    1.094147   1.990333   3.457735   4.541495   2.788642
    30  H    1.093635   1.989514   2.772017   4.058681   2.734813
    31  H    2.723010   2.475052   1.093319   1.989110   3.480007
    32  H    2.796846   3.243719   1.093262   1.990463   2.731695
    33  H    2.777104   4.055282   3.479943   3.912106   1.093317
    34  H    3.462461   4.543831   2.730464   2.603171   1.093273
                   26         27         28         29         30
    26  F    0.000000
    27  H    4.059416   0.000000
    28  H    4.541288   1.797419   0.000000
    29  H    3.229685   3.747424   2.971835   0.000000
    30  H    2.485769   4.329089   3.747380   1.797407   0.000000
    31  H    3.914068   3.113943   2.617223   3.710017   3.098099
    32  H    2.606183   3.719994   3.810826   3.816934   2.626322
    33  H    1.989082   3.096298   3.709288   2.618813   3.115874
    34  H    1.990338   2.628210   3.818220   3.811538   3.719079
                   31         32         33         34
    31  H    0.000000
    32  H    1.794741   0.000000
    33  H    4.328450   3.761317   0.000000
    34  H    3.759894   2.980420   1.794877   0.000000
 Framework group  C1[X(C10H16F8)]
 Deg. of freedom    96
                         Standard orientation:                         
 ---------------------------------------------------------------------
 Center     Atomic      Atomic             Coordinates (Angstroms)
 Number     Number       Type             X           Y           Z
 ---------------------------------------------------------------------
      1          9           0       -1.194988   -0.274043   -1.751786
      2          6           0       -1.922805    0.669609   -1.068122
      3          6           0       -2.796102   -0.000017    0.000630
      4          6           0       -1.922824   -0.666985    1.071008
      5          9           0       -1.197978    0.278856    1.754976
      6          6           0       -3.678092    1.066791    0.663501
      7          9           0       -4.412342    1.733544   -0.283674
      8          6           0       -3.673411   -1.069657   -0.663875
      9          9           0       -4.407620   -1.738431    0.281933
     10          1           0       -2.537935    1.192254   -1.805552
     11          1           0       -1.206054    1.359127   -0.614169
     12          1           0       -1.203945   -1.355135    0.618386
     13          1           0       -2.537758   -1.190439    1.808013
     14          1           0       -3.069682    1.812923    1.182325
     15          1           0       -4.388713    0.604208    1.355037
     16          1           0       -3.061583   -1.814037   -1.181183
     17          1           0       -4.383974   -0.609444   -1.357036
     18          9           0        4.419265   -0.288406   -1.726812
     19          6           0        3.682758    0.660543   -1.065030
     20          6           0        2.795920    0.000286   -0.000630
     21          6           0        3.668363   -0.663330    1.073529
     22          9           0        4.401015    0.282899    1.743444
     23          6           0        1.921114    1.072591    0.661229
     24          9           0        1.200309    1.755579   -0.288351
     25          6           0        1.924263   -1.068683   -0.672030
     26          9           0        1.193137   -1.751145    0.269990
     27          1           0        3.077760    1.178184   -1.814737
     28          1           0        4.391853    1.352579   -0.600876
     29          1           0        4.379943   -1.358080    0.617314
     30          1           0        3.053133   -1.178624    1.816497
     31          1           0        2.534761    1.809957    1.185705
     32          1           0        1.199421    0.621791    1.347639
     33          1           0        2.540658   -1.806918   -1.192038
     34          1           0        1.209824   -0.614914   -1.364068
 ---------------------------------------------------------------------
 Rotational constants (GHZ):           0.7405547           0.1636172           0.1636118
   284 basis functions,   514 primitive gaussians,   302 cartesian basis functions
    74 alpha electrons       74 beta electrons
       nuclear repulsion energy      1567.0407480076 Hartrees.
 NAtoms=   34 NActive=   34 NUniq=   34 SFac= 1.00D+00 NAtFMM=   60 NAOKFM=F Big=F
 Nuclear repulsion after empirical dispersion term =     1567.0127112893 Hartrees.
   1 Symmetry operations used in ECPInt.
 ECPInt:  NShTT=    9870 NPrTT=   39622 LenC2=    8884 LenP2D=   24260.
 LDataN:  DoStor=T MaxTD1= 4 Len=   56
 ExpMin= 1.22D-01 ExpMax= 2.89D+03 ExpMxC= 4.35D+02 IAcc=3 IRadAn=         5 AccDes= 0.00D+00
 Harris functional with IExCor= 4639 and IRadAn=       5 diagonalized for initial guess.
 HarFok:  IExCor= 4639 AccDes= 0.00D+00 IRadAn=         5 IDoV= 1 UseB2=F ITyADJ=14
 ICtDFT=  3500011 ScaDFX=  1.000000  1.000000  1.000000  1.000000
 FoFCou: FMM=F IPFlag=           0 FMFlag=      100000 FMFlg1=           0
         NFxFlg=           0 DoJE=T BraDBF=F KetDBF=T FulRan=T
         wScrn=  0.000000 ICntrl=       500 IOpCl=  0 I1Cent=   200000004 NGrid=           0
         NMat0=    1 NMatS0=      1 NMatT0=    0 NMatD0=    1 NMtDS0=    0 NMtDT0=    0
 Petite list used in FoFCou.
     Minimum is close to point  3 DX=  7.70D-03 DF= -1.29D-04 DXR=  1.52D-02 DFR=  2.25D-04 which will be used.
     Minimum is close to point  3 DX=  2.68D-02 DF= -2.56D-05 DXR=  3.24D-02 DFR=  1.05D-03 which will be used.
     Minimum is close to point  2 DX=  6.63D-02 DF= -2.66D-05 DXR=  9.95D-02 DFR=  9.99D-03 which will be used.
     Accept linear search using points  1 and  2.
     Accept linear search using points  1 and  2.
     Minimum is close to point  2 DX= -2.44D-05 DF=  0.00D+00 DXR=  2.44D-05 DFR=  0.00D+00 which will be used.
 SCF Done:  E(RwB97XD) =  -1188.14685110     a.u. after    8 cycles
            Convg  =    0.2611D-09                    32 Fock formations.
              S**2 =  0.0000                  -V/T =  2.0068
 DoSCS=F DFT=T ScalE2(SS,OS)=  1.000000  1.000000
 NROrb=    284 NOA=    74 NOB=    74 NVA=   210 NVB=   210

 **** Warning!!: The largest alpha MO coefficient is  0.11485399D+02

   1 Symmetry operations used in ECPInt.
 ECPInt:  NShTT=    9870 NPrTT=   39622 LenC2=    8884 LenP2D=   24260.
 LDataN:  DoStor=T MaxTD1= 5 Len=  102
 Symmetrizing basis deriv contribution to polar:
 IMax=3 JMax=2 DiffMx= 0.00D+00
 Calling FoFCou, ICntrl=  3107 FMM=F I1Cent=   0 AccDes= 0.00D+00.
 End of G2Drv F.D. properties file   721 does not exist.
 End of G2Drv F.D. properties file   722 does not exist.
 End of G2Drv F.D. properties file   788 does not exist.
          IDoAtm=1111111111111111111111111111111111
 CalDSu exits because no D1Ps are significant.
 End of Minotr F.D. properties file   721 does not exist.
 End of Minotr F.D. properties file   722 does not exist.
 End of Minotr F.D. properties file   788 does not exist.

 **********************************************************************

            Population analysis using the SCF Density.

 **********************************************************************

 Orbital symmetries:
       Occupied  (A) (A) (A) (A) (A) (A) (A) (A) (A) (A) (A) (A)
                 (A) (A) (A) (A) (A) (A) (A) (A) (A) (A) (A) (A)
                 (A) (A) (A) (A) (A) (A) (A) (A) (A) (A) (A) (A)
                 (A) (A) (A) (A) (A) (A) (A) (A) (A) (A) (A) (A)
                 (A) (A) (A) (A) (A) (A) (A) (A) (A) (A) (A) (A)
                 (A) (A) (A) (A) (A) (A) (A) (A) (A) (A) (A) (A)
                 (A) (A)
       Virtual   (A) (A) (A) (A) (A) (A) (A) (A) (A) (A) (A) (A)
                 (A) (A) (A) (A) (A) (A) (A) (A) (A) (A) (A) (A)
                 (A) (A) (A) (A) (A) (A) (A) (A) (A) (A) (A) (A)
                 (A) (A) (A) (A) (A) (A) (A) (A) (A) (A) (A) (A)
                 (A) (A) (A) (A) (A) (A) (A) (A) (A) (A) (A) (A)
                 (A) (A) (A) (A) (A) (A) (A) (A) (A) (A) (A) (A)
                 (A) (A) (A) (A) (A) (A) (A) (A) (A) (A) (A) (A)
                 (A) (A) (A) (A) (A) (A) (A) (A) (A) (A) (A) (A)
                 (A) (A) (A) (A) (A) (A) (A) (A) (A) (A) (A) (A)
                 (A) (A) (A) (A) (A) (A) (A) (A) (A) (A) (A) (A)
                 (A) (A) (A) (A) (A) (A) (A) (A) (A) (A) (A) (A)
                 (A) (A) (A) (A) (A) (A) (A) (A) (A) (A) (A) (A)
                 (A) (A) (A) (A) (A) (A) (A) (A) (A) (A) (A) (A)
                 (A) (A) (A) (A) (A) (A) (A) (A) (A) (A) (A) (A)
                 (A) (A) (A) (A) (A) (A) (A) (A) (A) (A) (A) (A)
                 (A) (A) (A) (A) (A) (A) (A) (A) (A) (A) (A) (A)
                 (A) (A) (A) (A) (A) (A) (A) (A) (A) (A) (A) (A)
                 (A) (A) (A) (A) (A) (A)
 The electronic state is 1-A.
 Alpha  occ. eigenvalues --  -24.81240 -24.81238 -24.81230 -24.81227 -24.80776
 Alpha  occ. eigenvalues --  -24.80775 -24.80769 -24.80768 -10.37758 -10.37757
 Alpha  occ. eigenvalues --  -10.37756 -10.37755 -10.37581 -10.37580 -10.37580
 Alpha  occ. eigenvalues --  -10.37579 -10.33510 -10.33509  -1.29761  -1.29644
 Alpha  occ. eigenvalues --   -1.29311  -1.29311  -1.29280  -1.29253  -1.29015
 Alpha  occ. eigenvalues --   -1.29013  -0.94101  -0.94044  -0.79930  -0.79929
 Alpha  occ. eigenvalues --   -0.79823  -0.79822  -0.78979  -0.78769  -0.67929
 Alpha  occ. eigenvalues --   -0.67617  -0.63780  -0.63506  -0.62950  -0.62949
 Alpha  occ. eigenvalues --   -0.62510  -0.62508  -0.61028  -0.60404  -0.60244
 Alpha  occ. eigenvalues --   -0.59412  -0.58227  -0.57208  -0.57097  -0.57096
 Alpha  occ. eigenvalues --   -0.57025  -0.57024  -0.54801  -0.54800  -0.54574
 Alpha  occ. eigenvalues --   -0.54572  -0.54328  -0.54233  -0.49493  -0.49310
 Alpha  occ. eigenvalues --   -0.45736  -0.45735  -0.45625  -0.45501  -0.45500
 Alpha  occ. eigenvalues --   -0.45366  -0.43267  -0.42535  -0.41583  -0.41479
 Alpha  occ. eigenvalues --   -0.41478  -0.41313  -0.41313  -0.40875
 Alpha virt. eigenvalues --    0.11875   0.13847   0.14951   0.15969   0.15971
 Alpha virt. eigenvalues --    0.16618   0.17470   0.17474   0.18374   0.18988
 Alpha virt. eigenvalues --    0.20754   0.20757   0.21065   0.21369   0.21527
 Alpha virt. eigenvalues --    0.21528   0.23446   0.24529   0.24977   0.24978
 Alpha virt. eigenvalues --    0.25161   0.27205   0.27213   0.27357   0.28763
 Alpha virt. eigenvalues --    0.29255   0.30158   0.31501   0.32957   0.32961
 Alpha virt. eigenvalues --    0.33259   0.33264   0.47029   0.51099   0.52594
 Alpha virt. eigenvalues --    0.55720   0.55791   0.55793   0.55855   0.55856
 Alpha virt. eigenvalues --    0.57401   0.57635   0.57639   0.58365   0.58710
 Alpha virt. eigenvalues --    0.58711   0.62530   0.62838   0.63155   0.63588
 Alpha virt. eigenvalues --    0.65682   0.65952   0.71971   0.71975   0.72187
 Alpha virt. eigenvalues --    0.73324   0.73522   0.73784   0.73787   0.74072
 Alpha virt. eigenvalues --    0.74073   0.75629   0.76435   0.76439   0.77587
 Alpha virt. eigenvalues --    0.77663   0.79516   0.79798   0.79803   0.80531
 Alpha virt. eigenvalues --    0.81354   0.81360   0.81626   0.82973   0.84578
 Alpha virt. eigenvalues --    0.85488   0.88665   0.88672   0.91858   0.91881
 Alpha virt. eigenvalues --    1.00148   1.04640   1.10407   1.10408   1.13501
 Alpha virt. eigenvalues --    1.13519   1.15523   1.16849   1.26917   1.27196
 Alpha virt. eigenvalues --    1.30131   1.30972   1.30975   1.31068   1.31844
 Alpha virt. eigenvalues --    1.31972   1.33016   1.33721   1.33740   1.37233
 Alpha virt. eigenvalues --    1.39533   1.39545   1.42632   1.42643   1.45035
 Alpha virt. eigenvalues --    1.45152   1.46850   1.46853   1.48977   1.51928
 Alpha virt. eigenvalues --    1.55066   1.56106   1.56130   1.58463   1.61540
 Alpha virt. eigenvalues --    1.69119   1.73767   1.73771   1.74962   1.74968
 Alpha virt. eigenvalues --    1.75192   1.76871   1.82044   1.85122   1.85122
 Alpha virt. eigenvalues --    1.85336   1.85569   1.85572   1.88898   1.89157
 Alpha virt. eigenvalues --    1.96910   1.98261   1.99276   1.99278   1.99986
 Alpha virt. eigenvalues --    2.00336   2.00339   2.03487   2.04607   2.08061
 Alpha virt. eigenvalues --    2.08675   2.09138   2.09146   2.10597   2.10605
 Alpha virt. eigenvalues --    2.11400   2.15990   2.16650   2.16833   2.16838
 Alpha virt. eigenvalues --    2.18815   2.18833   2.23838   2.23840   2.23891
 Alpha virt. eigenvalues --    2.23970   2.23973   2.24147   2.28308   2.28594
 Alpha virt. eigenvalues --    2.51002   2.51238   2.57141   2.57624   2.69248
 Alpha virt. eigenvalues --    2.69255   2.73160   2.73163   2.73543   2.73547
 Alpha virt. eigenvalues --    3.17351   3.17430   3.18382   3.18498   3.18619
 Alpha virt. eigenvalues --    3.18620   3.19145   3.19147   3.19748   3.19749
 Alpha virt. eigenvalues --    3.19949   3.19951   3.20113   3.20281   3.20719
 Alpha virt. eigenvalues --    3.20749   3.36775   3.37197   3.37538   3.37540
 Alpha virt. eigenvalues --    3.37621   3.37631   3.37996   3.37998   3.39623
 Alpha virt. eigenvalues --    3.39637   3.42006   3.42007   3.42510   3.42512
 Alpha virt. eigenvalues --    3.46621   3.46660   3.84831   3.85928   3.86114
 Alpha virt. eigenvalues --    3.86117   3.86742   3.86747   3.89271   3.90128
          Condensed to atoms (all electrons):
 Mulliken charges:
               1
     1  F   -0.273397
     2  C    0.128405
     3  C   -0.464556
     4  C    0.128117
     5  F   -0.273390
     6  C    0.144627
     7  F   -0.277594
     8  C    0.144615
     9  F   -0.277626
    10  H    0.125089
    11  H    0.136376
    12  H    0.136683
    13  H    0.125098
    14  H    0.125719
    15  H    0.123025
    16  H    0.125801
    17  H    0.123019
    18  F   -0.277615
    19  C    0.144636
    20  C   -0.464532
    21  C    0.144619
    22  F   -0.277641
    23  C    0.127977
    24  F   -0.273446
    25  C    0.128453
    26  F   -0.273350
    27  H    0.125754
    28  H    0.123033
    29  H    0.123029
    30  H    0.125790
    31  H    0.125104
    32  H    0.136533
    33  H    0.125098
    34  H    0.136548
 Sum of Mulliken charges =   0.00000
 Mulliken charges with hydrogens summed into heavy atoms:
               1
     1  F   -0.273397
     2  C    0.389870
     3  C   -0.464556
     4  C    0.389898
     5  F   -0.273390
     6  C    0.393372
     7  F   -0.277594
     8  C    0.393435
     9  F   -0.277626
    18  F   -0.277615
    19  C    0.393423
    20  C   -0.464532
    21  C    0.393437
    22  F   -0.277641
    23  C    0.389613
    24  F   -0.273446
    25  C    0.390098
    26  F   -0.273350
 APT charges:
               1
     1  F   -0.526404
     2  C    0.541511
     3  C   -0.111810
     4  C    0.541307
     5  F   -0.526581
     6  C    0.557006
     7  F   -0.504876
     8  C    0.556955
     9  F   -0.504878
    10  H   -0.012009
    11  H    0.022800
    12  H    0.023018
    13  H   -0.012013
    14  H   -0.009594
    15  H   -0.012433
    16  H   -0.009529
    17  H   -0.012456
    18  F   -0.504930
    19  C    0.557067
    20  C   -0.111802
    21  C    0.556861
    22  F   -0.504833
    23  C    0.541270
    24  F   -0.526328
    25  C    0.541545
    26  F   -0.526646
    27  H   -0.009585
    28  H   -0.012418
    29  H   -0.012435
    30  H   -0.009538
    31  H   -0.011976
    32  H    0.022773
    33  H   -0.012034
    34  H    0.022997
 Sum of APT charges =   0.00000
 APT charges with hydrogens summed into heavy atoms:
               1
     1  F   -0.526404
     2  C    0.552302
     3  C   -0.111810
     4  C    0.552312
     5  F   -0.526581
     6  C    0.534978
     7  F   -0.504876
     8  C    0.534970
     9  F   -0.504878
    18  F   -0.504930
    19  C    0.535064
    20  C   -0.111802
    21  C    0.534887
    22  F   -0.504833
    23  C    0.552067
    24  F   -0.526328
    25  C    0.552507
    26  F   -0.526646
 Electronic spatial extent (au):  <R**2>=           6527.0004
 Charge=              0.0000 electrons
 Dipole moment (field-independent basis, Debye):
    X=             -0.0016    Y=              0.0007    Z=             -0.0013  Tot=              0.0022
  Exact polarizability: 113.623   0.007  98.971  -0.016  -0.000  98.967
 Approx polarizability: 110.602   0.004 109.067  -0.010  -0.001 109.064
   1 Symmetry operations used in ECPInt.
 ECPInt:  NShTT=    9870 NPrTT=   39622 LenC2=    8884 LenP2D=   24260.
 LDataN:  DoStor=T MaxTD1= 6 Len=  172
 Calling FoFJK, ICntrl=    100127 FMM=F ISym2X=0 I1Cent= 0 IOpClX= 0 NMat=1 NMatS=1 NMatT=0.
 FormGI is forming the generalized inverse of G from B-inverse, IUseBI=4.

 GradGradGradGradGradGradGradGradGradGradGradGradGradGradGradGradGradGrad
 Internal  Forces:  Max     0.007759946 RMS     0.002411654
 Step number   1 out of a maximum of  204
 All quantities printed in internal units (Hartrees-Bohrs-Radians)
 Mixed Optimization -- RFO/linear search
 Second derivative matrix not updated -- analytic derivatives used.
 ITU=  0
     Eigenvalues ---    0.00002   0.00004   0.00036   0.00084   0.00087
     Eigenvalues ---    0.00095   0.00103   0.00145   0.00266   0.00266
     Eigenvalues ---    0.00355   0.00356   0.00356   0.00356   0.00612
     Eigenvalues ---    0.00804   0.02445   0.02451   0.03594   0.04110
     Eigenvalues ---    0.04366   0.04367   0.04743   0.04743   0.05000
     Eigenvalues ---    0.05243   0.05323   0.05324   0.05353   0.05387
     Eigenvalues ---    0.05462   0.05462   0.06331   0.06340   0.06343
     Eigenvalues ---    0.07241   0.07517   0.07993   0.07993   0.08059
     Eigenvalues ---    0.08372   0.08393   0.08667   0.08668   0.09191
     Eigenvalues ---    0.09804   0.10114   0.10121   0.11641   0.13436
     Eigenvalues ---    0.13735   0.13735   0.14147   0.14516   0.15183
     Eigenvalues ---    0.15456   0.15457   0.15603   0.17544   0.18092
     Eigenvalues ---    0.23782   0.23782   0.25473   0.25475   0.25799
     Eigenvalues ---    0.25819   0.26912   0.27473   0.29687   0.31581
     Eigenvalues ---    0.31581   0.32732   0.33145   0.33810   0.33811
     Eigenvalues ---    0.34291   0.35546   0.35547   0.35645   0.35648
     Eigenvalues ---    0.35700   0.35701   0.35934   0.35937   0.35940
     Eigenvalues ---    0.35948   0.36064   0.36146   0.38958   0.38958
     Eigenvalues ---    0.39170   0.40384   0.42027   0.42031   0.42116
     Eigenvalues ---    0.42182
 Linear search not attempted -- first point.
 Iteration  1 RMS(Cart)=  0.03179152 RMS(Int)=  0.00051572
 Iteration  2 RMS(Cart)=  0.00056025 RMS(Int)=  0.00007939
 Iteration  3 RMS(Cart)=  0.00000028 RMS(Int)=  0.00007939
 Variable       Old X    -DE/DX   Delta X   Delta X   Delta X     New X
                                 (Linear)    (Quad)   (Total)
    R1        2.59629   0.00775   0.00000   0.01593   0.01594   2.61223
    R2        4.64797  -0.00082   0.00000  -0.10724  -0.10725   4.54073
    R3        2.89891  -0.00200   0.00000  -0.00909  -0.00907   2.88985
    R4        2.06607   0.00572   0.00000   0.01568   0.01568   2.08176
    R5        2.06598   0.00462   0.00000   0.01344   0.01341   2.07939
    R6        2.89885  -0.00199   0.00000  -0.00904  -0.00902   2.88983
    R7        2.90021  -0.00280   0.00000  -0.00781  -0.00781   2.89240
    R8        2.90020  -0.00280   0.00000  -0.00780  -0.00780   2.89240
    R9        2.59645   0.00775   0.00000   0.01597   0.01598   2.61244
   R10        2.06595   0.00462   0.00000   0.01346   0.01343   2.07938
   R11        2.06605   0.00572   0.00000   0.01570   0.01570   2.08175
   R12        4.64082  -0.00084   0.00000  -0.10546  -0.10546   4.53536
   R13        2.59163   0.00670   0.00000   0.00946   0.00946   2.60109
   R14        2.06668   0.00568   0.00000   0.01562   0.01562   2.08230
   R15        2.06766   0.00588   0.00000   0.01603   0.01603   2.08369
   R16        2.59166   0.00670   0.00000   0.00944   0.00944   2.60111
   R17        2.06667   0.00568   0.00000   0.01562   0.01562   2.08229
   R18        2.06765   0.00589   0.00000   0.01605   0.01605   2.08369
   R19        4.64962  -0.00081   0.00000  -0.10899  -0.10900   4.54061
   R20        4.63819  -0.00083   0.00000  -0.10379  -0.10380   4.53440
   R21        2.59168   0.00669   0.00000   0.00941   0.00941   2.60109
   R22        2.90020  -0.00280   0.00000  -0.00779  -0.00779   2.89242
   R23        2.06667   0.00569   0.00000   0.01564   0.01564   2.08231
   R24        2.06765   0.00588   0.00000   0.01604   0.01604   2.08369
   R25        2.90020  -0.00279   0.00000  -0.00779  -0.00779   2.89240
   R26        2.89886  -0.00199   0.00000  -0.00906  -0.00904   2.88982
   R27        2.89890  -0.00200   0.00000  -0.00908  -0.00906   2.88984
   R28        2.59169   0.00669   0.00000   0.00941   0.00941   2.60110
   R29        2.06764   0.00589   0.00000   0.01605   0.01605   2.08369
   R30        2.06667   0.00568   0.00000   0.01561   0.01561   2.08228
   R31        2.59639   0.00775   0.00000   0.01596   0.01597   2.61236
   R32        2.06607   0.00572   0.00000   0.01569   0.01569   2.08176
   R33        2.06597   0.00462   0.00000   0.01346   0.01343   2.07940
   R34        2.59636   0.00776   0.00000   0.01594   0.01595   2.61232
   R35        2.06607   0.00571   0.00000   0.01568   0.01568   2.08175
   R36        2.06599   0.00460   0.00000   0.01342   0.01338   2.07937
    A1        2.13494  -0.00114   0.00000  -0.00063  -0.00072   2.13422
    A2        1.92670  -0.00017   0.00000  -0.00277  -0.00268   1.92403
    A3        1.86581   0.00152   0.00000   0.01538   0.01539   1.88120
    A4        1.86764   0.00069   0.00000   0.01617   0.01614   1.88378
    A5        1.93723  -0.00140   0.00000  -0.00748  -0.00759   1.92964
    A6        1.93825   0.00016   0.00000  -0.00831  -0.00843   1.92982
    A7        1.92562  -0.00067   0.00000  -0.01129  -0.01144   1.91418
    A8        1.93033   0.00110   0.00000   0.00031   0.00032   1.93065
    A9        1.90143  -0.00018   0.00000   0.00045   0.00047   1.90190
   A10        1.90498  -0.00045   0.00000   0.00015   0.00013   1.90512
   A11        1.90499  -0.00045   0.00000   0.00015   0.00013   1.90513
   A12        1.90129  -0.00017   0.00000   0.00053   0.00054   1.90183
   A13        1.92086   0.00015   0.00000  -0.00162  -0.00162   1.91925
   A14        1.92662  -0.00018   0.00000  -0.00269  -0.00259   1.92403
   A15        1.93813   0.00017   0.00000  -0.00818  -0.00829   1.92984
   A16        1.93729  -0.00139   0.00000  -0.00750  -0.00761   1.92968
   A17        1.86765   0.00069   0.00000   0.01606   0.01602   1.88367
   A18        1.86580   0.00151   0.00000   0.01528   0.01529   1.88109
   A19        1.92577  -0.00068   0.00000  -0.01129  -0.01144   1.91433
   A20        2.12770  -0.00114   0.00000  -0.00029  -0.00038   2.12732
   A21        1.92551  -0.00200   0.00000  -0.00051  -0.00050   1.92502
   A22        1.93845  -0.00136   0.00000  -0.00632  -0.00647   1.93198
   A23        1.93087  -0.00211   0.00000  -0.01284  -0.01298   1.91789
   A24        1.86900   0.00306   0.00000   0.02127   0.02128   1.89028
   A25        1.86955   0.00278   0.00000   0.01873   0.01875   1.88830
   A26        1.92827  -0.00008   0.00000  -0.01837  -0.01867   1.90960
   A27        1.92548  -0.00201   0.00000  -0.00051  -0.00050   1.92498
   A28        1.93841  -0.00135   0.00000  -0.00629  -0.00644   1.93197
   A29        1.93091  -0.00211   0.00000  -0.01286  -0.01301   1.91791
   A30        1.86900   0.00306   0.00000   0.02128   0.02128   1.89028
   A31        1.86956   0.00279   0.00000   0.01873   0.01875   1.88831
   A32        1.92830  -0.00008   0.00000  -0.01838  -0.01868   1.90962
   A33        2.49442  -0.00159   0.00000  -0.02265  -0.02274   2.47168
   A34        2.50231  -0.00157   0.00000  -0.02335  -0.02345   2.47885
   A35        1.92549  -0.00200   0.00000  -0.00050  -0.00048   1.92501
   A36        1.86899   0.00306   0.00000   0.02127   0.02128   1.89027
   A37        1.86952   0.00279   0.00000   0.01875   0.01878   1.88830
   A38        1.93842  -0.00135   0.00000  -0.00627  -0.00642   1.93200
   A39        1.93091  -0.00211   0.00000  -0.01288  -0.01302   1.91789
   A40        1.92832  -0.00008   0.00000  -0.01841  -0.01871   1.90960
   A41        1.92085   0.00015   0.00000  -0.00162  -0.00162   1.91923
   A42        1.90502  -0.00045   0.00000   0.00011   0.00010   1.90512
   A43        1.90137  -0.00018   0.00000   0.00047   0.00049   1.90185
   A44        1.90124  -0.00017   0.00000   0.00058   0.00059   1.90183
   A45        1.90501  -0.00044   0.00000   0.00015   0.00013   1.90514
   A46        1.93040   0.00110   0.00000   0.00028   0.00029   1.93069
   A47        1.92542  -0.00200   0.00000  -0.00047  -0.00045   1.92496
   A48        1.93097  -0.00211   0.00000  -0.01291  -0.01306   1.91791
   A49        1.93845  -0.00136   0.00000  -0.00632  -0.00648   1.93197
   A50        1.86956   0.00278   0.00000   0.01873   0.01876   1.88832
   A51        1.86896   0.00307   0.00000   0.02131   0.02132   1.89028
   A52        1.92830  -0.00008   0.00000  -0.01837  -0.01867   1.90963
   A53        1.92673  -0.00019   0.00000  -0.00280  -0.00270   1.92404
   A54        1.93728  -0.00140   0.00000  -0.00749  -0.00760   1.92968
   A55        1.93811   0.00018   0.00000  -0.00811  -0.00823   1.92988
   A56        1.86580   0.00152   0.00000   0.01537   0.01538   1.88117
   A57        1.86773   0.00069   0.00000   0.01600   0.01597   1.88370
   A58        1.92561  -0.00068   0.00000  -0.01130  -0.01144   1.91417
   A59        2.12294  -0.00113   0.00000   0.00072   0.00063   2.12357
   A60        1.92668  -0.00017   0.00000  -0.00272  -0.00263   1.92405
   A61        1.93728  -0.00140   0.00000  -0.00757  -0.00767   1.92961
   A62        1.93814   0.00016   0.00000  -0.00826  -0.00837   1.92977
   A63        1.86577   0.00152   0.00000   0.01535   0.01536   1.88113
   A64        1.86756   0.00070   0.00000   0.01619   0.01616   1.88372
   A65        1.92582  -0.00068   0.00000  -0.01130  -0.01146   1.91436
   A66        2.13754  -0.00115   0.00000  -0.00145  -0.00155   2.13599
   A67        2.50840  -0.00158   0.00000  -0.02422  -0.02431   2.48409
   A68        2.49184  -0.00156   0.00000  -0.02201  -0.02212   2.46972
    D1       -1.82602  -0.00083   0.00000  -0.00886  -0.00889  -1.83491
    D2        2.34832   0.00004   0.00000  -0.00764  -0.00759   2.34072
    D3        0.28520  -0.00030   0.00000  -0.01058  -0.01073   0.27447
    D4        1.35501   0.00081   0.00000   0.01456   0.01448   1.36949
    D5        1.12844  -0.00002   0.00000  -0.00320  -0.00320   1.12525
    D6       -3.06093  -0.00001   0.00000  -0.00253  -0.00254  -3.06347
    D7       -0.96305  -0.00020   0.00000  -0.00414  -0.00415  -0.96720
    D8       -3.08908   0.00087   0.00000   0.00943   0.00942  -3.07966
    D9       -0.99527   0.00088   0.00000   0.01010   0.01008  -0.98519
   D10        1.10260   0.00069   0.00000   0.00850   0.00847   1.11108
   D11       -0.94013  -0.00088   0.00000  -0.01629  -0.01622  -0.95635
   D12        1.15368  -0.00087   0.00000  -0.01562  -0.01556   1.13812
   D13       -3.03163  -0.00106   0.00000  -0.01723  -0.01717  -3.04880
   D14       -0.07618   0.00048   0.00000   0.01073   0.01069  -0.06548
   D15        2.02770   0.00080   0.00000   0.01266   0.01258   2.04027
   D16       -2.09988  -0.00136   0.00000  -0.01071  -0.01063  -2.11051
   D17        1.12721  -0.00002   0.00000  -0.00278  -0.00278   1.12443
   D18       -0.94125  -0.00088   0.00000  -0.01586  -0.01579  -0.95704
   D19       -3.09034   0.00086   0.00000   0.00977   0.00976  -3.08058
   D20       -0.96446  -0.00020   0.00000  -0.00363  -0.00364  -0.96810
   D21       -3.03292  -0.00105   0.00000  -0.01671  -0.01665  -3.04957
   D22        1.10117   0.00069   0.00000   0.00893   0.00890   1.11007
   D23       -3.06226  -0.00001   0.00000  -0.00207  -0.00207  -3.06434
   D24        1.15247  -0.00086   0.00000  -0.01515  -0.01509   1.13738
   D25       -0.99663   0.00088   0.00000   0.01049   0.01047  -0.98616
   D26        0.97005   0.00005   0.00000   0.03854   0.03854   1.00858
   D27       -1.09958  -0.00162   0.00000   0.01640   0.01647  -1.08311
   D28        3.03561   0.00092   0.00000   0.05338   0.05328   3.08889
   D29        3.07946   0.00101   0.00000   0.03929   0.03929   3.11876
   D30        1.00983  -0.00066   0.00000   0.01715   0.01723   1.02706
   D31       -1.13816   0.00188   0.00000   0.05413   0.05404  -1.08412
   D32       -1.11800   0.00062   0.00000   0.03905   0.03906  -1.07894
   D33        3.09555  -0.00105   0.00000   0.01690   0.01699   3.11255
   D34        0.94756   0.00149   0.00000   0.05389   0.05381   1.00137
   D35        3.07968   0.00102   0.00000   0.03917   0.03918   3.11886
   D36        1.01010  -0.00065   0.00000   0.01701   0.01709   1.02719
   D37       -1.13793   0.00189   0.00000   0.05400   0.05391  -1.08402
   D38        0.97035   0.00005   0.00000   0.03838   0.03838   1.00873
   D39       -1.09923  -0.00162   0.00000   0.01621   0.01629  -1.08294
   D40        3.03593   0.00092   0.00000   0.05320   0.05311   3.08904
   D41       -1.11762   0.00061   0.00000   0.03884   0.03886  -1.07876
   D42        3.09598  -0.00106   0.00000   0.01668   0.01677   3.11275
   D43        0.94795   0.00148   0.00000   0.05367   0.05359   1.00154
   D44       -1.81858  -0.00082   0.00000  -0.00859  -0.00862  -1.82720
   D45        0.29245  -0.00029   0.00000  -0.01017  -0.01032   0.28213
   D46        2.35574   0.00005   0.00000  -0.00733  -0.00729   2.34844
   D47        2.01418   0.00079   0.00000   0.01321   0.01313   2.02732
   D48       -0.08953   0.00048   0.00000   0.01118   0.01114  -0.07839
   D49       -2.11330  -0.00136   0.00000  -0.01009  -0.01000  -2.12330
   D50        1.35708   0.00080   0.00000   0.01459   0.01451   1.37159
   D51       -1.37266  -0.00080   0.00000  -0.01305  -0.01297  -1.38563
   D52       -1.35099  -0.00081   0.00000  -0.01534  -0.01525  -1.36624
   D53        1.11739  -0.00061   0.00000  -0.03891  -0.03893   1.07847
   D54       -3.08012  -0.00101   0.00000  -0.03911  -0.03912  -3.11924
   D55       -0.97064  -0.00005   0.00000  -0.03841  -0.03841  -1.00905
   D56       -3.09620   0.00106   0.00000  -0.01673  -0.01682  -3.11302
   D57       -1.01053   0.00066   0.00000  -0.01693  -0.01702  -1.02755
   D58        1.09895   0.00162   0.00000  -0.01623  -0.01631   1.08264
   D59       -0.94814  -0.00149   0.00000  -0.05377  -0.05369  -1.00183
   D60        1.13753  -0.00188   0.00000  -0.05397  -0.05388   1.08365
   D61       -3.03618  -0.00092   0.00000  -0.05327  -0.05317  -3.08935
   D62        1.11744  -0.00062   0.00000  -0.03886  -0.03887   1.07857
   D63       -0.94813  -0.00149   0.00000  -0.05369  -0.05360  -1.00173
   D64       -3.09623   0.00106   0.00000  -0.01664  -0.01673  -3.11296
   D65       -0.97054  -0.00005   0.00000  -0.03838  -0.03837  -1.00891
   D66       -3.03610  -0.00092   0.00000  -0.05321  -0.05311  -3.08921
   D67        1.09898   0.00162   0.00000  -0.01616  -0.01624   1.08275
   D68       -3.07993  -0.00102   0.00000  -0.03917  -0.03917  -3.11910
   D69        1.13769  -0.00189   0.00000  -0.05400  -0.05391   1.08378
   D70       -1.01041   0.00066   0.00000  -0.01695  -0.01704  -1.02744
   D71        0.96478   0.00020   0.00000   0.00356   0.00356   0.96835
   D72       -1.10091  -0.00069   0.00000  -0.00904  -0.00902  -1.10993
   D73        3.03340   0.00105   0.00000   0.01654   0.01648   3.04988
   D74        3.06256   0.00001   0.00000   0.00200   0.00200   3.06456
   D75        0.99686  -0.00088   0.00000  -0.01060  -0.01058   0.98628
   D76       -1.15201   0.00086   0.00000   0.01498   0.01492  -1.13709
   D77       -1.12687   0.00003   0.00000   0.00273   0.00272  -1.12415
   D78        3.09062  -0.00086   0.00000  -0.00987  -0.00986   3.08076
   D79        0.94174   0.00088   0.00000   0.01571   0.01564   0.95738
   D80        3.05975   0.00001   0.00000   0.00284   0.00285   3.06260
   D81        0.99412  -0.00088   0.00000  -0.00973  -0.00971   0.98441
   D82       -1.15504   0.00087   0.00000   0.01603   0.01596  -1.13908
   D83        0.96191   0.00021   0.00000   0.00444   0.00445   0.96636
   D84       -1.10372  -0.00068   0.00000  -0.00813  -0.00811  -1.11183
   D85        3.03030   0.00107   0.00000   0.01763   0.01756   3.04787
   D86       -1.12958   0.00002   0.00000   0.00345   0.00345  -1.12612
   D87        3.08797  -0.00087   0.00000  -0.00912  -0.00911   3.07887
   D88        0.93881   0.00088   0.00000   0.01664   0.01657   0.95538
   D89        1.83084   0.00083   0.00000   0.00809   0.00812   1.83896
   D90       -2.34343  -0.00004   0.00000   0.00684   0.00680  -2.33663
   D91       -0.28028   0.00029   0.00000   0.00968   0.00983  -0.27044
   D92       -2.02272  -0.00078   0.00000  -0.01325  -0.01317  -2.03589
   D93        0.08116  -0.00048   0.00000  -0.01135  -0.01130   0.06986
   D94        2.10489   0.00136   0.00000   0.00999   0.00991   2.11480
   D95        1.81776   0.00082   0.00000   0.00916   0.00919   1.82696
   D96       -2.35654  -0.00005   0.00000   0.00785   0.00780  -2.34874
   D97       -0.29325   0.00029   0.00000   0.01078   0.01092  -0.28234
   D98       -2.01377  -0.00080   0.00000  -0.01304  -0.01296  -2.02673
   D99        0.08996  -0.00048   0.00000  -0.01100  -0.01097   0.07899
   D100       2.11367   0.00136   0.00000   0.01041   0.01033   2.12400
         Item               Value     Threshold  Converged?
 Maximum Force            0.007760     0.000015     NO 
 RMS     Force            0.002412     0.000010     NO 
 Maximum Displacement     0.134378     0.000060     NO 
 RMS     Displacement     0.032014     0.000040     NO 
 GradGradGradGradGradGradGradGradGradGradGradGradGradGradGradGradGradGrad

                    Distance matrix (angstroms):
                    1          2          3          4          5
     1  F    0.000000
     2  C    1.382331   0.000000
     3  C    2.389969   1.529241   0.000000
     4  C    2.934710   2.514784   1.529233   0.000000
     5  F    3.546305   2.934310   2.390058   1.382442   0.000000
     6  C    3.714238   2.490604   1.530592   2.493463   2.818755
     7  F    4.084967   2.836097   2.387214   3.712333   4.089252
     8  C    2.818199   2.493464   1.530594   2.490540   3.714335
     9  F    4.088890   3.712329   2.387195   2.836068   4.085364
    10  H    2.013618   1.101618   2.176096   3.476284   3.908144
    11  H    2.014526   1.100365   2.175287   2.726482   2.590188
    12  H    2.591041   2.726795   2.175287   1.100359   2.014535
    13  H    3.908747   3.476327   2.176117   1.101615   2.013630
    14  H    4.052015   2.756706   2.179203   2.733802   2.481650
    15  H    4.540515   3.454700   2.169501   2.748956   3.188723
    16  H    2.481145   2.733844   2.179190   2.756534   4.051776
    17  H    3.187804   2.748918   2.169514   3.454661   4.540654
    18  F    5.585994   6.421586   7.392267   6.907048   6.590517
    19  C    4.949816   5.543757   6.535377   6.085703   5.588336
    20  C    4.307024   4.826111   5.530659   4.827781   4.312559
    21  C    5.577305   6.076640   6.525409   5.533444   4.942893
    22  F    6.579497   6.897224   7.380624   6.408209   5.574630
    23  C    4.118217   4.181442   4.824938   4.186594   3.339392
    24  F    3.415289   3.336055   4.313605   4.131782   3.430281
    25  C    3.335135   4.187295   4.829030   4.190291   4.131226
    26  F    3.413089   4.120739   4.306811   3.336338   3.422948
    27  H    4.437991   5.010173   6.188854   5.999628   5.582809
    28  H    5.849345   6.275774   7.245823   6.754486   6.065074
    29  H    6.058621   6.749564   7.238905   6.267952   5.844649
    30  H    5.564270   5.982611   6.170728   4.991963   4.424143
    31  H    5.152427   5.085539   5.708527   5.058058   4.020614
    32  H    3.994348   3.918620   4.219252   3.343120   2.400011
    33  H    4.022339   5.062779   5.714996   5.095352   5.165071
    34  H    2.402849   3.351489   4.232400   3.937416   4.015683
                    6          7          8          9         10
     6  C    0.000000
     7  F    1.376436   0.000000
     8  C    2.507039   2.895886   0.000000
     9  F    2.895756   3.447200   1.376446   0.000000
    10  H    2.708243   2.478667   2.771171   4.041919   0.000000
    11  H    2.780403   3.263059   3.459080   4.543552   1.800163
    12  H    3.459111   4.543593   2.779976   3.262525   3.762217
    13  H    2.770723   4.041645   2.708644   2.479118   4.324750
    14  H    1.101907   2.015314   3.473194   3.889655   3.072795
    15  H    1.102644   2.014461   2.726322   2.550174   3.715359
    16  H    3.473184   3.889818   1.101900   2.015320   3.127182
    17  H    2.726416   2.550429   1.102644   2.014476   2.568083
    18  F    8.514313   9.172085   8.169176   9.167830   7.103360
    19  C    7.506490   8.171452   7.502960   8.510149   6.236997
    20  C    6.532051   7.387217   6.528732   7.385236   5.710597
    21  C    7.495992   8.503204   7.493670   8.158572   7.043515
    22  F    8.160214   9.159852   8.500522   9.157483   7.820024
    23  C    5.538805   6.413009   6.077857   6.900765   5.054088
    24  F    4.953538   5.584327   5.583724   6.588414   4.018302
    25  C    6.084566   6.904473   5.538455   6.415050   5.091168
    26  F    5.581271   6.582288   4.941565   5.576330   5.154288
    27  H    7.126310   7.627329   7.132512   8.253890   5.553607
    28  H    8.070328   8.749741   8.334078   9.309322   6.950300
    29  H    8.329617   9.305274   8.060244   8.738712   7.693052
    30  H    7.117646   8.238818   7.105286   7.606509   7.024239
    31  H    6.230518   7.093102   7.043703   7.822168   5.891232
    32  H    4.899160   5.938207   5.492043   6.150667   4.903502
    33  H    7.051971   7.828171   6.232986   7.096927   5.899869
    34  H    5.506584   6.161025   4.907404   5.949148   4.148076
                   11         12         13         14         15
    11  H    0.000000
    12  H    2.993434   0.000000
    13  H    3.761809   1.800252   0.000000
    14  H    2.591227   3.725279   3.126410   0.000000
    15  H    3.794797   3.777927   2.567623   1.799353   0.000000
    16  H    3.725077   2.590621   3.073294   4.327768   3.751389
    17  H    3.778057   3.794439   3.715688   3.751519   3.033279
    18  F    5.952821   6.159067   7.828729   8.255214   9.314151
    19  C    4.910380   5.502363   7.052020   7.133661   8.338695
    20  C    4.226498   4.225632   5.712852   6.182825   7.244439
    21  C    5.495639   4.897834   6.226510   7.112510   8.061257
    22  F    6.151023   5.937828   7.089124   7.612725   8.739641
    23  C    3.342522   3.927587   5.092609   5.002872   6.273743
    24  F    2.402789   4.009599   5.166895   4.441172   5.855716
    25  C    3.931344   3.349870   5.063842   5.995888   6.755611
    26  F    4.002798   2.399499   4.021484   5.573311   6.060921
    27  H    4.398509   5.487864   7.040751   6.789288   8.045848
    28  H    5.508143   6.275557   7.697243   7.566124   8.900565
    29  H    6.273031   5.498432   6.941457   8.033455   8.892394
    30  H    5.473551   4.377803   5.535680   6.769793   7.551730
    31  H    4.139916   4.911330   5.896893   5.544667   6.946435
    32  H    3.169880   3.175548   4.143977   4.384184   5.500842
    33  H    4.918415   4.148917   5.901478   7.037835   7.699028
    34  H    3.186736   3.188220   4.922624   5.489819   6.282031
                   16         17         18         19         20
    16  H    0.000000
    17  H    1.799359   0.000000
    18  F    7.619420   8.749478   0.000000
    19  C    7.116735   8.068648   1.376440   0.000000
    20  C    6.176724   7.240653   2.387218   1.530600   0.000000
    21  C    7.118787   8.326391   2.895601   2.507030   1.530594
    22  F    8.239815   9.301453   3.446572   2.895610   2.387176
    23  C    5.986366   6.747856   3.712335   2.493460   1.529227
    24  F    5.571820   6.061422   4.089494   2.818864   2.390020
    25  C    4.999331   6.271471   2.836309   2.490571   1.529240
    26  F    4.425030   5.841876   4.084804   3.714242   2.390028
    27  H    6.781478   7.566791   2.015313   1.101908   2.179225
    28  H    8.035322   8.897948   2.014459   1.102641   2.169506
    29  H    7.554076   8.891228   2.550178   2.726496   2.169516
    30  H    6.766418   8.025263   3.889668   3.473183   2.179192
    31  H    7.027260   7.690303   4.041461   2.770653   2.176118
    32  H    5.473061   6.266206   4.543658   3.459153   2.175322
    33  H    5.544581   6.947282   2.478486   2.707810   2.176072
    34  H    4.389281   5.505893   3.264095   2.780777   2.175240
                   21         22         23         24         25
    21  C    0.000000
    22  F    1.376444   0.000000
    23  C    2.490537   2.836144   0.000000
    24  F    3.714302   4.085455   1.382399   0.000000
    25  C    2.493486   3.712333   2.514810   2.934162   0.000000
    26  F    2.817820   4.088728   2.935296   3.546883   1.382379
    27  H    3.473204   3.889692   2.734042   2.482062   2.756456
    28  H    2.726523   2.550216   2.748724   3.188540   3.454685
    29  H    1.102641   2.014478   3.454662   4.540634   2.748834
    30  H    1.101897   2.015313   2.756443   4.051616   2.733995
    31  H    2.708700   2.479266   1.101622   2.013660   3.476355
    32  H    2.779875   3.262469   1.100371   2.014528   2.727026
    33  H    2.771536   4.042095   3.476264   3.907754   1.101615
    34  H    3.459026   4.543469   2.726038   2.589584   1.100354
                   26         27         28         29         30
    26  F    0.000000
    27  H    4.052099   0.000000
    28  H    4.540546   1.799351   0.000000
    29  H    3.186969   3.751477   3.033746   0.000000
    30  H    2.480868   4.327786   3.751490   1.799360   0.000000
    31  H    3.909264   3.126665   2.567293   3.715776   3.073243
    32  H    2.591948   3.725572   3.777710   3.794334   2.590405
    33  H    2.013610   3.071828   3.715151   2.568383   3.127921
    34  H    2.014516   2.591431   3.794952   3.778158   3.724896
                   31         32         33         34
    31  H    0.000000
    32  H    1.800166   0.000000
    33  H    4.324735   3.762553   0.000000
    34  H    3.761438   2.993016   1.800267   0.000000
 Framework group  C1[X(C10H16F8)]
 Deg. of freedom    96
                         Standard orientation:                         
 ---------------------------------------------------------------------
 Center     Atomic      Atomic             Coordinates (Angstroms)
 Number     Number       Type             X           Y           Z
 ---------------------------------------------------------------------
      1          9           0       -1.161106    0.079444   -1.769127
      2          6           0       -1.894563    0.871263   -0.905470
      3          6           0       -2.765403   -0.000112    0.000577
      4          6           0       -1.895519   -0.870128    0.908833
      5          9           0       -1.164649   -0.077069    1.773721
      6          6           0       -3.645553    0.905500    0.865398
      7          9           0       -4.418489    1.720722    0.070062
      8          6           0       -3.641845   -0.907177   -0.866488
      9          9           0       -4.415614   -1.723504   -0.073081
     10          1           0       -2.520592    1.542833   -1.514276
     11          1           0       -1.187397    1.465177   -0.307152
     12          1           0       -1.186382   -1.463465    0.312287
     13          1           0       -2.522056   -1.542032    1.516741
     14          1           0       -3.026504    1.543414    1.516585
     15          1           0       -4.318914    0.291838    1.486546
     16          1           0       -3.020070   -1.544202   -1.515933
     17          1           0       -4.314511   -0.294635   -1.489494
     18          9           0        4.424614    0.065895   -1.715494
     19          6           0        3.649188    0.863082   -0.904450
     20          6           0        2.765256    0.000318   -0.000548
     21          6           0        3.637924   -0.866171    0.910696
     22          9           0        4.409794   -0.072210    1.728278
     23          6           0        1.893250    0.910574    0.865231
     24          9           0        1.165576    1.774705    0.068491
     25          6           0        1.896605   -0.906225   -0.873590
     26          9           0        1.160522   -1.768933   -0.083092
     27          1           0        3.032848    1.513533   -1.545732
     28          1           0        4.320683    1.484891   -0.289418
     29          1           0        4.311972   -1.490773    0.301312
     30          1           0        3.013472   -1.514017    1.546725
     31          1           0        2.518067    1.519021    1.538259
     32          1           0        1.181799    0.315511    1.457308
     33          1           0        2.524375   -1.515919   -1.542720
     34          1           0        1.191331   -0.308167   -1.469991
 ---------------------------------------------------------------------
 Rotational constants (GHZ):           0.7520146           0.1652710           0.1652668
   284 basis functions,   514 primitive gaussians,   302 cartesian basis functions
    74 alpha electrons       74 beta electrons
       nuclear repulsion energy      1571.9779388627 Hartrees.
 NAtoms=   34 NActive=   34 NUniq=   34 SFac= 1.00D+00 NAtFMM=   60 NAOKFM=F Big=F
 Nuclear repulsion after empirical dispersion term =     1571.9495671381 Hartrees.
   1 Symmetry operations used in ECPInt.
 ECPInt:  NShTT=    9870 NPrTT=   39622 LenC2=    8903 LenP2D=   24337.
 LDataN:  DoStor=T MaxTD1= 4 Len=   56
 Initial guess from the checkpoint file:  "/scratch/user/peterchao1/peterchao1/6269694_1663082653000000866677118/Gau-250149.chk"
 B after Tr=    -0.000000    0.000000    0.000000
         Rot=    0.994790   -0.101944   -0.000051   -0.000009 Ang= -11.70 deg.
 ExpMin= 1.22D-01 ExpMax= 2.89D+03 ExpMxC= 4.35D+02 IAcc=3 IRadAn=         5 AccDes= 0.00D+00
 Harris functional with IExCor= 4639 and IRadAn=       5 diagonalized for initial guess.
 HarFok:  IExCor= 4639 AccDes= 0.00D+00 IRadAn=         5 IDoV= 1 UseB2=F ITyADJ=14
 ICtDFT=  3500011 ScaDFX=  1.000000  1.000000  1.000000  1.000000
 FoFCou: FMM=F IPFlag=           0 FMFlag=      100000 FMFlg1=           0
         NFxFlg=           0 DoJE=T BraDBF=F KetDBF=T FulRan=T
         wScrn=  0.000000 ICntrl=       500 IOpCl=  0 I1Cent=   200000004 NGrid=           0
         NMat0=    1 NMatS0=      1 NMatT0=    0 NMatD0=    1 NMtDS0=    0 NMtDT0=    0
 Petite list used in FoFCou.
     Minimum is close to point  4 DX=  3.07D-02 DF= -1.54D-06 DXR=  2.50D-02 DFR=  6.24D-04 which will be used.
     Accept linear search using points  2 and  3.
     Accept linear search using points  1 and  2.
     Minimum is close to point  2 DX= -1.09D-02 DF= -2.56D-08 DXR=  9.96D-03 DFR=  1.18D-04 which will be used.
     Accept linear search using points  1 and  2.
     Accept linear search using points  1 and  2.
     Minimum is close to point  2 DX= -2.11D-05 DF=  0.00D+00 DXR=  2.11D-05 DFR=  0.00D+00 which will be used.
 SCF Done:  E(RwB97XD) =  -1188.14969962     a.u. after    7 cycles
            Convg  =    0.2238D-08                    30 Fock formations.
              S**2 =  0.0000                  -V/T =  2.0070
 DoSCS=F DFT=T ScalE2(SS,OS)=  1.000000  1.000000
 NROrb=    284 NOA=    74 NOB=    74 NVA=   210 NVB=   210

 **** Warning!!: The largest alpha MO coefficient is  0.11700181D+02

   1 Symmetry operations used in ECPInt.
 ECPInt:  NShTT=    9870 NPrTT=   39622 LenC2=    8903 LenP2D=   24337.
 LDataN:  DoStor=T MaxTD1= 5 Len=  102
 Symmetrizing basis deriv contribution to polar:
 IMax=3 JMax=2 DiffMx= 0.00D+00
 Calling FoFCou, ICntrl=  3107 FMM=F I1Cent=   0 AccDes= 0.00D+00.
 End of G2Drv F.D. properties file   721 does not exist.
 End of G2Drv F.D. properties file   722 does not exist.
 End of G2Drv F.D. properties file   788 does not exist.
          IDoAtm=1111111111111111111111111111111111
 CalDSu exits because no D1Ps are significant.
 End of Minotr F.D. properties file   721 does not exist.
 End of Minotr F.D. properties file   722 does not exist.
 End of Minotr F.D. properties file   788 does not exist.
   1 Symmetry operations used in ECPInt.
 ECPInt:  NShTT=    9870 NPrTT=   39622 LenC2=    8903 LenP2D=   24337.
 LDataN:  DoStor=T MaxTD1= 6 Len=  172
 Calling FoFJK, ICntrl=    100127 FMM=F ISym2X=0 I1Cent= 0 IOpClX= 0 NMat=1 NMatS=1 NMatT=0.
 FormGI is forming the generalized inverse of G from B-inverse, IUseBI=4.

 GradGradGradGradGradGradGradGradGradGradGradGradGradGradGradGradGradGrad
 Using GEDIIS/GDIIS optimizer.
[...]
 ,-0.00166098,-0.00186492,-0.01079799,-0.00975732,-0.00515459,-0.105821
 20,-0.17514313,-0.07221565,-0.00176110,-0.02512070,-0.01751717,0.00015
 156,0.00057110,0.00243724,-0.00096777,-0.00082076,0.00012151,0.0007593
 4,0.00044919,-0.00018042,-0.00027803,0.00002302,0.00002043,0.00014105,
 0.00017320,-0.00002352,0.00008570,0.00013486,0.00002873,0.11241959,0.1
 9614111,-0.00003513,-0.00003661,-0.00001996,-0.00000554,0.00006335,0.0
 0004374,-0.00000033,-0.00001012,-0.00001501,0.00001343,0.00000609,-0.0
 0001610,0.00000527,-0.00001258,0.00003596,-0.00000318,0.00000087,-0.00
 000014,0.00000099,-0.00000095,0.00000256,-0.00000075,0.00000080,0.0000
 0689,0.00000343,-0.00000344,0.00000118,0.00000577,-0.00000983,-0.00000
 430,-0.00004093,-0.00000543,-0.00000481,0.00000505,-0.00000122,-0.0000
 0186,0.00000217,-0.00000298,0.00000109,-0.00000264,-0.00000024,-0.0000
 0444,0.00000292,-0.00000118,-0.00000025,0.00000050,-0.00000093,-0.0000
 0007,-0.00000061,0.00000118,0.00000059,-0.00092029,-0.00017428,-0.0015
 8218,0.00070358,0.00080344,0.00127303,0.01526699,0.01725033,0.01081996
 ,-0.06819255,-0.07519153,-0.10015150,-0.00021920,-0.01744644,-0.006697
 49,0.00060248,-0.00014379,-0.00423585,0.00176092,0.00203230,-0.0001033
 0,-0.00035904,0.00064713,0.00169359,-0.00013848,0.00014052,0.00000058,
 0.00002608,-0.00024408,0.00014409,-0.00015730,0.00002884,-0.00020110,0
 .06545783,0.08835364,0.10574743,0.00001015,0.00000626,-0.00001844,-0.0
 0000765,0.00000375,0.00001589,0.00000889,-0.00000210,0.00000947,-0.000
 08765,0.00005338,0.00005337,0.00007114,-0.00003666,-0.00006171,-0.0000
 2673,-0.00001632,0.00000090,0.00002507,0.00001710,-0.00001400,-0.00001
 714,0.00002452,-0.00000316,0.00001832,-0.00001279,0.00000433,0.0000056
 8,-0.00000117,-0.00000735,-0.00000582,-0.00000813,0.00001029,-0.000013
 33,0.00000809,0.00001593,0.00001622,-0.00000515,-0.00000285,-0.0000024
 4,-0.00000494,-0.00000090,0.00000123,-0.00000050,-0.00000029,-0.000002
 43,0.00000068,0.00000276,0.00000624,-0.00000264,-0.00000228,0.00038434
 ,0.00081364,-0.00038657,-0.00392621,-0.00209167,0.00236770,0.01281213,
 -0.00868953,0.01408383,-0.13302518,0.05262803,-0.10967659,-0.01743160,
 0.01954226,-0.00714372,0.00097440,-0.00041510,0.00099039,0.00019875,0.
 00035584,-0.00040462,0.00108399,0.00006427,-0.00037923,-0.00222348,0.0
 0096851,0.00110744,0.00077105,-0.00053431,0.00089599,-0.00002900,-0.00
 014108,-0.00002585,-0.00636075,0.00664222,-0.01379801,0.14738946,-0.00
 004457,-0.00003911,-0.00003795,0.00002428,0.00005450,0.00005609,0.0000
 0784,-0.00002225,-0.00001093,-0.00012619,0.00016122,0.00015007,0.00015
 253,-0.00011865,-0.00011922,-0.00003240,-0.00000737,0.00001614,0.00002
 536,0.00001253,-0.00002199,-0.00000628,0.00003208,0.00000179,0.0000116
 8,-0.00001373,-0.00000179,0.00000247,-0.00000689,-0.00001010,-0.000014
 12,-0.00001667,0.00001250,-0.00000342,0.00000226,-0.00000861,0.0000197
 3,-0.00001456,-0.00000839,-0.00000276,-0.00000997,-0.00000002,-0.00000
 129,-0.00000006,-0.00000101,-0.00000090,-0.00000320,0.00000002,0.00000
 651,-0.00000443,-0.00000347,0.00059672,0.00105100,-0.00037653,-0.00303
 558,-0.00132018,0.00090890,0.00669710,-0.00417483,0.01306005,0.0500963
 1,-0.09262203,0.07203767,0.02420477,-0.01780049,0.01107605,0.00121676,
 -0.00029946,0.00111253,0.00012065,0.00052732,-0.00066510,0.00023141,-0
 .00068792,0.00041788,0.00110937,-0.00024161,-0.00146069,0.00053494,-0.
 00024548,0.00046916,0.00002146,0.00017320,-0.00024411,-0.01211763,0.01
 223941,-0.01567873,-0.06892879,0.10342135,0.00000845,-0.00002626,0.000
 04121,-0.00001462,0.00002868,-0.00002776,-0.00000729,-0.00001930,-0.00
 003679,0.00009750,0.00004778,-0.00000310,-0.00004085,-0.00003002,0.000
 03158,0.00003137,0.00003277,0.00000285,-0.00003416,-0.00003454,0.00002
 475,0.00001403,-0.00000261,-0.00000062,-0.00001122,-0.00000498,0.00000
 894,-0.00000593,-0.00000153,0.00001184,-0.00001291,0.00000462,-0.00001
 280,0.00005923,-0.00001166,-0.00002103,-0.00001091,-0.00000673,0.00000
 178,0.00000068,0.00000216,-0.00000320,0.00000320,0.00000093,0.00000187
 ,0.00000494,-0.00000216,-0.00000997,-0.00001101,0.00000023,0.00000310,
 0.00022273,-0.00006017,0.00022502,0.00405283,0.00147289,-0.00218513,-0
 .01281952,0.00812838,-0.01432172,-0.11438863,0.07806488,-0.20356722,0.
 01687722,-0.01314607,0.01706719,-0.00087539,-0.00095884,0.00008805,0.0
 0011565,-0.00042090,0.00036799,-0.00175181,0.00203019,-0.00197708,0.00
 076461,-0.00131750,0.00222278,-0.00089825,0.00046987,-0.00092562,0.000
 04928,-0.00002333,0.00014406,-0.00535162,0.00584219,-0.00635358,0.1128
 5531,-0.08062757,0.20848272,-0.00000460,0.00008572,0.00004612,0.000119
 46,-0.00020492,-0.00015168,-0.00001359,0.00005636,0.00006057,0.0002539
 0,-0.00022392,-0.00012638,-0.00062524,0.00011386,-0.00012332,0.0000489
 4,0.00007689,0.00003675,-0.00004954,-0.00004331,-0.00000428,0.00004270
 ,-0.00008183,-0.00001689,-0.00006996,0.00005694,-0.00002973,-0.0000371
 3,0.00004113,0.00003398,0.00027195,0.00010786,0.00001644,0.00001432,-0
 .00005363,0.00000346,-0.00003720,0.00002388,-0.00000785,0.00001624,0.0
 0001091,0.00001972,-0.00001390,-0.00000215,-0.00000620,0.00000569,-0.0
 0000593,-0.00000249,-0.00000790,0.00000577,0.00000494,0.00010633,0.000
 32164,0.00032252,0.00114605,-0.00103767,-0.00022428,0.01248110,-0.0126
 6448,-0.01067108,0.00139538,-0.00003189,0.00023718,-0.00217181,-0.0006
 5562,0.00051229,-0.13721774,0.10268194,0.06997617,-0.01290400,0.002487
 69,0.01803535,-0.00362897,-0.00209579,-0.00243335,0.00040184,0.0002037
 0,0.00078891,-0.00011375,0.00007839,-0.00016536,-0.00028631,0.00028538
 ,-0.00017577,0.00005738,0.00018412,-0.00008555,-0.00011609,0.00009511,
 0.00014817,0.14761015,0.00018365,0.00017958,0.00004589,-0.00013571,-0.
 00025988,-0.00015528,-0.00001013,0.00004284,0.00008306,-0.00021003,-0.
 00000297,0.00001242,0.00036031,-0.00000244,0.00007306,-0.00002251,-0.0
 0005391,-0.00001612,0.00003240,0.00004213,-0.00001444,-0.00002809,0.00
 000261,-0.00003806,0.00001861,0.00000851,0.00000851,0.00000789,0.00002
 070,-0.00000413,0.00016189,0.00004994,0.00007481,-0.00005865,0.0000348
 6,0.00001439,0.00003395,0.00001049,0.00000410,0.00000284,0.00000178,0.
 00000837,-0.00000111,0.00000109,0.00000061,-0.00000735,0.00001183,0.00
 001010,0.00001170,-0.00000429,-0.00000357,-0.00016768,0.00029177,0.000
 33729,0.00080766,0.00014201,0.00107430,0.01298948,-0.01354660,-0.01055
 423,0.00210260,-0.00195494,-0.00193387,-0.00086310,0.00225631,0.001173
 96,0.10686507,-0.17652772,-0.09113394,-0.01981917,0.01491149,0.0193850
 7,-0.00436626,-0.00201942,-0.00219886,-0.00002351,0.00019026,0.0003034
 8,-0.00012987,-0.00000960,0.00000865,-0.00061157,0.00045830,-0.0006000
 3,-0.00001871,0.00023152,0.00018570,-0.00015025,0.00003863,0.00012829,
 -0.10290560,0.18179912,0.00004744,-0.00005553,0.00004447,-0.00006080,0
 .00016862,0.00004015,0.00001188,-0.00001782,-0.00008899,0.00035320,-0.
 00022433,-0.00022184,-0.00069812,0.00012922,-0.00000815,0.00001852,0.0
 0001361,0.00000197,-0.00001904,-0.00002674,0.00002734,-0.00002705,-0.0
 0000132,0.00002959,0.00002488,-0.00003138,0.00002604,0.00002390,-0.000
 01749,0.00001045,-0.00021584,-0.00004248,-0.00013351,0.00003081,-0.000
 02989,-0.00000920,-0.00004111,0.00001744,0.00002073,-0.00000517,0.0000
 0672,-0.00001457,0.00001310,0.00000298,0.00000416,0.00000116,0.0000015
 3,-0.00000689,-0.00001531,0.00000982,0.00000821,0.00003098,0.00056935,
 0.00045178,0.00127737,-0.00111433,-0.00018612,0.00748824,-0.01167094,-
 0.00546173,0.00060947,-0.00059364,-0.00042983,0.00079198,0.00158516,0.
 00005872,0.06640187,-0.08443543,-0.11595468,0.02307827,-0.00676090,-0.
 02115109,-0.00291504,-0.00092075,-0.00119849,0.00053026,0.00008862,0.0
 0080759,0.00002988,0.00007035,0.00011164,-0.00070420,0.00021117,-0.000
 42358,-0.00009652,-0.00001827,0.00000318,-0.00019213,-0.00007548,-0.00
 000937,-0.08595822,0.09143179,0.13008622,-0.00018036,-0.00007877,-0.00
 015061,0.00026423,0.00016346,0.00016805,0.00005253,-0.00019439,-0.0000
 2507,-0.00137149,0.00165310,0.00156399,-0.00175566,-0.00071028,-0.0018
 0320,-0.00019096,-0.00011173,0.00005490,0.00014188,0.00010751,-0.00011
 183,-0.00001432,0.00018032,-0.00003507,0.00005006,-0.00002978,-0.00002
 126,0.00001422,-0.00003081,-0.00005864,0.00024661,-0.00007255,-0.00003
 904,0.00024667,-0.00007824,-0.00010780,0.00027190,-0.00021555,-0.00016
 199,-0.00001338,-0.00005923,-0.00000341,-0.00000927,-0.00000505,-0.000
 00698,-0.00000580,-0.00001290,0.00001412,0.00005305,-0.00004088,-0.000
 02742,-0.00089385,-0.00021941,-0.00124248,-0.00039322,-0.00290003,0.00
 006199,-0.01008457,0.00724757,-0.01007278,0.00014436,0.00088621,-0.000
 99472,0.00008953,-0.00033739,0.00037266,-0.18630121,0.08692726,-0.1179
 0609,0.01476682,-0.01705531,0.02293704,-0.00014207,0.00091058,-0.00010
 337,0.00060324,0.00034760,0.00114894,0.00000756,0.00010212,-0.00014141
 ,0.00020554,-0.00019608,0.00022604,0.00025484,-0.00010169,0.00015291,-
 0.00039561,-0.00068076,0.00062158,-0.00729236,0.00519272,-0.01026905,0
 .19162224,-0.00010620,-0.00007182,-0.00005498,0.00007208,0.00005705,0.
 00003514,-0.00000120,-0.00004629,-0.00005377,0.00062345,0.00038274,0.0
 0041044,0.00049700,-0.00083460,-0.00023421,-0.00003219,0.00006275,0.00
 009238,0.00000155,-0.00002466,-0.00004221,0.00003607,-0.00000771,-0.00
 000775,-0.00003609,0.00001303,-0.00002423,-0.00000348,-0.00000918,-0.0
 0001435,0.00010774,0.00001948,0.00014212,-0.00003888,-0.00012287,-0.00
 014216,0.00001666,-0.00013364,-0.00007493,-0.00001593,-0.00002098,0.00
 000862,-0.00000730,-0.00000185,-0.00000653,0.00001029,-0.00001281,-0.0
 0001250,0.00000263,-0.00000484,-0.00000500,-0.00189373,-0.00008965,-0.
 00209331,-0.00094960,-0.00454971,0.00028146,-0.01752757,0.01157933,-0.
 01569998,0.00069452,0.00138575,-0.00100379,0.00020844,0.00015032,0.000
 08716,0.08020916,-0.10261865,0.06515528,0.00423982,-0.01069893,0.02004
 216,-0.00065650,0.00141483,-0.00082668,0.00078109,-0.00131193,0.000484
 29,0.00011521,0.00009562,-0.00017861,-0.00015110,0.00009000,0.00008845
 ,0.00019187,0.00000103,-0.00003722,-0.00010184,-0.00015062,0.00061028,
 0.01400057,-0.00545474,0.01196638,-0.08051330,0.11090389,-0.00009842,-
 0.00009499,0.00006911,0.00012251,0.00004902,-0.00001919,0.00011221,-0.
 00005039,-0.00005929,0.00061413,0.00000780,-0.00019458,-0.00176154,-0.
 00002436,-0.00050654,0.00005188,0.00007382,-0.00000187,-0.00005993,-0.
 00005870,0.00002855,0.00004586,-0.00003309,-0.00000590,-0.00003936,0.0
 0001763,-0.00000739,-0.00005359,0.00002995,0.00003494,-0.00007837,0.00
 017388,-0.00012279,0.00007251,-0.00017378,0.00001951,-0.00010803,0.000
 04255,0.00005011,0.00000810,0.00001169,0.00000226,-0.00000972,0.000001
 23,0.00000363,0.00000813,-0.00000461,-0.00001669,-0.00001687,0.0000054
 4,0.00000294,-0.00085753,-0.00001407,-0.00059372,-0.00005141,-0.002281
 90,0.00046518,-0.01179899,0.00438815,-0.00812653,0.00058946,-0.0001089
 9,0.00033315,0.00003886,0.00016041,-0.00021762,-0.10594405,0.06304126,
 -0.14663859,-0.00700513,0.01969531,-0.02333366,-0.00136497,0.00162923,
 -0.00103929,0.00089883,-0.00013105,0.00126567,0.00009743,0.00008298,0.
 00022708,-0.00016428,0.00016196,-0.00004948,0.00009992,-0.00010973,0.0
 0009220,-0.00016917,-0.00012074,0.00039078,0.01054043,-0.00742946,0.01
 370941,0.11604793,-0.07908295,0.16415251,-0.00062414,-0.00011369,0.000
 12411,0.00025360,0.00022363,0.00012576,-0.00001368,-0.00005638,-0.0000
 6068,0.00011973,0.00020515,0.00015157,-0.00000472,-0.00008580,-0.00004
 605,0.00004276,0.00008183,0.00001687,-0.00006995,-0.00005698,0.0000298
 6,0.00004887,-0.00007687,-0.00003681,-0.00004951,0.00004328,0.00000438
 ,-0.00003713,-0.00002385,0.00000793,0.00001427,0.00005358,-0.00000349,
 0.00027221,-0.00010792,-0.00001698,-0.00003720,-0.00004116,-0.00003391
 ,0.00000569,0.00000594,0.00000247,-0.00000788,-0.00000576,-0.00000492,
 0.00001622,-0.00001090,-0.00001976,-0.00001391,0.00000216,0.00000622,-
 0.00217360,0.00065776,-0.00050933,0.00139425,0.00003110,-0.00023962,0.
 01248528,0.01264886,0.01064720,0.00114465,0.00103617,0.00022250,0.0001
 0585,-0.00032088,-0.00032206,-0.00362183,0.00209456,0.00243658,0.00040
 009,-0.00020359,-0.00078837,-0.13739977,-0.10279410,-0.06994820,-0.012
 95866,-0.00249656,-0.01804621,-0.00011603,-0.00009521,-0.00014802,0.00
 005762,-0.00018414,0.00008547,-0.00028513,-0.00028510,0.00017558,-0.00
 011357,-0.00007830,0.00016566,0.00071054,0.00093059,0.00050501,-0.0000
 9172,-0.00001981,0.00009454,0.14783953,-0.00036021,-0.00000244,0.00007
 353,0.00021005,-0.00000297,0.00001214,0.00001024,0.00004284,0.00008304
 ,0.00013550,-0.00025988,-0.00015546,-0.00018359,0.00017958,0.00004613,
 0.00002804,0.00000261,-0.00003810,-0.00001860,0.00000851,0.00000854,0.
 00002249,-0.00005391,-0.00001615,-0.00003242,0.00004213,-0.00001440,-0
 .00003394,0.00001049,0.00000414,0.00005867,0.00003486,0.00001432,-0.00
 016179,0.00004994,0.00007502,-0.00000789,0.00002070,-0.00000412,0.0000
 0737,0.00001183,0.00001009,-0.00001170,-0.00000429,-0.00000355,-0.0000
 0283,0.00000178,0.00000838,0.00000111,0.00000109,0.00000061,0.00086468
 ,0.00225631,0.00117282,-0.00210518,-0.00195494,-0.00193107,-0.01300354
 ,-0.01354657,-0.01053699,-0.00080622,0.00014201,0.00107537,0.00016813,
 0.00029177,0.00033707,0.00436332,-0.00201943,-0.00220468,0.00002392,0.
 00019026,0.00030344,-0.10698614,-0.17652663,-0.09099164,0.01984508,0.0
 1491141,0.01935885,0.00015042,0.00003863,0.00012810,0.00001896,0.00023
 152,0.00018568,0.00061077,0.00045829,-0.00060084,0.00012988,-0.0000096
 0,0.00000848,-0.00093121,-0.00109508,-0.00045650,0.00017229,0.00020580
 ,0.00017564,0.10302697,0.18179805,0.00069894,0.00012937,-0.00000922,-0
 .00035382,-0.00022463,-0.00022155,-0.00001198,-0.00001774,-0.00008889,
 0.00006070,0.00016835,0.00003987,-0.00004737,-0.00005542,0.00004459,0.
 00002703,-0.00000143,0.00002953,-0.00002475,-0.00003131,0.00002604,-0.
 00001859,0.00001371,0.00000204,0.00001914,-0.00002680,0.00002730,0.000
 04118,0.00001747,0.00002067,-0.00003084,-0.00002996,-0.00000915,0.0002
 1531,-0.00004234,-0.00013376,-0.00002383,-0.00001743,0.00001053,-0.000
 00118,0.00000152,-0.00000689,0.00001533,0.00000983,0.00000820,0.000005
 13,0.00000674,-0.00001455,-0.00001308,0.00000297,0.00000417,-0.0007890
 2,0.00158432,0.00006046,-0.00061192,-0.00059369,-0.00042870,-0.0075122
 0,-0.01168779,-0.00546601,-0.00127914,-0.00111570,-0.00018471,-0.00003
 051,0.00056977,0.00045225,0.00291828,-0.00092355,-0.00120562,-0.000529
 72,0.00008890,0.00080935,-0.06637389,-0.08429872,-0.11577379,-0.023089
 14,-0.00675740,-0.02109636,0.00019227,-0.00007535,-0.00000943,0.000096
 45,-0.00001802,0.00000294,0.00070401,0.00021156,-0.00042475,-0.0000295
 8,0.00007046,0.00011146,-0.00050628,-0.00045774,-0.00023743,0.00005086
 ,0.00022046,0.00009362,0.08593521,0.09129468,0.12985805,-0.00175079,0.
 00071033,0.00180477,-0.00137434,-0.00165307,-0.00156240,0.00005241,0.0
 0019433,0.00002492,0.00026384,-0.00016338,-0.00016842,-0.00018002,0.00
 007863,0.00015094,-0.00001434,-0.00018036,0.00003508,0.00005014,0.0000
 2980,0.00002118,-0.00019110,0.00011183,-0.00005464,0.00014211,-0.00010
 759,0.00011168,0.00027225,0.00021560,0.00016169,0.00024669,0.00007802,
 0.00010750,0.00024675,0.00007277,0.00003854,0.00001437,0.00003084,0.00
 005867,-0.00000583,0.00001290,-0.00001413,0.00005311,0.00004089,0.0000
 2735,-0.00001338,0.00005925,0.00000343,-0.00000924,0.00000505,0.000007
 00,0.00008898,0.00033761,-0.00037306,0.00014489,-0.00088636,0.00099496
 ,-0.01005544,-0.00724170,0.01007532,-0.00039323,0.00289698,-0.00006085
 ,-0.00089105,0.00021939,0.00124288,-0.00014013,-0.00090842,0.00010218,
 0.00060049,-0.00034773,-0.00114805,-0.18600380,-0.08684346,0.11795839,
 0.01474558,0.01708145,-0.02298754,-0.00039621,0.00068059,-0.00062054,0
 .00025450,0.00010154,-0.00015313,0.00020546,0.00019629,-0.00022638,0.0
 0000762,-0.00010201,0.00014170,-0.00009191,-0.00017205,-0.00005061,0.0
 0010054,0.00024657,0.00013863,-0.00729273,-0.00520262,0.01029701,0.191
 31381,-0.00049721,-0.00083460,-0.00023360,-0.00062287,0.00038275,0.000
 41126,0.00000113,-0.00004629,-0.00005377,-0.00007203,0.00005704,0.0000
 3523,0.00010613,-0.00007181,-0.00005512,-0.00003608,-0.00000771,-0.000
 00771,0.00003605,0.00001303,-0.00002428,0.00003231,0.00006274,0.000092
 34,-0.00000161,-0.00002466,-0.00004221,-0.00001676,-0.00013363,-0.0000
 7490,0.00003870,-0.00012287,-0.00014221,-0.00010756,0.00001949,0.00014
 225,0.00000347,-0.00000918,-0.00001436,-0.00001031,-0.00001281,-0.0000
 1248,-0.00000264,-0.00000484,-0.00000500,0.00001594,-0.00002098,0.0000
 0860,0.00000729,-0.00000185,-0.00000654,-0.00020832,0.00015032,0.00008
 744,-0.00069586,0.00138574,-0.00100286,0.01750668,0.01157932,-0.015723
 27,0.00094998,-0.00454971,0.00028020,0.00189093,-0.00008966,-0.0020958
 4,0.00065541,0.00141483,-0.00082757,-0.00078043,-0.00131196,0.00048533
 ,-0.08012255,-0.10261856,0.06526183,-0.00421324,-0.01069908,0.02004788
 ,0.00010265,-0.00015062,0.00061015,-0.00019192,0.00000103,-0.00003697,
 0.00015121,0.00009000,0.00008825,-0.00011545,0.00009562,-0.00017846,0.
 00002010,0.00020581,0.00022043,-0.00024661,-0.00019617,-0.00002915,-0.
 01398459,-0.00545469,0.01198490,0.08040808,0.11090395,0.00176316,-0.00
 002530,-0.00051117,-0.00061260,0.00000995,-0.00019175,-0.00011235,-0.0
 0005064,-0.00005918,-0.00012287,0.00004924,-0.00001881,0.00009874,-0.0
 0009510,0.00006878,-0.00004585,-0.00003286,-0.00000589,0.00003928,0.00
 001759,-0.00000747,-0.00005163,0.00007368,-0.00000173,0.00005979,-0.00
 005856,0.00002833,0.00010775,0.00004227,0.00004976,-0.00007280,-0.0001
 7387,0.00001946,0.00007789,0.00017378,-0.00012294,0.00005362,0.0000299
 0,0.00003479,-0.00000814,-0.00000463,-0.00001666,0.00001680,0.00000539
 ,0.00000288,-0.00000808,0.00001162,0.00000227,0.00000974,0.00000122,0.
 00000360,-0.00003928,0.00015997,-0.00021707,-0.00058921,-0.00010781,0.
 00033259,0.01180166,0.00439781,-0.00815570,0.00005255,-0.00228577,0.00
 046520,0.00085794,-0.00001437,-0.00059654,0.00136380,0.00163046,-0.001
 04126,-0.00089795,-0.00013060,0.00126841,0.10599636,0.06315668,-0.1469
 3596,0.00695448,0.01967264,-0.02331233,0.00017021,-0.00012164,0.000391
 38,-0.00010013,-0.00010986,0.00009254,0.00016394,0.00016170,-0.0000494
 0,-0.00009714,0.00008312,0.00022702,-0.00009430,0.00017587,0.00009381,
 -0.00013878,-0.00002947,-0.00000751,-0.01051253,-0.00742256,0.01370974
 ,-0.11608407,-0.07918981,0.16446079\\0.00000095,-0.00000185,0.00000399
 ,0.00000040,-0.00000214,-0.00000059,-0.00000592,0.,0.,0.00000043,0.000
 00214,0.00000059,0.00000094,0.00000187,-0.00000400,-0.00000004,0.00000
 437,-0.00000128,0.00000200,0.00000359,-0.00000440,-0.00000003,-0.00000
 437,0.00000128,0.00000201,-0.00000359,0.00000440,-0.00000021,-0.000002
 85,-0.00000327,0.00000338,-0.00000362,0.00000024,0.00000335,0.00000359
 ,-0.00000024,-0.00000021,0.00000285,0.00000327,-0.00000201,0.00000007,
 0.00000210,0.00000015,0.00000080,-0.00000083,-0.00000202,-0.00000007,-
 0.00000210,0.00000014,-0.00000079,0.00000083,-0.00000200,-0.00000439,-
 0.00000360,0.00000002,-0.00000128,-0.00000436,0.00000592,-0.00000002,0
 .00000006,0.00000005,0.00000128,0.00000437,-0.00000202,0.00000440,0.00
 000357,-0.00000040,0.00000060,-0.00000214,-0.00000096,-0.00000398,-0.0
 0000185,-0.00000042,-0.00000058,0.00000214,-0.00000094,0.00000401,0.00
 000187,0.00000202,0.00000210,-0.00000007,-0.00000015,-0.00000083,-0.00
 000081,-0.00000014,0.00000083,0.00000079,0.00000201,-0.00000209,0.0000
 0008,0.00000021,0.00000327,-0.00000285,-0.00000338,-0.00000025,-0.0000
 0362,0.00000022,-0.00000328,0.00000285,-0.00000336,0.00000023,0.000003
 59\\\@


 LAW OF COMPENSATION:
      NO CALCULATION IS EVER A COMPLETE FAILURE; IT 
      CAN ALWAYS SERVE AS A BAD EXAMPLE.

                                           -- ANON
 Job cpu time:       2 days 22 hours 23 minutes 14.5 seconds.
 Elapsed time:       0 days 17 hours 40 minutes 30.8 seconds.
 File lengths (MBytes):  RWF=    373 Int=      0 D2E=      0 Chk=      8 Scr=      1
 Normal termination of Gaussian 16 at Wed Sep 14 04:05:43 2022.
real 63689.59
user 253211.44
sys 183.16
