 Entering Gaussian System, Link 0=g16
 Input=gaussian_test.inp
 Output=gaussian_test.log
 Initial command:
 /sw/restricted/lms/sw/Gaussian/g16_B01/g16/l1.exe "/scratch/user/peterchao1/peterchao1/9993821_1712001957000000005729619/Gau-3111.inp" -scrdir="/scratch/user/peterchao1/peterchao1/9993821_1712001957000000005729619/"
 Entering Link 1 = /sw/restricted/lms/sw/Gaussian/g16_B01/g16/l1.exe PID=      3112.
  
 Copyright (c) 1988-2017, Gaussian, Inc.  All Rights Reserved.
  
 This is part of the Gaussian(R) 16 program.  It is based on
 the Gaussian(R) 09 system (copyright 2009, Gaussian, Inc.),
 the Gaussian(R) 03 system (copyright 2003, Gaussian, Inc.),
 the Gaussian(R) 98 system (copyright 1998, Gaussian, Inc.),
 the Gaussian(R) 94 system (copyright 1995, Gaussian, Inc.),
 the Gaussian 92(TM) system (copyright 1992, Gaussian, Inc.),
 the Gaussian 90(TM) system (copyright 1990, Gaussian, Inc.),
 the Gaussian 88(TM) system (copyright 1988, Gaussian, Inc.),
 the Gaussian 86(TM) system (copyright 1986, Carnegie Mellon
 University), and the Gaussian 82(TM) system (copyright 1983,
 Carnegie Mellon University). Gaussian is a federally registered
 trademark of Gaussian, Inc.
  
 This software contains proprietary and confidential information,
 including trade secrets, belonging to Gaussian, Inc.
  
 This software is provided under written license and may be
 used, copied, transmitted, or stored only in accord with that
 written license.
  
 The following legend is applicable only to US Government
 contracts under FAR:
  
                    RESTRICTED RIGHTS LEGEND
  
 Use, reproduction and disclosure by the US Government is
 subject to restrictions as set forth in subparagraphs (a)
 and (c) of the Commercial Computer Software - Restricted
 Rights clause in FAR 52.227-19.
  
 Gaussian, Inc.
 340 Quinnipiac St., Bldg. 40, Wallingford CT 06492
  
  
 ---------------------------------------------------------------
 Warning -- This program may not be used in any manner that
 competes with the business of Gaussian, Inc. or will provide
 assistance to any competitor of Gaussian, Inc.  The licensee
 of this program is prohibited from giving any competitor of
 Gaussian, Inc. access to this program.  By using this program,
 the user acknowledges that Gaussian, Inc. is engaged in the
 business of creating and licensing software in the field of
 computational chemistry and represents and warrants to the
 licensee that it is not a competitor of Gaussian, Inc. and that
 it will not use this program in any manner prohibited above.
 ---------------------------------------------------------------
  

 Cite this work as:
 Gaussian 16, Revision B.01,
 M. J. Frisch, G. W. Trucks, H. B. Schlegel, G. E. Scuseria, 
 M. A. Robb, J. R. Cheeseman, G. Scalmani, V. Barone, 
 G. A. Petersson, H. Nakatsuji, X. Li, M. Caricato, A. V. Marenich, 
 J. Bloino, B. G. Janesko, R. Gomperts, B. Mennucci, H. P. Hratchian, 
 J. V. Ortiz, A. F. Izmaylov, J. L. Sonnenberg, D. Williams-Young, 
 F. Ding, F. Lipparini, F. Egidi, J. Goings, B. Peng, A. Petrone, 
 T. Henderson, D. Ranasinghe, V. G. Zakrzewski, J. Gao, N. Rega, 
 G. Zheng, W. Liang, M. Hada, M. Ehara, K. Toyota, R. Fukuda, 
 J. Hasegawa, M. Ishida, T. Nakajima, Y. Honda, O. Kitao, H. Nakai, 
 T. Vreven, K. Throssell, J. A. Montgomery, Jr., J. E. Peralta, 
 F. Ogliaro, M. J. Bearpark, J. J. Heyd, E. N. Brothers, K. N. Kudin, 
 V. N. Staroverov, T. A. Keith, R. Kobayashi, J. Normand, 
 K. Raghavachari, A. P. Rendell, J. C. Burant, S. S. Iyengar, 
 J. Tomasi, M. Cossi, J. M. Millam, M. Klene, C. Adamo, R. Cammi, 
 J. W. Ochterski, R. L. Martin, K. Morokuma, O. Farkas, 
 J. B. Foresman, and D. J. Fox, Gaussian, Inc., Wallingford CT, 2016.
 
 ******************************************
 Gaussian 16:  ES64L-G16RevB.01 20-Dec-2017
                 1-Apr-2024 
 ******************************************
 %nprocshared=4
 Will use up to    4 processors via shared memory.
 %mem=8000mb
 %nprocshared=4
 Will use up to    4 processors via shared memory.
 %mem=8000mb
 %chk=41.chk
 %nprocshared=4
 Will use up to    4 processors via shared memory.
 %mem=8000mb
 ----------------------------------------------------------------------
 #T wB97XD/def2svpp opt=tight freq int(grid=ultrafine) scf=(verytight,q
 c)
 ----------------------------------------------------------------------
 --------------
 Comment gs min
 --------------
 Symbolic Z-matrix:
 Charge =  0 Multiplicity = 1
 C                    -3.97681  -1.01408  -0.93635 
 C                    -3.1206   -0.14929  -0.00684 
 C                    -3.95692   0.25191   1.21055 
 C                    -1.89774  -0.95026   0.49466 
 N                    -0.95609  -1.4069   -0.51467 
 C                    -2.6786    1.11888  -0.78767 
 N                    -1.83531   2.07728  -0.11131 
 H                    -4.27039  -1.93628  -0.43755 
 H                    -3.43705  -1.26956  -1.84687 
 H                    -4.87871  -0.47912  -1.22539 
 H                    -3.36285   0.82505   1.91962 
 H                    -4.32955  -0.6324    1.72358 
 H                    -4.80856   0.85628   0.9046 
 H                    -2.25093  -1.83353   1.03606 
 H                    -1.33664  -0.32957   1.19807 
 H                    -0.62624  -0.60872  -1.04786 
 H                    -1.41305  -2.04336  -1.15972 
 H                    -3.58645   1.64585  -1.10324 
 H                    -2.15513   0.81317  -1.70004 
 H                    -0.92506   1.68873   0.13624 
 H                    -2.27872   2.40686   0.73791 
 C                     4.09413   0.45536  -1.3407 
 C                     3.13092   0.15626  -0.18917 
 C                     3.79953   0.5071    1.14161 
 C                     1.85294   1.00335  -0.39213 
 N                     0.95541   1.09973   0.74791 
 C                     2.80246  -1.35383  -0.21278 
 N                     1.79665  -1.72214   0.77981 
 H                     4.97252  -0.18403  -1.28103 
 H                     4.42167   1.4918   -1.30235 
 H                     3.61037   0.28444  -2.30032 
 H                     3.92504   1.58436   1.23708 
 H                     4.78099   0.04198   1.20104 
 H                     3.20063   0.13897   1.97089 
 H                     1.28726   0.57566  -1.22687 
 H                     2.13672   2.02033  -0.67828 
 H                     1.3686    1.6971    1.45669 
 H                     0.86527   0.17297   1.15563 
 H                     3.72906  -1.89313   0.00687 
 H                     2.49707  -1.62733  -1.23451 
 H                     0.86545  -1.70869   0.36143 
 H                     1.9578   -2.66698   1.10803 
 
 Add virtual bond connecting atoms N26        and H20        Dist= 3.90D+00.
 Add virtual bond connecting atoms H41        and N5         Dist= 3.86D+00.

 GradGradGradGradGradGradGradGradGradGradGradGradGradGradGradGradGradGrad
 Initialization pass.
                           ----------------------------
                           !    Initial Parameters    !
                           ! (Angstroms and Degrees)  !
 --------------------------                            --------------------------
 ! Name  Definition              Value          Derivative Info.                !
 --------------------------------------------------------------------------------
 ! R1    R(1,2)                  1.5313         estimate D2E/DX2                !
 ! R2    R(1,8)                  1.0888         estimate D2E/DX2                !
 ! R3    R(1,9)                  1.0889         estimate D2E/DX2                !
 ! R4    R(1,10)                 1.0877         estimate D2E/DX2                !
 ! R5    R(2,3)                  1.5305         estimate D2E/DX2                !
 ! R6    R(2,4)                  1.5455         estimate D2E/DX2                !
 ! R7    R(2,6)                  1.5535         estimate D2E/DX2                !
 ! R8    R(3,11)                 1.0882         estimate D2E/DX2                !
 ! R9    R(3,12)                 1.0881         estimate D2E/DX2                !
 ! R10   R(3,13)                 1.0882         estimate D2E/DX2                !
 ! R11   R(4,5)                  1.4539         estimate D2E/DX2                !
 ! R12   R(4,14)                 1.0945         estimate D2E/DX2                !
 ! R13   R(4,15)                 1.0931         estimate D2E/DX2                !
 ! R14   R(5,16)                 1.015          estimate D2E/DX2                !
 ! R15   R(5,17)                 1.0149         estimate D2E/DX2                !
 ! R16   R(5,41)                 2.0437         estimate D2E/DX2                !
 ! R17   R(6,7)                  1.4447         estimate D2E/DX2                !
 ! R18   R(6,18)                 1.0961         estimate D2E/DX2                !
 ! R19   R(6,19)                 1.0954         estimate D2E/DX2                !
 ! R20   R(7,20)                 1.0202         estimate D2E/DX2                !
 ! R21   R(7,21)                 1.0131         estimate D2E/DX2                !
 ! R22   R(20,26)                2.0633         estimate D2E/DX2                !
 ! R23   R(22,23)                1.5308         estimate D2E/DX2                !
 ! R24   R(22,29)                1.0881         estimate D2E/DX2                !
 ! R25   R(22,30)                1.0876         estimate D2E/DX2                !
 ! R26   R(22,31)                1.0882         estimate D2E/DX2                !
 ! R27   R(23,24)                1.5301         estimate D2E/DX2                !
 ! R28   R(23,25)                1.5466         estimate D2E/DX2                !
 ! R29   R(23,27)                1.5456         estimate D2E/DX2                !
 ! R30   R(24,32)                1.0887         estimate D2E/DX2                !
 ! R31   R(24,33)                1.0877         estimate D2E/DX2                !
 ! R32   R(24,34)                1.0872         estimate D2E/DX2                !
 ! R33   R(25,26)                1.4541         estimate D2E/DX2                !
 ! R34   R(25,35)                1.0953         estimate D2E/DX2                !
 ! R35   R(25,36)                1.0939         estimate D2E/DX2                !
 ! R36   R(26,37)                1.0149         estimate D2E/DX2                !
 ! R37   R(26,38)                1.0165         estimate D2E/DX2                !
 ! R38   R(27,28)                1.4603         estimate D2E/DX2                !
 ! R39   R(27,39)                1.0944         estimate D2E/DX2                !
 ! R40   R(27,40)                1.1009         estimate D2E/DX2                !
 ! R41   R(28,41)                1.021          estimate D2E/DX2                !
 ! R42   R(28,42)                1.0131         estimate D2E/DX2                !
 ! A1    A(2,1,8)              110.549          estimate D2E/DX2                !
 ! A2    A(2,1,9)              111.2791         estimate D2E/DX2                !
 ! A3    A(2,1,10)             110.3139         estimate D2E/DX2                !
 ! A4    A(8,1,9)              108.5437         estimate D2E/DX2                !
 ! A5    A(8,1,10)             108.3445         estimate D2E/DX2                !
 ! A6    A(9,1,10)             107.7103         estimate D2E/DX2                !
 ! A7    A(1,2,3)              108.9854         estimate D2E/DX2                !
 ! A8    A(1,2,4)              110.2856         estimate D2E/DX2                !
 ! A9    A(1,2,6)              108.3609         estimate D2E/DX2                !
 ! A10   A(3,2,4)              108.0664         estimate D2E/DX2                !
 ! A11   A(3,2,6)              109.9552         estimate D2E/DX2                !
 ! A12   A(4,2,6)              111.1655         estimate D2E/DX2                !
 ! A13   A(2,3,11)             110.9801         estimate D2E/DX2                !
 ! A14   A(2,3,12)             110.433          estimate D2E/DX2                !
 ! A15   A(2,3,13)             110.4628         estimate D2E/DX2                !
 ! A16   A(11,3,12)            107.9246         estimate D2E/DX2                !
 ! A17   A(11,3,13)            108.5375         estimate D2E/DX2                !
 ! A18   A(12,3,13)            108.416          estimate D2E/DX2                !
 ! A19   A(2,4,5)              116.7415         estimate D2E/DX2                !
 ! A20   A(2,4,14)             108.8696         estimate D2E/DX2                !
 ! A21   A(2,4,15)             108.7044         estimate D2E/DX2                !
 ! A22   A(5,4,14)             107.3927         estimate D2E/DX2                !
 ! A23   A(5,4,15)             107.014          estimate D2E/DX2                !
 ! A24   A(14,4,15)            107.7918         estimate D2E/DX2                !
 ! A25   A(4,5,16)             109.1578         estimate D2E/DX2                !
 ! A26   A(4,5,17)             110.278          estimate D2E/DX2                !
 ! A27   A(4,5,41)             109.0283         estimate D2E/DX2                !
 ! A28   A(16,5,17)            107.7946         estimate D2E/DX2                !
 ! A29   A(16,5,41)             92.9617         estimate D2E/DX2                !
 ! A30   A(17,5,41)            125.5339         estimate D2E/DX2                !
 ! A31   A(2,6,7)              118.1847         estimate D2E/DX2                !
 ! A32   A(2,6,18)             107.5488         estimate D2E/DX2                !
 ! A33   A(2,6,19)             109.0739         estimate D2E/DX2                !
 ! A34   A(7,6,18)             107.4163         estimate D2E/DX2                !
 ! A35   A(7,6,19)             107.2258         estimate D2E/DX2                !
 ! A36   A(18,6,19)            106.8688         estimate D2E/DX2                !
 ! A37   A(6,7,20)             112.4419         estimate D2E/DX2                !
 ! A38   A(6,7,21)             110.6568         estimate D2E/DX2                !
 ! A39   A(20,7,21)            108.1195         estimate D2E/DX2                !
 ! A40   A(23,22,29)           110.6034         estimate D2E/DX2                !
 ! A41   A(23,22,30)           110.4361         estimate D2E/DX2                !
 ! A42   A(23,22,31)           110.6693         estimate D2E/DX2                !
 ! A43   A(29,22,30)           108.3553         estimate D2E/DX2                !
 ! A44   A(29,22,31)           108.3577         estimate D2E/DX2                !
 ! A45   A(30,22,31)           108.3395         estimate D2E/DX2                !
 ! A46   A(22,23,24)           109.5428         estimate D2E/DX2                !
 ! A47   A(22,23,25)           108.3129         estimate D2E/DX2                !
 ! A48   A(22,23,27)           108.2482         estimate D2E/DX2                !
 ! A49   A(24,23,25)           110.4649         estimate D2E/DX2                !
 ! A50   A(24,23,27)           109.2798         estimate D2E/DX2                !
 ! A51   A(25,23,27)           110.9483         estimate D2E/DX2                !
 ! A52   A(23,24,32)           110.7029         estimate D2E/DX2                !
 ! A53   A(23,24,33)           110.1067         estimate D2E/DX2                !
 ! A54   A(23,24,34)           110.1867         estimate D2E/DX2                !
 ! A55   A(32,24,33)           108.3177         estimate D2E/DX2                !
 ! A56   A(32,24,34)           109.3696         estimate D2E/DX2                !
 ! A57   A(33,24,34)           108.0951         estimate D2E/DX2                !
 ! A58   A(23,25,26)           116.3235         estimate D2E/DX2                !
 ! A59   A(23,25,35)           108.234          estimate D2E/DX2                !
 ! A60   A(23,25,36)           109.2179         estimate D2E/DX2                !
 ! A61   A(26,25,35)           107.7341         estimate D2E/DX2                !
 ! A62   A(26,25,36)           107.6722         estimate D2E/DX2                !
 ! A63   A(35,25,36)           107.3153         estimate D2E/DX2                !
 ! A64   A(20,26,25)           110.4283         estimate D2E/DX2                !
 ! A65   A(20,26,37)           114.2093         estimate D2E/DX2                !
 ! A66   A(20,26,38)           107.3588         estimate D2E/DX2                !
 ! A67   A(25,26,37)           109.5884         estimate D2E/DX2                !
 ! A68   A(25,26,38)           107.9845         estimate D2E/DX2                !
 ! A69   A(37,26,38)           107.0161         estimate D2E/DX2                !
 ! A70   A(23,27,28)           112.4829         estimate D2E/DX2                !
 ! A71   A(23,27,39)           107.3658         estimate D2E/DX2                !
 ! A72   A(23,27,40)           108.4119         estimate D2E/DX2                !
 ! A73   A(28,27,39)           108.8117         estimate D2E/DX2                !
 ! A74   A(28,27,40)           112.1548         estimate D2E/DX2                !
 ! A75   A(39,27,40)           107.3806         estimate D2E/DX2                !
 ! A76   A(27,28,41)           110.2641         estimate D2E/DX2                !
 ! A77   A(27,28,42)           110.2345         estimate D2E/DX2                !
 ! A78   A(41,28,42)           106.865          estimate D2E/DX2                !
 ! A79   L(7,20,26,4,-1)       185.0792         estimate D2E/DX2                !
 ! A80   L(5,41,28,25,-1)      172.2647         estimate D2E/DX2                !
 ! A81   L(7,20,26,4,-2)       183.8542         estimate D2E/DX2                !
 ! A82   L(5,41,28,25,-2)      178.4928         estimate D2E/DX2                !
 ! D1    D(8,1,2,3)            -62.8594         estimate D2E/DX2                !
 ! D2    D(8,1,2,4)             55.618          estimate D2E/DX2                !
 ! D3    D(8,1,2,6)            177.5062         estimate D2E/DX2                !
 ! D4    D(9,1,2,3)            176.4447         estimate D2E/DX2                !
 ! D5    D(9,1,2,4)            -65.0779         estimate D2E/DX2                !
 ! D6    D(9,1,2,6)             56.8103         estimate D2E/DX2                !
 ! D7    D(10,1,2,3)            56.9538         estimate D2E/DX2                !
 ! D8    D(10,1,2,4)           175.4312         estimate D2E/DX2                !
 ! D9    D(10,1,2,6)           -62.6806         estimate D2E/DX2                !
 ! D10   D(1,2,3,11)           177.0134         estimate D2E/DX2                !
 ! D11   D(1,2,3,12)            57.3694         estimate D2E/DX2                !
 ! D12   D(1,2,3,13)           -62.5544         estimate D2E/DX2                !
 ! D13   D(4,2,3,11)            57.1532         estimate D2E/DX2                !
 ! D14   D(4,2,3,12)           -62.4908         estimate D2E/DX2                !
 ! D15   D(4,2,3,13)           177.5854         estimate D2E/DX2                !
 ! D16   D(6,2,3,11)           -64.3458         estimate D2E/DX2                !
 ! D17   D(6,2,3,12)           176.0102         estimate D2E/DX2                !
 ! D18   D(6,2,3,13)            56.0864         estimate D2E/DX2                !
 ! D19   D(1,2,4,5)             62.0487         estimate D2E/DX2                !
 ! D20   D(1,2,4,14)           -59.6828         estimate D2E/DX2                !
 ! D21   D(1,2,4,15)          -176.853          estimate D2E/DX2                !
 ! D22   D(3,2,4,5)           -178.9128         estimate D2E/DX2                !
 ! D23   D(3,2,4,14)            59.3557         estimate D2E/DX2                !
 ! D24   D(3,2,4,15)           -57.8145         estimate D2E/DX2                !
 ! D25   D(6,2,4,5)            -58.1656         estimate D2E/DX2                !
 ! D26   D(6,2,4,14)          -179.8971         estimate D2E/DX2                !
 ! D27   D(6,2,4,15)            62.9327         estimate D2E/DX2                !
 ! D28   D(1,2,6,7)           -178.9413         estimate D2E/DX2                !
 ! D29   D(1,2,6,18)            59.3495         estimate D2E/DX2                !
 ! D30   D(1,2,6,19)           -56.205          estimate D2E/DX2                !
 ! D31   D(3,2,6,7)             62.0345         estimate D2E/DX2                !
 ! D32   D(3,2,6,18)           -59.6746         estimate D2E/DX2                !
 ! D33   D(3,2,6,19)          -175.2292         estimate D2E/DX2                !
 ! D34   D(4,2,6,7)            -57.5939         estimate D2E/DX2                !
 ! D35   D(4,2,6,18)          -179.303          estimate D2E/DX2                !
 ! D36   D(4,2,6,19)            65.1424         estimate D2E/DX2                !
 ! D37   D(2,4,5,16)            56.2594         estimate D2E/DX2                !
 ! D38   D(2,4,5,17)           -61.9866         estimate D2E/DX2                !
 ! D39   D(2,4,5,41)           156.4937         estimate D2E/DX2                !
 ! D40   D(14,4,5,16)          178.7614         estimate D2E/DX2                !
 ! D41   D(14,4,5,17)           60.5155         estimate D2E/DX2                !
 ! D42   D(14,4,5,41)          -81.0043         estimate D2E/DX2                !
 ! D43   D(15,4,5,16)          -65.7263         estimate D2E/DX2                !
 ! D44   D(15,4,5,17)          176.0278         estimate D2E/DX2                !
 ! D45   D(15,4,5,41)           34.5081         estimate D2E/DX2                !
 ! D46   D(4,5,28,27)         -145.2069         estimate D2E/DX2                !
 ! D47   D(4,5,28,42)           93.267          estimate D2E/DX2                !
 ! D48   D(16,5,28,27)         -34.7018         estimate D2E/DX2                !
 ! D49   D(16,5,28,42)        -156.2279         estimate D2E/DX2                !
 ! D50   D(17,5,28,27)          78.499          estimate D2E/DX2                !
 ! D51   D(17,5,28,42)         -43.0271         estimate D2E/DX2                !
 ! D52   D(2,6,7,20)            63.8282         estimate D2E/DX2                !
 ! D53   D(2,6,7,21)           -57.1903         estimate D2E/DX2                !
 ! D54   D(18,6,7,20)         -174.3952         estimate D2E/DX2                !
 ! D55   D(18,6,7,21)           64.5863         estimate D2E/DX2                !
 ! D56   D(19,6,7,20)          -59.834          estimate D2E/DX2                !
 ! D57   D(19,6,7,21)          179.1475         estimate D2E/DX2                !
 ! D58   D(6,7,26,25)           75.1755         estimate D2E/DX2                !
 ! D59   D(6,7,26,37)         -161.7215         estimate D2E/DX2                !
 ! D60   D(6,7,26,38)          -43.5858         estimate D2E/DX2                !
 ! D61   D(21,7,26,25)        -161.5761         estimate D2E/DX2                !
 ! D62   D(21,7,26,37)         -38.4731         estimate D2E/DX2                !
 ! D63   D(21,7,26,38)          79.6626         estimate D2E/DX2                !
 ! D64   D(29,22,23,24)         64.2351         estimate D2E/DX2                !
 ! D65   D(29,22,23,25)       -175.2155         estimate D2E/DX2                !
 ! D66   D(29,22,23,27)        -54.8399         estimate D2E/DX2                !
 ! D67   D(30,22,23,24)        -55.7056         estimate D2E/DX2                !
 ! D68   D(30,22,23,25)         64.8437         estimate D2E/DX2                !
 ! D69   D(30,22,23,27)       -174.7807         estimate D2E/DX2                !
 ! D70   D(31,22,23,24)       -175.6693         estimate D2E/DX2                !
 ! D71   D(31,22,23,25)        -55.1199         estimate D2E/DX2                !
 ! D72   D(31,22,23,27)         65.2557         estimate D2E/DX2                !
 ! D73   D(22,23,24,32)         68.8435         estimate D2E/DX2                !
 ! D74   D(22,23,24,33)        -50.9014         estimate D2E/DX2                !
 ! D75   D(22,23,24,34)       -170.0446         estimate D2E/DX2                !
 ! D76   D(25,23,24,32)        -50.3881         estimate D2E/DX2                !
 ! D77   D(25,23,24,33)       -170.133          estimate D2E/DX2                !
 ! D78   D(25,23,24,34)         70.7238         estimate D2E/DX2                !
 ! D79   D(27,23,24,32)       -172.7201         estimate D2E/DX2                !
 ! D80   D(27,23,24,33)         67.535          estimate D2E/DX2                !
 ! D81   D(27,23,24,34)        -51.6082         estimate D2E/DX2                !
 ! D82   D(22,23,25,26)       -166.0617         estimate D2E/DX2                !
 ! D83   D(22,23,25,35)         72.5528         estimate D2E/DX2                !
 ! D84   D(22,23,25,36)        -43.9792         estimate D2E/DX2                !
 ! D85   D(24,23,25,26)        -46.0877         estimate D2E/DX2                !
 ! D86   D(24,23,25,35)       -167.4733         estimate D2E/DX2                !
 ! D87   D(24,23,25,36)         75.9947         estimate D2E/DX2                !
 ! D88   D(27,23,25,26)         75.2603         estimate D2E/DX2                !
 ! D89   D(27,23,25,35)        -46.1253         estimate D2E/DX2                !
 ! D90   D(27,23,25,36)       -162.6573         estimate D2E/DX2                !
 ! D91   D(22,23,27,28)       -175.0389         estimate D2E/DX2                !
 ! D92   D(22,23,27,39)         65.2863         estimate D2E/DX2                !
 ! D93   D(22,23,27,40)        -50.4336         estimate D2E/DX2                !
 ! D94   D(24,23,27,28)         65.72           estimate D2E/DX2                !
 ! D95   D(24,23,27,39)        -53.9548         estimate D2E/DX2                !
 ! D96   D(24,23,27,40)       -169.6747         estimate D2E/DX2                !
 ! D97   D(25,23,27,28)        -56.3218         estimate D2E/DX2                !
 ! D98   D(25,23,27,39)       -175.9966         estimate D2E/DX2                !
 ! D99   D(25,23,27,40)         68.2836         estimate D2E/DX2                !
 ! D100  D(23,25,26,20)       -160.8737         estimate D2E/DX2                !
 ! D101  D(23,25,26,37)         72.47           estimate D2E/DX2                !
 ! D102  D(23,25,26,38)        -43.7675         estimate D2E/DX2                !
 ! D103  D(35,25,26,20)        -39.2235         estimate D2E/DX2                !
 ! D104  D(35,25,26,37)       -165.8798         estimate D2E/DX2                !
 ! D105  D(35,25,26,38)         77.8827         estimate D2E/DX2                !
 ! D106  D(36,25,26,20)         76.2342         estimate D2E/DX2                !
 ! D107  D(36,25,26,37)        -50.4221         estimate D2E/DX2                !
 ! D108  D(36,25,26,38)       -166.6596         estimate D2E/DX2                !
 ! D109  D(23,27,28,41)         93.623          estimate D2E/DX2                !
 ! D110  D(23,27,28,42)       -148.622          estimate D2E/DX2                !
 ! D111  D(39,27,28,41)       -147.5454         estimate D2E/DX2                !
 ! D112  D(39,27,28,42)        -29.7905         estimate D2E/DX2                !
 ! D113  D(40,27,28,41)        -28.8969         estimate D2E/DX2                !
 ! D114  D(40,27,28,42)         88.8581         estimate D2E/DX2                !
 --------------------------------------------------------------------------------
 Number of steps in this run=    248 maximum allowed number of steps=    252.
 GradGradGradGradGradGradGradGradGradGradGradGradGradGradGradGradGradGrad

                    Distance matrix (angstroms):
                    1          2          3          4          5
     1  C    0.000000
     2  C    1.531321   0.000000
     3  C    2.492454   1.530506   0.000000
     4  C    2.524755   1.545460   2.489571   0.000000
     5  N    3.075201   2.554326   3.838366   1.453949   0.000000
     6  C    2.501394   1.553487   2.525602   2.556459   3.069391
     7  N    3.850097   2.573037   3.095249   3.088225   3.615976
     8  H    1.088779   2.168141   2.757289   2.733256   3.357194
     9  H    1.088879   2.177351   3.454416   2.820318   2.819359
    10  H    1.087728   2.164396   2.705168   3.473721   4.093024
    11  H    3.451947   2.172392   1.088206   2.707181   4.086553
    12  H    2.710234   2.165483   1.088139   2.743170   4.121875
    13  H    2.753027   2.165895   1.088188   3.450292   4.688052
    14  H    2.746007   2.163473   2.699981   1.094537   2.064796
    15  H    3.463349   2.160282   2.684058   1.093103   2.058866
    16  H    3.376843   2.741650   4.115168   2.027991   1.014984
    17  H    2.771669   2.798630   4.166259   2.041258   1.014874
    18  H    2.693594   2.154446   2.726533   3.484943   4.072406
    19  H    2.690837   2.173802   3.468873   2.827132   2.787746
    20  H    4.215305   2.866911   3.522896   2.835286   3.163477
    21  H    4.170072   2.792369   2.771931   3.387415   4.226472
    22  C    8.213568   7.361864   8.448060   6.422365   5.445641
    23  C    7.242078   6.261632   7.225362   5.194168   4.387827
    24  C    8.191659   7.045420   7.760956   5.916189   5.387257
    25  C    6.192911   5.119875   6.073532   4.320946   3.703371
    26  N    5.624209   4.329385   5.006385   3.522369   3.395755
    27  C    6.826229   6.047803   7.091791   4.770238   3.771024
    28  N    6.064602   5.222264   6.098037   3.784923   3.058209
    29  H    8.994342   8.192882   9.280786   7.137270   6.101730
    30  H    8.771994   7.826712   8.834758   7.009130   6.159810
    31  H    7.817408   7.124196   8.342140   6.298866   5.186692
    32  H    8.597378   7.361654   7.993843   6.393769   5.986795
    33  H    9.076488   7.995661   8.740436   6.788879   6.160921
    34  H    7.829256   6.629669   7.198716   5.418404   5.083904
    35  H    5.506550   4.630688   5.792007   3.928909   3.077401
    36  H    6.830039   5.726907   6.620233   5.145586   4.619324
    37  H    6.453725   5.069913   5.523622   4.313123   4.350321
    38  H    5.406589   4.164417   4.823158   3.054957   2.933127
    39  H    7.812982   7.068162   8.069964   5.726058   4.739091
    40  H    6.509685   5.937166   7.152893   4.771034   3.534267
    41  H    5.061042   4.296034   5.274487   2.868477   2.043678
    42  H    6.490850   5.776837   6.596544   4.264801   3.565348
                    6          7          8          9         10
     6  C    0.000000
     7  N    1.444696   0.000000
     8  H    3.462709   4.705815   0.000000
     9  H    2.720622   4.096229   1.767815   0.000000
    10  H    2.754212   4.127793   1.764669   1.757672   0.000000
    11  H    2.807841   2.833044   3.742300   4.310380   3.726903
    12  H    3.478364   4.114661   2.524695   3.735062   3.003589
    13  H    2.733032   3.370925   3.144733   3.737756   2.514973
    14  H    3.496514   4.096782   2.502056   3.168003   3.722070
    15  H    2.800365   2.784976   3.723387   3.816668   4.294390
    16  H    2.695275   3.090892   3.926158   2.995959   4.258147
    17  H    3.426336   4.272836   2.949131   2.273218   3.802885
    18  H    1.096114   2.058292   3.707092   3.012455   2.490050
    19  H    1.095403   2.055321   3.691571   2.450029   3.051757
    20  H    2.062341   1.020199   4.965995   4.358243   4.710091
    21  H    2.036222   1.013113   4.920496   4.640999   4.352403
    22  C    6.827588   6.268993   8.746466   7.742745   9.022101
    23  C    5.919066   5.325392   7.695432   6.922360   8.101330
    24  C    6.786942   5.982198   8.578306   8.028421   9.049150
    25  C    4.550240   3.851675   6.792538   5.938547   6.943136
    26  N    3.945179   3.079285   6.158865   5.624956   6.357961
    27  C    6.040432   5.769899   7.100343   6.450486   7.796845
    28  N    5.527776   5.331122   6.191671   5.873323   7.079999
    29  H    7.776927   7.268308   9.445270   8.498195   9.855801
    30  H    7.128667   6.396189   9.383577   8.347520   9.507238
    31  H    6.521932   6.136898   8.396898   7.230952   8.590867
    32  H    6.922745   5.936563   9.075478   8.476790   9.371646
    33  H    7.794878   7.045571   9.408815   8.862616   9.973405
    34  H    6.567749   5.783887   8.119321   7.785762   8.710571
    35  H    4.026918   3.640030   6.149822   5.109631   6.255538
    36  H    4.900191   4.012692   7.534168   6.576916   7.467449
    37  H    4.663836   3.587228   6.970493   6.542848   7.138516
    38  H    4.150931   3.539026   5.775995   5.441125   6.252024
    39  H    7.124715   6.836687   8.011893   7.428203   8.809737
    40  H    5.876127   5.809924   6.821218   5.976343   7.464616
    41  H    4.677165   4.674522   5.202591   4.856017   6.084831
    42  H    6.278749   6.195365   6.458563   6.307823   7.547810
                   11         12         13         14         15
    11  H    0.000000
    12  H    1.759858   0.000000
    13  H    1.766722   1.765319   0.000000
    14  H    3.014151   2.497207   3.714000   0.000000
    15  H    2.441177   3.053746   3.680569   1.767498   0.000000
    16  H    4.283777   4.625580   4.842536   2.912476   2.372089
    17  H    4.638085   4.337070   4.919224   2.359557   2.915826
    18  H    3.140287   3.705882   2.479599   4.297240   3.776237
    19  H    3.815851   4.305696   3.718433   3.807946   3.220999
    20  H    3.141528   4.415633   4.045356   3.869610   2.317415
    21  H    2.252532   3.796652   2.971902   4.250945   2.930411
    22  C    8.146959   9.029471   9.190209   7.151763   6.046047
    23  C    6.860272   7.742035   8.044975   5.867255   4.703138
    24  C    7.211527   8.229156   8.618427   6.488273   5.204174
    25  C    5.707932   6.736101   6.788131   5.189346   3.805104
    26  N    4.482831   5.646504   5.771238   4.355186   2.738439
    27  C    6.877916   7.425324   8.003792   5.227466   4.491293
    28  N    5.865824   6.293535   7.091731   4.057216   3.454231
    29  H    8.985591   9.785559  10.076145   7.763244   6.780309
    30  H    8.451304   9.500126   9.511664   7.813425   6.536641
    31  H    8.168602   8.948449   9.026457   7.069095   6.090047
    32  H    7.359065   8.560897   8.770202   7.061514   5.599103
    33  H    8.212897   9.150390   9.628620   7.279600   6.128899
    34  H    6.599448   7.573625   8.111639   5.872324   4.626407
    35  H    5.620158   6.458570   6.463819   4.841881   3.685732
    36  H    6.198633   7.390434   7.217852   6.086265   4.594229
    37  H    4.833368   6.161713   6.258523   5.073783   3.390078
    38  H    4.345800   5.287472   5.720343   3.708238   2.258931
    39  H    7.832134   8.335323   9.014212   6.068196   5.433685
    40  H    7.092348   7.506189   8.007263   5.267019   4.722174
    41  H    5.169753   5.477392   6.250475   3.191005   2.729672
    42  H    6.415790   6.636953   7.631406   4.291063   4.040412
                   16         17         18         19         20
    16  H    0.000000
    17  H    1.640048   0.000000
    18  H    3.721424   4.282181   0.000000
    19  H    2.187376   3.000396   1.760173   0.000000
    20  H    2.601862   3.980716   2.936180   2.377311   0.000000
    21  H    3.874712   4.914750   2.383098   2.915259   1.646235
    22  C    4.847664   6.050230   7.775918   6.269793   5.375391
    23  C    3.929217   5.140804   6.940994   5.536832   4.348025
    24  C    5.062236   6.242744   7.803126   6.605041   4.972803
    25  C    3.029038   4.531916   5.523175   4.220356   2.909678
    26  N    2.940277   4.373515   4.934929   3.968632   2.063308
    27  C    3.606731   4.375227   7.114010   5.611193   4.824251
    28  N    3.232723   3.763925   6.623218   5.309805   4.410889
    29  H    5.619679   6.651862   8.754197   7.209248   6.348018
    30  H    5.473423   6.823610   8.012080   6.623669   5.540391
    31  H    4.507245   5.652821   7.421635   5.820726   5.336575
    32  H    5.544791   6.884777   7.867871   6.796312   4.974559
    33  H    5.892286   6.948946   8.825875   7.557820   6.033618
    34  H    4.931215   5.987430   7.601677   6.527977   4.773789
    35  H    2.257493   3.762368   4.991359   3.482864   2.826904
    36  H    3.831766   5.417211   5.751127   4.573964   3.185576
    37  H    3.945757   5.345483   5.577493   4.812791   2.646610
    38  H    2.773267   3.932384   5.204778   4.205654   2.557731
    39  H    4.661623   5.274913   8.202030   6.697849   5.874287
    40  H    3.290505   3.932896   6.909418   5.274053   4.958444
    41  H    2.328340   2.759970   5.763468   4.442220   3.846958
    42  H    3.944817   4.110256   7.364030   6.075600   5.312957
                   21         22         23         24         25
    21  H    0.000000
    22  C    6.981554   0.000000
    23  C    5.932014   1.530773   0.000000
    24  C    6.380996   2.500266   1.530064   0.000000
    25  C    4.507485   2.494594   1.546599   2.527412   0.000000
    26  N    3.488304   3.824795   2.549721   2.931759   1.454145
    27  C    6.392568   2.492748   1.545581   2.508300   2.547556
    28  N    5.801639   3.810044   2.499509   3.018591   2.967300
    29  H    7.960477   1.088091   2.167824   2.778983   3.454238
    30  H    7.063655   1.087646   2.165389   2.707332   2.768662
    31  H    6.958222   1.088161   2.168704   3.454306   2.691949
    32  H    6.277920   2.819255   2.168939   1.088745   2.699166
    33  H    7.459659   2.665165   2.160664   1.087714   3.469272
    34  H    6.056966   3.444574   2.161255   1.087154   2.854345
    35  H    4.464287   2.811745   2.156797   3.453384   1.095309
    36  H    4.653067   2.592183   2.168510   2.892545   1.093927
    37  H    3.784616   4.098272   2.861609   2.724848   2.033228
    38  H    3.879360   4.091074   2.634745   2.953250   2.015083
    39  H    7.424124   2.732143   2.143872   2.655877   3.473984
    40  H    6.555395   2.626679   2.162334   3.449366   2.836362
    41  H    5.192805   4.243196   2.985554   3.758618   2.982972
    42  H    6.620342   4.506574   3.321089   3.669862   3.966459
                   26         27         28         29         30
    26  N    0.000000
    27  C    3.217837   0.000000
    28  N    2.944767   1.460314   0.000000
    29  H    4.679935   2.686780   4.086438   0.000000
    30  H    4.046267   3.450604   4.642794   1.764164   0.000000
    31  H    4.123740   2.773900   4.099165   1.764610   1.764046
    32  H    3.048418   3.463418   3.958796   3.250429   2.589194
    33  H    3.994893   2.803882   3.492247   2.499691   2.915141
    34  H    2.731257   2.674962   2.617931   3.717381   3.746361
    35  H    2.069912   2.654643   3.092912   3.763131   3.266428
    36  H    2.068093   3.470577   4.030851   3.642016   2.426901
    37  H    1.014863   3.761818   3.511781   4.901224   4.120161
    38  H    1.016489   2.820695   2.144791   4.788967   4.519841
    39  H    4.147222   1.094380   2.088265   2.475060   3.694796
    40  H    3.707230   1.100913   2.134729   2.865857   3.665742
    41  H    2.836314   2.051253   1.020964   4.678708   5.065378
    42  H    3.914411   2.045079   1.013129   4.578345   5.401493
                   31         32         33         34         35
    31  H    0.000000
    32  H    3.781798   0.000000
    33  H    3.699817   1.764333   0.000000
    34  H    4.293287   1.775500   1.760566   0.000000
    35  H    2.575645   3.747852   4.287848   3.751981   0.000000
    36  H    2.795710   2.656460   3.799720   3.419000   1.763409
    37  H    4.597421   2.568332   3.801203   2.459375   2.909596
    38  H    4.414925   3.370586   3.918164   2.473807   2.452859
    39  H    3.174748   3.693882   2.505446   2.875074   3.685018
    40  H    2.455659   4.296839   3.732935   3.726855   2.513328
    41  H    4.311858   4.579525   4.370495   3.384864   2.814047
    42  H    4.801958   4.686217   3.913762   3.187875   4.051679
                   36         37         38         39         40
    36  H    0.000000
    37  H    2.291850   0.000000
    38  H    2.896988   1.633087   0.000000
    39  H    4.280205   4.534699   3.713439   0.000000
    40  H    3.707381   4.423556   3.408309   1.769032   0.000000
    41  H    4.074644   3.612779   2.042393   2.891363   2.283822
    42  H    5.019349   4.417462   3.043221   2.224582   2.619012
                   41         42
    41  H    0.000000
    42  H    1.633700   0.000000
 Framework group  C1[X(C10H28N4)]
 Deg. of freedom   120
                         Standard orientation:                         
 ---------------------------------------------------------------------
 Center     Atomic      Atomic             Coordinates (Angstroms)
 Number     Number       Type             X           Y           Z
 ---------------------------------------------------------------------
      1          6           0       -3.978977    1.014277    0.919899
      2          6           0       -3.121024    0.131383    0.009207
      3          6           0       -3.958322   -0.302424   -1.196276
      4          6           0       -1.902924    0.925591   -0.514161
      5          7           0       -0.961027    1.410331    0.481744
      6          6           0       -2.671549   -1.115844    0.818972
      7          7           0       -1.825511   -2.086346    0.163615
      8          1           0       -4.277837    1.923010    0.399969
      9          1           0       -3.438288    1.293775    1.822780
     10          1           0       -4.877803    0.482364    1.223764
     11          1           0       -3.363308   -0.889669   -1.892907
     12          1           0       -4.336086    0.567742   -1.729336
     13          1           0       -4.806532   -0.903102   -0.873971
     14          1           0       -2.261316    1.794123   -1.075605
     15          1           0       -1.340654    0.290805   -1.203923
     16          1           0       -0.626375    0.626556    1.033013
     17          1           0       -1.419363    2.059945    1.112537
     18          1           0       -3.576296   -1.639160    1.149182
     19          1           0       -2.147364   -0.786155    1.722544
     20          1           0       -0.917586   -1.699769   -0.095302
     21          1           0       -2.269373   -2.438033   -0.676444
     22          6           0        4.099379   -0.409289    1.339814
     23          6           0        3.132201   -0.141999    0.183791
     24          6           0        3.799336   -0.521489   -1.139846
     25          6           0        1.858512   -0.989669    0.409935
     26          7           0        0.958818   -1.117181   -0.725331
     27          6           0        2.797018    1.366754    0.172201
     28          7           0        1.787302    1.706830   -0.826468
     29          1           0        4.974750    0.232380    1.262825
     30          1           0        4.431490   -1.444889    1.325384
     31          1           0        3.617060   -0.217700    2.296244
     32          1           0        3.929468   -1.600155   -1.209924
     33          1           0        4.778555   -0.053574   -1.212693
     34          1           0        3.196898   -0.175894   -1.976230
     35          1           0        1.292831   -0.544719    1.235601
     36          1           0        2.147507   -1.998278    0.719555
     37          1           0        1.373064   -1.729439   -1.420665
     38          1           0        0.863586   -0.200806   -1.154794
     39          1           0        3.720679    1.904766   -0.062448
     40          1           0        2.492741    1.663166    1.187861
     41          1           0        0.857125    1.699226   -0.405658
     42          1           0        1.943450    2.644290   -1.177493
 ---------------------------------------------------------------------
 Rotational constants (GHZ):           1.1829857           0.2814317           0.2614812
   252 basis functions,   462 primitive gaussians,   266 cartesian basis functions
    58 alpha electrons       58 beta electrons
       nuclear repulsion energy      1033.1672088220 Hartrees.
 NAtoms=   42 NActive=   42 NUniq=   42 SFac= 1.00D+00 NAtFMM=   60 NAOKFM=F Big=F
 Nuclear repulsion after empirical dispersion term =     1033.1279432412 Hartrees.
   1 Symmetry operations used in ECPInt.
 ECPInt:  NShTT=    9870 NPrTT=   39606 LenC2=    9405 LenP2D=   26936.
 LDataN:  DoStor=T MaxTD1= 4 Len=   56
 ExpMin= 1.22D-01 ExpMax= 1.71D+03 ExpMxC= 2.58D+02 IAcc=3 IRadAn=         5 AccDes= 0.00D+00
 Harris functional with IExCor= 4639 and IRadAn=       5 diagonalized for initial guess.
 HarFok:  IExCor= 4639 AccDes= 0.00D+00 IRadAn=         5 IDoV= 1 UseB2=F ITyADJ=14
 ICtDFT=  3500011 ScaDFX=  1.000000  1.000000  1.000000  1.000000
 FoFCou: FMM=F IPFlag=           0 FMFlag=      100000 FMFlg1=           0
         NFxFlg=           0 DoJE=T BraDBF=F KetDBF=T FulRan=T
         wScrn=  0.000000 ICntrl=       500 IOpCl=  0 I1Cent=   200000004 NGrid=           0
         NMat0=    1 NMatS0=      1 NMatT0=    0 NMatD0=    1 NMtDS0=    0 NMtDT0=    0
 Petite list used in FoFCou.
     Accept linear search using points  2 and  3.
     Minimum is close to point  2 DX=  3.19D-02 DF= -2.21D-06 DXR=  4.35D-02 DFR=  1.90D-03 which will be used.
     Minimum is close to point  2 DX=  3.34D-02 DF= -3.94D-07 DXR=  4.55D-02 DFR=  2.08D-03 which will be used.
     Minimum is close to point  2 DX=  5.01D-04 DF= -1.16D-11 DXR=  5.01D-04 DFR=  2.49D-07 which will be used.
 SCF Done:  E(RwB97XD) =  -616.239249080     a.u. after    7 cycles
            Convg  =    0.1028D-08                    33 Fock formations.
              S**2 =  0.0000                  -V/T =  2.0098

 **********************************************************************

            Population analysis using the SCF Density.

 **********************************************************************

 Orbital symmetries:
       Occupied  (A) (A) (A) (A) (A) (A) (A) (A) (A) (A) (A) (A)
                 (A) (A) (A) (A) (A) (A) (A) (A) (A) (A) (A) (A)
                 (A) (A) (A) (A) (A) (A) (A) (A) (A) (A) (A) (A)
                 (A) (A) (A) (A) (A) (A) (A) (A) (A) (A) (A) (A)
                 (A) (A) (A) (A) (A) (A) (A) (A) (A) (A)
       Virtual   (A) (A) (A) (A) (A) (A) (A) (A) (A) (A) (A) (A)
                 (A) (A) (A) (A) (A) (A) (A) (A) (A) (A) (A) (A)
                 (A) (A) (A) (A) (A) (A) (A) (A) (A) (A) (A) (A)
                 (A) (A) (A) (A) (A) (A) (A) (A) (A) (A) (A) (A)
                 (A) (A) (A) (A) (A) (A) (A) (A) (A) (A) (A) (A)
                 (A) (A) (A) (A) (A) (A) (A) (A) (A) (A) (A) (A)
                 (A) (A) (A) (A) (A) (A) (A) (A) (A) (A) (A) (A)
                 (A) (A) (A) (A) (A) (A) (A) (A) (A) (A) (A) (A)
                 (A) (A) (A) (A) (A) (A) (A) (A) (A) (A) (A) (A)
                 (A) (A) (A) (A) (A) (A) (A) (A) (A) (A) (A) (A)
                 (A) (A) (A) (A) (A) (A) (A) (A) (A) (A) (A) (A)
                 (A) (A) (A) (A) (A) (A) (A) (A) (A) (A) (A) (A)
                 (A) (A) (A) (A) (A) (A) (A) (A) (A) (A) (A) (A)
                 (A) (A) (A) (A) (A) (A) (A) (A) (A) (A) (A) (A)
                 (A) (A) (A) (A) (A) (A) (A) (A) (A) (A) (A) (A)
                 (A) (A) (A) (A) (A) (A) (A) (A) (A) (A) (A) (A)
                 (A) (A)
 The electronic state is 1-A.
 Alpha  occ. eigenvalues --  -14.42959 -14.40943 -14.39883 -14.38105 -10.30827
 Alpha  occ. eigenvalues --  -10.30566 -10.30414 -10.29660 -10.29403 -10.29286
 Alpha  occ. eigenvalues --  -10.27689 -10.27423 -10.27223 -10.26648  -0.99294
 Alpha  occ. eigenvalues --   -0.98304  -0.95446  -0.94848  -0.88490  -0.88197
 Alpha  occ. eigenvalues --   -0.77962  -0.77320  -0.75058  -0.74648  -0.73671
 Alpha  occ. eigenvalues --   -0.73438  -0.62712  -0.62286  -0.60913  -0.58824
 Alpha  occ. eigenvalues --   -0.57383  -0.56387  -0.54556  -0.54294  -0.53775
 Alpha  occ. eigenvalues --   -0.53273  -0.52089  -0.51757  -0.50136  -0.49645
 Alpha  occ. eigenvalues --   -0.47485  -0.46747  -0.46188  -0.46000  -0.45522
 Alpha  occ. eigenvalues --   -0.45074  -0.44478  -0.43600  -0.42710  -0.41836
 Alpha  occ. eigenvalues --   -0.41220  -0.40607  -0.40321  -0.39756  -0.33150
 Alpha  occ. eigenvalues --   -0.32179  -0.29949  -0.28506
 Alpha virt. eigenvalues --    0.11424   0.13522   0.14630   0.15830   0.16036
 Alpha virt. eigenvalues --    0.16890   0.17906   0.18729   0.18931   0.19505
 Alpha virt. eigenvalues --    0.20252   0.20891   0.21311   0.22361   0.22741
 Alpha virt. eigenvalues --    0.23187   0.24157   0.24673   0.24850   0.25491
 Alpha virt. eigenvalues --    0.26118   0.26724   0.26902   0.27488   0.28663
 Alpha virt. eigenvalues --    0.29162   0.29817   0.30581   0.31315   0.31846
 Alpha virt. eigenvalues --    0.32296   0.33097   0.33506   0.33981   0.34385
 Alpha virt. eigenvalues --    0.35304   0.36096   0.37477   0.38009   0.38918
 Alpha virt. eigenvalues --    0.49649   0.50381   0.52659   0.53277   0.53678
 Alpha virt. eigenvalues --    0.54226   0.54834   0.56343   0.57504   0.59745
 Alpha virt. eigenvalues --    0.59881   0.61244   0.62207   0.64428   0.66585
 Alpha virt. eigenvalues --    0.67191   0.67766   0.68533   0.69581   0.70570
 Alpha virt. eigenvalues --    0.71953   0.72556   0.73274   0.74161   0.75297
 Alpha virt. eigenvalues --    0.76008   0.76515   0.77523   0.78005   0.78567
 Alpha virt. eigenvalues --    0.78753   0.79648   0.79920   0.80445   0.80816
 Alpha virt. eigenvalues --    0.81008   0.81503   0.81682   0.82276   0.82654
 Alpha virt. eigenvalues --    0.82817   0.83178   0.83759   0.84017   0.84461
 Alpha virt. eigenvalues --    0.85142   0.85245   0.85370   0.86286   0.86522
 Alpha virt. eigenvalues --    0.86609   0.87634   0.89094   0.89513   0.90059
 Alpha virt. eigenvalues --    0.91417   0.92725   0.93721   0.97768   0.98121
 Alpha virt. eigenvalues --    0.99972   1.02128   1.04767   1.05591   1.06710
 Alpha virt. eigenvalues --    1.10611   1.11960   1.13270   1.16269   1.16861
 Alpha virt. eigenvalues --    1.17811   1.19427   1.22577   1.23563   1.26298
 Alpha virt. eigenvalues --    1.27585   1.27711   1.31473   1.34075   1.37726
 Alpha virt. eigenvalues --    1.41063   1.42841   1.45245   1.49752   1.50350
 Alpha virt. eigenvalues --    1.51544   1.53178   1.55905   1.77076   1.77592
 Alpha virt. eigenvalues --    1.78104   1.78418   1.80235   1.81020   1.87220
 Alpha virt. eigenvalues --    1.89227   1.90798   1.92167   1.94708   1.95114
 Alpha virt. eigenvalues --    2.04064   2.04947   2.05263   2.06547   2.09396
 Alpha virt. eigenvalues --    2.11280   2.12265   2.12617   2.13480   2.15862
 Alpha virt. eigenvalues --    2.17097   2.18035   2.20355   2.20966   2.22215
 Alpha virt. eigenvalues --    2.23770   2.25207   2.25634   2.26749   2.27337
 Alpha virt. eigenvalues --    2.28041   2.29054   2.29951   2.32773   2.38672
 Alpha virt. eigenvalues --    2.40858   2.42266   2.44035   2.47809   2.49604
 Alpha virt. eigenvalues --    2.52216   2.52426   2.53819   2.56124   2.58125
 Alpha virt. eigenvalues --    2.61233   2.62696   2.63265   2.67567   2.71410
 Alpha virt. eigenvalues --    2.75696   2.78370   2.79499   2.80217   2.81676
 Alpha virt. eigenvalues --    2.82669   2.86214   2.87028   2.88533   2.90434
 Alpha virt. eigenvalues --    3.07344   3.10676   3.11270   3.14792
          Condensed to atoms (all electrons):
 Mulliken charges:
               1
     1  C   -0.261487
     2  C   -0.274246
     3  C   -0.259758
     4  C   -0.054002
     5  N   -0.526276
     6  C   -0.052757
     7  N   -0.535758
     8  H    0.107722
     9  H    0.098211
    10  H    0.115771
    11  H    0.106582
    12  H    0.109807
    13  H    0.111710
    14  H    0.096708
    15  H    0.098957
    16  H    0.245499
    17  H    0.230624
    18  H    0.088928
    19  H    0.081522
    20  H    0.258955
    21  H    0.206290
    22  C   -0.240477
    23  C   -0.258823
    24  C   -0.272111
    25  C   -0.063045
    26  N   -0.527227
    27  C   -0.052399
    28  N   -0.546580
    29  H    0.108581
    30  H    0.110734
    31  H    0.106691
    32  H    0.103399
    33  H    0.103425
    34  H    0.124370
    35  H    0.087878
    36  H    0.102492
    37  H    0.228533
    38  H    0.247504
    39  H    0.085908
    40  H    0.080840
    41  H    0.259403
    42  H    0.217901
 Sum of Mulliken charges =   0.00000
 Mulliken charges with hydrogens summed into heavy atoms:
               1
     1  C    0.060217
     2  C   -0.274246
     3  C    0.068341
     4  C    0.141663
     5  N   -0.050152
     6  C    0.117693
     7  N   -0.070513
    22  C    0.085529
    23  C   -0.258823
    24  C    0.059084
    25  C    0.127325
    26  N   -0.051190
    27  C    0.114349
    28  N   -0.069276
 Electronic spatial extent (au):  <R**2>=           4590.2332
 Charge=              0.0000 electrons
 Dipole moment (field-independent basis, Debye):
    X=              0.1024    Y=              2.1474    Z=             -0.1178  Tot=              2.1531
   1 Symmetry operations used in ECPInt.
 ECPInt:  NShTT=    9870 NPrTT=   39606 LenC2=    9405 LenP2D=   26936.
 LDataN:  DoStor=T MaxTD1= 5 Len=  102
 Calling FoFJK, ICntrl=      2127 FMM=F ISym2X=0 I1Cent= 0 IOpClX= 0 NMat=1 NMatS=1 NMatT=0.

 GradGradGradGradGradGradGradGradGradGradGradGradGradGradGradGradGradGrad
 FormGI is forming the generalized inverse of G from B-inverse, IUseBI=4.
 Internal  Forces:  Max     0.011682702 RMS     0.003279249
 Step number   1 out of a maximum of  248
 All quantities printed in internal units (Hartrees-Bohrs-Radians)
 Mixed Optimization -- RFO/linear search
 Second derivative matrix not updated -- first step.
 ITU=  0
     Eigenvalues ---    0.00230   0.00230   0.00236   0.00341   0.00352
     Eigenvalues ---    0.00359   0.00362   0.00365   0.00368   0.00803
     Eigenvalues ---    0.00847   0.00915   0.01319   0.01953   0.02736
     Eigenvalues ---    0.02923   0.03111   0.03365   0.03445   0.03674
     Eigenvalues ---    0.03842   0.03956   0.04181   0.04259   0.04484
     Eigenvalues ---    0.04648   0.04860   0.04910   0.04938   0.04999
     Eigenvalues ---    0.05171   0.05281   0.05440   0.05513   0.05560
     Eigenvalues ---    0.05585   0.05590   0.05609   0.05618   0.05619
     Eigenvalues ---    0.05703   0.05910   0.06498   0.07226   0.07938
     Eigenvalues ---    0.08539   0.08828   0.09015   0.09035   0.09083
     Eigenvalues ---    0.09174   0.09313   0.10342   0.10518   0.11813
     Eigenvalues ---    0.12675   0.12764   0.12804   0.13016   0.13337
     Eigenvalues ---    0.13882   0.14649   0.14688   0.15603   0.16000
     Eigenvalues ---    0.16000   0.16000   0.16000   0.16000   0.16000
     Eigenvalues ---    0.16000   0.16000   0.16000   0.16000   0.16000
     Eigenvalues ---    0.16000   0.16009   0.19610   0.19918   0.21016
     Eigenvalues ---    0.26801   0.27213   0.27887   0.27992   0.29302
     Eigenvalues ---    0.29352   0.29377   0.29418   0.33581   0.34116
     Eigenvalues ---    0.34196   0.34206   0.34294   0.34311   0.34363
     Eigenvalues ---    0.34457   0.34943   0.34954   0.34958   0.35021
     Eigenvalues ---    0.35023   0.35026   0.35029   0.35034   0.35076
     Eigenvalues ---    0.35078   0.35086   0.35144   0.35747   0.37152
     Eigenvalues ---    0.37704   0.38571   0.42821   0.44199   0.44903
     Eigenvalues ---    0.45148   0.45166   0.45168   0.45453   0.45455
 Linear search not attempted -- first point.
 Iteration  1 RMS(Cart)=  0.04228869 RMS(Int)=  0.00059132
 Iteration  2 RMS(Cart)=  0.00113429 RMS(Int)=  0.00010411
 Iteration  3 RMS(Cart)=  0.00000048 RMS(Int)=  0.00010411
 Variable       Old X    -DE/DX   Delta X   Delta X   Delta X     New X
                                 (Linear)    (Quad)   (Total)
    R1        2.89378   0.00316   0.00000   0.01047   0.01047   2.90425
    R2        2.05749   0.01114   0.00000   0.03104   0.03104   2.08853
    R3        2.05768   0.01083   0.00000   0.03020   0.03020   2.08789
    R4        2.05551   0.01112   0.00000   0.03090   0.03090   2.08640
    R5        2.89224   0.00296   0.00000   0.00978   0.00978   2.90202
    R6        2.92050   0.00102   0.00000   0.00267   0.00268   2.92318
    R7        2.93566   0.00085   0.00000   0.00201   0.00204   2.93770
    R8        2.05641   0.01086   0.00000   0.03020   0.03020   2.08661
    R9        2.05628   0.01123   0.00000   0.03123   0.03123   2.08752
   R10        2.05638   0.01112   0.00000   0.03092   0.03092   2.08730
   R11        2.74757   0.00678   0.00000   0.01744   0.01741   2.76497
   R12        2.06838   0.00707   0.00000   0.02008   0.02008   2.08846
   R13        2.06566   0.00640   0.00000   0.01810   0.01810   2.08376
   R14        1.91804   0.00530   0.00000   0.01150   0.01150   1.92955
   R15        1.91783   0.00419   0.00000   0.00909   0.00909   1.92692
   R16        3.86199   0.00115   0.00000   0.02013   0.02015   3.88214
   R17        2.73008   0.00433   0.00000   0.01057   0.01055   2.74063
   R18        2.07136   0.00718   0.00000   0.02048   0.02048   2.09184
   R19        2.07001   0.00728   0.00000   0.02074   0.02074   2.09075
   R20        1.92790   0.00841   0.00000   0.01905   0.01904   1.94694
   R21        1.91451   0.00518   0.00000   0.01116   0.01116   1.92567
   R22        3.89909   0.00120   0.00000   0.02878   0.02876   3.92785
   R23        2.89274   0.00323   0.00000   0.01068   0.01068   2.90342
   R24        2.05619   0.01117   0.00000   0.03106   0.03106   2.08725
   R25        2.05535   0.01136   0.00000   0.03153   0.03153   2.08689
   R26        2.05633   0.01168   0.00000   0.03250   0.03250   2.08882
   R27        2.89140   0.00310   0.00000   0.01022   0.01022   2.90163
   R28        2.92265   0.00247   0.00000   0.00939   0.00938   2.93203
   R29        2.92072   0.00237   0.00000   0.00917   0.00916   2.92989
   R30        2.05743   0.01154   0.00000   0.03215   0.03215   2.08958
   R31        2.05548   0.01141   0.00000   0.03168   0.03168   2.08716
   R32        2.05442   0.01028   0.00000   0.02849   0.02849   2.08291
   R33        2.74794   0.00593   0.00000   0.01524   0.01528   2.76322
   R34        2.06983   0.00803   0.00000   0.02285   0.02285   2.09268
   R35        2.06722   0.00699   0.00000   0.01981   0.01981   2.08703
   R36        1.91781   0.00381   0.00000   0.00827   0.00827   1.92608
   R37        1.92089   0.00503   0.00000   0.01097   0.01097   1.93186
   R38        2.75959   0.00150   0.00000   0.00428   0.00425   2.76384
   R39        2.06808   0.00689   0.00000   0.01956   0.01956   2.08764
   R40        2.08042   0.00681   0.00000   0.01975   0.01975   2.10017
   R41        1.92934   0.00824   0.00000   0.01802   0.01804   1.94738
   R42        1.91454   0.00428   0.00000   0.00923   0.00923   1.92376
    A1        1.92944   0.00170   0.00000   0.01072   0.01068   1.94012
    A2        1.94219   0.00113   0.00000   0.00658   0.00655   1.94873
    A3        1.92534   0.00130   0.00000   0.00711   0.00708   1.93242
    A4        1.89444  -0.00135   0.00000  -0.00688  -0.00693   1.88752
    A5        1.89097  -0.00152   0.00000  -0.00883  -0.00887   1.88209
    A6        1.87990  -0.00144   0.00000  -0.00982  -0.00983   1.87007
    A7        1.90215   0.00052   0.00000   0.00475   0.00477   1.90693
    A8        1.92485   0.00008   0.00000  -0.00091  -0.00092   1.92393
    A9        1.89125  -0.00063   0.00000  -0.00279  -0.00283   1.88842
   A10        1.88611  -0.00055   0.00000  -0.00368  -0.00370   1.88241
   A11        1.91908   0.00036   0.00000   0.00165   0.00165   1.92073
   A12        1.94020   0.00025   0.00000   0.00113   0.00119   1.94139
   A13        1.93697   0.00113   0.00000   0.00664   0.00661   1.94358
   A14        1.92742   0.00160   0.00000   0.00961   0.00957   1.93699
   A15        1.92794   0.00120   0.00000   0.00692   0.00690   1.93484
   A16        1.88364  -0.00138   0.00000  -0.00785  -0.00789   1.87575
   A17        1.89434  -0.00126   0.00000  -0.00777  -0.00779   1.88655
   A18        1.89222  -0.00144   0.00000  -0.00850  -0.00853   1.88369
   A19        2.03752   0.00094   0.00000   0.00957   0.00951   2.04704
   A20        1.90013  -0.00068   0.00000  -0.00689  -0.00697   1.89317
   A21        1.89725  -0.00051   0.00000  -0.00211  -0.00223   1.89502
   A22        1.87436   0.00059   0.00000   0.00471   0.00477   1.87912
   A23        1.86775   0.00048   0.00000   0.01126   0.01121   1.87896
   A24        1.88132  -0.00095   0.00000  -0.01878  -0.01883   1.86249
   A25        1.90516   0.00124   0.00000   0.02246   0.02232   1.92748
   A26        1.92471   0.00223   0.00000   0.01206   0.01199   1.93670
   A27        1.90290  -0.00040   0.00000  -0.00169  -0.00164   1.90127
   A28        1.88137  -0.00135   0.00000  -0.01352  -0.01372   1.86765
   A29        1.62249   0.00058   0.00000   0.00709   0.00702   1.62951
   A30        2.19098  -0.00222   0.00000  -0.02132  -0.02137   2.16961
   A31        2.06271   0.00242   0.00000   0.01258   0.01256   2.07527
   A32        1.87708  -0.00125   0.00000  -0.00638  -0.00673   1.87035
   A33        1.90370  -0.00168   0.00000  -0.01205  -0.01215   1.89155
   A34        1.87477   0.00120   0.00000   0.02045   0.02038   1.89515
   A35        1.87144   0.00021   0.00000   0.00752   0.00757   1.87902
   A36        1.86521  -0.00120   0.00000  -0.02603  -0.02621   1.83900
   A37        1.96248   0.00255   0.00000   0.02969   0.02925   1.99173
   A38        1.93132   0.00217   0.00000   0.02382   0.02327   1.95459
   A39        1.88704  -0.00201   0.00000  -0.00203  -0.00283   1.88421
   A40        1.93039   0.00122   0.00000   0.00709   0.00706   1.93746
   A41        1.92747   0.00134   0.00000   0.00799   0.00796   1.93543
   A42        1.93154   0.00148   0.00000   0.00881   0.00878   1.94032
   A43        1.89116  -0.00134   0.00000  -0.00798  -0.00800   1.88315
   A44        1.89120  -0.00143   0.00000  -0.00858  -0.00861   1.88259
   A45        1.89088  -0.00144   0.00000  -0.00829  -0.00833   1.88255
   A46        1.91188   0.00002   0.00000   0.00387   0.00389   1.91578
   A47        1.89042   0.00034   0.00000  -0.00641  -0.00639   1.88403
   A48        1.88929  -0.00029   0.00000  -0.00786  -0.00792   1.88137
   A49        1.92798  -0.00013   0.00000  -0.00008  -0.00014   1.92784
   A50        1.90729   0.00103   0.00000   0.00993   0.00996   1.91725
   A51        1.93641  -0.00098   0.00000   0.00029   0.00025   1.93666
   A52        1.93213   0.00155   0.00000   0.00861   0.00858   1.94071
   A53        1.92172   0.00086   0.00000   0.00464   0.00462   1.92635
   A54        1.92312   0.00150   0.00000   0.00989   0.00985   1.93297
   A55        1.89050  -0.00151   0.00000  -0.01092  -0.01092   1.87958
   A56        1.90886  -0.00149   0.00000  -0.00798  -0.00804   1.90082
   A57        1.88662  -0.00104   0.00000  -0.00500  -0.00503   1.88158
   A58        2.03023   0.00070   0.00000   0.01561   0.01538   2.04561
   A59        1.88904  -0.00134   0.00000  -0.00692  -0.00716   1.88187
   A60        1.90621   0.00047   0.00000  -0.00252  -0.00254   1.90367
   A61        1.88031   0.00143   0.00000   0.01691   0.01693   1.89725
   A62        1.87923  -0.00012   0.00000  -0.00191  -0.00186   1.87738
   A63        1.87301  -0.00129   0.00000  -0.02438  -0.02443   1.84857
   A64        1.92734  -0.00119   0.00000  -0.00615  -0.00596   1.92137
   A65        1.99333  -0.00092   0.00000  -0.01367  -0.01377   1.97956
   A66        1.87377   0.00104   0.00000   0.01389   0.01375   1.88752
   A67        1.91268   0.00207   0.00000   0.01320   0.01328   1.92596
   A68        1.88469   0.00059   0.00000   0.01263   0.01268   1.89736
   A69        1.86778  -0.00155   0.00000  -0.01882  -0.01901   1.84877
   A70        1.96320   0.00494   0.00000   0.03803   0.03790   2.00110
   A71        1.87389  -0.00095   0.00000  -0.00388  -0.00417   1.86972
   A72        1.89215  -0.00135   0.00000  -0.00732  -0.00725   1.88489
   A73        1.89912  -0.00058   0.00000   0.00026   0.00007   1.89920
   A74        1.95747  -0.00207   0.00000  -0.01306  -0.01314   1.94433
   A75        1.87414  -0.00017   0.00000  -0.01609  -0.01621   1.85794
   A76        1.92447  -0.00099   0.00000   0.00238   0.00216   1.92663
   A77        1.92396   0.00191   0.00000   0.01331   0.01331   1.93726
   A78        1.86515  -0.00045   0.00000  -0.00547  -0.00548   1.85967
   A79        3.23024  -0.00260   0.00000  -0.02764  -0.02761   3.20263
   A80        3.00659  -0.00210   0.00000  -0.06028  -0.06019   2.94639
   A81        3.20886   0.00015   0.00000  -0.01466  -0.01462   3.19424
   A82        3.11529  -0.00032   0.00000  -0.02907  -0.02881   3.08648
    D1       -1.09710   0.00037   0.00000   0.00930   0.00931  -1.08779
    D2        0.97072   0.00005   0.00000   0.00716   0.00714   0.97786
    D3        3.09807   0.00000   0.00000   0.00620   0.00622   3.10429
    D4        3.07954   0.00018   0.00000   0.00637   0.00637   3.08591
    D5       -1.13582  -0.00014   0.00000   0.00423   0.00420  -1.13163
    D6        0.99153  -0.00019   0.00000   0.00327   0.00328   0.99481
    D7        0.99403   0.00040   0.00000   0.00976   0.00977   1.00380
    D8        3.06185   0.00008   0.00000   0.00761   0.00760   3.06945
    D9       -1.09398   0.00003   0.00000   0.00665   0.00668  -1.08730
   D10        3.08947   0.00021   0.00000   0.00606   0.00607   3.09553
   D11        1.00129   0.00016   0.00000   0.00532   0.00532   1.00660
   D12       -1.09178   0.00016   0.00000   0.00526   0.00525  -1.08653
   D13        0.99751   0.00015   0.00000   0.00658   0.00661   1.00412
   D14       -1.09067   0.00010   0.00000   0.00584   0.00586  -1.08481
   D15        3.09945   0.00009   0.00000   0.00578   0.00580   3.10525
   D16       -1.12305  -0.00003   0.00000   0.00650   0.00648  -1.11657
   D17        3.07196  -0.00008   0.00000   0.00575   0.00573   3.07769
   D18        0.97889  -0.00008   0.00000   0.00569   0.00566   0.98456
   D19        1.08295  -0.00011   0.00000  -0.00587  -0.00587   1.07708
   D20       -1.04166  -0.00101   0.00000  -0.01342  -0.01338  -1.05504
   D21       -3.08667   0.00078   0.00000   0.01401   0.01399  -3.07268
   D22       -3.12262   0.00023   0.00000  -0.00286  -0.00285  -3.12547
   D23        1.03595  -0.00067   0.00000  -0.01041  -0.01036   1.02559
   D24       -1.00905   0.00112   0.00000   0.01703   0.01700  -0.99205
   D25       -1.01518   0.00047   0.00000  -0.00250  -0.00248  -1.01767
   D26       -3.13980  -0.00043   0.00000  -0.01005  -0.00999   3.13340
   D27        1.09838   0.00136   0.00000   0.01738   0.01737   1.11576
   D28       -3.12312   0.00063   0.00000  -0.00496  -0.00496  -3.12807
   D29        1.03585  -0.00165   0.00000  -0.03582  -0.03573   1.00012
   D30       -0.98096   0.00130   0.00000   0.00444   0.00436  -0.97660
   D31        1.08271   0.00017   0.00000  -0.01001  -0.01000   1.07270
   D32       -1.04152  -0.00211   0.00000  -0.04087  -0.04077  -1.08229
   D33       -3.05833   0.00084   0.00000  -0.00061  -0.00069  -3.05901
   D34       -1.00520   0.00047   0.00000  -0.00722  -0.00721  -1.01242
   D35       -3.12943  -0.00181   0.00000  -0.03808  -0.03798   3.11577
   D36        1.13695   0.00114   0.00000   0.00218   0.00210   1.13905
   D37        0.98191   0.00017   0.00000   0.01660   0.01667   0.99858
   D38       -1.08187  -0.00025   0.00000   0.01234   0.01235  -1.06952
   D39        2.73133   0.00117   0.00000   0.03323   0.03332   2.76465
   D40        3.11998   0.00039   0.00000   0.01791   0.01796   3.13793
   D41        1.05619  -0.00002   0.00000   0.01365   0.01364   1.06983
   D42       -1.41379   0.00139   0.00000   0.03454   0.03461  -1.37918
   D43       -1.14714  -0.00018   0.00000   0.00405   0.00404  -1.14310
   D44        3.07226  -0.00059   0.00000  -0.00021  -0.00028   3.07198
   D45        0.60228   0.00082   0.00000   0.02069   0.02069   0.62297
   D46       -2.53434   0.00133   0.00000   0.01458   0.01462  -2.51972
   D47        1.62782  -0.00035   0.00000  -0.01959  -0.01959   1.60822
   D48       -0.60566   0.00253   0.00000   0.03382   0.03385  -0.57181
   D49       -2.72669   0.00084   0.00000  -0.00035  -0.00036  -2.72706
   D50        1.37007   0.00004   0.00000   0.00799   0.00805   1.37812
   D51       -0.75096  -0.00164   0.00000  -0.02618  -0.02616  -0.77713
   D52        1.11401  -0.00060   0.00000  -0.00356  -0.00338   1.11063
   D53       -0.99816  -0.00131   0.00000  -0.03827  -0.03850  -1.03666
   D54       -3.04377   0.00042   0.00000   0.01361   0.01396  -3.02981
   D55        1.12724  -0.00029   0.00000  -0.02110  -0.02116   1.10608
   D56       -1.04430  -0.00029   0.00000  -0.00288  -0.00271  -1.04701
   D57        3.12671  -0.00099   0.00000  -0.03759  -0.03783   3.08889
   D58        1.31206  -0.00200   0.00000  -0.05637  -0.05632   1.25574
   D59       -2.82257  -0.00021   0.00000  -0.04683  -0.04697  -2.86954
   D60       -0.76072  -0.00236   0.00000  -0.07062  -0.07052  -0.83124
   D61       -2.82003  -0.00030   0.00000  -0.01602  -0.01594  -2.83597
   D62       -0.67148   0.00149   0.00000  -0.00648  -0.00659  -0.67807
   D63        1.39038  -0.00066   0.00000  -0.03027  -0.03014   1.36024
   D64        1.12111   0.00036   0.00000   0.00520   0.00521   1.12633
   D65       -3.05809   0.00043   0.00000   0.00350   0.00347  -3.05462
   D66       -0.95714  -0.00072   0.00000  -0.00438  -0.00435  -0.96149
   D67       -0.97225   0.00037   0.00000   0.00539   0.00541  -0.96684
   D68        1.13174   0.00044   0.00000   0.00370   0.00366   1.13540
   D69       -3.05050  -0.00071   0.00000  -0.00418  -0.00416  -3.05465
   D70       -3.06601   0.00034   0.00000   0.00485   0.00486  -3.06115
   D71       -0.96202   0.00040   0.00000   0.00315   0.00311  -0.95891
   D72        1.13893  -0.00075   0.00000  -0.00473  -0.00470   1.13422
   D73        1.20155  -0.00024   0.00000  -0.01190  -0.01191   1.18964
   D74       -0.88840   0.00010   0.00000  -0.00679  -0.00678  -0.89518
   D75       -2.96784  -0.00009   0.00000  -0.00969  -0.00969  -2.97753
   D76       -0.87944  -0.00059   0.00000  -0.00637  -0.00639  -0.88583
   D77       -2.96938  -0.00025   0.00000  -0.00126  -0.00126  -2.97064
   D78        1.23436  -0.00045   0.00000  -0.00417  -0.00417   1.23020
   D79       -3.01453   0.00003   0.00000  -0.01327  -0.01327  -3.02781
   D80        1.17871   0.00037   0.00000  -0.00816  -0.00815   1.17056
   D81       -0.90073   0.00018   0.00000  -0.01107  -0.01105  -0.91179
   D82       -2.89832  -0.00011   0.00000   0.01317   0.01318  -2.88515
   D83        1.26628  -0.00142   0.00000  -0.01433  -0.01426   1.25202
   D84       -0.76758   0.00061   0.00000   0.01988   0.01983  -0.74775
   D85       -0.80438   0.00005   0.00000   0.01387   0.01389  -0.79049
   D86       -2.92296  -0.00126   0.00000  -0.01363  -0.01355  -2.93651
   D87        1.32636   0.00077   0.00000   0.02058   0.02055   1.34691
   D88        1.31354   0.00061   0.00000   0.02656   0.02657   1.34011
   D89       -0.80504  -0.00069   0.00000  -0.00094  -0.00087  -0.80591
   D90       -2.83891   0.00133   0.00000   0.03326   0.03323  -2.80567
   D91       -3.05500   0.00137   0.00000   0.04267   0.04272  -3.01228
   D92        1.13946  -0.00023   0.00000   0.02223   0.02221   1.16168
   D93       -0.88023   0.00114   0.00000   0.04679   0.04679  -0.83344
   D94        1.14703   0.00092   0.00000   0.03691   0.03699   1.18402
   D95       -0.94169  -0.00068   0.00000   0.01647   0.01649  -0.92520
   D96       -2.96138   0.00069   0.00000   0.04103   0.04106  -2.92032
   D97       -0.98300   0.00103   0.00000   0.03016   0.03026  -0.95274
   D98       -3.07172  -0.00057   0.00000   0.00972   0.00975  -3.06197
   D99        1.19177   0.00080   0.00000   0.03428   0.03433   1.22610
   D100      -2.80778   0.00040   0.00000  -0.00024  -0.00033  -2.80811
   D101       1.26484   0.00094   0.00000   0.01217   0.01207   1.27691
   D102      -0.76389   0.00134   0.00000   0.02044   0.02038  -0.74351
   D103      -0.68458   0.00025   0.00000   0.01451   0.01459  -0.66999
   D104      -2.89515   0.00078   0.00000   0.02692   0.02700  -2.86815
   D105       1.35931   0.00118   0.00000   0.03519   0.03531   1.39462
   D106       1.33054  -0.00060   0.00000  -0.00632  -0.00635   1.32419
   D107      -0.88003  -0.00007   0.00000   0.00609   0.00606  -0.87397
   D108      -2.90876   0.00033   0.00000   0.01435   0.01437  -2.89439
   D109       1.63403  -0.00027   0.00000   0.01361   0.01359   1.64762
   D110      -2.59394  -0.00025   0.00000   0.01649   0.01640  -2.57755
   D111      -2.57515   0.00122   0.00000   0.03240   0.03251  -2.54265
   D112      -0.51994   0.00123   0.00000   0.03527   0.03531  -0.48463
   D113      -0.50435  -0.00063   0.00000   0.00463   0.00477  -0.49958
   D114       1.55087  -0.00061   0.00000   0.00751   0.00757   1.55843
         Item               Value     Threshold  Converged?
 Maximum Force            0.011683     0.000015     NO 
 RMS     Force            0.003279     0.000010     NO 
 Maximum Displacement     0.197149     0.000060     NO 
 RMS     Displacement     0.042278     0.000040     NO 
 GradGradGradGradGradGradGradGradGradGradGradGradGradGradGradGradGradGrad

                    Distance matrix (angstroms):
                    1          2          3          4          5
     1  C    0.000000
     2  C    1.536862   0.000000
     3  C    2.505430   1.535683   0.000000
     4  C    2.529649   1.546880   2.491545   0.000000
     5  N    3.090462   2.570776   3.854412   1.463161   0.000000
     6  C    2.504185   1.554564   2.532172   2.559561   3.089164
     7  N    3.864395   2.588326   3.111705   3.111234   3.650757
     8  H    1.105204   2.193107   2.782294   2.757149   3.385917
     9  H    1.104862   2.199050   3.483806   2.835799   2.836729
    10  H    1.104078   2.186683   2.735750   3.496655   4.124794
    11  H    3.481393   2.193789   1.104189   2.723598   4.114156
    12  H    2.740972   2.189398   1.104667   2.756710   4.146926
    13  H    2.776590   2.187752   1.104553   3.470771   4.724758
    14  H    2.754076   2.167362   2.693126   1.105163   2.084142
    15  H    3.475999   2.166915   2.677665   1.102679   2.082175
    16  H    3.418689   2.788534   4.162502   2.055904   1.021071
    17  H    2.795122   2.824120   4.195013   2.061122   1.019683
    18  H    2.675284   2.158153   2.750397   3.493894   4.089801
    19  H    2.682917   2.173772   3.479487   2.825567   2.797075
    20  H    4.264812   2.911702   3.555261   2.888715   3.229359
    21  H    4.219219   2.847574   2.828502   3.456481   4.298681
    22  C    8.190488   7.347345   8.441180   6.400946   5.407634
    23  C    7.257808   6.275272   7.236396   5.201517   4.390212
    24  C    8.246076   7.096138   7.809973   5.970972   5.434666
    25  C    6.200567   5.125488   6.078893   4.319411   3.700113
    26  N    5.684198   4.378971   5.041629   3.584086   3.470803
    27  C    6.845736   6.058940   7.090696   4.769517   3.774112
    28  N    6.084495   5.238572   6.100590   3.792240   3.070764
    29  H    8.990493   8.198921   9.293620   7.136690   6.082811
    30  H    8.763257   7.830644   8.852368   7.012140   6.142963
    31  H    7.764379   7.086002   8.315026   6.251642   5.119273
    32  H    8.667365   7.431923   8.069005   6.471432   6.051485
    33  H    9.142621   8.058693   8.801721   6.854145   6.216701
    34  H    7.917648   6.706291   7.263184   5.504617   5.172519
    35  H    5.487588   4.612148   5.776615   3.894033   3.035688
    36  H    6.828707   5.735217   6.642866   5.152639   4.610613
    37  H    6.527715   5.136947   5.583290   4.404274   4.444441
    38  H    5.502886   4.234596   4.852984   3.144499   3.065229
    39  H    7.846749   7.092437   8.080159   5.740327   4.757143
    40  H    6.537046   5.961009   7.168130   4.776784   3.536656
    41  H    5.079928   4.323545   5.293138   2.883029   2.054340
    42  H    6.538019   5.814744   6.613323   4.296392   3.609563
                    6          7          8          9         10
     6  C    0.000000
     7  N    1.450280   0.000000
     8  H    3.485431   4.743576   0.000000
     9  H    2.736553   4.120952   1.789642   0.000000
    10  H    2.766217   4.147342   1.785487   1.777356   0.000000
    11  H    2.824376   2.853009   3.786582   4.355210   3.771697
    12  H    3.503568   4.149192   2.557888   3.780588   3.052479
    13  H    2.755219   3.395786   3.174176   3.779812   2.546457
    14  H    3.505420   4.125179   2.520718   3.191055   3.746646
    15  H    2.813947   2.817540   3.751750   3.844856   4.323738
    16  H    2.747352   3.148024   3.979609   3.033571   4.316793
    17  H    3.447641   4.306347   2.985385   2.290029   3.839141
    18  H    1.106952   2.086124   3.709173   3.000307   2.469211
    19  H    1.106378   2.073865   3.702781   2.444344   3.053582
    20  H    2.094247   1.030275   5.039616   4.419525   4.764541
    21  H    2.061180   1.019020   4.997575   4.698755   4.399500
    22  C    6.823961   6.285588   8.737513   7.712790   9.014735
    23  C    5.940553   5.357612   7.726625   6.940501   8.132959
    24  C    6.830904   6.030671   8.655605   8.083919   9.116431
    25  C    4.564089   3.875602   6.817420   5.949691   6.966313
    26  N    3.983207   3.106567   6.243552   5.696313   6.425940
    27  C    6.066685   5.805161   7.128448   6.479113   7.834022
    28  N    5.561574   5.383167   6.217353   5.903643   7.118464
    29  H    7.793966   7.306466   9.453780   8.486147   9.867829
    30  H    7.134993   6.422322   9.394273   8.327398   9.511060
    31  H    6.501432   6.143884   8.354364   7.167099   8.553982
    32  H    6.979695   5.997433   9.172490   8.543642   9.452582
    33  H    7.853156   7.109871   9.496025   8.928613  10.053299
    34  H    6.632742   5.844113   8.232107   7.881925   8.810022
    35  H    4.028608   3.659405   6.142945   5.092661   6.255582
    36  H    4.908148   4.038804   7.555028   6.567999   7.479033
    37  H    4.703241   3.612635   7.077125   6.623454   7.215991
    38  H    4.210816   3.571877   5.893982   5.562611   6.353643
    39  H    7.162210   6.881435   8.053851   7.470932   8.860773
    40  H    5.920799   5.865795   6.851922   6.008472   7.511154
    41  H    4.730187   4.756314   5.220714   4.880782   6.124880
    42  H    6.331433   6.259920   6.509547   6.369025   7.612154
                   11         12         13         14         15
    11  H    0.000000
    12  H    1.781010   0.000000
    13  H    1.787941   1.786472   0.000000
    14  H    3.022667   2.490721   3.723899   0.000000
    15  H    2.438847   3.053066   3.694697   1.771495   0.000000
    16  H    4.338393   4.681680   4.913280   2.946829   2.413679
    17  H    4.679603   4.377992   4.966161   2.394289   2.946695
    18  H    3.184419   3.742525   2.512865   4.307309   3.804352
    19  H    3.840169   4.332067   3.746986   3.814935   3.239986
    20  H    3.165057   4.466771   4.086717   3.928334   2.372059
    21  H    2.311258   3.871582   3.018827   4.324915   3.003653
    22  C    8.149671   9.028202   9.206335   7.139655   6.047096
    23  C    6.871917   7.758958   8.078477   5.883040   4.719825
    24  C    7.256871   8.288388   8.683583   6.556404   5.263750
    25  C    5.714206   6.749881   6.815850   5.197136   3.814783
    26  N    4.505659   5.696952   5.819072   4.426246   2.798425
    27  C    6.875204   7.424869   8.028389   5.229791   4.492048
    28  N    5.870581   6.291493   7.118342   4.060018   3.464372
    29  H    9.008366   9.802306  10.111965   7.770504   6.801774
    30  H    8.480125   9.527325   9.548518   7.829259   6.565531
    31  H    8.156912   8.925224   9.023770   7.029382   6.073383
    32  H    7.432449   8.649724   8.858154   7.155088   5.686465
    33  H    8.271116   9.220014   9.707168   7.357363   6.198862
    34  H    6.651366   7.648767   8.189453   5.971712   4.705734
    35  H    5.611393   6.448948   6.475430   4.815540   3.669465
    36  H    6.230766   7.424641   7.258757   6.106115   4.625686
    37  H    4.882224   6.242252   6.321416   5.181279   3.485752
    38  H    4.345490   5.330067   5.764421   3.801237   2.318310
    39  H    7.838996   8.345030   9.049442   6.085138   5.446821
    40  H    7.110518   7.520428   8.050694   5.273079   4.736762
    41  H    5.200223   5.486952   6.294128   3.190988   2.763320
    42  H    6.430276   6.646676   7.671433   4.316610   4.064924
                   16         17         18         19         20
    16  H    0.000000
[...]
 00011890,-0.00000497,0.00001929,-0.00000194,-0.00002597,-0.00000483,-0
 .00005609,0.00003290,-0.00001356,-0.00000043,-0.00002095,-0.00003675,0
 .00000702,0.00000967,0.00002653,-0.00000244,0.00002969,-0.00001949,-0.
 00003688,0.00022606,0.00015431,0.00002328,0.00001159,-0.00006653,0.000
 44330,-0.00090129,0.00014950,-0.00116320,0.00045455,0.00005948,-0.0000
 6007,0.00006841,-0.00000863,0.00000911,-0.00000076,0.00003976,-0.00005
 360,-0.00046799,0.00050725,-0.00025711,0.00003634,-0.00000099,0.000028
 56,-0.00042407,0.00013047,-0.00015305,-0.00012456,0.00000835,0.0015763
 0,-0.00004837,-0.00034050,0.00067523,0.00167386,0.02593826,-0.01622040
 ,0.02345054,0.16251022,-0.16647844,0.00108067,-0.00136414,-0.00106084,
 0.00050507,0.00120435,-0.00311150,-0.00009707,-0.00004714,0.00012034,-
 0.00012026,-0.00005496,0.00002928,0.00001134,0.00004903,-0.00003925,-0
 .00000960,0.00003630,-0.00009948,0.00012729,0.00008376,-0.00010577,-0.
 00071774,-0.00000979,-0.00022396,0.00011009,0.00010125,-0.00078601,0.0
 0267922,-0.00129982,-0.00336741,-0.00245155,-0.02482933,0.01604699,-0.
 02468987,-0.16212857,0.17322309,-0.00002674,0.00004235,-0.00000603,0.0
 0000466,-0.00001583,0.00003441,-0.00003146,0.00002452,-0.00003584,0.00
 031361,-0.00005951,-0.00023747,-0.00072515,0.00020340,-0.00037531,-0.0
 0002494,-0.00003540,0.00000404,-0.00002170,0.00008494,-0.00002871,0.00
 000659,-0.00000715,0.00000691,0.00002063,-0.00000149,0.00002390,-0.000
 02624,0.00000468,-0.00000610,0.00001044,-0.00000386,-0.00000167,0.0000
 0777,-0.00000788,0.00000126,-0.00002682,0.00001199,0.00000964,-0.00000
 908,-0.00001255,0.00002542,0.00003474,-0.00004822,-0.00000419,0.000100
 42,-0.00010578,0.00007591,-0.00004514,0.00005162,-0.00000157,-0.000021
 88,0.00002091,-0.00000227,0.00000772,-0.00001497,0.00002224,0.00003552
 ,-0.00005158,0.00000938,0.00000308,-0.00003179,0.00000710,0.00084658,-
 0.00063206,0.00009760,0.00386501,-0.00324466,0.00139271,0.00068168,-0.
 00101011,0.00017168,0.00047775,-0.00143572,0.00024388,0.00008760,0.000
 20540,0.00014057,-0.21774954,0.10335870,-0.06193539,-0.02525420,0.0083
 4826,-0.00476172,0.00012561,-0.00006540,-0.00014799,0.00021833,0.00009
 546,-0.00005716,-0.00004334,-0.00003277,0.00008071,0.00022896,-0.00007
 291,0.00011450,0.00018553,0.00008029,0.00024392,-0.00014590,0.00012958
 ,-0.00008360,0.00006691,-0.00011253,0.00012312,0.00038962,-0.00003092,
 0.00001950,0.00000073,0.00004645,-0.00001579,-0.00001042,-0.00050157,-
 0.00018517,0.24193162,-0.00000045,0.00000948,-0.00000979,-0.00000122,0
 .00000212,0.00001290,-0.00000577,0.00001020,-0.00000465,0.00005956,-0.
 00001240,-0.00005611,-0.00013355,0.00009269,-0.00009738,-0.00004833,-0
 .00006330,-0.00003361,0.00012301,0.00002342,0.00001816,0.00000419,0.00
 000715,0.00000030,0.00000065,-0.00000320,0.00000321,-0.00000140,-0.000
 00181,0.00000136,-0.00000253,-0.00000295,0.00000802,0.00000457,0.00000
 611,-0.00000282,-0.00000117,-0.00000129,0.00000300,0.00001500,0.000010
 79,0.00000327,-0.00000287,-0.00001880,0.00002875,-0.00007656,-0.000072
 37,-0.00002994,0.00003247,0.00001078,-0.00000529,0.00002067,0.00001076
 ,0.00000460,-0.00000564,-0.00000091,-0.00000372,-0.00017176,0.00001502
 ,0.00000766,0.00000823,0.00000208,0.00000027,0.00136629,0.00046454,-0.
 00077733,0.02666798,-0.01905614,0.01052453,0.00140907,0.00108412,0.000
 75085,-0.00415931,-0.00593518,0.00107139,0.00032945,0.00049180,-0.0003
 0904,0.10686244,-0.11211112,0.03788780,-0.00994968,0.00304647,-0.00110
 735,-0.00091510,0.00018749,0.00049995,-0.00024529,0.00024625,-0.000248
 70,-0.00009862,0.00000069,-0.00011177,-0.00018103,0.00054171,0.0001909
 4,-0.00098631,-0.00028615,-0.00057936,0.00003993,-0.00003711,-0.000164
 51,-0.00022058,0.00025724,-0.00005688,0.00166042,-0.00137885,0.0003686
 0,0.00003532,0.00000242,0.00001400,-0.00020283,-0.00016382,-0.00004074
 ,-0.10915262,0.12377635,0.00001221,-0.00001271,0.00000021,-0.00001482,
 0.00000190,0.00001676,0.00000327,-0.00000514,0.00000493,-0.00013072,0.
 00003442,0.00000535,0.00032186,-0.00011653,0.00058168,0.00003661,0.000
 03141,0.00000416,-0.00005583,-0.00002453,-0.00000241,-0.00000415,-0.00
 000404,0.00000049,-0.00000294,0.00000240,-0.00000306,0.00000355,0.0000
 0167,0.00000113,-0.00000026,0.00000255,-0.00000335,-0.00000433,-0.0000
 0340,0.00000212,0.00000241,0.00000002,-0.00000162,-0.00003022,-0.00000
 636,0.00000500,-0.00002549,0.00004046,-0.00000501,0.00020165,-0.000080
 52,-0.00001136,0.00013527,-0.00005088,0.00002429,-0.00001007,-0.000007
 87,0.00000017,0.00000132,0.00000202,0.00000326,0.00007895,0.00000003,-
 0.00000740,-0.00000321,0.00000436,0.00000039,-0.00075339,0.00062833,-0
 .00026750,-0.00111834,-0.00134045,-0.00056831,0.00067513,-0.00113679,0
 .00037394,0.00035799,0.00041267,-0.00006620,-0.00025140,0.00021691,0.0
 0014243,-0.06866685,0.04160362,-0.07743947,0.02470974,-0.00953068,0.00
 588399,0.00059761,0.00036812,-0.00013780,0.00022399,-0.00017703,-0.000
 02220,-0.00003983,0.00005719,0.00012410,0.00006258,0.00007708,-0.00004
 312,-0.00007820,-0.00013643,0.00025704,0.00008895,0.00008343,0.0000278
 6,0.00040494,-0.00016579,0.00037498,-0.00005213,0.00032040,0.00037538,
 -0.00005651,-0.00002598,0.00006572,0.00004409,0.00028991,-0.00000921,0
 .06274676,-0.04542503,0.07769650,-0.00000923,-0.00000169,0.00000150,0.
 00004411,-0.00001120,-0.00010788,0.00002870,-0.00001521,0.00002224,0.0
 0005291,-0.00005664,0.00032906,0.00048834,-0.00021581,-0.00050492,-0.0
 0000187,0.00001282,0.00001158,0.00000103,-0.00000525,-0.00000857,0.000
 00071,0.00000335,-0.00000082,-0.00000624,0.00000003,-0.00001185,0.0000
 0397,-0.00000377,-0.00000352,-0.00000181,-0.00000705,-0.00000211,0.000
 00304,0.00000561,-0.00000038,0.00000880,-0.00000350,-0.00001324,0.0000
 3762,0.00002502,-0.00001078,0.00002815,-0.00006223,-0.00002601,-0.0000
 9767,0.00006781,0.00000008,-0.00012969,0.00007974,-0.00003563,0.000005
 11,-0.00000387,-0.00000324,-0.00000119,0.00000474,-0.00001263,0.000000
 60,0.00000186,0.00001127,0.00000219,-0.00000109,-0.00000110,-0.0000219
 4,-0.00081180,-0.00082985,-0.00179457,-0.00136699,-0.00591373,-0.00015
 441,-0.00252085,0.00037952,-0.00002689,0.00062085,0.00099341,0.0002110
 6,0.00043761,-0.00029953,-0.06763935,-0.01815729,-0.05926189,0.0001524
 3,0.00546603,0.03163699,-0.00010581,0.00008611,-0.00021479,-0.00009071
 ,0.00023235,0.00016374,-0.00001872,-0.00056172,0.00048164,0.00000516,-
 0.00052782,-0.00061135,0.00037669,0.00010346,0.00029695,-0.00006986,0.
 00004955,0.00007186,0.00020891,0.00008368,0.00001396,0.00000200,-0.000
 10587,-0.00001993,-0.00007411,0.00001017,-0.00001114,0.00006759,-0.000
 71578,0.00026371,-0.00428238,-0.00955981,-0.02216938,0.07109027,-0.000
 00380,0.00001486,-0.00000720,-0.00000723,-0.00000127,0.00003468,-0.000
 01645,0.00000923,-0.00001620,0.00006574,-0.00001802,-0.00013364,-0.000
 27495,-0.00008154,0.00009567,-0.00001264,-0.00002952,-0.00002287,0.000
 02296,0.00003842,0.00001018,0.00000127,-0.00000229,0.00000437,0.000007
 56,0.00000105,0.00001117,-0.00000930,0.00000140,-0.00000153,0.00000384
 ,-0.00000030,0.00000195,0.00000259,-0.00000230,0.00000109,-0.00001075,
 0.00000472,0.00000492,-0.00001972,-0.00000185,0.00001870,0.00000442,-0
 .00000893,0.00000825,0.00018881,-0.00013369,0.00000613,-0.00000165,0.0
 0003788,-0.00001648,-0.00000474,0.00001015,0.00000262,0.00000186,-0.00
 000189,0.00001382,-0.00002089,-0.00001706,-0.00000925,-0.00000236,-0.0
 0001516,0.00000427,0.00028321,0.00058988,-0.00176615,-0.01102877,-0.01
 291871,-0.02925073,-0.00054236,-0.00639124,0.00198696,-0.00160080,0.00
 124432,-0.00158207,0.00030994,0.00041048,0.00016592,-0.01833011,-0.077
 37653,-0.07085187,0.00056590,0.00515178,0.00905058,-0.00008274,0.00003
 969,0.00014206,0.00038162,0.00026797,0.00018992,-0.00021527,-0.0003162
 0,0.00110939,-0.00098167,-0.00072325,-0.00185697,-0.00020557,0.0001779
 9,0.00011390,0.00025891,0.00018551,0.00008848,0.00090484,-0.00016285,0
 .00079637,0.00003530,0.00031429,0.00035675,-0.00012835,0.00010466,0.00
 007806,-0.00014484,-0.00038193,-0.00000065,0.00332651,0.00636409,0.015
 12502,0.02655014,0.08278881,0.00003581,-0.00003124,-0.00001879,-0.0000
 2648,0.00003774,0.00006525,-0.00000030,-0.00000788,0.00000432,-0.00012
 572,-0.00003189,-0.00013697,0.00042188,-0.00008042,0.00080462,0.000008
 88,-0.00002283,-0.00007144,0.00006778,-0.00003177,0.00006650,0.0000001
 8,0.00000494,-0.00000573,-0.00001433,-0.00000009,0.00001074,0.00001325
 ,0.00000404,0.00001235,-0.00000385,0.00001766,0.00001054,-0.00001006,-
 0.00000147,-0.00000235,0.00001061,-0.00000507,0.00000464,-0.00004999,-
 0.00001424,-0.00000013,-0.00005441,0.00010685,0.00006440,0.00020625,-0
 .00018718,-0.00010513,0.00033023,-0.00012633,0.00003894,0.00001747,-0.
 00000574,0.00001091,-0.00001020,0.00001079,0.00001554,-0.00008601,0.00
 003573,-0.00003704,-0.00000984,0.00001671,-0.00000048,0.00069847,0.001
 57043,0.00077863,-0.00137118,0.00095218,-0.00207843,0.00032421,-0.0003
 9935,0.00108066,0.00028904,0.00032258,-0.00034144,0.00011513,-0.000290
 19,0.00063437,-0.05940560,-0.07291706,-0.24602199,0.00970758,-0.002967
 97,-0.02326983,-0.00016232,-0.00023785,-0.00005512,0.00010512,0.000032
 73,0.00038429,-0.00006333,0.00018207,0.00050833,0.00000395,-0.00017857
 ,-0.00002338,0.00009371,0.00007860,0.00013764,0.00009802,0.00029037,0.
 00014607,0.00058458,-0.00038536,0.00031356,0.00003761,-0.00003057,0.00
 024833,-0.00009963,-0.00004369,0.00013488,-0.00045941,0.00120308,-0.00
 024855,-0.00206827,-0.00323085,-0.00636056,0.05250478,0.07568136,0.274
 66403,0.00009741,-0.00035534,0.00008063,0.00034009,-0.00011997,-0.0006
 3696,0.00035886,-0.00025625,0.00040236,-0.00420340,0.00127363,0.002940
 92,-0.00058565,-0.00019995,0.00228866,0.00043777,0.00066660,0.00022744
 ,-0.00050483,-0.00073063,0.00000539,-0.00005367,0.00003402,-0.00005215
 ,-0.00019620,0.00001761,-0.00025819,0.00019387,-0.00002889,0.00003487,
 -0.00007098,-0.00000896,-0.00005381,-0.00005488,0.00005482,-0.00000385
 ,0.00021614,-0.00008418,-0.00015003,0.00030309,0.00005545,-0.00033043,
 0.00017552,0.00002063,-0.00032325,0.00102409,0.00048460,-0.00019554,0.
 00120267,-0.00130474,0.00004556,0.00005761,-0.00022120,-0.00002191,-0.
 00003082,0.00012458,-0.00024048,0.00062911,0.00027823,0.00002045,-0.00
 001646,0.00020681,-0.00005222,-0.00011563,0.00027005,0.00003808,-0.000
 76572,-0.00011656,0.00045609,-0.00014931,0.00066729,0.00012317,0.00081
 296,-0.00062558,0.00003350,-0.00165154,0.00034592,0.00000247,-0.024968
 35,-0.00334019,-0.00865378,-0.30585346,-0.01931555,-0.13400214,-0.0000
 1888,-0.00005418,-0.00000211,0.00015923,0.00011366,0.00000640,0.000007
 41,-0.00010188,0.00003788,0.00021766,0.00021852,-0.00001813,-0.0000033
 7,-0.00005301,-0.00003581,0.00000625,-0.00042390,-0.00024989,0.0001235
 8,-0.00008893,-0.00020056,-0.00013391,0.00018743,-0.00005252,-0.000003
 04,-0.00005114,-0.00001411,0.00211719,-0.00093881,0.00005666,-0.001448
 05,-0.00148486,0.00227751,0.00256066,0.00076316,-0.00236048,0.32819724
 ,-0.00008808,0.00017744,-0.00002928,-0.00008802,-0.00015013,0.00008905
 ,-0.00008478,0.00008756,-0.00011245,0.00148350,0.00006255,-0.00065468,
 -0.00216906,-0.00623084,-0.00141947,0.00005388,-0.00003588,0.00010427,
 -0.00018084,0.00024121,-0.00013339,-0.00001206,-0.00004322,0.00003389,
 0.00005833,0.00000908,0.00007826,-0.00007944,-0.00000781,-0.00001782,0
 .00003541,-0.00000923,-0.00001975,-0.00000113,-0.00003654,0.00001159,-
 0.00007421,0.00002458,0.00003700,-0.00044910,-0.00012238,0.00015935,0.
 00032853,-0.00028964,-0.00022045,0.00272969,-0.00136662,0.00184080,-0.
 00222189,0.00152120,-0.00056915,-0.00007867,0.00003444,-0.00001427,0.0
 0003290,-0.00005892,0.00004485,0.00026216,-0.00021934,0.00004184,-0.00
 000497,-0.00007523,0.00001023,0.00023130,-0.00070079,0.00027982,-0.002
 24221,0.00023561,0.00027550,0.00023629,-0.00054630,-0.00006233,-0.0016
 2290,-0.00032642,0.00083635,0.00090198,0.00069574,0.00009239,-0.000485
 90,-0.00157071,-0.00846546,-0.05408441,-0.04408522,-0.00066614,0.00018
 245,-0.00001398,-0.00009513,-0.00009696,-0.00011906,0.00016738,-0.0000
 6476,0.00007919,0.00001617,-0.00020265,-0.00015548,0.00006781,0.000077
 24,-0.00004114,0.00009934,-0.00014705,0.00040138,0.00027308,0.00014816
 ,-0.00012363,0.00040940,0.00037797,0.00007013,-0.00001235,0.00025154,0
 .00068844,-0.00037851,-0.00127555,-0.00480777,-0.00239823,0.00089628,0
 .00033308,-0.00034776,-0.00024088,0.00087686,0.00215854,0.02526167,0.0
 5315802,-0.00012356,-0.00008120,0.00003134,0.00067440,-0.00022765,-0.0
 0130254,0.00033457,-0.00021226,0.00029152,0.00041193,-0.00059489,0.004
 04281,0.00312175,-0.00059836,-0.00460399,0.00010170,0.00041008,0.00020
 576,-0.00029831,-0.00025354,-0.00012603,-0.00000543,0.00002180,-0.0000
 1712,-0.00011353,0.00001362,-0.00016789,0.00006246,-0.00003111,-0.0000
 2178,-0.00002621,-0.00005276,-0.00005184,0.00000974,0.00004602,-0.0000
 0196,0.00013019,-0.00004493,-0.00015544,0.00054874,0.00021363,-0.00022
 429,0.00046480,-0.00073633,-0.00056486,-0.00108554,0.00122351,-0.00065
 495,-0.00041006,0.00022925,-0.00060888,0.00001084,-0.00008281,-0.00003
 229,-0.00001532,0.00007243,-0.00016247,0.00037102,0.00006059,0.0000863
 6,0.00000437,0.00005727,-0.00002335,0.00014326,0.00027552,0.00008663,0
 .00038095,-0.00078514,-0.00067443,-0.00003521,-0.00026530,-0.00023221,
 0.00015346,0.00028130,0.00141206,-0.00047457,0.00120280,-0.00000570,0.
 02987027,-0.00119409,0.01247853,-0.16606217,0.01691944,-0.13518429,-0.
 00015736,0.00001283,0.00004568,-0.00000549,0.00013292,-0.00015428,-0.0
 0000280,0.00000319,-0.00011213,-0.00007688,0.00006665,0.00008959,-0.00
 005083,-0.00003081,-0.00008796,-0.00014358,0.00007559,0.00009451,-0.00
 011659,-0.00003069,-0.00061252,-0.00007884,-0.00003967,-0.00034323,-0.
 00000559,0.00035437,-0.00032786,0.00002292,-0.00331986,-0.00020154,0.0
 0539914,0.00108884,-0.00348971,0.00130614,-0.00022115,0.00050380,0.139
 20611,-0.00836532,0.13944291,0.00000884,0.00002415,-0.00001229,-0.0001
 2619,-0.00002490,0.00017102,-0.00003647,0.00003528,-0.00003413,0.00035
 489,0.00011557,-0.00059774,-0.00230088,-0.00082243,-0.00063735,0.00005
 737,0.00001531,0.00001025,-0.00006387,-0.00000297,-0.00000298,-0.00001
 504,-0.00001519,0.00000596,0.00001867,0.00000587,0.00003355,-0.0000064
 4,-0.00000332,0.00000991,0.00000432,0.00001354,-0.00000260,-0.00001833
 ,-0.00001746,0.00000372,-0.00001154,-0.00000160,0.00002560,-0.00021961
 ,-0.00012009,0.00003321,0.00008587,0.00007843,0.00000440,0.00056857,-0
 .00030995,0.00039097,-0.00044114,0.00027417,-0.00014141,-0.00001596,-0
 .00001032,0.00000567,0.00000110,-0.00001800,0.00002381,0.00008600,-0.0
 0003191,-0.00000659,-0.00000210,0.00000446,-0.00000019,-0.00019690,-0.
 00155893,-0.00022244,-0.00341866,0.00031630,0.00432278,0.00021888,0.00
 019806,0.00029047,-0.00061079,0.00037430,0.00017954,0.00025128,0.00052
 115,0.00017186,0.00284723,-0.02888067,0.01515816,-0.07187169,0.0544368
 2,-0.03365329,-0.00004863,0.00007192,-0.00002329,-0.00041808,-0.000158
 13,0.00035780,0.00005105,0.00003824,-0.00004849,-0.00005128,-0.0000112
 6,-0.00015558,-0.00015470,-0.00003484,0.00000920,0.00011429,-0.0000723
 1,-0.00014297,0.00006058,-0.00005079,0.00008994,0.00007809,-0.00003349
 ,0.00000080,0.00006267,0.00019593,-0.00014099,-0.00006538,-0.00085168,
 -0.00065976,0.00024185,-0.00103197,0.00048171,-0.00085360,-0.00003362,
 0.00070689,0.00158974,0.03244624,-0.01344094,0.07424597,-0.00000943,0.
 00001800,-0.00000261,0.00000904,-0.00000093,-0.00004184,0.00000619,0.0
 0000616,0.00000750,-0.00013520,0.00003543,0.00016366,-0.00013588,0.000
 09610,-0.00001401,-0.00004761,-0.00005519,-0.00002059,0.00011654,0.000
 02070,0.00000145,0.00000234,0.00000538,0.00000482,0.00000274,-0.000002
 77,-0.00001375,-0.00000400,-0.00000515,-0.00000712,-0.00000337,-0.0000
 2033,0.00000331,0.00001384,0.00001201,0.00000102,-0.00000316,0.0000010
 9,-0.00000873,0.00006735,0.00006524,0.00001350,-0.00004549,-0.00008369
 ,0.00000248,-0.00008195,-0.00003359,-0.00008794,0.00003495,-0.00000297
 ,-0.00002800,0.00001725,0.00001502,0.00000156,-0.00000117,0.00000523,-
 0.00001520,-0.00018609,0.00002038,0.00001338,0.00001596,-0.00000813,0.
 00000279,-0.00013346,-0.00094962,-0.00037485,-0.00251242,0.00038098,0.
 00227201,-0.00002240,0.00029184,0.00079057,0.00027367,0.00074457,-0.00
 079076,0.00049927,-0.00121040,-0.00039675,0.00436602,-0.00635259,-0.00
 641933,0.05400451,-0.33004014,0.19941887,-0.00009635,0.00003814,0.0000
 3786,-0.00019284,-0.00002305,0.00030918,0.00005615,0.00004143,0.000014
 10,0.00006507,0.00005505,-0.00024051,-0.00018113,-0.00000432,-0.000006
 83,0.00032573,-0.00013505,-0.00014300,0.00001630,0.00002865,0.00001232
 ,-0.00005037,-0.00001573,0.00008180,0.00002361,-0.00036151,0.00026818,
 -0.00073549,0.00053419,0.00109491,-0.00024405,0.00214853,-0.00070601,0
 .00111520,-0.00004951,-0.00147876,-0.00113998,0.00243978,-0.00559378,-
 0.05506988,0.33235077,0.00000324,0.00000834,-0.00000083,-0.00000329,-0
 .00000282,-0.00001748,0.00000798,0.00000225,0.00001687,-0.00015823,0.0
 0007530,0.00011727,-0.00050519,-0.00050761,-0.00027300,-0.00002976,-0.
 00004487,-0.00002182,0.00012575,-0.00001165,0.00000931,-0.00000651,0.0
 0000632,0.00000750,0.00000196,0.00000171,-0.00002115,0.00000516,-0.000
 00978,-0.00000249,-0.00000877,-0.00002422,0.00000252,0.00001288,0.0000
 1816,0.00000280,0.00000465,-0.00000255,-0.00001054,0.00001987,0.000057
 25,0.00004286,-0.00003177,-0.00009011,0.00002378,0.00012004,-0.0000829
 8,-0.00002514,-0.00023519,0.00020369,-0.00013884,0.00002449,0.00000583
 ,0.00000518,-0.00000158,0.00000824,-0.00002265,-0.00020786,0.00003503,
 0.00001312,0.00001661,0.00000216,0.00000030,0.00006699,0.00053813,-0.0
 0010424,0.00070708,-0.00233355,-0.00139488,-0.00015365,0.00005049,0.00
 060106,0.00018700,-0.00001504,-0.00069673,0.00065503,-0.00219607,0.000
 04968,-0.00322343,0.01942862,-0.01424884,-0.02414771,0.15432042,-0.106
 83298,-0.00002536,0.00002470,0.00005186,0.00012482,0.00001074,-0.00001
 474,-0.00001159,0.00002635,0.00005559,0.00004692,0.00002420,-0.0002287
 0,-0.00016941,0.00002612,0.00003827,0.00030747,-0.00010668,0.00000155,
 -0.00002236,0.00003401,0.00003596,0.00001813,-0.00006124,0.00010354,-0
 .00001757,-0.00039957,0.00020985,-0.00110270,0.00180987,0.00092398,-0.
 00104006,-0.00019351,0.00246644,0.00158585,0.00063417,-0.00186596,-0.0
 0037581,0.01685502,-0.00866601,0.02743584,-0.18812490,0.12980774\\0.,-
 0.00000064,0.00000034,-0.00000044,-0.00000010,0.00000039,-0.00000002,-
 0.00000006,0.00000046,0.00000058,-0.00000026,0.00000036,0.00000038,-0.
 00000038,0.,-0.00000032,0.00000020,-0.00000017,-0.00000020,-0.00000026
 ,-0.00000035,0.00000017,-0.00000032,0.00000063,-0.00000007,-0.00000057
 ,0.00000048,0.00000003,-0.00000052,0.00000051,0.00000008,-0.00000003,0
 .00000012,0.00000026,-0.00000007,0.00000046,0.00000012,-0.00000028,0.0
 0000027,0.00000014,0.,0.00000046,0.00000001,0.00000013,0.00000009,-0.0
 0000022,-0.00000015,0.00000030,-0.00000006,-0.00000035,0.00000044,-0.0
 0000025,-0.00000047,0.00000005,-0.00000026,-0.00000045,0.00000026,0.00
 000006,0.00000023,-0.00000002,0.00000004,-0.00000017,-0.00000023,-0.00
 000003,0.00000009,-0.00000050,0.00000026,0.00000014,-0.00000038,0.0000
 0012,0.00000047,-0.00000002,-0.00000040,0.00000035,-0.00000060,0.00000
 018,0.00000023,0.00000052,-0.00000010,0.00000012,0.00000008,0.00000060
 ,-0.00000002,-0.00000002,-0.00000016,0.00000025,-0.00000035,-0.0000002
 7,0.00000009,-0.00000055,-0.00000018,-0.00000008,-0.00000031,-0.000000
 05,0.00000042,-0.00000064,0.00000004,0.00000058,-0.00000050,0.00000012
 ,0.00000054,-0.00000040,-0.00000013,-0.00000017,-0.00000021,-0.0000002
 0,0.00000001,-0.00000034,-0.00000033,0.00000039,-0.00000058,0.00000032
 ,0.00000020,-0.00000057,0.00000016,0.00000050,0.00000009,-0.00000002,0
 .00000008,0.00000016,-0.00000016,-0.00000001,0.00000002,0.00000018,0.0
 0000034,0.00000023\\\@


 EDUCATION DOESN'T COST 
           ... IT PAYS!

 -- POSTMARK, UNIV. OF MISSISSIPPI, DEC 78
 File lengths (MBytes):  RWF=    322 Int=      0 D2E=      0 Chk=      8 Scr=      1
 Normal termination of Gaussian 16 at Mon Apr  1 18:09:28 2024.
real 11009.88
user 42790.12
sys 71.51
