 Entering Gaussian System, Link 0=g16
 Input=gaussian_test.inp
 Output=gaussian_test.log
 Initial command:
 /sw/restricted/lms/sw/Gaussian/g16_B01/g16/l1.exe "/scratch/user/peterchao1/peterchao1/6097786_1659647558000000851228230/Gau-150155.inp" -scrdir="/scratch/user/peterchao1/peterchao1/6097786_1659647558000000851228230/"
 Entering Link 1 = /sw/restricted/lms/sw/Gaussian/g16_B01/g16/l1.exe PID=    150157.
  
 Copyright (c) 1988-2017, Gaussian, Inc.  All Rights Reserved.
  
 This is part of the Gaussian(R) 16 program.  It is based on
 the Gaussian(R) 09 system (copyright 2009, Gaussian, Inc.),
 the Gaussian(R) 03 system (copyright 2003, Gaussian, Inc.),
 the Gaussian(R) 98 system (copyright 1998, Gaussian, Inc.),
 the Gaussian(R) 94 system (copyright 1995, Gaussian, Inc.),
 the Gaussian 92(TM) system (copyright 1992, Gaussian, Inc.),
 the Gaussian 90(TM) system (copyright 1990, Gaussian, Inc.),
 the Gaussian 88(TM) system (copyright 1988, Gaussian, Inc.),
 the Gaussian 86(TM) system (copyright 1986, Carnegie Mellon
 University), and the Gaussian 82(TM) system (copyright 1983,
 Carnegie Mellon University). Gaussian is a federally registered
 trademark of Gaussian, Inc.
  
 This software contains proprietary and confidential information,
 including trade secrets, belonging to Gaussian, Inc.
  
 This software is provided under written license and may be
 used, copied, transmitted, or stored only in accord with that
 written license.
  
 The following legend is applicable only to US Government
 contracts under FAR:
  
                    RESTRICTED RIGHTS LEGEND
  
 Use, reproduction and disclosure by the US Government is
 subject to restrictions as set forth in subparagraphs (a)
 and (c) of the Commercial Computer Software - Restricted
 Rights clause in FAR 52.227-19.
  
 Gaussian, Inc.
 340 Quinnipiac St., Bldg. 40, Wallingford CT 06492
  
  
 ---------------------------------------------------------------
 Warning -- This program may not be used in any manner that
 competes with the business of Gaussian, Inc. or will provide
 assistance to any competitor of Gaussian, Inc.  The licensee
 of this program is prohibited from giving any competitor of
 Gaussian, Inc. access to this program.  By using this program,
 the user acknowledges that Gaussian, Inc. is engaged in the
 business of creating and licensing software in the field of
 computational chemistry and represents and warrants to the
 licensee that it is not a competitor of Gaussian, Inc. and that
 it will not use this program in any manner prohibited above.
 ---------------------------------------------------------------
  

 Cite this work as:
 Gaussian 16, Revision B.01,
 M. J. Frisch, G. W. Trucks, H. B. Schlegel, G. E. Scuseria, 
 M. A. Robb, J. R. Cheeseman, G. Scalmani, V. Barone, 
 G. A. Petersson, H. Nakatsuji, X. Li, M. Caricato, A. V. Marenich, 
 J. Bloino, B. G. Janesko, R. Gomperts, B. Mennucci, H. P. Hratchian, 
 J. V. Ortiz, A. F. Izmaylov, J. L. Sonnenberg, D. Williams-Young, 
 F. Ding, F. Lipparini, F. Egidi, J. Goings, B. Peng, A. Petrone, 
 T. Henderson, D. Ranasinghe, V. G. Zakrzewski, J. Gao, N. Rega, 
 G. Zheng, W. Liang, M. Hada, M. Ehara, K. Toyota, R. Fukuda, 
 J. Hasegawa, M. Ishida, T. Nakajima, Y. Honda, O. Kitao, H. Nakai, 
 T. Vreven, K. Throssell, J. A. Montgomery, Jr., J. E. Peralta, 
 F. Ogliaro, M. J. Bearpark, J. J. Heyd, E. N. Brothers, K. N. Kudin, 
 V. N. Staroverov, T. A. Keith, R. Kobayashi, J. Normand, 
 K. Raghavachari, A. P. Rendell, J. C. Burant, S. S. Iyengar, 
 J. Tomasi, M. Cossi, J. M. Millam, M. Klene, C. Adamo, R. Cammi, 
 J. W. Ochterski, R. L. Martin, K. Morokuma, O. Farkas, 
 J. B. Foresman, and D. J. Fox, Gaussian, Inc., Wallingford CT, 2016.
 
 ******************************************
 Gaussian 16:  ES64L-G16RevB.01 20-Dec-2017
                 4-Aug-2022 
 ******************************************
 %nprocshared=4
 Will use up to    4 processors via shared memory.
 %mem=8000mb
 ----------------------------------------------------------------------
 #T wB97XD/def2svpp opt=tight freq int(grid=ultrafine) scf=(verytight,q
 c)
 ----------------------------------------------------------------------
 --------------
 Comment gs min
 --------------
 Symbolic Z-matrix:
 Charge =  0 Multiplicity = 1
 O                     2.71045  -0.88869   0.98236 
 C                     2.27126   0.0892    0.03526 
 C                     2.82168   1.49334   0.37718 
 C                     2.26733   2.49432  -0.65894 
 O                     0.84345   2.51274  -0.64761 
 C                     2.34204   1.88951   1.79092 
 O                     2.94678   1.08839   2.80221 
 C                     4.36828   1.45156   0.31488 
 O                     4.79199   1.12682  -1.00331 
 Cl                    5.16166   3.00126   0.70612 
 H                     2.37274  -1.74712   0.67442 
 H                     1.17543   0.07978   0.05475 
 H                     2.59037  -0.23504  -0.96143 
 H                     2.59905   2.25443  -1.6764 
 H                     2.59889   3.51447  -0.44126 
 H                     0.53143   1.99894  -1.41108 
 H                     1.25785   1.78208   1.88341 
 H                     2.5783    2.93415   2.01582 
 H                     2.87814   0.15397   2.50358 
 H                     4.79267   0.69965   0.98747 
 H                     5.58916   1.67353  -1.1343 
 

 GradGradGradGradGradGradGradGradGradGradGradGradGradGradGradGradGradGrad
 Initialization pass.
                           ----------------------------
                           !    Initial Parameters    !
                           ! (Angstroms and Degrees)  !
 --------------------------                            --------------------------
 ! Name  Definition              Value          Derivative Info.                !
 --------------------------------------------------------------------------------
 ! R1    R(1,2)                  1.4304         estimate D2E/DX2                !
 ! R2    R(1,11)                 0.9725         estimate D2E/DX2                !
 ! R3    R(2,3)                  1.5464         estimate D2E/DX2                !
 ! R4    R(2,12)                 1.096          estimate D2E/DX2                !
 ! R5    R(2,13)                 1.0956         estimate D2E/DX2                !
 ! R6    R(3,4)                  1.5436         estimate D2E/DX2                !
 ! R7    R(3,6)                  1.5446         estimate D2E/DX2                !
 ! R8    R(3,8)                  1.5484         estimate D2E/DX2                !
 ! R9    R(4,5)                  1.424          estimate D2E/DX2                !
 ! R10   R(4,14)                 1.0967         estimate D2E/DX2                !
 ! R11   R(4,15)                 1.0945         estimate D2E/DX2                !
 ! R12   R(5,16)                 0.9717         estimate D2E/DX2                !
 ! R13   R(6,7)                  1.4249         estimate D2E/DX2                !
 ! R14   R(6,17)                 1.0934         estimate D2E/DX2                !
 ! R15   R(6,18)                 1.0944         estimate D2E/DX2                !
 ! R16   R(7,19)                 0.9834         estimate D2E/DX2                !
 ! R17   R(8,9)                  1.4222         estimate D2E/DX2                !
 ! R18   R(8,10)                 1.7844         estimate D2E/DX2                !
 ! R19   R(8,20)                 1.0945         estimate D2E/DX2                !
 ! R20   R(9,21)                 0.9755         estimate D2E/DX2                !
 ! A1    A(2,1,11)             106.6884         estimate D2E/DX2                !
 ! A2    A(1,2,3)              111.4107         estimate D2E/DX2                !
 ! A3    A(1,2,12)             106.8174         estimate D2E/DX2                !
 ! A4    A(1,2,13)             108.0943         estimate D2E/DX2                !
 ! A5    A(3,2,12)             111.0836         estimate D2E/DX2                !
 ! A6    A(3,2,13)             111.4805         estimate D2E/DX2                !
 ! A7    A(12,2,13)            107.7485         estimate D2E/DX2                !
 ! A8    A(2,3,4)              108.2135         estimate D2E/DX2                !
 ! A9    A(2,3,6)              108.9497         estimate D2E/DX2                !
 ! A10   A(2,3,8)              108.7908         estimate D2E/DX2                !
 ! A11   A(4,3,6)              109.6654         estimate D2E/DX2                !
 ! A12   A(4,3,8)              110.4377         estimate D2E/DX2                !
 ! A13   A(6,3,8)              110.7271         estimate D2E/DX2                !
 ! A14   A(3,4,5)              111.2308         estimate D2E/DX2                !
 ! A15   A(3,4,14)             111.8543         estimate D2E/DX2                !
 ! A16   A(3,4,15)             111.2297         estimate D2E/DX2                !
 ! A17   A(5,4,14)             108.2184         estimate D2E/DX2                !
 ! A18   A(5,4,15)             106.8129         estimate D2E/DX2                !
 ! A19   A(14,4,15)            107.2623         estimate D2E/DX2                !
 ! A20   A(4,5,16)             107.9372         estimate D2E/DX2                !
 ! A21   A(3,6,7)              111.9393         estimate D2E/DX2                !
 ! A22   A(3,6,17)             111.1086         estimate D2E/DX2                !
 ! A23   A(3,6,18)             111.4626         estimate D2E/DX2                !
 ! A24   A(7,6,17)             107.792          estimate D2E/DX2                !
 ! A25   A(7,6,18)             107.4101         estimate D2E/DX2                !
 ! A26   A(17,6,18)            106.8858         estimate D2E/DX2                !
 ! A27   A(6,7,19)             106.8038         estimate D2E/DX2                !
 ! A28   A(3,8,9)              109.9398         estimate D2E/DX2                !
 ! A29   A(3,8,10)             114.3206         estimate D2E/DX2                !
 ! A30   A(3,8,20)             112.4029         estimate D2E/DX2                !
 ! A31   A(9,8,10)             105.6085         estimate D2E/DX2                !
 ! A32   A(9,8,20)             107.2898         estimate D2E/DX2                !
 ! A33   A(10,8,20)            106.8282         estimate D2E/DX2                !
 ! A34   A(8,9,21)             103.8844         estimate D2E/DX2                !
 ! D1    D(11,1,2,3)          -176.6466         estimate D2E/DX2                !
 ! D2    D(11,1,2,12)           61.8752         estimate D2E/DX2                !
 ! D3    D(11,1,2,13)          -53.8328         estimate D2E/DX2                !
 ! D4    D(1,2,3,4)           -178.1515         estimate D2E/DX2                !
 ! D5    D(1,2,3,6)            -58.9716         estimate D2E/DX2                !
 ! D6    D(1,2,3,8)             61.8314         estimate D2E/DX2                !
 ! D7    D(12,2,3,4)           -59.1888         estimate D2E/DX2                !
 ! D8    D(12,2,3,6)            59.991          estimate D2E/DX2                !
 ! D9    D(12,2,3,8)          -179.2059         estimate D2E/DX2                !
 ! D10   D(13,2,3,4)            60.9975         estimate D2E/DX2                !
 ! D11   D(13,2,3,6)          -179.8227         estimate D2E/DX2                !
 ! D12   D(13,2,3,8)           -59.0197         estimate D2E/DX2                !
 ! D13   D(2,3,4,5)             59.0349         estimate D2E/DX2                !
 ! D14   D(2,3,4,14)           -62.1089         estimate D2E/DX2                !
 ! D15   D(2,3,4,15)           177.97           estimate D2E/DX2                !
 ! D16   D(6,3,4,5)            -59.6918         estimate D2E/DX2                !
 ! D17   D(6,3,4,14)           179.1644         estimate D2E/DX2                !
 ! D18   D(6,3,4,15)            59.2433         estimate D2E/DX2                !
 ! D19   D(8,3,4,5)            178.0146         estimate D2E/DX2                !
 ! D20   D(8,3,4,14)            56.8707         estimate D2E/DX2                !
 ! D21   D(8,3,4,15)           -63.0503         estimate D2E/DX2                !
 ! D22   D(2,3,6,7)             68.3374         estimate D2E/DX2                !
 ! D23   D(2,3,6,17)           -52.2338         estimate D2E/DX2                !
 ! D24   D(2,3,6,18)          -171.3335         estimate D2E/DX2                !
 ! D25   D(4,3,6,7)           -173.3919         estimate D2E/DX2                !
 ! D26   D(4,3,6,17)            66.037          estimate D2E/DX2                !
 ! D27   D(4,3,6,18)           -53.0628         estimate D2E/DX2                !
 ! D28   D(8,3,6,7)            -51.2708         estimate D2E/DX2                !
 ! D29   D(8,3,6,17)          -171.8419         estimate D2E/DX2                !
 ! D30   D(8,3,6,18)            69.0584         estimate D2E/DX2                !
 ! D31   D(2,3,8,9)             62.1264         estimate D2E/DX2                !
 ! D32   D(2,3,8,10)          -179.3152         estimate D2E/DX2                !
 ! D33   D(2,3,8,20)           -57.3139         estimate D2E/DX2                !
 ! D34   D(4,3,8,9)            -56.502          estimate D2E/DX2                !
 ! D35   D(4,3,8,10)            62.0565         estimate D2E/DX2                !
 ! D36   D(4,3,8,20)          -175.9422         estimate D2E/DX2                !
 ! D37   D(6,3,8,9)           -178.1701         estimate D2E/DX2                !
 ! D38   D(6,3,8,10)           -59.6116         estimate D2E/DX2                !
 ! D39   D(6,3,8,20)            62.3897         estimate D2E/DX2                !
 ! D40   D(3,4,5,16)          -102.2581         estimate D2E/DX2                !
 ! D41   D(14,4,5,16)           20.9921         estimate D2E/DX2                !
 ! D42   D(15,4,5,16)          136.1941         estimate D2E/DX2                !
 ! D43   D(3,6,7,19)           -46.7858         estimate D2E/DX2                !
 ! D44   D(17,6,7,19)           75.695          estimate D2E/DX2                !
 ! D45   D(18,6,7,19)         -169.4495         estimate D2E/DX2                !
 ! D46   D(3,8,9,21)           142.5727         estimate D2E/DX2                !
 ! D47   D(10,8,9,21)           18.7772         estimate D2E/DX2                !
 ! D48   D(20,8,9,21)          -94.9117         estimate D2E/DX2                !
 --------------------------------------------------------------------------------
 Number of steps in this run=    112 maximum allowed number of steps=    126.
 GradGradGradGradGradGradGradGradGradGradGradGradGradGradGradGradGradGrad

                    Distance matrix (angstroms):
                    1          2          3          4          5
     1  O    0.000000
     2  C    1.430439   0.000000
     3  C    2.460220   1.546441   0.000000
     4  C    3.786156   2.503304   1.543635   0.000000
     5  O    4.208589   2.894564   2.450054   1.424044   0.000000
     6  C    2.916829   2.515645   1.544560   2.524518   2.929269
     7  O    2.697508   3.018397   2.461789   3.797085   4.284160
     8  C    2.944605   2.516288   1.548418   2.539619   3.804854
     9  O    3.512545   2.917081   2.433559   2.891808   4.199793
    10  Cl   4.606132   4.157470   2.803129   3.239988   4.551722
    11  H    0.972511   1.947022   3.284887   4.447333   4.715177
    12  H    2.038303   1.096044   2.193685   2.744377   2.553980
    13  H    2.054263   1.095607   2.198335   2.765007   3.271163
    14  H    4.118327   2.779469   2.201366   1.096727   2.051162
    15  H    4.628926   3.473743   2.191905   1.094542   2.031653
    16  H    4.337636   2.960746   2.949364   1.955624   0.971717
    17  H    3.170954   2.703424   2.190357   2.826637   2.666768
    18  H    3.962273   3.480033   2.195520   2.728460   3.206423
    19  H    1.851856   2.542657   2.513698   3.981439   4.431000
    20  H    2.618872   2.763487   2.210701   3.508397   4.642965
    21  H    4.396839   3.858294   3.158478   3.454594   4.843852
                    6          7          8          9         10
     6  C    0.000000
     7  O    1.424855   0.000000
     8  C    2.544827   2.887796   0.000000
     9  O    3.793636   4.229451   1.422185   0.000000
    10  Cl   3.219167   3.599772   1.784402   2.563656   0.000000
    11  H    3.804286   3.591257   3.787216   4.114253   5.506922
    12  H    2.765933   3.421040   3.484787   3.910919   4.984913
    13  H    3.485801   4.005431   2.763069   2.589121   4.457117
    14  H    3.495930   4.640960   2.782080   2.556079   3.577866
    15  H    2.772922   4.065340   2.821008   3.290359   2.854410
    16  H    3.680093   4.941136   4.242638   4.367979   5.189047
    17  H    1.093418   2.043987   3.499186   4.610061   4.255836
    18  H    1.094382   2.039857   2.880156   4.157164   2.897165
    19  H    1.951253   0.983378   2.948672   4.111877   4.068462
    20  H    2.840226   2.617577   1.094465   2.036094   2.347918
    21  H    4.375768   4.777099   1.907863   0.975464   2.309279
                   11         12         13         14         15
    11  H    0.000000
    12  H    2.270486   0.000000
    13  H    2.238248   1.770251   0.000000
    14  H    4.646501   3.122928   2.590119   0.000000
    15  H    5.383328   3.750915   3.785429   1.764447   0.000000
    16  H    4.666122   2.499314   3.071170   2.100172   2.740761
    17  H    3.893570   2.499723   3.733296   3.833299   3.194316
    18  H    4.874002   3.736478   4.348325   3.754323   2.524765
    19  H    2.686149   2.983537   3.498633   4.686369   4.476944
    20  H    3.455538   3.786638   3.085771   3.784906   3.844106
    21  H    5.031667   4.840960   3.558829   3.093877   3.579257
                   16         17         18         19         20
    16  H    0.000000
    17  H    3.380589   0.000000
    18  H    4.099749   1.757380   0.000000
    19  H    4.922959   2.379221   2.838523   0.000000
    20  H    5.059581   3.803855   3.309672   2.502355   0.000000
    21  H    5.075740   5.280019   4.536265   4.784649   2.466728
                   21
    21  H    0.000000
 Framework group  C1[X(C5H11ClO4)]
 Deg. of freedom    57
                         Standard orientation:                         
 ---------------------------------------------------------------------
 Center     Atomic      Atomic             Coordinates (Angstroms)
 Number     Number       Type             X           Y           Z
 ---------------------------------------------------------------------
      1          8           0        1.726804   -1.588664    0.984971
      2          6           0        1.551147   -0.171193    0.907028
      3          6           0        0.380339    0.201781   -0.031896
      4          6           0        0.286716    1.741142   -0.098318
      5          8           0        1.499223    2.311182   -0.580795
      6          6           0        0.667688   -0.362753   -1.440582
      7          8           0        0.614562   -1.786415   -1.464593
      8          6           0       -0.928316   -0.395268    0.541300
      9          8           0       -1.198901    0.166924    1.819320
     10         17           0       -2.379178   -0.067384   -0.444389
     11          1           0        2.438133   -1.746929    1.628974
     12          1           0        2.496960    0.245995    0.542743
     13          1           0        1.387863    0.207770    1.921956
     14          1           0        0.068351    2.179591    0.882952
     15          1           0       -0.507003    2.060862   -0.780822
     16          1           0        1.987098    2.665869    0.181050
     17          1           0        1.657662   -0.059382   -1.791982
     18          1           0       -0.056407    0.004368   -2.174462
     19          1           0        1.134460   -2.103367   -0.692402
     20          1           0       -0.870697   -1.480728    0.669013
     21          1           0       -2.169348    0.265009    1.831189
 ---------------------------------------------------------------------
 Rotational constants (GHZ):           1.2086378           0.9036486           0.8026647
   166 basis functions,   306 primitive gaussians,   176 cartesian basis functions
    45 alpha electrons       45 beta electrons
       nuclear repulsion energy       715.4002021178 Hartrees.
 NAtoms=   21 NActive=   21 NUniq=   21 SFac= 1.00D+00 NAtFMM=   60 NAOKFM=F Big=F
 Nuclear repulsion after empirical dispersion term =      715.3850478143 Hartrees.
   1 Symmetry operations used in ECPInt.
 ECPInt:  NShTT=    3570 NPrTT=   14708 LenC2=    3515 LenP2D=   11070.
 LDataN:  DoStor=T MaxTD1= 4 Len=   56
 ExpMin= 1.22D-01 ExpMax= 1.04D+04 ExpMxC= 1.57D+03 IAcc=3 IRadAn=         5 AccDes= 0.00D+00
 Harris functional with IExCor= 4639 and IRadAn=       5 diagonalized for initial guess.
 HarFok:  IExCor= 4639 AccDes= 0.00D+00 IRadAn=         5 IDoV= 1 UseB2=F ITyADJ=14
 ICtDFT=  3500011 ScaDFX=  1.000000  1.000000  1.000000  1.000000
 FoFCou: FMM=F IPFlag=           0 FMFlag=      100000 FMFlg1=           0
         NFxFlg=           0 DoJE=T BraDBF=F KetDBF=T FulRan=T
         wScrn=  0.000000 ICntrl=       500 IOpCl=  0 I1Cent=   200000004 NGrid=           0
         NMat0=    1 NMatS0=      1 NMatT0=    0 NMatD0=    1 NMtDS0=    0 NMtDT0=    0
 Petite list used in FoFCou.
     Accept linear search using points  1 and  2.
     Accept linear search using points  2 and  3.
     Accept linear search using points  1 and  2.
     Minimum is close to point  2 DX= -7.54D-05 DF= -1.14D-13 DXR=  7.54D-05 DFR=  7.60D-09 which will be used.
 SCF Done:  E(RwB97XD) =  -957.504726972     a.u. after    8 cycles
            Convg  =    0.3595D-09                    37 Fock formations.
              S**2 =  0.0000                  -V/T =  2.0052

 **********************************************************************

            Population analysis using the SCF Density.

 **********************************************************************

 Orbital symmetries:
       Occupied  (A) (A) (A) (A) (A) (A) (A) (A) (A) (A) (A) (A)
                 (A) (A) (A) (A) (A) (A) (A) (A) (A) (A) (A) (A)
                 (A) (A) (A) (A) (A) (A) (A) (A) (A) (A) (A) (A)
                 (A) (A) (A) (A) (A) (A) (A) (A) (A)
       Virtual   (A) (A) (A) (A) (A) (A) (A) (A) (A) (A) (A) (A)
                 (A) (A) (A) (A) (A) (A) (A) (A) (A) (A) (A) (A)
                 (A) (A) (A) (A) (A) (A) (A) (A) (A) (A) (A) (A)
                 (A) (A) (A) (A) (A) (A) (A) (A) (A) (A) (A) (A)
                 (A) (A) (A) (A) (A) (A) (A) (A) (A) (A) (A) (A)
                 (A) (A) (A) (A) (A) (A) (A) (A) (A) (A) (A) (A)
                 (A) (A) (A) (A) (A) (A) (A) (A) (A) (A) (A) (A)
                 (A) (A) (A) (A) (A) (A) (A) (A) (A) (A) (A) (A)
                 (A) (A) (A) (A) (A) (A) (A) (A) (A) (A) (A) (A)
                 (A) (A) (A) (A) (A) (A) (A) (A) (A) (A) (A) (A)
                 (A)
 The electronic state is 1-A.
 Alpha  occ. eigenvalues -- -101.67375 -19.28104 -19.26996 -19.25929 -19.22305
 Alpha  occ. eigenvalues --  -10.40493 -10.35698 -10.34562 -10.32756 -10.32629
 Alpha  occ. eigenvalues --   -9.58255  -7.33590  -7.32700  -7.32635  -1.14343
 Alpha  occ. eigenvalues --   -1.13567  -1.11787  -1.08238  -0.94940  -0.89890
 Alpha  occ. eigenvalues --   -0.78032  -0.76111  -0.75666  -0.65690  -0.64313
 Alpha  occ. eigenvalues --   -0.61457  -0.60295  -0.58404  -0.57430  -0.54446
 Alpha  occ. eigenvalues --   -0.53798  -0.51748  -0.50243  -0.48921  -0.48458
 Alpha  occ. eigenvalues --   -0.46427  -0.44030  -0.42783  -0.40222  -0.39991
 Alpha  occ. eigenvalues --   -0.39000  -0.38183  -0.36769  -0.35536  -0.33239
 Alpha virt. eigenvalues --    0.09887   0.11487   0.12134   0.16030   0.18388
 Alpha virt. eigenvalues --    0.18997   0.19906   0.20754   0.21089   0.22331
 Alpha virt. eigenvalues --    0.23012   0.24720   0.25833   0.27451   0.28981
 Alpha virt. eigenvalues --    0.29324   0.32135   0.32993   0.34502   0.35339
 Alpha virt. eigenvalues --    0.52080   0.52970   0.54512   0.56401   0.57691
 Alpha virt. eigenvalues --    0.58164   0.60763   0.62341   0.63019   0.64108
 Alpha virt. eigenvalues --    0.67633   0.68493   0.69959   0.71677   0.72771
 Alpha virt. eigenvalues --    0.74313   0.74790   0.75111   0.75380   0.76579
 Alpha virt. eigenvalues --    0.77868   0.78569   0.80438   0.82014   0.82522
 Alpha virt. eigenvalues --    0.83171   0.86067   0.87237   0.87946   0.89085
 Alpha virt. eigenvalues --    0.91996   0.95728   0.97918   1.03888   1.04886
 Alpha virt. eigenvalues --    1.07232   1.10890   1.11176   1.13441   1.15031
 Alpha virt. eigenvalues --    1.17139   1.18740   1.20999   1.22623   1.24257
 Alpha virt. eigenvalues --    1.26669   1.28988   1.32397   1.35618   1.37204
 Alpha virt. eigenvalues --    1.43520   1.47543   1.53607   1.58149   1.61434
 Alpha virt. eigenvalues --    1.66995   1.70137   1.73045   1.77125   1.81684
 Alpha virt. eigenvalues --    1.83419   1.86872   1.87735   1.90004   2.02465
 Alpha virt. eigenvalues --    2.03306   2.05736   2.07435   2.07982   2.14770
 Alpha virt. eigenvalues --    2.16202   2.20375   2.21546   2.24096   2.25424
 Alpha virt. eigenvalues --    2.31057   2.49311   2.52989   2.64879   2.66389
 Alpha virt. eigenvalues --    2.68994   2.69614   2.72579   2.75314   2.76772
 Alpha virt. eigenvalues --    2.90697   2.93021   2.94877   2.95242   2.96399
 Alpha virt. eigenvalues --    2.99130   3.04551   3.05909   3.07505   3.08825
 Alpha virt. eigenvalues --    3.12818   3.14414   3.43378   3.44182   3.47937
 Alpha virt. eigenvalues --    3.49850
          Condensed to atoms (all electrons):
 Mulliken charges:
               1
     1  O   -0.514611
     2  C    0.035012
     3  C   -0.311066
     4  C    0.038835
     5  O   -0.494892
     6  C    0.107279
     7  O   -0.524030
     8  C    0.150984
     9  O   -0.476670
    10  Cl  -0.140009
    11  H    0.334910
    12  H    0.105088
    13  H    0.114339
    14  H    0.113355
    15  H    0.118202
    16  H    0.322086
    17  H    0.106921
    18  H    0.109281
    19  H    0.330304
    20  H    0.150885
    21  H    0.323797
 Sum of Mulliken charges =   0.00000
 Mulliken charges with hydrogens summed into heavy atoms:
               1
     1  O   -0.179701
     2  C    0.254439
     3  C   -0.311066
     4  C    0.270391
     5  O   -0.172806
     6  C    0.323482
     7  O   -0.193726
     8  C    0.301869
     9  O   -0.152873
    10  Cl  -0.140009
 Electronic spatial extent (au):  <R**2>=           1701.6700
 Charge=              0.0000 electrons
 Dipole moment (field-independent basis, Debye):
    X=              1.9100    Y=              1.4749    Z=              3.9212  Tot=              4.6043
   1 Symmetry operations used in ECPInt.
 ECPInt:  NShTT=    3570 NPrTT=   14708 LenC2=    3515 LenP2D=   11070.
 LDataN:  DoStor=T MaxTD1= 5 Len=  102
 Calling FoFJK, ICntrl=      2127 FMM=F ISym2X=0 I1Cent= 0 IOpClX= 0 NMat=1 NMatS=1 NMatT=0.

 GradGradGradGradGradGradGradGradGradGradGradGradGradGradGradGradGradGrad
 FormGI is forming the generalized inverse of G from B-inverse, IUseBI=4.
 Internal  Forces:  Max     0.015657003 RMS     0.005287272
 Step number   1 out of a maximum of  112
 All quantities printed in internal units (Hartrees-Bohrs-Radians)
 Mixed Optimization -- RFO/linear search
 Second derivative matrix not updated -- first step.
 ITU=  0
     Eigenvalues ---    0.00230   0.00230   0.00230   0.00230   0.01289
     Eigenvalues ---    0.01363   0.01374   0.01398   0.04434   0.04735
     Eigenvalues ---    0.04807   0.04810   0.04812   0.04975   0.05304
     Eigenvalues ---    0.05469   0.05490   0.05497   0.06278   0.11694
     Eigenvalues ---    0.11721   0.11767   0.12422   0.13890   0.13897
     Eigenvalues ---    0.13948   0.14330   0.14428   0.16000   0.16000
     Eigenvalues ---    0.16000   0.16000   0.19529   0.21979   0.21981
     Eigenvalues ---    0.22005   0.23355   0.27385   0.27786   0.27956
     Eigenvalues ---    0.28119   0.28199   0.34047   0.34123   0.34173
     Eigenvalues ---    0.34293   0.34302   0.34311   0.34421   0.40926
     Eigenvalues ---    0.41738   0.41857   0.42133   0.50734   0.52276
     Eigenvalues ---    0.52867   0.53028
 Linear search not attempted -- first point.
 Iteration  1 RMS(Cart)=  0.06651562 RMS(Int)=  0.00241774
 Iteration  2 RMS(Cart)=  0.00230908 RMS(Int)=  0.00086158
 Iteration  3 RMS(Cart)=  0.00000224 RMS(Int)=  0.00086158
 Iteration  4 RMS(Cart)=  0.00000001 RMS(Int)=  0.00086158
 Variable       Old X    -DE/DX   Delta X   Delta X   Delta X     New X
                                 (Linear)    (Quad)   (Total)
    R1        2.70314  -0.00221   0.00000  -0.00521  -0.00521   2.69793
    R2        1.83778  -0.00682   0.00000  -0.01253  -0.01253   1.82525
    R3        2.92235  -0.01017   0.00000  -0.03443  -0.03443   2.88792
    R4        2.07122   0.00605   0.00000   0.01694   0.01694   2.08816
    R5        2.07040   0.00732   0.00000   0.02049   0.02049   2.09088
    R6        2.91705  -0.00395   0.00000  -0.01327  -0.01327   2.90377
    R7        2.91880  -0.00174   0.00000  -0.00584  -0.00584   2.91295
    R8        2.92609  -0.01107   0.00000  -0.03771  -0.03771   2.88838
    R9        2.69105  -0.00242   0.00000  -0.00556  -0.00556   2.68549
   R10        2.07251   0.00448   0.00000   0.01258   0.01258   2.08509
   R11        2.06838   0.00495   0.00000   0.01380   0.01380   2.08219
   R12        1.83628  -0.00788   0.00000  -0.01443  -0.01443   1.82185
   R13        2.69259  -0.01017   0.00000  -0.02347  -0.02347   2.66912
   R14        2.06626   0.00850   0.00000   0.02361   0.02361   2.08987
   R15        2.06808   0.00496   0.00000   0.01383   0.01383   2.08191
   R16        1.85831  -0.01034   0.00000  -0.01977  -0.01977   1.83855
   R17        2.68754  -0.00473   0.00000  -0.01081  -0.01081   2.67673
   R18        3.37203   0.01192   0.00000   0.04116   0.04116   3.41319
   R19        2.06824   0.00250   0.00000   0.00696   0.00696   2.07520
   R20        1.84336  -0.00798   0.00000  -0.01481  -0.01481   1.82855
    A1        1.86206   0.00821   0.00000   0.04670   0.04670   1.90876
    A2        1.94448  -0.00842   0.00000  -0.03513  -0.03501   1.90948
    A3        1.86432   0.00983   0.00000   0.07047   0.06942   1.93374
    A4        1.88660   0.00612   0.00000   0.03710   0.03584   1.92244
    A5        1.93877  -0.00654   0.00000  -0.05204  -0.05198   1.88679
    A6        1.94570  -0.00292   0.00000  -0.03469  -0.03496   1.91074
    A7        1.88057   0.00309   0.00000   0.02242   0.01962   1.90019
    A8        1.88868  -0.00050   0.00000  -0.00213  -0.00245   1.88623
    A9        1.90153   0.00326   0.00000   0.03061   0.03058   1.93211
   A10        1.89876  -0.00243   0.00000  -0.02328  -0.02326   1.87550
   A11        1.91402  -0.00064   0.00000   0.00399   0.00386   1.91788
   A12        1.92750   0.00108   0.00000  -0.00316  -0.00327   1.92423
   A13        1.93255  -0.00074   0.00000  -0.00564  -0.00544   1.92711
   A14        1.94134   0.00187   0.00000   0.01282   0.01301   1.95436
   A15        1.95223  -0.00622   0.00000  -0.03921  -0.04013   1.91210
   A16        1.94132  -0.00431   0.00000  -0.04132  -0.04197   1.89935
   A17        1.88877   0.00578   0.00000   0.06008   0.06029   1.94906
   A18        1.86424   0.00108   0.00000   0.00892   0.00895   1.87319
   A19        1.87208   0.00238   0.00000   0.00294   0.00092   1.87300
   A20        1.88386   0.00439   0.00000   0.02495   0.02495   1.90881
   A21        1.95371   0.00601   0.00000   0.02904   0.02893   1.98264
   A22        1.93921  -0.00790   0.00000  -0.04060  -0.04209   1.89712
   A23        1.94539  -0.00371   0.00000  -0.03951  -0.04008   1.90531
   A24        1.88133   0.00589   0.00000   0.07085   0.07112   1.95244
   A25        1.87466  -0.00312   0.00000  -0.02535  -0.02500   1.84966
   A26        1.86551   0.00316   0.00000   0.00855   0.00722   1.87273
   A27        1.86408   0.00049   0.00000   0.00280   0.00280   1.86688
   A28        1.91881  -0.00978   0.00000  -0.02278  -0.02211   1.89670
   A29        1.99527  -0.00871   0.00000  -0.04290  -0.04382   1.95145
   A30        1.96180  -0.00320   0.00000  -0.04884  -0.04983   1.91197
   A31        1.84322   0.01566   0.00000   0.09212   0.09181   1.93502
   A32        1.87256   0.00780   0.00000   0.05797   0.05715   1.92971
   A33        1.86450   0.00057   0.00000  -0.02076  -0.02573   1.83877
   A34        1.81313   0.01560   0.00000   0.08878   0.08878   1.90190
    D1       -3.08306  -0.00087   0.00000  -0.00910  -0.00935  -3.09241
    D2        1.07993   0.00582   0.00000   0.03022   0.03230   1.11223
    D3       -0.93956  -0.00578   0.00000  -0.04992  -0.05175  -0.99131
    D4       -3.10933  -0.00134   0.00000  -0.02924  -0.02922  -3.13855
    D5       -1.02925  -0.00054   0.00000  -0.00828  -0.00816  -1.03741
    D6        1.07916  -0.00095   0.00000  -0.01077  -0.01088   1.06829
    D7       -1.03304   0.00118   0.00000   0.00198   0.00185  -1.03119
    D8        1.04704   0.00197   0.00000   0.02294   0.02291   1.06995
    D9       -3.12773   0.00157   0.00000   0.02045   0.02019  -3.10754
   D10        1.06461  -0.00132   0.00000  -0.02833  -0.02820   1.03641
   D11       -3.13850  -0.00052   0.00000  -0.00737  -0.00714   3.13755
   D12       -1.03009  -0.00093   0.00000  -0.00986  -0.00986  -1.03995
   D13        1.03035   0.00350   0.00000   0.04446   0.04431   1.07467
   D14       -1.08401  -0.00090   0.00000  -0.01433  -0.01372  -1.09772
   D15        3.10616   0.00325   0.00000   0.03691   0.03638  -3.14065
   D16       -1.04182   0.00023   0.00000   0.00653   0.00646  -1.03535
   D17        3.12701  -0.00417   0.00000  -0.05226  -0.05157   3.07544
   D18        1.03399  -0.00002   0.00000  -0.00102  -0.00147   1.03252
   D19        3.10694   0.00087   0.00000   0.01302   0.01287   3.11981
   D20        0.99258  -0.00352   0.00000  -0.04577  -0.04516   0.94742
   D21       -1.10044   0.00063   0.00000   0.00548   0.00493  -1.09550
   D22        1.19271   0.00211   0.00000   0.03248   0.03224   1.22496
   D23       -0.91165  -0.00403   0.00000  -0.04974  -0.04913  -0.96078
   D24       -2.99033  -0.00031   0.00000  -0.00744  -0.00799  -2.99833
   D25       -3.02626   0.00306   0.00000   0.05029   0.05019  -2.97607
   D26        1.15256  -0.00309   0.00000  -0.03193  -0.03118   1.12138
   D27       -0.92612   0.00064   0.00000   0.01037   0.00996  -0.91616
   D28       -0.89484   0.00350   0.00000   0.04528   0.04508  -0.84976
   D29       -2.99921  -0.00264   0.00000  -0.03695  -0.03629  -3.03550
   D30        1.20530   0.00108   0.00000   0.00536   0.00485   1.21014
   D31        1.08431  -0.00369   0.00000  -0.05435  -0.05420   1.03011
   D32       -3.12964   0.00364   0.00000   0.01907   0.01810  -3.11154
   D33       -1.00032  -0.00482   0.00000  -0.08032  -0.07956  -1.07988
   D34       -0.98615  -0.00224   0.00000  -0.03568  -0.03553  -1.02167
   D35        1.08309   0.00509   0.00000   0.03775   0.03677   1.11986
   D36       -3.07077  -0.00337   0.00000  -0.06165  -0.06090  -3.13167
   D37       -3.10965  -0.00167   0.00000  -0.03479  -0.03457   3.13896
   D38       -1.04042   0.00567   0.00000   0.03863   0.03772  -1.00270
   D39        1.08891  -0.00280   0.00000  -0.06076  -0.05994   1.02896
   D40       -1.78474   0.00013   0.00000   0.00140   0.00097  -1.78377
   D41        0.36638  -0.00252   0.00000   0.00143   0.00153   0.36791
   D42        2.37704   0.00362   0.00000   0.03873   0.03905   2.41609
   D43       -0.81657  -0.00139   0.00000  -0.05848  -0.05949  -0.87605
   D44        1.32113  -0.00345   0.00000  -0.04251  -0.04133   1.27979
   D45       -2.95745   0.00157   0.00000  -0.01022  -0.01039  -2.96784
   D46        2.48836   0.00111   0.00000   0.06468   0.06496   2.55333
   D47        0.32772   0.00756   0.00000   0.07238   0.07418   0.40191
   D48       -1.65652  -0.00377   0.00000   0.02778   0.02569  -1.63083
         Item               Value     Threshold  Converged?
 Maximum Force            0.015657     0.000015     NO 
 RMS     Force            0.005287     0.000010     NO 
 Maximum Displacement     0.280793     0.000060     NO 
 RMS     Displacement     0.066924     0.000040     NO 
 GradGradGradGradGradGradGradGradGradGradGradGradGradGradGradGradGradGrad

                    Distance matrix (angstroms):
                    1          2          3          4          5
     1  O    0.000000
     2  C    1.427681   0.000000
     3  C    2.413199   1.528224   0.000000
     4  C    3.745409   2.480655   1.536611   0.000000
     5  O    4.222604   2.913590   2.452563   1.421100   0.000000
     6  C    2.899580   2.525289   1.541468   2.519667   2.934449
     7  O    2.746228   3.077592   2.472690   3.790422   4.296909
     8  C    2.846934   2.464386   1.528462   2.514600   3.783971
     9  O    3.359939   2.804971   2.393509   2.859875   4.163697
    10  Cl   4.509094   4.109652   2.765837   3.200555   4.490957
    11  H    0.965882   1.971205   3.258818   4.443398   4.776735
    12  H    2.092722   1.105006   2.146178   2.678625   2.523857
    13  H    2.085831   1.106447   2.165018   2.702782   3.264792
    14  H    4.047791   2.734919   2.171086   1.103383   2.096456
    15  H    4.559208   3.439157   2.160528   1.101846   2.041128
    16  H    4.367794   2.990479   2.961205   1.964086   0.964083
    17  H    3.197447   2.712988   2.166130   2.778509   2.619193
    18  H    3.935368   3.470087   2.169090   2.687854   3.179304
    19  H    1.952671   2.648406   2.555375   4.011588   4.478357
    20  H    2.492628   2.704961   2.159939   3.467969   4.599334
    21  H    4.247532   3.761552   3.173133   3.473111   4.850503
                    6          7          8          9         10
     6  C    0.000000
     7  O    1.412436   0.000000
     8  C    2.521116   2.872110   0.000000
     9  O    3.756800   4.204076   1.416463   0.000000
    10  Cl   3.128024   3.481651   1.806184   2.662970   0.000000
    11  H    3.790403   3.618458   3.697598   3.968267   5.418904
    12  H    2.750918   3.474369   3.423411   3.796878   4.905507
    13  H    3.484139   4.063940   2.687634   2.426227   4.394701
    14  H    3.477956   4.616966   2.706588   2.463444   3.519648
    15  H    2.734641   4.000142   2.763586   3.259264   2.755702
    16  H    3.682594   4.964506   4.239762   4.350139   5.159002
    17  H    1.105914   2.093220   3.469052   4.550295   4.160377
    18  H    1.101698   2.016279   2.831689   4.103496   2.749361
    19  H    1.934803   0.972918   2.966333   4.120243   3.998228
    20  H    2.745604   2.525887   1.098148   2.074864   2.349168
    21  H    4.415653   4.811000   1.958010   0.967624   2.545789
                   11         12         13         14         15
    11  H    0.000000
    12  H    2.375866   0.000000
    13  H    2.324978   1.798954   0.000000
    14  H    4.622687   3.066097   2.488467   0.000000
    15  H    5.350515   3.686737   3.711467   1.776286   0.000000
    16  H    4.753113   2.471966   3.091685   2.180223   2.765077
    17  H    3.927158   2.474016   3.732009   3.792516   3.130306
    18  H    4.853589   3.705899   4.307424   3.696250   2.438313
    19  H    2.744427   3.081186   3.625381   4.708354   4.449921
    20  H    3.331079   3.718577   3.053211   3.720111   3.762134
    21  H    4.864159   4.743554   3.373977   3.013610   3.620325
                   16         17         18         19         20
    16  H    0.000000
    17  H    3.322928   0.000000
    18  H    4.070235   1.778034   0.000000
    19  H    4.988863   2.411607   2.815598   0.000000
    20  H    5.043944   3.723090   3.204471   2.443629   0.000000
    21  H    5.079275   5.292144   4.574734   4.829741   2.547168
                   21
    21  H    0.000000
 Framework group  C1[X(C5H11ClO4)]
 Deg. of freedom    57
                         Standard orientation:                         
 ---------------------------------------------------------------------
 Center     Atomic      Atomic             Coordinates (Angstroms)
 Number     Number       Type             X           Y           Z
 ---------------------------------------------------------------------
      1          8           0        1.612978   -1.651549    0.952819
      2          6           0        1.550328   -0.227168    0.878740
      3          6           0        0.392590    0.183550   -0.030336
      4          6           0        0.356051    1.718501   -0.091682
      5          8           0        1.549772    2.257256   -0.643313
      6          6           0        0.581159   -0.393499   -1.447228
      7          8           0        0.414489   -1.794479   -1.513953
      8          6           0       -0.894659   -0.351654    0.596357
      9          8           0       -1.029321    0.197714    1.894982
     10         17           0       -2.341792    0.027308   -0.415816
     11          1           0        2.316462   -1.909915    1.562151
     12          1           0        2.483426    0.184992    0.453897
     13          1           0        1.396893    0.200538    1.887577
     14          1           0        0.153029    2.123591    0.914368
     15          1           0       -0.475997    2.028542   -0.744090
     16          1           0        2.105429    2.597127    0.067453
     17          1           0        1.569431   -0.077575   -1.830053
     18          1           0       -0.181734    0.034885   -2.116721
     19          1           0        0.968217   -2.179938   -0.812971
     20          1           0       -0.852028   -1.447948    0.643813
     21          1           0       -1.968810    0.331534    2.084058
 ---------------------------------------------------------------------
 Rotational constants (GHZ):           1.1908978           0.9285647           0.8332046
   166 basis functions,   306 primitive gaussians,   176 cartesian basis functions
    45 alpha electrons       45 beta electrons
       nuclear repulsion energy       719.4898194190 Hartrees.
 NAtoms=   21 NActive=   21 NUniq=   21 SFac= 1.00D+00 NAtFMM=   60 NAOKFM=F Big=F
 Nuclear repulsion after empirical dispersion term =      719.4745755726 Hartrees.
   1 Symmetry operations used in ECPInt.
 ECPInt:  NShTT=    3570 NPrTT=   14708 LenC2=    3519 LenP2D=   11099.
 LDataN:  DoStor=T MaxTD1= 4 Len=   56
 Initial guess from the checkpoint file:  "/scratch/user/peterchao1/peterchao1/6097786_1659647558000000851228230/Gau-150157.chk"
 B after Tr=    -0.000000    0.000000    0.000000
         Rot=    0.999591   -0.001684   -0.017392    0.022620 Ang=  -3.28 deg.
 ExpMin= 1.22D-01 ExpMax= 1.04D+04 ExpMxC= 1.57D+03 IAcc=3 IRadAn=         5 AccDes= 0.00D+00
 Harris functional with IExCor= 4639 and IRadAn=       5 diagonalized for initial guess.
 HarFok:  IExCor= 4639 AccDes= 0.00D+00 IRadAn=         5 IDoV= 1 UseB2=F ITyADJ=14
 ICtDFT=  3500011 ScaDFX=  1.000000  1.000000  1.000000  1.000000
 FoFCou: FMM=F IPFlag=           0 FMFlag=      100000 FMFlg1=           0
         NFxFlg=           0 DoJE=T BraDBF=F KetDBF=T FulRan=T
         wScrn=  0.000000 ICntrl=       500 IOpCl=  0 I1Cent=   200000004 NGrid=           0
         NMat0=    1 NMatS0=      1 NMatT0=    0 NMatD0=    1 NMtDS0=    0 NMtDT0=    0
 Petite list used in FoFCou.
     Accept linear search using points  3 and  4.
     Accept linear search using points  2 and  3.
     Accept linear search using points  1 and  2.
     Accept linear search using points  1 and  2.
     Minimum is close to point  2 DX=  4.17D-04 DF= -1.76D-11 DXR=  4.16D-04 DFR=  1.73D-07 which will be used.
 SCF Done:  E(RwB97XD) =  -957.511993286     a.u. after    9 cycles
            Convg  =    0.2631D-08                    41 Fock formations.
              S**2 =  0.0000                  -V/T =  2.0052
   1 Symmetry operations used in ECPInt.
 ECPInt:  NShTT=    3570 NPrTT=   14708 LenC2=    3519 LenP2D=   11099.
 LDataN:  DoStor=T MaxTD1= 5 Len=  102
 Calling FoFJK, ICntrl=      2127 FMM=F ISym2X=0 I1Cent= 0 IOpClX= 0 NMat=1 NMatS=1 NMatT=0.

 GradGradGradGradGradGradGradGradGradGradGradGradGradGradGradGradGradGrad
 Using GEDIIS/GDIIS optimizer.
 FormGI is forming the generalized inverse of G from B-inverse, IUseBI=4.
 Internal  Forces:  Max     0.014468824 RMS     0.002334924
 Step number   2 out of a maximum of  112
 All quantities printed in internal units (Hartrees-Bohrs-Radians)
 Mixed Optimization -- RFO/linear search
 Trust test= 8.18D-01 RLast= 3.62D-01 DXMaxT set to 5.05D-01
 ITU=  1  0
 Use linear search instead of GDIIS.
     Eigenvalues ---    0.00228   0.00230   0.00230   0.00231   0.01289
     Eigenvalues ---    0.01355   0.01370   0.01377   0.04461   0.04657
     Eigenvalues ---    0.04712   0.04831   0.05117   0.05222   0.05716
     Eigenvalues ---    0.05827   0.05851   0.05955   0.06519   0.11076
     Eigenvalues ---    0.11381   0.11630   0.12369   0.13707   0.13864
     Eigenvalues ---    0.13984   0.14403   0.14590   0.15806   0.16000
     Eigenvalues ---    0.16000   0.16008   0.20566   0.21855   0.22051
     Eigenvalues ---    0.22223   0.24063   0.26930   0.27892   0.28116
     Eigenvalues ---    0.28159   0.29833   0.33641   0.34064   0.34168
     Eigenvalues ---    0.34246   0.34301   0.34306   0.34377   0.41068
     Eigenvalues ---    0.41347   0.41891   0.44113   0.50709   0.52240
     Eigenvalues ---    0.52849   0.53043
 Quartic linear search produced a step of -0.06424.
 Iteration  1 RMS(Cart)=  0.06517107 RMS(Int)=  0.00202258
 Iteration  2 RMS(Cart)=  0.00271866 RMS(Int)=  0.00006074
 Iteration  3 RMS(Cart)=  0.00000630 RMS(Int)=  0.00006061
 Iteration  4 RMS(Cart)=  0.00000000 RMS(Int)=  0.00006061
 Variable       Old X    -DE/DX   Delta X   Delta X   Delta X     New X
                                 (Linear)    (Quad)   (Total)
    R1        2.69793  -0.00695   0.00033  -0.01675  -0.01641   2.68152
    R2        1.82525  -0.00061   0.00080  -0.00383  -0.00302   1.82223
    R3        2.88792   0.00353   0.00221   0.00396   0.00617   2.89410
    R4        2.08816   0.00077  -0.00109   0.00579   0.00470   2.09286
    R5        2.09088  -0.00052  -0.00132   0.00312   0.00180   2.09268
    R6        2.90377   0.00266   0.00085   0.00570   0.00656   2.91033
    R7        2.91295   0.00032   0.00038  -0.00025   0.00012   2.91308
    R8        2.88838   0.00694   0.00242   0.01456   0.01699   2.90536
    R9        2.68549  -0.00600   0.00036  -0.01440  -0.01404   2.67145
   R10        2.08509   0.00025  -0.00081   0.00344   0.00264   2.08773
   R11        2.08219   0.00022  -0.00089   0.00363   0.00274   2.08493
   R12        1.82185  -0.00034   0.00093  -0.00376  -0.00283   1.81902
   R13        2.66912  -0.00682   0.00151  -0.02019  -0.01868   2.65043
   R14        2.08987   0.00098  -0.00152   0.00780   0.00629   2.09616
   R15        2.08191  -0.00014  -0.00089   0.00266   0.00177   2.08368
   R16        1.83855  -0.00110   0.00127  -0.00635  -0.00508   1.83347
   R17        2.67673  -0.01447   0.00069  -0.03394  -0.03324   2.64348
   R18        3.41319   0.00208  -0.00264   0.01602   0.01337   3.42657
   R19        2.07520  -0.00015  -0.00045   0.00113   0.00069   2.07589
   R20        1.82855  -0.00085   0.00095  -0.00476  -0.00381   1.82474
    A1        1.90876   0.00027  -0.00300   0.01185   0.00885   1.91761
    A2        1.90948  -0.00016   0.00225  -0.00933  -0.00713   1.90235
    A3        1.93374  -0.00107  -0.00446   0.00086  -0.00365   1.93009
    A4        1.92244   0.00062  -0.00230   0.01665   0.01444   1.93688
    A5        1.88679   0.00027   0.00334  -0.01360  -0.01033   1.87647
    A6        1.91074   0.00024   0.00225  -0.00209   0.00019   1.91093
    A7        1.90019   0.00011  -0.00126   0.00697   0.00588   1.90607
    A8        1.88623   0.00090   0.00016   0.00438   0.00450   1.89073
    A9        1.93211  -0.00240  -0.00196  -0.01822  -0.02016   1.91195
   A10        1.87550   0.00085   0.00149   0.00250   0.00399   1.87948
   A11        1.91788   0.00039  -0.00025   0.00118   0.00090   1.91879
   A12        1.92423  -0.00073   0.00021   0.00430   0.00448   1.92872
   A13        1.92711   0.00096   0.00035   0.00580   0.00612   1.93323
   A14        1.95436   0.00152  -0.00084   0.00902   0.00819   1.96255
   A15        1.91210  -0.00089   0.00258  -0.01511  -0.01250   1.89960
   A16        1.89935  -0.00005   0.00270  -0.00736  -0.00465   1.89470
   A17        1.94906  -0.00049  -0.00387   0.00931   0.00546   1.95451
   A18        1.87319  -0.00044  -0.00057   0.00249   0.00192   1.87511
   A19        1.87300   0.00032  -0.00006   0.00134   0.00134   1.87434
   A20        1.90881   0.00016  -0.00160   0.00643   0.00482   1.91363
   A21        1.98264  -0.00164  -0.00186  -0.00080  -0.00267   1.97997
   A22        1.89712  -0.00069   0.00270  -0.02096  -0.01819   1.87893
   A23        1.90531   0.00034   0.00257  -0.00317  -0.00057   1.90474
   A24        1.95244   0.00056  -0.00457   0.01124   0.00656   1.95900
   A25        1.84966   0.00156   0.00161   0.01192   0.01348   1.86314
   A26        1.87273   0.00002  -0.00046   0.00270   0.00223   1.87496
   A27        1.86688   0.00002  -0.00018   0.00071   0.00053   1.86742
   A28        1.89670   0.00380   0.00142   0.01041   0.01174   1.90843
   A29        1.95145   0.00388   0.00281   0.00733   0.01024   1.96169
   A30        1.91197  -0.00032   0.00320  -0.00341  -0.00021   1.91176
   A31        1.93502  -0.00565  -0.00590  -0.00955  -0.01547   1.91956
   A32        1.92971  -0.00079  -0.00367   0.01190   0.00820   1.93792
   A33        1.83877  -0.00109   0.00165  -0.01716  -0.01518   1.82360
   A34        1.90190  -0.00034  -0.00570   0.01771   0.01201   1.91391
    D1       -3.09241  -0.00047   0.00060  -0.01795  -0.01731  -3.10973
    D2        1.11223  -0.00004  -0.00207   0.00418   0.00197   1.11419
    D3       -0.99131   0.00011   0.00332  -0.01605  -0.01262  -1.00393
    D4       -3.13855   0.00114   0.00188   0.06499   0.06684  -3.07171
    D5       -1.03741   0.00075   0.00052   0.05827   0.05875  -0.97866
    D6        1.06829   0.00105   0.00070   0.05617   0.05684   1.12513
    D7       -1.03119  -0.00009  -0.00012   0.05231   0.05223  -0.97896
    D8        1.06995  -0.00048  -0.00147   0.04558   0.04414   1.11409
    D9       -3.10754  -0.00018  -0.00130   0.04349   0.04223  -3.06531
   D10        1.03641   0.00033   0.00181   0.05162   0.05342   1.08983
   D11        3.13755  -0.00006   0.00046   0.04489   0.04534  -3.10030
   D12       -1.03995   0.00023   0.00063   0.04280   0.04343  -0.99652
   D13        1.07467  -0.00137  -0.00285  -0.02474  -0.02759   1.04707
   D14       -1.09772  -0.00117   0.00088  -0.03205  -0.03120  -1.12892
   D15       -3.14065  -0.00103  -0.00234  -0.02092  -0.02325   3.11928
   D16       -1.03535   0.00076  -0.00042  -0.00593  -0.00634  -1.04169
   D17        3.07544   0.00097   0.00331  -0.01325  -0.00994   3.06550
   D18        1.03252   0.00111   0.00009  -0.00211  -0.00200   1.03052
   D19        3.11981  -0.00023  -0.00083  -0.01679  -0.01760   3.10221
   D20        0.94742  -0.00002   0.00290  -0.02410  -0.02121   0.92621
   D21       -1.09550   0.00012  -0.00032  -0.01297  -0.01326  -1.10877
   D22        1.22496  -0.00085  -0.00207  -0.04420  -0.04625   1.17870
   D23       -0.96078   0.00014   0.00316  -0.04212  -0.03904  -0.99982
   D24       -2.99833   0.00032   0.00051  -0.03186  -0.03134  -3.02967
   D25       -2.97607  -0.00099  -0.00322  -0.04944  -0.05262  -3.02869
   D26        1.12138   0.00001   0.00200  -0.04736  -0.04541   1.07598
   D27       -0.91616   0.00018  -0.00064  -0.03710  -0.03771  -0.95387
   D28       -0.84976  -0.00101  -0.00290  -0.03946  -0.04231  -0.89207
   D29       -3.03550  -0.00001   0.00233  -0.03738  -0.03510  -3.07059
   D30        1.21014   0.00016  -0.00031  -0.02712  -0.02740   1.18274
   D31        1.03011   0.00150   0.00348  -0.08796  -0.08449   0.94562
   D32       -3.11154  -0.00045  -0.00116  -0.08797  -0.08905   3.08260
   D33       -1.07988   0.00032   0.00511  -0.10684  -0.10179  -1.18167
   D34       -1.02167   0.00032   0.00228  -0.09701  -0.09473  -1.11641
   D35        1.11986  -0.00163  -0.00236  -0.09702  -0.09929   1.02057
   D36       -3.13167  -0.00086   0.00391  -0.11589  -0.11204   3.03948
   D37        3.13896  -0.00033   0.00222  -0.10519  -0.10300   3.03596
   D38       -1.00270  -0.00227  -0.00242  -0.10520  -0.10756  -1.11025
   D39        1.02896  -0.00151   0.00385  -0.12408  -0.12030   0.90866
   D40       -1.78377   0.00060  -0.00006   0.02043   0.02039  -1.76338
   D41        0.36791   0.00020  -0.00010   0.01427   0.01418   0.38209
   D42        2.41609   0.00005  -0.00251   0.02259   0.02005   2.43614
   D43       -0.87605   0.00036   0.00382  -0.02271  -0.01880  -0.89485
   D44        1.27979  -0.00138   0.00266  -0.04245  -0.03994   1.23985
   D45       -2.96784  -0.00015   0.00067  -0.02630  -0.02558  -2.99341
   D46        2.55333   0.00266  -0.00417   0.11792   0.11364   2.66697
   D47        0.40191  -0.00109  -0.00477   0.10791   0.10308   0.50499
   D48       -1.63083   0.00418  -0.00165   0.12757   0.12609  -1.50474
         Item               Value     Threshold  Converged?
 Maximum Force            0.014469     0.000015     NO 
 RMS     Force            0.002335     0.000010     NO 
 Maximum Displacement     0.304592     0.000060     NO 
 RMS     Displacement     0.064888     0.000040     NO 
 GradGradGradGradGradGradGradGradGradGradGradGradGradGradGradGradGradGrad

                    Distance matrix (angstroms):
                    1          2          3          4          5
     1  O    0.000000
     2  C    1.418997   0.000000
     3  C    2.402872   1.531491   0.000000
     4  C    3.740335   2.490163   1.540080   0.000000
     5  O    4.191015   2.912380   2.456180   1.413670   0.000000
     6  C    2.833825   2.510285   1.541534   2.523360   2.946923
     7  O    2.633137   3.023507   2.462488   3.787233   4.286406
     8  C    2.881906   2.477883   1.537451   2.528757   3.794348
     9  O    3.335211   2.774647   2.396972   2.933436   4.211675
    10  Cl   4.580103   4.132666   2.788558   3.165981   4.476539
    11  H    0.964283   1.968142   3.253572   4.448023   4.751642
    12  H    2.084525   1.107496   2.143092   2.654875   2.489914
    13  H    2.089231   1.107401   2.168730   2.739449   3.294492
    14  H    4.065052   2.750248   2.165918   1.104778   2.094844
    15  H    4.549077   3.446500   2.161180   1.103298   2.037256
    16  H    4.335154   2.982022   2.957828   1.959567   0.962583
    17  H    3.133650   2.695361   2.154978   2.744982   2.593281
    18  H    3.872942   3.462664   2.169420   2.707761   3.219938
    19  H    1.834822   2.584890   2.550794   3.999264   4.441480
    20  H    2.594720   2.769811   2.167953   3.478279   4.609584
    21  H    4.207931   3.734319   3.203783   3.596846   4.950446
                    6          7          8          9         10
     6  C    0.000000
     7  O    1.402549   0.000000
     8  C    2.533907   2.897226   0.000000
     9  O    3.754023   4.170369   1.398872   0.000000
    10  Cl   3.231139   3.667044   1.813261   2.641662   0.000000
    11  H    3.725874   3.493658   3.731283   3.943565   5.482950
    12  H    2.745811   3.436044   3.432741   3.767968   4.921890
    13  H    3.474343   4.005545   2.679844   2.378556   4.371570
    14  H    3.476119   4.605879   2.699784   2.538728   3.419700
    15  H    2.734248   4.009276   2.780096   3.361410   2.717615
    16  H    3.685706   4.936356   4.241219   4.385685   5.123082
    17  H    1.109241   2.091737   3.476552   4.539405   4.236332
    18  H    1.102636   2.018503   2.830449   4.121038   2.844407
    19  H    1.924573   0.970228   3.018676   4.085705   4.185981
    20  H    2.706223   2.494575   1.098511   2.065596   2.343299
    21  H    4.449741   4.804276   1.948871   0.965609   2.551453
                   11         12         13         14         15
    11  H    0.000000
    12  H    2.373066   0.000000
    13  H    2.340444   1.805536   0.000000
    14  H    4.656311   3.048824   2.534627   0.000000
    15  H    5.349432   3.662636   3.746456   1.779458   0.000000
    16  H    4.728769   2.426687   3.118932   2.184942   2.767450
    17  H    3.862280   2.461655   3.722449   3.763029   3.088226
    18  H    4.792818   3.707242   4.309028   3.705889   2.453251
    19  H    2.607437   3.025288   3.555508   4.692841   4.452560
    20  H    3.436741   3.779320   3.109074   3.737663   3.744136
    21  H    4.814023   4.724612   3.317677   3.128022   3.797917
                   16         17         18         19         20
    16  H    0.000000
    17  H    3.293498   0.000000
    18  H    4.102522   1.782932   0.000000
    19  H    4.930964   2.394005   2.815904   0.000000
    20  H    5.063883   3.708675   3.115177   2.501137   0.000000
    21  H    5.158520   5.318825   4.643399   4.810782   2.498205
                   21
    21  H    0.000000
 Framework group  C1[X(C5H11ClO4)]
 Deg. of freedom    57
                         Standard orientation:                         
 ---------------------------------------------------------------------
 Center     Atomic      Atomic             Coordinates (Angstroms)
 Number     Number       Type             X           Y           Z
 ---------------------------------------------------------------------
      1          8           0        1.740457   -1.560285    0.857275
      2          6           0        1.517259   -0.160584    0.924901
      3          6           0        0.367074    0.206907   -0.017166
      4          6           0        0.204498    1.738359   -0.008687
      5          8           0        1.372299    2.407513   -0.441050
      6          6           0        0.693065   -0.279230   -1.443254
      7          8           0        0.714961   -1.676297   -1.565184
      8          6           0       -0.906074   -0.472827    0.512752
      9          8           0       -1.097463   -0.118151    1.852310
     10         17           0       -2.375140   -0.041119   -0.458531
     11          1           0        2.443984   -1.809872    1.467683
     12          1           0        2.414686    0.393614    0.587209
     13          1           0        1.263507    0.150966    1.956832
     14          1           0       -0.105408    2.058614    1.002218
     15          1           0       -0.608232    2.009054   -0.704001
     16          1           0        1.855882    2.740134    0.321889
     17          1           0        1.654921    0.183693   -1.744836
     18          1           0       -0.081880    0.088137   -2.136297
     19          1           0        1.294911   -2.013099   -0.864067
     20          1           0       -0.814098   -1.561915    0.402504
     21          1           0       -2.037860   -0.158287    2.067815
 ---------------------------------------------------------------------
 Rotational constants (GHZ):           1.2058977           0.9183337           0.8173237
   166 basis functions,   306 primitive gaussians,   176 cartesian basis functions
    45 alpha electrons       45 beta electrons
       nuclear repulsion energy       718.8761720835 Hartrees.
 NAtoms=   21 NActive=   21 NUniq=   21 SFac= 1.00D+00 NAtFMM=   60 NAOKFM=F Big=F
 Nuclear repulsion after empirical dispersion term =      718.8609488619 Hartrees.
   1 Symmetry operations used in ECPInt.
 ECPInt:  NShTT=    3570 NPrTT=   14708 LenC2=    3518 LenP2D=   11092.
 LDataN:  DoStor=T MaxTD1= 4 Len=   56
 Initial guess from the checkpoint file:  "/scratch/user/peterchao1/peterchao1/6097786_1659647558000000851228230/Gau-150157.chk"
 B after Tr=    -0.000000    0.000000   -0.000000
         Rot=    0.998385   -0.035833    0.016966   -0.040693 Ang=  -6.51 deg.
 ExpMin= 1.22D-01 ExpMax= 1.04D+04 ExpMxC= 1.57D+03 IAcc=3 IRadAn=         5 AccDes= 0.00D+00
 Harris functional with IExCor= 4639 and IRadAn=       5 diagonalized for initial guess.
 HarFok:  IExCor= 4639 AccDes= 0.00D+00 IRadAn=         5 IDoV= 1 UseB2=F ITyADJ=14
 ICtDFT=  3500011 ScaDFX=  1.000000  1.000000  1.000000  1.000000
 FoFCou: FMM=F IPFlag=           0 FMFlag=      100000 FMFlg1=           0
         NFxFlg=           0 DoJE=T BraDBF=F KetDBF=T FulRan=T
         wScrn=  0.000000 ICntrl=       500 IOpCl=  0 I1Cent=   200000004 NGrid=           0
         NMat0=    1 NMatS0=      1 NMatT0=    0 NMatD0=    1 NMtDS0=    0 NMtDT0=    0
 Petite list used in FoFCou.
     Minimum is close to point  4 DX=  1.06D-01 DF= -4.60D-05 DXR=  8.13D-02 DFR=  6.65D-03 which will be used.
     Accept linear search using points  2 and  3.
     Accept linear search using points  1 and  2.
     Accept linear search using points  1 and  2.
     Minimum is close to point  2 DX=  8.88D-02 DF= -1.34D-06 DXR=  8.98D-02 DFR=  8.13D-03 which will be used.
     Accept linear search using points  1 and  2.
     Accept linear search using points  1 and  2.
     Minimum is close to point  2 DX= -4.31D-04 DF= -1.34D-11 DXR=  4.31D-04 DFR=  1.85D-07 which will be used.
 SCF Done:  E(RwB97XD) =  -957.513570683     a.u. after   10 cycles
            Convg  =    0.2829D-08                    41 Fock formations.
              S**2 =  0.0000                  -V/T =  2.0051
   1 Symmetry operations used in ECPInt.
 ECPInt:  NShTT=    3570 NPrTT=   14708 LenC2=    3518 LenP2D=   11092.
 LDataN:  DoStor=T MaxTD1= 5 Len=  102
 Calling FoFJK, ICntrl=      2127 FMM=F ISym2X=0 I1Cent= 0 IOpClX= 0 NMat=1 NMatS=1 NMatT=0.

 GradGradGradGradGradGradGradGradGradGradGradGradGradGradGradGradGradGrad
 Using GEDIIS/GDIIS optimizer.
 FormGI is forming the generalized inverse of G from B-inverse, IUseBI=4.
 Internal  Forces:  Max     0.008979433 RMS     0.001894112
 Step number   3 out of a maximum of  112
 All quantities printed in internal units (Hartrees-Bohrs-Radians)
 Mixed Optimization -- RFO/linear search
 Trust test= 8.72D-01 RLast= 4.30D-01 DXMaxT set to 8.49D-01
 ITU=  1  1  0
 Use linear search instead of GDIIS.
     Eigenvalues ---    0.00201   0.00230   0.00231   0.00444   0.00778
     Eigenvalues ---    0.01291   0.01374   0.01383   0.04496   0.04747
     Eigenvalues ---    0.04775   0.04820   0.05137   0.05347   0.05745
     Eigenvalues ---    0.05894   0.05908   0.06287   0.06467   0.11250
     Eigenvalues ---    0.11347   0.11596   0.12440   0.13672   0.13818
     Eigenvalues ---    0.13976   0.14519   0.15564   0.15764   0.16000
     Eigenvalues ---    0.16005   0.16053   0.19587   0.21641   0.22157
     Eigenvalues ---    0.23281   0.24904   0.26122   0.27918   0.28054
     Eigenvalues ---    0.28164   0.31518   0.33981   0.34150   0.34211
     Eigenvalues ---    0.34243   0.34305   0.34334   0.34803   0.39740
     Eigenvalues ---    0.41390   0.41841   0.41944   0.50700   0.52294
     Eigenvalues ---    0.52910   0.53064
 Quartic linear search produced a step of  0.01672.
 Iteration  1 RMS(Cart)=  0.06870433 RMS(Int)=  0.00649782
 Iteration  2 RMS(Cart)=  0.00563963 RMS(Int)=  0.00013668
 Iteration  3 RMS(Cart)=  0.00009316 RMS(Int)=  0.00009705
 Iteration  4 RMS(Cart)=  0.00000003 RMS(Int)=  0.00009705
 Variable       Old X    -DE/DX   Delta X   Delta X   Delta X     New X
                                 (Linear)    (Quad)   (Total)
    R1        2.68152  -0.00163  -0.00027  -0.02589  -0.02617   2.65535
    R2        1.82223   0.00111  -0.00005  -0.00174  -0.00179   1.82044
    R3        2.89410   0.00598   0.00010   0.02911   0.02922   2.92332
    R4        2.09286  -0.00064   0.00008   0.00406   0.00414   2.09700
    R5        2.09268  -0.00144   0.00003  -0.00217  -0.00214   2.09054
    R6        2.91033   0.00149   0.00011   0.01425   0.01435   2.92468
    R7        2.91308   0.00415   0.00000   0.01374   0.01375   2.92682
    R8        2.90536  -0.00056   0.00028   0.02284   0.02312   2.92848
    R9        2.67145  -0.00243  -0.00023  -0.02430  -0.02454   2.64691
   R10        2.08773   0.00023   0.00004   0.00372   0.00376   2.09149
   R11        2.08493  -0.00107   0.00005   0.00038   0.00043   2.08536
   R12        1.81902   0.00116  -0.00005  -0.00133  -0.00137   1.81764
   R13        2.65043  -0.00168  -0.00031  -0.02833  -0.02864   2.62179
   R14        2.09616  -0.00057   0.00011   0.00617   0.00628   2.10244
   R15        2.08368  -0.00009   0.00003   0.00164   0.00167   2.08535
   R16        1.83347   0.00085  -0.00008  -0.00466  -0.00475   1.82872
   R17        2.64348  -0.00609  -0.00056  -0.05828  -0.05884   2.58465
   R18        3.42657   0.00240   0.00022   0.02456   0.02478   3.45135
   R19        2.07589   0.00036   0.00001   0.00161   0.00162   2.07751
   R20        1.82474   0.00099  -0.00006  -0.00292  -0.00298   1.82175
    A1        1.91761  -0.00045   0.00015   0.00764   0.00779   1.92540
    A2        1.90235   0.00898  -0.00012   0.03096   0.03083   1.93318
    A3        1.93009  -0.00256  -0.00006  -0.01157  -0.01159   1.91850
    A4        1.93688  -0.00406   0.00024  -0.00545  -0.00531   1.93157
    A5        1.87647  -0.00119  -0.00017  -0.00912  -0.00925   1.86722
    A6        1.91093  -0.00150   0.00000  -0.00395  -0.00402   1.90691
    A7        1.90607   0.00043   0.00010  -0.00092  -0.00090   1.90518
    A8        1.89073  -0.00234   0.00008  -0.01033  -0.01025   1.88048
    A9        1.91195   0.00346  -0.00034   0.00718   0.00673   1.91868
   A10        1.87948   0.00034   0.00007   0.01603   0.01609   1.89557
   A11        1.91879  -0.00084   0.00002  -0.01167  -0.01165   1.90714
   A12        1.92872   0.00132   0.00007   0.00078   0.00088   1.92959
   A13        1.93323  -0.00189   0.00010  -0.00154  -0.00155   1.93168
   A14        1.96255   0.00088   0.00014   0.01430   0.01443   1.97697
   A15        1.89960   0.00038  -0.00021  -0.01276  -0.01296   1.88663
   A16        1.89470   0.00028  -0.00008  -0.00033  -0.00047   1.89423
   A17        1.95451  -0.00104   0.00009  -0.00342  -0.00327   1.95124
   A18        1.87511  -0.00037   0.00003   0.00152   0.00150   1.87661
   A19        1.87434  -0.00016   0.00002   0.00050   0.00049   1.87483
   A20        1.91363   0.00004   0.00008   0.00581   0.00589   1.91953
   A21        1.97997   0.00524  -0.00004   0.01887   0.01885   1.99882
   A22        1.87893  -0.00115  -0.00030  -0.02142  -0.02186   1.85707
   A23        1.90474  -0.00117  -0.00001  -0.00888  -0.00902   1.89572
   A24        1.95900  -0.00092   0.00011   0.01319   0.01340   1.97241
   A25        1.86314  -0.00240   0.00023   0.00182   0.00208   1.86522
   A26        1.87496   0.00016   0.00004  -0.00492  -0.00514   1.86983
   A27        1.86742   0.00051   0.00001   0.00346   0.00347   1.87089
   A28        1.90843   0.00096   0.00020   0.02125   0.02118   1.92962
   A29        1.96169  -0.00011   0.00017   0.01153   0.01182   1.97351
   A30        1.91176  -0.00055  -0.00000   0.00117   0.00075   1.91252
   A31        1.91956  -0.00112  -0.00026  -0.03258  -0.03279   1.88677
   A32        1.93792   0.00107   0.00014   0.02389   0.02368   1.96160
   A33        1.82360  -0.00028  -0.00025  -0.02652  -0.02665   1.79694
   A34        1.91391  -0.00170   0.00020   0.00335   0.00355   1.91747
    D1       -3.10973   0.00039  -0.00029  -0.01184  -0.01217  -3.12190
    D2        1.11419  -0.00211   0.00003  -0.01272  -0.01263   1.10156
    D3       -1.00393   0.00182  -0.00021  -0.00005  -0.00028  -1.00422
    D4       -3.07171  -0.00065   0.00112  -0.02257  -0.02143  -3.09314
    D5       -0.97866  -0.00104   0.00098  -0.03871  -0.03775  -1.01640
    D6        1.12513  -0.00112   0.00095  -0.02678  -0.02574   1.09939
    D7       -0.97896   0.00064   0.00087  -0.02431  -0.02347  -1.00243
    D8        1.11409   0.00025   0.00074  -0.04044  -0.03978   1.07431
    D9       -3.06531   0.00017   0.00071  -0.02852  -0.02778  -3.09308
   D10        1.08983  -0.00036   0.00089  -0.03282  -0.03195   1.05788
   D11       -3.10030  -0.00075   0.00076  -0.04896  -0.04826   3.13462
   D12       -0.99652  -0.00083   0.00073  -0.03704  -0.03626  -1.03277
   D13        1.04707   0.00042  -0.00046  -0.04869  -0.04914   0.99793
   D14       -1.12892   0.00085  -0.00052  -0.04488  -0.04534  -1.17426
   D15        3.11928   0.00068  -0.00039  -0.03831  -0.03866   3.08062
   D16       -1.04169  -0.00187  -0.00011  -0.04429  -0.04446  -1.08616
   D17        3.06550  -0.00144  -0.00017  -0.04048  -0.04067   3.02483
   D18        1.03052  -0.00162  -0.00003  -0.03392  -0.03399   0.99653
   D19        3.10221   0.00019  -0.00029  -0.03499  -0.03531   3.06690
   D20        0.92621   0.00062  -0.00035  -0.03118  -0.03151   0.89470
   D21       -1.10877   0.00045  -0.00022  -0.02462  -0.02483  -1.13360
   D22        1.17870   0.00229  -0.00077   0.09882   0.09803   1.27673
   D23       -0.99982   0.00073  -0.00065   0.08486   0.08433  -0.91549
   D24       -3.02967   0.00179  -0.00052   0.10701   0.10640  -2.92326
   D25       -3.02869   0.00104  -0.00088   0.08349   0.08255  -2.94614
   D26        1.07598  -0.00053  -0.00076   0.06952   0.06885   1.14483
   D27       -0.95387   0.00053  -0.00063   0.09168   0.09092  -0.86295
   D28       -0.89207   0.00086  -0.00071   0.07552   0.07481  -0.81727
   D29       -3.07059  -0.00070  -0.00059   0.06155   0.06111  -3.00948
   D30        1.18274   0.00035  -0.00046   0.08371   0.08318   1.26592
   D31        0.94562  -0.00075  -0.00141  -0.01592  -0.01728   0.92834
   D32        3.08260  -0.00158  -0.00149  -0.03457  -0.03601   3.04659
   D33       -1.18167  -0.00233  -0.00170  -0.05972  -0.06146  -1.24314
   D34       -1.11641   0.00112  -0.00158  -0.01344  -0.01501  -1.13141
   D35        1.02057   0.00030  -0.00166  -0.03209  -0.03374   0.98683
   D36        3.03948  -0.00046  -0.00187  -0.05723  -0.05919   2.98029
   D37        3.03596   0.00257  -0.00172   0.00185   0.00016   3.03612
   D38       -1.11025   0.00174  -0.00180  -0.01680  -0.01857  -1.12882
   D39        0.90866   0.00099  -0.00201  -0.04194  -0.04402   0.86465
   D40       -1.76338   0.00037   0.00034   0.04063   0.04099  -1.72239
   D41        0.38209   0.00075   0.00024   0.03196   0.03221   0.41430
   D42        2.43614  -0.00026   0.00034   0.03157   0.03188   2.46803
   D43       -0.89485  -0.00048  -0.00031  -0.02390  -0.02427  -0.91912
   D44        1.23985   0.00126  -0.00067  -0.02786  -0.02843   1.21143
   D45       -2.99341  -0.00054  -0.00043  -0.02543  -0.02590  -3.01932
   D46        2.66697   0.00172   0.00190   0.22011   0.22164   2.88861
   D47        0.50499   0.00196   0.00172   0.21305   0.21482   0.71981
   D48       -1.50474   0.00235   0.00211   0.25088   0.25331  -1.25143
         Item               Value     Threshold  Converged?
 Maximum Force            0.008979     0.000015     NO 
 RMS     Force            0.001894     0.000010     NO 
 Maximum Displacement     0.262936     0.000060     NO 
 RMS     Displacement     0.070871     0.000040     NO 
 GradGradGradGradGradGradGradGradGradGradGradGradGradGradGradGradGradGrad

                    Distance matrix (angstroms):
                    1          2          3          4          5
     1  O    0.000000
     2  C    1.405150   0.000000
     3  C    2.430777   1.546953   0.000000
     4  C    3.755279   2.499530   1.547677   0.000000
     5  O    4.189699   2.896405   2.463782   1.400687   0.000000
     6  C    2.907386   2.534845   1.548808   2.525141   2.977271
     7  O    2.817331   3.110855   2.471336   3.780376   4.321976
     8  C    2.929178   2.514859   1.549686   2.545824   3.805537
     9  O    3.340208   2.812154   2.400186   2.963751   4.222473
    10  Cl   4.664006   4.182097   2.820583   3.182527   4.502384
    11  H    0.963335   1.960223   3.279722   4.454125   4.729215
    12  H    2.066024   1.109686   2.151120   2.665252   2.478798
    13  H    2.072610   1.106267   2.178476   2.726473   3.228512
    14  H    4.067523   2.768310   2.164337   1.106769   2.082826
    15  H    4.576500   3.458204   2.167645   1.103524   2.027415
    16  H    4.294206   2.942270   2.950634   1.951363   0.961856
    17  H    3.126707   2.660076   2.147038   2.760377   2.649203
    18  H    3.963359   3.474983   2.169746   2.656769   3.178990
    19  H    2.046165   2.705697   2.573980   4.029819   4.517313
    20  H    2.698070   2.839231   2.179902   3.492154   4.625431
    21  H    4.140327   3.754729   3.238851   3.733386   5.058680
                    6          7          8          9         10
     6  C    0.000000
     7  O    1.387392   0.000000
     8  C    2.548594   2.886164   0.000000
     9  O    3.751105   4.150343   1.367737   0.000000
    10  Cl   3.278651   3.647181   1.826377   2.599770   0.000000
    11  H    3.791212   3.686651   3.787332   3.970849   5.567950
    12  H    2.744057   3.502463   3.463099   3.818809   4.962301
    13  H    3.493510   4.093621   2.732413   2.458178   4.417498
    14  H    3.474488   4.598175   2.689612   2.560425   3.383442
    15  H    2.715938   3.957309   2.807258   3.401919   2.748862
    16  H    3.706115   4.973760   4.233213   4.383616   5.128818
    17  H    1.112564   2.090315   3.481090   4.528808   4.299951
    18  H    1.103519   2.007779   2.877428   4.133180   2.937379
    19  H    1.911830   0.967716   2.999285   4.073455   4.157277
    20  H    2.702000   2.470777   1.099370   2.055452   2.333385
    21  H    4.459767   4.729107   1.922511   0.964030   2.566887
                   11         12         13         14         15
    11  H    0.000000
    12  H    2.353089   0.000000
    13  H    2.328344   1.805822   0.000000
    14  H    4.658017   3.091416   2.532788   0.000000
    15  H    5.367076   3.660213   3.748188   1.781567   0.000000
    16  H    4.664858   2.413220   3.017371   2.180254   2.767979
    17  H    3.840576   2.398204   3.681687   3.776585   3.099258
    18  H    4.869243   3.670735   4.313257   3.655394   2.379209
    19  H    2.836646   3.141911   3.682529   4.728460   4.436909
    20  H    3.560721   3.829863   3.213953   3.739861   3.748854
    21  H    4.757902   4.777471   3.383378   3.273479   3.974550
                   16         17         18         19         20
    16  H    0.000000
    17  H    3.330320   0.000000
    18  H    4.058463   1.782952   0.000000
    19  H    5.012762   2.383822   2.807595   0.000000
    20  H    5.068026   3.690528   3.152873   2.456184   0.000000
    21  H    5.250548   5.333993   4.706777   4.710799   2.397051
                   21
    21  H    0.000000
 Framework group  C1[X(C5H11ClO4)]
 Deg. of freedom    57
                         Standard orientation:                         
 ---------------------------------------------------------------------
 Center     Atomic      Atomic             Coordinates (Angstroms)
 Number     Number       Type             X           Y           Z
 ---------------------------------------------------------------------
      1          8           0        1.774229   -1.592619    0.873987
      2          6           0        1.566440   -0.203037    0.892299
      3          6           0        0.386699    0.187238   -0.029090
      4          6           0        0.265066    1.730030   -0.011761
      5          8           0        1.439777    2.382250   -0.407474
      6          6           0        0.667808   -0.287125   -1.476420
      7          8           0        0.555825   -1.657010   -1.665442
      8          6           0       -0.906629   -0.466780    0.519627
      9          8           0       -1.080958   -0.152862    1.839388
     10         17           0       -2.407237    0.043110   -0.388028
     11          1           0        2.498449   -1.830323    1.463067
     12          1           0        2.466130    0.318938    0.505643
     13          1           0        1.357501    0.147048    1.920701
     14          1           0       -0.054638    2.038305    1.001991
     15          1           0       -0.532534    2.026873   -0.714245
     16          1           0        1.933519    2.668548    0.366748
     17          1           0        1.671674    0.108658   -1.747356
     18          1           0       -0.062902    0.190113   -2.151741
     19          1           0        1.111953   -2.084207   -0.998584
     20          1           0       -0.871842   -1.552175    0.348390
     21          1           0       -1.981579   -0.364675    2.110258
 ---------------------------------------------------------------------
 Rotational constants (GHZ):           1.2009667           0.8987237           0.8076413
   166 basis functions,   306 primitive gaussians,   176 cartesian basis functions
    45 alpha electrons       45 beta electrons
       nuclear repulsion energy       715.6672796167 Hartrees.
 NAtoms=   21 NActive=   21 NUniq=   21 SFac= 1.00D+00 NAtFMM=   60 NAOKFM=F Big=F
 Nuclear repulsion after empirical dispersion term =      715.6520240015 Hartrees.
   1 Symmetry operations used in ECPInt.
 ECPInt:  NShTT=    3570 NPrTT=   14708 LenC2=    3516 LenP2D=   11071.
 LDataN:  DoStor=T MaxTD1= 4 Len=   56
 Initial guess from the checkpoint file:  "/scratch/user/peterchao1/peterchao1/6097786_1659647558000000851228230/Gau-150157.chk"
 B after Tr=     0.000000   -0.000000    0.000000
         Rot=    0.999795   -0.009581   -0.011798    0.013365 Ang=  -2.32 deg.
 ExpMin= 1.22D-01 ExpMax= 1.04D+04 ExpMxC= 1.57D+03 IAcc=3 IRadAn=         5 AccDes= 0.00D+00
 Harris functional with IExCor= 4639 and IRadAn=       5 diagonalized for initial guess.
 HarFok:  IExCor= 4639 AccDes= 0.00D+00 IRadAn=         5 IDoV= 1 UseB2=F ITyADJ=14
 ICtDFT=  3500011 ScaDFX=  1.000000  1.000000  1.000000  1.000000
 FoFCou: FMM=F IPFlag=           0 FMFlag=      100000 FMFlg1=           0
         NFxFlg=           0 DoJE=T BraDBF=F KetDBF=T FulRan=T
         wScrn=  0.000000 ICntrl=       500 IOpCl=  0 I1Cent=   200000004 NGrid=           0
         NMat0=    1 NMatS0=      1 NMatT0=    0 NMatD0=    1 NMtDS0=    0 NMtDT0=    0
 Petite list used in FoFCou.
     Minimum is close to point  4 DX=  3.31D-03 DF= -7.33D-08 DXR=  2.75D-03 DFR=  7.56D-06 which will be used.
     Minimum is close to point  2 DX=  1.49D-02 DF= -1.82D-07 DXR=  1.47D-02 DFR=  2.17D-04 which will be used.
     Accept linear search using points  1 and  2.
     Minimum is close to point  2 DX= -8.08D-02 DF= -3.10D-06 DXR=  9.86D-02 DFR=  8.11D-03 which will be used.
     Accept linear search using points  1 and  2.
     Accept linear search using points  1 and  2.
     Accept linear search using points  1 and  2.
     Minimum is close to point  2 DX= -7.11D-04 DF= -3.94D-11 DXR=  7.11D-04 DFR=  5.06D-07 which will be used.
 SCF Done:  E(RwB97XD) =  -957.513964618     a.u. after   10 cycles
            Convg  =    0.9084D-08                    39 Fock formations.
              S**2 =  0.0000                  -V/T =  2.0051
   1 Symmetry operations used in ECPInt.
 ECPInt:  NShTT=    3570 NPrTT=   14708 LenC2=    3516 LenP2D=   11071.
 LDataN:  DoStor=T MaxTD1= 5 Len=  102
 Calling FoFJK, ICntrl=      2127 FMM=F ISym2X=0 I1Cent= 0 IOpClX= 0 NMat=1 NMatS=1 NMatT=0.

 GradGradGradGradGradGradGradGradGradGradGradGradGradGradGradGradGradGrad
 Using GEDIIS/GDIIS optimizer.
 FormGI is forming the generalized inverse of G from B-inverse, IUseBI=4.
 Internal  Forces:  Max     0.010936471 RMS     0.003020783
 Step number   4 out of a maximum of  112
 All quantities printed in internal units (Hartrees-Bohrs-Radians)
 Mixed Optimization -- RFO/linear search
 Trust test= 1.61D-01 RLast= 5.29D-01 DXMaxT set to 8.49D-01
 ITU=  0  1  1  0
 Use linear search instead of GDIIS.
     Eigenvalues ---    0.00226   0.00231   0.00259   0.00509   0.00669
     Eigenvalues ---    0.01291   0.01374   0.01382   0.04522   0.04677
     Eigenvalues ---    0.04727   0.04993   0.05069   0.05207   0.05683
     Eigenvalues ---    0.05920   0.05988   0.06254   0.06526   0.11412
     Eigenvalues ---    0.11522   0.11642   0.12679   0.13801   0.13999
     Eigenvalues ---    0.14068   0.14488   0.15608   0.15977   0.15999
[...]
 0.00104576,-0.00024638,0.00155581,0.00020638,-0.00001370,-0.00193634,-
 0.00130222,-0.00104005,0.00136411,0.00116678,-0.01803005,-0.07935615,0
 .02111029,-0.00071074,-0.02864417,-0.03705078,0.04898424,0.14684349,0.
 00013741,-0.00005773,0.00061463,-0.00027318,0.00063140,-0.00017134,-0.
 00194126,-0.00302726,0.00069370,-0.00085174,0.00001863,-0.00030638,-0.
 00031608,-0.00044467,0.00017787,0.00159738,-0.00000809,-0.00115156,0.0
 0029613,0.00023077,0.00049408,-0.00176057,0.00348387,-0.03108989,-0.00
 742907,-0.03739966,-0.01472117,0.00765089,0.02495561,0.03894030,-0.076
 97522,-0.16827350,-0.06113059,0.00436537,0.01924864,0.00308975,-0.0013
 1276,0.00148776,-0.00175925,0.00070683,0.00062973,-0.00002937,-0.00016
 547,-0.00030240,0.00020691,0.00004565,-0.00006855,-0.00038678,0.000288
 16,0.00019971,0.00038122,-0.00000002,-0.00043968,-0.00088944,-0.000190
 45,0.00059438,0.00047267,0.00001372,0.00008110,0.00018952,0.07320911,-
 0.13594350,-0.41313799,-0.08890045,-0.01169515,-0.02632388,-0.00936857
 ,0.00340228,-0.00186355,0.00511823,-0.00123918,-0.00126795,-0.00096669
 ,0.00017579,0.00072389,-0.00024387,0.00008979,0.00042923,0.00003188,0.
 00011727,0.00100977,0.00045359,0.00016532,-0.00008615,0.00015400,0.000
 22351,0.00025487,-0.00009425,0.00024004,0.00035422,-0.00003129,0.14577
 294,0.43861087,-0.06685679,-0.12938210,-0.06623610,0.00944082,0.029809
 26,0.00562865,-0.00219091,0.00266079,-0.00341842,0.00038924,0.00117349
 ,0.00076950,0.00004517,-0.00005958,-0.00009255,-0.00085075,0.00095648,
 -0.00080716,0.00057205,-0.00214947,-0.00215570,-0.00046287,0.00037067,
 0.00020493,0.00004655,-0.00054876,-0.00015406,-0.00002827,-0.00027407,
 -0.00005482,0.06025048,0.09677447,0.06244472,-0.00872072,0.00956450,-0
 .00840832,-0.30108828,-0.00525388,0.02548292,-0.01185600,-0.00209128,0
 .00223454,-0.00290208,-0.00014243,-0.00077130,0.00127295,0.00378433,-0
 .00132145,-0.00009802,0.00126095,0.00101655,0.00052562,-0.00037077,-0.
 00024383,0.00059687,-0.00124298,-0.00037282,-0.00013779,-0.00029644,-0
 .00011919,-0.00047275,-0.00054772,-0.00014927,0.00001721,-0.00014605,-
 0.00066005,0.32710242,0.03097941,-0.00730851,0.00882455,-0.00610996,-0
 .04950478,-0.00306120,-0.02974268,-0.00036924,0.00188855,-0.00239571,0
 .00023199,-0.00017598,0.00173861,0.00077337,0.00005468,-0.00122730,0.0
 0122451,0.00139980,0.00030341,0.00032918,-0.00025992,0.00084987,-0.005
 10323,-0.00145859,-0.00003253,0.00032852,0.00034683,-0.00170490,-0.001
 07437,-0.00009047,0.00143436,0.00129923,-0.00021059,-0.00313030,0.0589
 6873,-0.03083482,0.00910048,-0.00264140,0.03083394,-0.00128399,-0.0589
 1753,-0.00978532,-0.00245318,0.00078205,0.00091941,0.00059255,0.000061
 18,-0.00050744,0.00001222,-0.00025145,-0.00222881,0.00026960,0.0001265
 7,0.00054314,-0.00053909,-0.00009947,0.00072416,-0.00209160,-0.0014922
 0,0.00093294,0.00092899,0.00078560,-0.00056865,-0.00006375,0.00013755,
 0.00035059,-0.00142765,0.00025934,-0.01863479,-0.00576896,0.06064197,0
 .00606654,0.00057061,-0.02165694,-0.07743357,0.01878202,0.07506228,0.0
 0363454,-0.00295246,-0.01126732,0.00045300,0.00069778,0.00044166,-0.00
 006868,0.00034577,-0.00054356,-0.00091529,-0.00182511,0.00006014,0.000
 03955,-0.00008131,0.00024764,0.00054449,-0.00080177,-0.00202546,-0.001
 33474,-0.00032148,0.00034636,0.00015410,0.00037592,0.00032547,0.000096
 98,-0.00105806,0.00087133,-0.00569295,0.00722328,0.02858492,0.07393463
 ,-0.00148655,-0.00057141,0.03494654,0.01714311,-0.06605463,-0.05861009
 ,0.00901144,-0.00644548,-0.02742075,0.00008083,0.00134981,-0.00195394,
 0.00022709,-0.00000193,0.00039311,-0.00276745,-0.00681650,0.00079056,-
 0.00033569,0.00166129,-0.00009114,0.00153705,-0.00034768,-0.00161068,-
 0.00004669,0.00047802,0.00057355,-0.00000347,0.00019907,0.00027820,-0.
 00028678,0.00183803,0.00088516,-0.00155221,0.00235528,0.00073548,-0.02
 152638,0.07405150,-0.00169316,0.00892074,-0.02494044,0.06732766,-0.055
 51523,-0.26821557,0.00225551,-0.00332671,-0.00770225,-0.00059570,0.000
 79649,0.00039987,0.00048078,-0.00028701,0.00033922,-0.00103760,-0.0015
 3386,0.00095226,-0.00015886,-0.00019498,-0.00013986,0.00147662,-0.0010
 9178,-0.00232558,0.00168278,0.00177456,0.00151960,-0.00006308,0.000347
 67,0.00028882,-0.00074190,-0.00063310,0.00000420,0.00097814,-0.0015583
 9,0.00097674,-0.07080041,0.05200535,0.29738127,-0.00000770,0.00010019,
 -0.00009383,-0.00018431,-0.00050803,0.00026968,0.00665685,-0.00164364,
 -0.01052240,-0.08755482,0.00951260,0.08472039,-0.03271860,0.00369674,0
 .03051491,-0.00144073,0.00197425,-0.00060523,0.00006150,0.00038763,-0.
 00137452,0.00039061,-0.00042607,-0.00121631,-0.00155291,0.00081175,-0.
 00006755,-0.00004408,0.00009200,0.00025461,-0.00004060,0.00000105,0.00
 005568,0.00009702,0.00026459,-0.00005797,0.00019009,-0.00006323,0.0001
 1260,0.10882216,0.00009818,0.00016319,-0.00061608,-0.00035824,0.001368
 22,0.00169201,-0.00792760,0.00299685,0.02242914,0.01322060,-0.06082883
 ,-0.03587103,-0.00257476,0.00285780,0.00235417,0.00229677,-0.00349125,
 -0.00027518,-0.00004758,0.00005423,0.00207144,-0.00034290,0.00138112,0
 .00043767,0.00061527,-0.00072398,-0.00014349,0.00003140,-0.00016393,0.
 00015830,-0.00002351,-0.00003512,-0.00003253,-0.00010718,-0.00007920,-
 0.00007881,-0.00008037,-0.00064217,-0.00034355,-0.01572696,0.05575383,
 -0.00016679,0.00006198,0.00068285,-0.00007348,-0.00119543,-0.00016994,
 0.00632612,-0.00357130,-0.02035924,0.08971937,-0.03434067,-0.26843677,
 -0.00174687,0.00205876,0.01032911,-0.00257746,0.00341690,0.00065325,0.
 00002515,0.00075292,-0.00225522,0.00168135,-0.00024640,-0.00262264,0.0
 0075395,-0.00056623,0.00159437,-0.00038118,0.00008434,0.00026184,0.000
 05622,0.00004668,-0.00000433,-0.00009617,-0.00003285,0.00007204,0.0001
 1143,0.00090573,0.00041395,-0.09755636,0.03287138,0.28273685,0.0004150
 0,0.00118667,-0.00013365,-0.00156722,0.00062513,-0.00158970,0.00455058
 ,0.00954425,0.00358513,-0.05691884,-0.04513623,-0.01169040,-0.02291418
 ,-0.03431471,-0.01899127,0.00029825,-0.00024025,0.00036557,-0.00020454
 ,0.00011862,-0.00007479,0.00119246,0.00133338,0.00096873,-0.00045429,-
 0.00041197,-0.00023307,-0.00397811,-0.00070835,-0.00174339,-0.00010601
 ,0.00017886,-0.00018118,0.00012086,0.00005412,-0.00017117,-0.00009495,
 -0.00023903,-0.00012403,0.00502415,0.01154982,0.00292114,0.08109404,-0
 .00042535,-0.00185491,0.00012717,0.00263315,0.00003417,0.00305973,-0.0
 0323791,-0.02176173,-0.00553895,-0.05455962,-0.28605476,-0.08161024,-0
 .00288550,0.00588021,-0.00028264,-0.00027590,0.00007840,-0.00189323,0.
 00010127,0.00082057,-0.00000069,-0.00125081,-0.00223799,-0.00043632,0.
 00027124,0.00054226,0.00024973,-0.00144123,0.00178640,-0.00053246,0.00
 011061,-0.00019052,0.00030227,-0.00008004,0.00014504,-0.00002928,0.000
 08618,0.00016776,0.00004001,-0.00013638,-0.00048634,0.00015222,0.06001
 824,0.30166045,0.00047254,0.00165990,0.00031547,-0.00269201,0.00043774
 ,-0.00300302,0.00347128,0.02223676,0.00559974,-0.01630150,-0.08292434,
 -0.08199652,-0.00365681,-0.00103493,0.00107665,0.00018504,0.00231369,0
 .00087488,0.00018826,-0.00062584,0.00027911,0.00107419,-0.00000772,0.0
 0019513,0.00030448,0.00002780,0.00011718,-0.00175682,-0.00025782,-0.00
 069784,-0.00010170,0.00031721,-0.00026329,0.00016438,-0.00010672,-0.00
 003837,-0.00006759,0.00023473,0.00020333,-0.00665353,-0.02581167,-0.00
 631754,0.02560134,0.08378069,0.08268500,0.00038405,-0.00056760,0.00077
 264,-0.00028352,0.00069202,-0.00112120,-0.00143390,-0.00083301,-0.0000
 8855,-0.01783558,-0.03233822,-0.03322551,-0.07235108,-0.05809592,-0.06
 197025,0.00002658,-0.00018126,-0.00011448,0.00012491,-0.00012148,0.000
 44026,-0.00044059,-0.00052303,-0.00044779,0.00029988,0.00005628,0.0002
 5808,0.00002042,0.00048389,-0.00002075,0.00008263,0.00015432,-0.000042
 93,0.00045046,0.00065861,-0.00033154,-0.00028610,0.00021913,0.00034266
 ,0.00198075,-0.00043169,0.00093162,-0.00667418,0.00089239,-0.00024609,
 0.09583765,-0.00097052,0.00047351,-0.00081027,0.00200477,-0.00036119,0
 .00092579,0.00204217,0.00069189,0.00077841,0.00330460,-0.00413228,-0.0
 0006741,-0.09486409,-0.22391140,-0.23990298,0.00007628,-0.00032510,0.0
 0002231,-0.00008451,-0.00015575,0.00011405,0.00027665,-0.00049350,0.00
 014003,-0.00005360,-0.00027169,0.00009655,-0.00034761,-0.00016493,-0.0
 0004223,0.00009968,-0.00021812,0.00002504,0.00001634,-0.00143079,0.001
 56799,0.00020698,-0.00007707,-0.00040544,0.00167001,0.00120386,0.00030
 833,-0.00335112,0.00104081,0.00014774,0.08965973,0.22782443,0.00149738
 ,-0.00084336,0.00051836,-0.00279294,0.00045190,0.00026618,-0.00052922,
 -0.00112381,-0.00089950,0.00663631,0.00093358,-0.00089045,-0.10430771,
 -0.24173508,-0.25626328,0.00013462,0.00020175,-0.00034975,0.00000632,0
 .00007914,0.00021028,-0.00050877,0.00000594,0.00042105,0.00021218,0.00
 009813,-0.00034912,0.00033031,0.00021303,-0.00002197,-0.00016632,0.000
 25914,0.00009941,0.00071100,0.00144002,-0.00088146,0.00025078,-0.00010
 676,-0.00018438,0.00180297,0.00147209,0.00242032,0.00179993,0.00188475
 ,0.00150815,0.09500027,0.23694482,0.25467152,0.00046353,0.00025487,0.0
 0042872,-0.00003961,-0.00064998,-0.00147088,-0.01075165,-0.00299931,0.
 00212338,-0.00220926,0.00027984,0.00043510,0.00092299,0.00056613,-0.00
 205537,-0.29353585,-0.02844139,0.02151401,-0.01262092,0.01053579,-0.01
 116928,0.00126327,0.00028991,0.00094497,-0.00071783,0.00021393,0.00051
 751,-0.00000552,0.00001159,0.00018509,-0.00010184,0.00007661,0.0001836
 4,0.00071348,0.00065835,0.00035254,0.00040896,-0.00019419,0.00004954,0
 .00023840,-0.00012332,0.00018501,-0.00004672,0.00006394,0.00016224,0.0
 0009797,0.00002644,-0.00017260,0.32118483,-0.00041351,-0.00007152,-0.0
 0020245,0.00185514,0.00026107,0.00023395,0.00934010,0.00134646,-0.0046
 4383,-0.00041904,-0.00014124,-0.00013393,0.00013069,-0.00025947,0.0004
 0413,-0.03096295,-0.06032548,0.00124879,0.02743183,0.00076403,0.006575
 87,-0.00117761,-0.00093062,-0.00175028,0.00061544,0.00016264,0.0000488
 5,-0.00046226,0.00057262,0.00064027,0.00002680,-0.00007994,-0.00006644
 ,-0.00023532,-0.00019683,-0.00043189,-0.00015130,0.00019114,0.00012289
 ,0.00004211,0.00001913,-0.00014014,-0.00004362,0.00006653,-0.00014612,
 0.00015880,0.00013329,-0.00016249,0.02171839,0.05725721,-0.00024857,-0
 .00007691,0.00046250,0.00140631,0.00145237,0.00112611,0.03165765,0.002
 07207,-0.00324726,0.00160973,0.00015065,0.00116534,-0.00144962,-0.0000
 7593,-0.00057088,0.01935316,0.00091627,-0.05127645,-0.03304397,0.00593
 331,-0.00452592,-0.00197054,-0.00154129,-0.00571292,0.00273236,-0.0004
 9217,-0.00057683,-0.00005710,0.00027627,0.00017445,0.00007005,-0.00010
 392,0.00009136,-0.00062379,-0.00097326,-0.00036056,-0.00021385,0.00028
 384,0.00013616,-0.00012871,-0.00004692,0.00011220,-0.00014535,0.000070
 74,-0.00006895,-0.00018259,0.00000601,-0.00012909,-0.01259882,-0.00487
 195,0.06182821,-0.00000246,-0.00009112,0.00014575,-0.00084010,-0.00011
 043,0.00147492,0.00283841,0.01066080,0.00340343,0.00033822,-0.00041352
 ,-0.00099787,-0.00006488,0.00047084,-0.00016880,-0.07184529,-0.0745189
 7,-0.01567721,0.00470886,0.02316243,0.00085688,0.00076603,0.00170394,0
 .00028900,0.00004925,-0.00054022,-0.00035732,-0.00173667,-0.00064130,0
 .00088618,-0.00003500,0.00002089,0.00009682,0.00039989,0.00012058,0.00
 015759,0.00056388,0.00040399,0.00026947,-0.00006231,0.00012733,-0.0000
 8187,0.00027798,-0.00005925,-0.00023416,-0.00004866,-0.00003945,0.0001
 5315,-0.00542994,-0.02875017,-0.00687632,0.07090137,0.00006075,-0.0000
 5142,-0.00034478,0.00089483,0.00074038,-0.00111588,-0.00214335,-0.0065
 5608,-0.00262655,0.00033895,0.00047478,0.00118092,-0.00010921,0.000116
 20,-0.00024617,-0.06429184,-0.28524824,-0.05605556,0.00175697,-0.02470
 845,0.00300313,-0.00089363,-0.00152272,-0.00048832,0.00017104,0.000391
 11,0.00015663,-0.00129422,0.00088610,0.00127212,-0.00003529,0.00005647
 ,-0.00009881,-0.00003659,0.00011609,0.00007842,-0.00024260,-0.00030830
 ,-0.00024215,0.00011958,0.00028609,0.00009869,-0.00011153,0.00054228,-
 0.00017195,0.00005695,-0.00004585,0.00009490,-0.00089848,-0.00006770,-
 0.00117613,0.06583230,0.31463296,0.00022376,0.00026682,0.00124867,0.00
 256466,0.00002670,-0.00628213,-0.00861997,-0.02701394,-0.00730065,-0.0
 0023504,-0.00251951,0.00092071,0.00000064,0.00044399,-0.00001256,-0.01
 526400,-0.06298860,-0.06337490,0.00216218,0.03382392,0.00264168,-0.001
 18506,-0.00160328,-0.00002443,-0.00005239,0.00055551,0.00023629,0.0004
 4552,0.00084386,0.00023659,0.00005155,0.00012561,0.00005071,0.00015379
 ,0.00026822,0.00007543,-0.00051525,-0.00197148,-0.00042382,0.00020163,
 0.00025142,0.00028021,-0.00010939,0.00108436,-0.00082954,0.00008870,-0
 .00005412,0.00008619,0.00169522,0.00327999,0.00222998,0.01977828,0.052
 42860,0.07429375,-0.00333619,0.00039515,0.00270263,0.00077036,0.000461
 05,-0.00200398,0.00129923,-0.00050072,-0.00140155,0.00033548,-0.000184
 91,0.00019857,-0.00059196,-0.00017464,0.00010091,0.00122777,0.02219500
 ,0.00337086,-0.02652913,-0.05825258,-0.03342602,0.00031009,-0.00146970
 ,0.00115241,-0.00016563,0.00027597,-0.00105090,0.00000043,0.00079057,-
 0.00004343,-0.00030833,-0.00032964,-0.00103580,-0.00051050,-0.00001715
 ,-0.00042662,-0.00016590,-0.00006871,0.00013392,-0.00000014,0.00004376
 ,0.00000469,0.00002032,-0.00001533,0.00002321,0.00003471,0.00007384,-0
 .00006638,-0.00027640,0.00127788,0.00032423,-0.00064355,0.00088242,-0.
 00169678,0.03003392,0.00067779,-0.00799684,0.00132171,-0.00174029,0.00
 714153,-0.00050236,-0.00080101,0.00281192,-0.00122196,0.00092266,-0.00
 086843,-0.00082677,-0.00051074,-0.00018544,-0.00021154,-0.00122772,-0.
 03041059,-0.00124198,-0.03354179,-0.43118909,-0.09926460,-0.00077306,0
 .00011249,0.00110783,0.00043664,-0.00049410,-0.00104189,0.00003334,-0.
 00009012,-0.00022812,0.00007935,-0.00142754,-0.00027595,0.00046270,-0.
 00067645,0.00052376,0.00053477,-0.00129724,0.00082696,-0.00018292,0.00
 038297,-0.00049418,0.00004135,-0.00010756,0.00009669,0.00002132,0.0001
 7311,-0.00009186,-0.00124685,0.00132344,-0.00165293,0.00262844,0.00033
 285,0.00279072,0.03508643,0.46190601,0.00117723,0.00096129,-0.00144911
 ,-0.00283089,0.00482280,-0.00708645,0.00102610,0.00180217,0.00081650,-
 0.00079892,0.00009415,-0.00043066,0.00048653,-0.00037440,0.00000546,0.
 00226614,0.03629411,0.00709800,-0.03132645,-0.14431818,-0.07532767,0.0
 0081543,0.00161311,-0.00026216,-0.00019848,-0.00062546,0.00013906,-0.0
 0044645,-0.00114777,-0.00015125,-0.00008927,-0.00151256,0.00366259,0.0
 0061173,-0.00050613,0.00051272,0.00039529,-0.00076822,0.00096117,0.000
 01425,-0.00013474,-0.00008241,0.00010577,-0.00048536,0.00023261,-0.000
 17509,0.00019045,-0.00024120,-0.00108946,-0.00019808,-0.00024559,-0.00
 309655,0.00420814,-0.00392952,0.03210305,0.09964465,0.07599342,0.00051
 312,-0.00071545,0.00062443,-0.00006883,0.00199490,-0.00102933,-0.01241
 796,0.01962762,-0.02174872,-0.00349972,-0.00347442,0.00314700,-0.00259
 244,0.00119863,-0.00140642,-0.00125650,0.00183361,-0.00279472,0.002468
 76,-0.00151904,0.00034282,-0.10083794,0.07227273,-0.08005642,0.0093016
 7,-0.00477980,0.01337832,0.00221654,-0.01812151,0.00455497,0.00043007,
 -0.00013049,0.00027689,0.00004137,-0.00001790,0.00017413,-0.00004721,-
 0.00012801,0.00010502,0.00020116,-0.00017274,-0.00003268,0.00001167,0.
 00016073,0.00004097,0.00004107,0.00023583,0.00005288,0.00034181,-0.000
 15848,0.00019008,-0.00007431,-0.00009019,0.00024409,-0.00141617,-0.000
 86359,0.00091711,0.10491747,-0.00085267,-0.00102787,-0.00022744,0.0003
 6401,0.00003205,-0.00035569,0.00116318,0.00320433,0.00035976,0.0000346
 3,0.00023926,0.00018057,-0.00021162,0.00003441,0.00000239,0.00106992,-
 0.00077986,0.00114110,-0.00203410,0.00008502,0.00063339,0.07246797,-0.
 13518488,0.12324969,-0.00321238,0.01248744,-0.01948773,-0.00127572,-0.
 02877171,0.00883900,-0.00005287,0.00000793,-0.00000548,0.00010434,0.00
 008697,0.00017247,0.00007224,-0.00000681,0.00005796,0.00002983,-0.0001
 0206,0.00000788,-0.00028233,0.00012586,-0.00009712,0.00004400,0.000023
 88,-0.00002496,-0.00018852,0.00006148,-0.00008164,-0.00004291,0.000093
 12,0.00001512,-0.00033331,0.00041151,0.00033238,-0.06535849,0.14905316
 ,0.00106052,0.00040580,0.00000971,-0.00080166,0.00059614,-0.00046950,-
 0.00086011,-0.00090684,0.00467372,0.00106886,0.00010095,-0.00031703,0.
 00037870,-0.00026667,0.00024802,0.00042284,-0.00098352,0.00015254,0.00
 053262,-0.00002527,-0.00146176,-0.07831908,0.11384284,-0.18949777,-0.0
 0529996,0.01010565,-0.03571656,-0.00012125,-0.00806213,0.00636505,0.00
 016671,-0.00010304,-0.00000329,0.00015842,-0.00003448,0.00011254,0.000
 11972,0.00007607,0.00010081,0.00016467,-0.00001331,0.00012790,-0.00013
 588,0.00002400,-0.00001593,0.00002903,0.00002292,-0.00006601,-0.000296
 65,0.00029348,-0.00005419,-0.00003657,0.00007440,-0.00013975,0.0008462
 4,0.00075467,-0.00009187,0.08249027,-0.11555392,0.21567795,0.00032061,
 0.00002229,-0.00009741,0.00007912,0.00031100,-0.00001245,0.00092040,0.
 00041118,0.00294189,0.00019686,-0.00002436,0.00001896,0.00026506,-0.00
 007997,0.00007972,-0.00081029,0.00011604,-0.00065427,0.00045727,-0.000
 17992,-0.00023225,-0.01272293,0.00324233,-0.00108811,-0.49118381,0.065
 07870,0.01829651,-0.00019715,-0.00227363,-0.00154891,-0.00002004,-0.00
 007661,0.00008088,0.00014095,0.00009324,-0.00002622,-0.00004736,0.0000
 7576,0.00000005,-0.00005649,-0.00006629,-0.00000322,-0.00004625,0.0000
 2956,0.00002230,-0.00002750,0.00001760,-0.00004420,0.00010029,0.000177
 07,0.00019566,-0.00006071,0.00003313,0.00006786,-0.00008843,-0.0000368
 2,0.00013293,0.00172639,-0.00150521,-0.00156742,0.50105403,0.00078081,
 -0.00064290,-0.00007704,-0.00080630,0.00072460,-0.00015902,-0.00071409
 ,0.00074109,-0.00157295,0.00001934,0.00020853,0.00007197,-0.00023589,-
 0.00014777,-0.00008972,0.00029036,0.00074032,0.00005316,0.00009373,-0.
 00037012,0.00002330,0.01727618,-0.00322834,-0.00475871,0.05041081,-0.0
 1637239,-0.01012796,-0.00001379,0.00059204,0.00135381,-0.00028249,0.00
 004626,0.00014616,0.00004003,-0.00011552,0.00018624,0.00014531,0.00027
 731,0.00023957,-0.00001511,0.00008559,-0.00017862,0.00018871,-0.000196
 94,-0.00006872,-0.00000524,0.00002289,0.00000912,0.00004624,-0.0000862
 6,-0.00006849,0.00007581,-0.00015967,-0.00005390,-0.00013537,0.0001475
 8,0.00010766,-0.00179395,-0.00007325,-0.00034774,-0.06536510,0.0178069
 6,-0.00034049,-0.00011805,0.00025590,-0.00034873,-0.00042029,-0.000286
 00,0.00017183,-0.00213999,-0.00666756,-0.00018432,0.00014825,-0.000432
 01,-0.00048286,0.00011652,0.00006254,0.00205750,-0.00016464,0.00072225
 ,-0.00068989,0.00023978,0.00024975,0.04844810,-0.00784327,-0.00520576,
 -0.03255027,-0.00616629,-0.04240207,-0.00074593,0.00013752,-0.00001863
 ,0.00000895,0.00010458,-0.00002568,-0.00011048,0.00001490,0.00013870,0
 .00027337,0.00042474,0.00025449,0.00016501,-0.00037033,0.00056322,-0.0
 0002433,0.00003351,0.00014374,0.00010351,-0.00000799,0.00007472,0.0000
 7610,-0.00010061,-0.00055766,0.00001518,-0.00002964,0.00001709,0.00019
 074,-0.00001286,-0.00012363,0.00052931,0.00084228,0.00036542,-0.016562
 30,0.01531188,0.05287118\\0.00000035,-0.00000066,-0.00000129,0.0000005
 7,0.00000044,-0.00000067,-0.00000041,-0.00000007,-0.00000005,0.0000008
 1,0.00000046,0.00000075,-0.00000035,0.00000034,0.,-0.00000097,-0.00000
 131,0.00000014,-0.00000003,-0.00000135,-0.00000011,0.00000016,0.000001
 76,0.00000109,0.00000068,0.00000066,-0.00000024,-0.00000068,-0.0000002
 7,0.00000193,0.00000030,-0.00000034,-0.00000196,0.00000032,-0.00000023
 ,-0.00000118,0.00000066,0.00000081,-0.00000091,0.00000027,0.00000130,0
 .00000062,-0.00000018,0.00000027,0.00000122,0.00000029,0.00000057,-0.0
 0000034,-0.00000045,-0.00000098,-0.00000015,-0.00000086,-0.00000122,0.
 00000118,-0.00000081,-0.00000109,-0.00000085,-0.00000029,-0.00000025,0
 .00000037,0.00000062,0.00000116,0.00000046\\\@


 YOU WILL NEVER "FIND" TIME FOR ANYTHING.
 IF YOU WANT TIME, YOU MUST MAKE IT.

                        -- CHARLES BIXTON
 File lengths (MBytes):  RWF=     82 Int=      0 D2E=      0 Chk=      3 Scr=      1
 Normal termination of Gaussian 16 at Thu Aug  4 16:33:39 2022.
real 1260.60
user 4594.90
sys 29.24
