You are running Q-Chem version: 5.3.2

#
# job setting
#
local host:  tnxt-0465.cluster
current dir: /scratch/user/peterli3819/peterli3819/12613588_1663277315000000691901985
input file:  qchem_test.inp
output file: 
nprocs     : 0
nthreads   : 8
#
# qchem installation setting
#
QC:          /sw/restricted/qchem/sw/5.3.2
QCAUX:       /sw/restricted/qchem/sw/5.3.2/qcaux
QCPROG:      /sw/restricted/qchem/sw/5.3.2/exe/qcprog.exe_s
QCPROG_S:    /sw/restricted/qchem/sw/5.3.2/exe/qcprog.exe_s
PARALLEL:    -DSERIAL
QCMPI:       seq
#
# qchem directory setting
#
qcrun:       qchem39599
QCSCRATCH:   /scratch/user/peterli3819/peterli3819/12613588_1663277315000000691901985
QCLOCALSCR:  
QCTMPDIR:    /scratch/user/peterli3819/peterli3819/12613588_1663277315000000691901985
QCFILEPREF:  /scratch/user/peterli3819/peterli3819/12613588_1663277315000000691901985/qchem39599
QCSAVEDIR:   
workdirs:    /scratch/user/peterli3819/peterli3819/12613588_1663277315000000691901985/qchem39599
workdir0:    /scratch/user/peterli3819/peterli3819/12613588_1663277315000000691901985/qchem39599
partmpdirs =  
#
# parallel setting
#
QCRSH:           ssh
QCMPI:           seq
QCMPIRUN:        
QCMACHINEFILE:   /scratch/user/peterli3819/peterli3819/12613588_1663277315000000691901985/qchem39599/hostfile

#
# env setting
#
exported envs:   QC QCAUX QCSCRATCH QCRUNNAME QCFILEPREF QCPROG QCPROG_S GUIFILE

Running Job 1 of 1 qchem_test.inp
qchem qchem_test.inp_39599.0 /scratch/user/peterli3819/peterli3819/12613588_1663277315000000691901985/qchem39599/ 0
/sw/restricted/qchem/sw/5.3.2/exe/qcprog.exe_s qchem_test.inp_39599.0 /scratch/user/peterli3819/peterli3819/12613588_1663277315000000691901985/qchem39599/
                  Welcome to Q-Chem
     A Quantum Leap Into The Future Of Chemistry


 Q-Chem 5.3, Q-Chem, Inc., Pleasanton, CA (2020)

 License issued to: MRG Daniel Tabor and Mike Hall, Texas A&M University

 Yihan Shao,  Zhengting Gan,  E. Epifanovsky,  A. T. B. Gilbert,  M. Wormit,  
 J. Kussmann,  A. W. Lange,  A. Behn,  Jia Deng,  Xintian Feng,  D. Ghosh,  
 M. Goldey,  P. R. Horn,  L. D. Jacobson,  I. Kaliman,  T. Kus,  A. Landau,  
 Jie Liu,  E. I. Proynov,  R. M. Richard,  R. P. Steele,  E. J. Sundstrom,  
 H. L. Woodcock III,  P. M. Zimmerman,  D. Zuev,  B. Alam,  B. Albrecht,  
 A. Aldossary,  E. Alguire,  S. A. Baeppler,  D. Barton,  Z. Benda,  
 Y. A. Bernard,  E. J. Berquist,  K. B. Bravaya,  H. Burton,  K. Carter-Fenk,  
 D. Casanova,  Chun-Min Chang,  Yunqing Chen,  A. Chien,  K. D. Closser,  
 M. P. Coons,  S. Coriani,  S. Dasgupta,  A. L. Dempwolff,  M. Diedenhofen,  
 Hainam Do,  R. G. Edgar,  Po-Tung Fang,  S. Faraji,  S. Fatehi,  
 Qingguo Feng,  J. Fosso-Tande,  J. Gayvert,  Qinghui Ge,  A. Ghysels,  
 G. Gidofalvi,  J. Gomes,  J. Gonthier,  S. Gulania,  A. Gunina,  D. Hait,  
 M. W. D. Hanson-Heine,  S. Hammes-Schiffer,  P. H. P. Harbach,  
 A. W. Hauser,  M. F. Herbst,  J. E. Herr,  E. G. Hohenstein,  Z. C. Holden,  
 S. Houck,  Kerwin Hui,  B. C. Huynh,  M. Ivanov,  T.-C. Jagau,  Hyunjun Ji,  
 B. Kaduk,  K. Khistyaev,  Jaehoon Kim,  P. Klunzinger,  K. Koh,  
 D. Kosenkov,  L. Koulias,  T. Kowalczyk,  C. M. Krauter,  A. Kunitsa,  
 Ka Un Lao,  A. Laurent,  K. V. Lawler,  Joonho Lee,  D. Lefrancois,  
 S. Lehtola,  D. S. Levine,  Yi-Pei Li,  You-Sheng Lin,  Fenglai Liu,  
 Kuan-Yu Liu,  E. Livshits,  M. Loipersberger,  A. Luenser,  A. Manjanath,  
 P. Manohar,  E. Mansoor,  S. F. Manzer,  Shan-Ping Mao,  Yuezhi Mao,  
 N. Mardirossian,  A. V. Marenich,  T. Markovich,  L. A. Martinez-Martinez,  
 S. A. Maurer,  N. J. Mayhall,  S. C. McKenzie,  J.-M. Mewes,  P. Morgante,  
 A. F. Morrison,  J. W. Mullinax,  K. Nanda,  T. S. Nguyen-Beck,  
 R. Olivares-Amaya,  K. J. Oosterbaan,  J. A. Parkhill,  S. K. Paul,  
 F. Pavosevic,  Zheng Pei,  T. M. Perrine,  F. Plasser,  P. Pokhilko,  
 S. Prager,  A. Prociuk,  E. Ramos,  B. Rana,  D. R. Rehn,  F. Rob,  
 E. Rossomme,  M. Scheurer,  M. Schneider,  N. Sergueev,  S. M. Sharada,  
 S. Sharma,  W. Skomorowski,  D. W. Small,  T. Stauch,  C. J. Stein,  
 T. Stein,  Yu-Chuan Su,  S. P. Veccham,  Zhen Tao,  A. J. W. Thom,  
 A. Tkatchenko,  T. Tsuchimochi,  N. M. Tubman,  L. Vogt,  M. L. Vidal,  
 O. Vydrov,  M. A. Watson,  J. Wenzel,  M. de Wergifosse,  T. A. Wesolowski,  
 A. White,  J. Witte,  A. Yamada,  Jun Yang,  K. Yao,  S. Yeganeh,  
 S. R. Yost,  Zhi-Qiang You,  A. Zech,  Igor Ying Zhang,  Xing Zhang,  
 Yan Zhao,  Ying Zhu,  B. R. Brooks,  G. K. L. Chan,  C. J. Cramer,  
 M. S. Gordon,  W. J. Hehre,  A. Klamt,  M. W. Schmidt,  C. D. Sherrill,  
 D. G. Truhlar,  A. Aspuru-Guzik,  R. Baer,  A. T. Bell,  N. A. Besley,  
 Jeng-Da Chai,  A. E. DePrince, III,  R. A. DiStasio Jr.,  A. Dreuw,  
 B. D. Dunietz,  T. R. Furlani,  Chao-Ping Hsu,  Yousung Jung,  Jing Kong,  
 D. S. Lambrecht,  WanZhen Liang,  C. Ochsenfeld,  V. A. Rassolov,  
 L. V. Slipchenko,  J. E. Subotnik,  T. Van Voorhis,  J. M. Herbert,  
 A. I. Krylov,  P. M. W. Gill,  M. Head-Gordon

 Contributors to earlier versions of Q-Chem not listed above: 
 R. D. Adamson,  B. Austin,  J. Baker,  G. J. O. Beran,  K. Brandhorst,  
 S. T. Brown,  E. F. C. Byrd,  A. K. Chakraborty,  C.-L. Cheng,  
 Siu Hung Chien,  D. M. Chipman,  D. L. Crittenden,  H. Dachsel,  
 R. J. Doerksen,  A. D. Dutoi,  L. Fusti-Molnar,  W. A. Goddard III,  
 A. Golubeva-Zadorozhnaya,  S. R. Gwaltney,  G. Hawkins,  A. Heyden,  
 S. Hirata,  G. Kedziora,  F. J. Keil,  C. Kelley,  Jihan Kim,  R. A. King,  
 R. Z. Khaliullin,  P. P. Korambath,  W. Kurlancheek,  A. M. Lee,  M. S. Lee,  
 S. V. Levchenko,  Ching Yeh Lin,  D. Liotard,  R. C. Lochan,  I. Lotan,  
 P. E. Maslen,  N. Nair,  D. P. O'Neill,  D. Neuhauser,  E. Neuscamman,  
 C. M. Oana,  R. Olson,  B. Peters,  R. Peverati,  P. A. Pieniazek,  
 Y. M. Rhee,  J. Ritchie,  M. A. Rohrdanz,  E. Rosta,  N. J. Russ,  
 H. F. Schaefer III,  N. E. Schultz,  N. Shenvi,  A. C. Simmonett,  A. Sodt,  
 D. Stuck,  K. S. Thanthiriwatte,  V. Vanovschi,  Tao Wang,  A. Warshel,  
 C. F. Williams,  Q. Wu,  X. Xu,  W. Zhang

 Please cite Q-Chem as follows:
 Y. Shao et al., Mol. Phys. 113, 184-215 (2015)
 DOI: 10.1080/00268976.2014.952696

 Q-Chem 5.3.2 for Intel X86 EM64T Linux

 Parts of Q-Chem use Armadillo 9.800.1 (Horizon Scraper).
 http://arma.sourceforge.net/

 Q-Chem begins on Thu Sep 15 16:28:58 2022  

Host: 
0

     Scratch files written to /scratch/user/peterli3819/peterli3819/12613588_1663277315000000691901985/qchem39599//
 Dec820 |scratch|qcdevops|jenkins|workspace|build_RNUM 7711   
Processing $rem in /sw/restricted/qchem/sw/5.3.2/config/preferences:
Processing $rem in /home/peterli3819/.qchemrc:

 Q-Chem warning in module libgen/rem_setup.C, line 2945:

 Neither GIA nor STOLL is specified by user. Use STOLL as the default


Checking the input file for inconsistencies... 	...done.

--------------------------------------------------------------
User input:
--------------------------------------------------------------
$molecule
0 1
--
0 1
C       -1.256346    1.979356    0.034733
C       -1.684042    0.683493    0.720263
C       -2.755578   -0.167419    0.001124
C       -4.085432    0.595478   -0.086838
C       -2.293827   -0.553691   -1.411450
C       -2.967076   -1.448830    0.821427
H       -0.510496    2.511084    0.650739
H       -2.105356    2.667827   -0.118072
H       -0.792046    1.792561   -0.948989
H       -2.058943    0.922027    1.733781
H       -0.789987    0.050586    0.871556
H       -4.435605    0.900754    0.916030
H       -4.869860   -0.037434   -0.539564
H       -3.997286    1.504605   -0.706954
H       -2.183188    0.329622   -2.064181
H       -3.027251   -1.227642   -1.889737
H       -1.322468   -1.079034   -1.382460
H       -3.293918   -1.213479    1.850511
H       -2.031992   -2.033998    0.889050
H       -3.737372   -2.093888    0.361528
--
0 1
C        1.266616   -1.986375   -0.038339
C        1.686124   -0.686247   -0.720828
C        2.753508    0.168866   -0.000437
C        4.090348   -0.583058    0.075652
C        2.949956    1.457955   -0.812407
C        2.295373    0.540658    1.417184
H        0.526776   -2.523114   -0.657222
H        0.798052   -1.804268    0.944250
H        2.120444   -2.668494    0.116202
H        0.788068   -0.058430   -0.869271
H        2.061305   -0.919503   -1.735465
H        4.439444   -0.876000   -0.931251
H        4.012526   -1.498605    0.687668
H        4.870882    0.052548    0.531333
H        3.272269    1.232742   -1.845186
H        3.718046    2.105609   -0.352459
H        2.009895    2.036174   -0.869955
H        2.197631   -0.348265    2.064338
H        1.318390    1.055880    1.397160
H        3.024294    1.219014    1.896125
$end

$rem
JOBTYPE           eda
EDA2              2
METHOD            wB97X-D
BASIS             def2-SV(P)
SCF_CONVERGENCE   8
THRESH            14
SYMMETRY          false
DISP_FREE_X       wB97X-D
DISP_FREE_C       none
EDA_BSSE          true
$end
--------------------------------------------------------------
 ----------------------------------------------------------------
             Standard Nuclear Orientation (Angstroms)
    I     Atom           X                Y                Z
 ----------------------------------------------------------------
    1      C      -1.2563460472    -1.9793560086    -0.0347328387
    2      C      -1.6840420483    -0.6834929915    -0.7202628058
    3      C      -2.7555779746     0.1674190405    -0.0011237339
    4      C      -4.0854319940    -0.5954779162     0.0868383473
    5      C      -2.2938268720     0.5536910192     1.4114502384
    6      C      -2.9670759847     1.4488300511    -0.8214267149
    7      H      -0.5104961039    -2.5110840304    -0.6507388885
    8      H      -2.1053560601    -2.6678269813     0.1180722123
    9      H      -0.7920459785    -1.7925610281     0.9489891326
   10      H      -2.0589431206    -0.9220269748    -1.7337807830
   11      H      -0.7899870371    -0.0505860202    -0.8715558600
   12      H      -4.4356050679    -0.9007539003    -0.9160296317
   13      H      -4.8698599444     0.0374341076     0.5395644000
   14      H      -3.9972859844    -1.5046049218     0.7069543378
   15      H      -2.1831878595    -0.3296219873     2.0641812275
   16      H      -3.0272508194     1.2276420412     1.8897372880
   17      H      -1.3224678566     1.0790339874     1.3824601789
   18      H      -3.2939180579     1.2134790663    -1.8505106951
   19      H      -2.0319919697     2.0339980206    -0.8890497718
   20      H      -3.7373719342     2.0938880744    -0.3615276630
   21      C       1.2666160877     1.9863749082     0.0383390181
   22      C       1.6861240884     0.6862468915     0.7208279857
   23      C       2.7535080145    -0.1688661405     0.0004369141
   24      C       4.0903480343     0.5830578159    -0.0756521677
   25      C       2.9499560238    -1.4579551505     0.8124068959
   26      C       2.2953729121    -0.5406581192    -1.4171840584
   27      H       0.5267761447     2.5231139298     0.6572220675
   28      H       0.7980520192     1.8042679279    -0.9442499529
   29      H       2.1204441003     2.6684938808    -0.1162020332
   30      H       0.7880680772     0.0584299203     0.8692710401
   31      H       2.0613051606     0.9195028747     1.7354649629
   32      H       4.4394441080     0.8759998001     0.9312508114
   33      H       4.0125260255     1.4986048212    -0.6876681588
   34      H       4.8708819845    -0.0525482077    -0.5313332202
   35      H       3.2722690969    -1.2327421656     1.8451858764
   36      H       3.7180459732    -2.1056091737     0.3524588442
   37      H       2.0098950085    -2.0361741198     0.8699549532
   38      H       2.1976309001     0.3482648868    -2.0643380483
   39      H       1.3183898964    -1.0558800872    -1.3971599985
   40      H       3.0242938593    -1.2190141411    -1.8961251078
 ----------------------------------------------------------------
 Molecular Point Group                 C1    NOp =  1
 Largest Abelian Subgroup              C1    NOp =  1
 Nuclear Repulsion Energy =         784.59545009 hartrees
 There are       50 alpha and       50 beta electrons
 Requested basis set is def2-SV(P)
 There are 128 shells and 224 basis functions

 Total QAlloc Memory Limit  56000 MB
 Mega-Array Size       188 MB
 MEM_STATIC part       192 MB
 A cutoff of  1.0D-14 yielded   7453 shell pairs
 There are     22285 function pairs (     24552 Cartesian)
 Smallest overlap matrix eigenvalue = 1.42E-03

 Scale SEOQF with 1.000000e-01/1.000000e-01/1.000000e-01

 Standard Electronic Orientation quadrupole field applied
 Nucleus-field energy     =     0.0000000288 hartrees

 -----------------------------------------------------------------------
  General SCF calculation program by
  Eric Jon Sundstrom, Paul Horn, Yuezhi Mao, Dmitri Zuev, Alec White,
  David Stuck, Shaama M.S., Shane Yost, Joonho Lee, David Small,
  Daniel Levine, Susi Lehtola, Hugh Burton, Evgeny Epifanovsky,
  Bang C. Huynh
 -----------------------------------------------------------------------
================================================================
                 ALMO-EDA with the EDA2 driver                  
================================================================
 The second-generation ALMO-EDA (for DFT):                      
 P. R. Horn, Y. Mao and M. Head-Gordon, PCCP, 18, 23067 (2016)  
 Decomposition of the frozen energy:                            
 P. R. Horn, Y. Mao and M. Head-Gordon, JCP, 144, 114107 (2016) 
Using eda2 option set 2
Option set summary: Frozen orbital wavefunction, initial wavefunction decomposition, and traditional AO-based POL.
--------------------------------
Printing EDA Options
--------------------------------
eda_child_super_basis      0
fragmo_guess_mode          0
child_mp                   0
child_mp_orders            0
cls_elec                   1
cls_disp                   0
scfmi_mode                 1
scfmi_occs                 0
scfmi_virts                0
frz_relax                  0
frz_relax_method           0
dc_pen_start               0
dc_pen_conv                0
dc_pen_increment           0
dc_pen_steps               0
dc_pen_thresh_factor       0
dc_pen_pre_newton_thresh   0
frz_ortho_decomp           1
frz_ortho_decomp_conv      6
plot_mo_ortho_frz          0
frgm_method                2
scfmi_freeze_ss            0
separate_rehyb             0
plot_diff_den              0
eda_nocv                   0
eda_vct_relax              1
disp_free_x                -110
disp_free_c                0
eda_bsse                   1
eda_pct_a                  0
eda_covp                   0
--------------------------------
Attempting to make child job directory: /scratch/user/peterli3819/peterli3819/12613588_1663277315000000691901985/qchem39599//Frg1/
Attempting to make child job directory: /scratch/user/peterli3819/peterli3819/12613588_1663277315000000691901985/qchem39599//Frg2/
Creating input file /scratch/user/peterli3819/peterli3819/12613588_1663277315000000691901985/qchem39599/Frg1.input
using default PutDataFrgm: nothing
calling putenv with: QCSCRATCH=/scratch/user/peterli3819/peterli3819/12613588_1663277315000000691901985/qchem39599/ 
Spawning Job For Fragment 0
Done Job For Fragment 0
calling putenv with: QCSCRATCH=/scratch/user/peterli3819/peterli3819/12613588_1663277315000000691901985 
calling putenv with: QCTHREADS=8 
Creating input file /scratch/user/peterli3819/peterli3819/12613588_1663277315000000691901985/qchem39599/Frg2.input
using default PutDataFrgm: nothing
calling putenv with: QCSCRATCH=/scratch/user/peterli3819/peterli3819/12613588_1663277315000000691901985/qchem39599/ 
Spawning Job For Fragment 1
Done Job For Fragment 1
calling putenv with: QCSCRATCH=/scratch/user/peterli3819/peterli3819/12613588_1663277315000000691901985 
calling putenv with: QCTHREADS=8 
Doing General SCFMI
 Exchange:     0.2220 Hartree-Fock + 1.0000 wB97X-D + LR-HF
 Correlation:  1.0000 wB97X-D
 Using SG-2 standard quadrature grid
 Dispersion:   Grimme D
performing fock build before subrot guess so that all methods have access
Printing subrot_rss_gen Method Specification:
Occupied Subspace Method is 0
Virtual Subspace Method is 0
Energy of the unrelaxed supersystem initial determinant -473.632889103438
write pseudocanon occs and virts to disk
write pseudocanon orbital energies to disk
Tolerance of ortho_decomp_scf: 1.00e-06
GDM subspace size: 20
Beginning the Orthogonal Decomposition of the Initial Supersystem Wavefunction
    1    -473.6105375440      1.58e-02     ortho_decomp Preconditoned Steepest Descent
    2    -473.6116648216      3.90e-04     ortho_decomp BFGS Step
    3    -473.6116683541      3.04e-05     ortho_decomp BFGS Step
    4    -473.6116683614      1.26e-06     ortho_decomp BFGS Step
    5    -473.6116683614      4.90e-08     ortho_decomp 00000 Convergence criterion met
 Exchange:     0.2220 Hartree-Fock + 1.0000 wB97X-D + LR-HF
 Correlation:  1.0000 wB97X-D
 Using SG-2 standard quadrature grid
 Dispersion:   Grimme D
 Long-range K will be added via erf
 Coulomb attenuation parameter = 0.2 bohr**(-1)
 Exchange:     0.2220 Hartree-Fock + 1.0000 wB97X-D + LR-HF
 Correlation:  1.0000 wB97X-D
 Using SG-2 standard quadrature grid
 Dispersion:   Grimme D
 Long-range K will be added via erf
 Coulomb attenuation parameter = 0.2 bohr**(-1)
 Exchange:     0.2220 Hartree-Fock + 1.0000 wB97X-D + LR-HF
 Correlation:  1.0000 wB97X-D
 Using SG-2 standard quadrature grid
 Dispersion:   Grimme D
 Long-range K will be added via erf
 Coulomb attenuation parameter = 0.2 bohr**(-1)
Doing General SCFMI
 Exchange:     0.2220 Hartree-Fock + 1.0000 wB97X-D + LR-HF
 Correlation:  1.0000 wB97X-D
 Using SG-2 standard quadrature grid
 Dispersion:   Grimme D
performing fock build at end of subrot_r(subrot) constructor so that all methods have access
<S^2> of initial wavefunction before polarization iterations 0.0000000000
Beginning iterations for the determination of the polarized wavefunction
Energy prior to optimization (guess energy) = -473.632889103438
Begin Timing: Total SCF Calculation
begin iterations for algorithm: DIIS         
the SCF tolerance is set to 1.00e-08
    1    -473.6328891034      8.09e-05     00000 
    2    -473.6330171962      2.51e-05     00000 
    3    -473.6330255292      1.38e-05     00000 
    4    -473.6330283482      2.89e-06     00000 
    5    -473.6330284802      7.63e-07     00000 
    6    -473.6330284936      2.36e-07     00000 
    7    -473.6330284946      7.06e-08     00000 
    8    -473.6330284947      1.67e-08     00000 
    9    -473.6330284947      4.41e-09     00000 Convergence criterion met
write pseudocanon occs and virts to disk
write pseudocanon orbital energies to disk
Timing for Total SCF: 30.00s (wall), 226.05s (cpu)
<S^2> of polarized wavefunction after polarization iterations 0.0000000000
relaxing scfmi constraint to allow all rotations in the entire AO span
Doing General SCFMI
 Exchange:     0.2220 Hartree-Fock + 1.0000 wB97X-D + LR-HF
 Correlation:  1.0000 wB97X-D
 Using SG-2 standard quadrature grid
 Dispersion:   Grimme D
performing fock build at end of subrot_r(subrot) constructor so that all methods have access
<S^2> of polarized wavefunction before ct-allowed iterations 0.0000000000
Beginning iterations for the determination of the CT-Allowed wavefunction
Energy prior to optimization (guess energy) = -473.633028494681
Begin Timing: Total SCF Calculation
begin iterations for algorithm: DIIS         
the SCF tolerance is set to 1.00e-08
    1    -473.6330284947      2.86e-04     00000 
    2    -473.6357278735      3.67e-05     00000 
    3    -473.6358261191      5.79e-06     00000 
    4    -473.6358286952      2.09e-06     00000 
    5    -473.6358288180      5.61e-07     00000 
    6    -473.6358288283      1.85e-07     00000 
    7    -473.6358288293      1.85e-08     00000 
    8    -473.6358288293      1.10e-08     00000 
    9    -473.6358288293      1.36e-09     00000 Convergence criterion met
write pseudocanon occs and virts to disk
write pseudocanon orbital energies to disk
Timing for Total SCF: 30.00s (wall), 228.74s (cpu)
<S^2> of ct_allowed wavefunction after ct-allowed iterations 0.0000000000
Attempting to make child job directory: /scratch/user/peterli3819/peterli3819/12613588_1663277315000000691901985/qchem39599//FrgBSSE1/
Attempting to make child job directory: /scratch/user/peterli3819/peterli3819/12613588_1663277315000000691901985/qchem39599//FrgBSSE2/
Creating input file /scratch/user/peterli3819/peterli3819/12613588_1663277315000000691901985/qchem39599/FrgBSSE1.input
calling putenv with: QCSCRATCH=/scratch/user/peterli3819/peterli3819/12613588_1663277315000000691901985/qchem39599/ 
Spawning Job For Fragment 0
Done Job For Fragment 0
calling putenv with: QCSCRATCH=/scratch/user/peterli3819/peterli3819/12613588_1663277315000000691901985 
calling putenv with: QCTHREADS=8 
Creating input file /scratch/user/peterli3819/peterli3819/12613588_1663277315000000691901985/qchem39599/FrgBSSE2.input
calling putenv with: QCSCRATCH=/scratch/user/peterli3819/peterli3819/12613588_1663277315000000691901985/qchem39599/ 
Spawning Job For Fragment 1
Done Job For Fragment 1
calling putenv with: QCSCRATCH=/scratch/user/peterli3819/peterli3819/12613588_1663277315000000691901985 
calling putenv with: QCTHREADS=8 
====================================================================
   Evaluating the BSSE with fragment SCF in the supersystem basis
   Fragment contributions (kJ/mol) 
   Frgm 1: 1.9616
   Frgm 2: 1.9616
   BSSE (kJ/mol) = 3.9232
====================================================================

================================
        Results of EDA2         
================================
Basic EDA Quantities
--------------------
Fragment Energies (Ha):
1 -236.8145990153
2 -236.8146011550
--------------------
  E_prp (kJ/mol) = 0.0000
  E_frz (kJ/mol) = -9.6854
  E_pol (kJ/mol) = -0.3660
  E_vct (kJ/mol) = -3.4292 (CP-corrected)
  E_int (kJ/mol) = -13.4806 (CP-corrected)
--------------------


Decomposition of frozen interaction energy
--------------------
  --------------------
  Orthogonal Frozen Decomposition:
  --------------------
     E_elec   (ELEC)   (kJ/mol) = -18.9979
     E_pauli  (PAULI)  (kJ/mol) = 30.7224
     E_disp   (DISP)   (kJ/mol) = -21.4100
  --------------------
  Classical Frozen Decomposition:
  --------------------
     E_cls_elec  (CLS ELEC)  (kJ/mol) = -5.4806
     E_mod_pauli (MOD PAULI) (kJ/mol) = 17.2052 (FRZ - CLS ELEC - DISP)
     E_disp      (DISP)      (kJ/mol) = -21.4100
  --------------------
--------------------

Simplified EDA Summary (kJ/mol)
--------------------
 PREPARATION      0.0000
 FROZEN           -9.6854 (ELEC + PAULI + DISP)
[ELEC + PAULI = 11.7246, DISP = -21.4100]
 POLARIZATION    -0.3660
 CHARGE TRANSFER -3.4292     (counterpoise-corrected)
 TOTAL           -13.4806     (PRP + FRZ + POL + CT)
--------------------
 
 --------------------------------------------------------------
 
                    Orbital Energies (a.u.)
 --------------------------------------------------------------
 
 Alpha MOs
 -- Occupied --
-10.3029 -10.3028 -10.2841 -10.2841 -10.2796 -10.2796 -10.2763 -10.2763
-10.2763 -10.2763 -10.2759 -10.2759  -0.9178  -0.9160  -0.8269  -0.8260
 -0.7698  -0.7697  -0.7690  -0.7690  -0.7086  -0.7081  -0.6136  -0.6100
 -0.5525  -0.5484  -0.5442  -0.5371  -0.5230  -0.5213  -0.5079  -0.5070
 -0.4849  -0.4798  -0.4662  -0.4619  -0.4567  -0.4565  -0.4427  -0.4412
 -0.4388  -0.4380  -0.4249  -0.4201  -0.3957  -0.3948  -0.3947  -0.3922
 -0.3888  -0.3854
 -- Virtual --
  0.1146   0.1381   0.1465   0.1646   0.1699   0.1773   0.1828   0.1839
  0.1903   0.1930   0.1960   0.2027   0.2079   0.2157   0.2211   0.2222
  0.2425   0.2480   0.2487   0.2532   0.2592   0.2603   0.2636   0.2680
  0.2760   0.2790   0.2911   0.2961   0.2967   0.3094   0.3221   0.3237
  0.3266   0.3341   0.3375   0.3418   0.3580   0.3750   0.4808   0.4832
  0.4834   0.4971   0.5066   0.5070   0.5104   0.5158   0.5503   0.5512
  0.5814   0.5926   0.6343   0.6482   0.6571   0.6636   0.6799   0.6809
  0.6949   0.7017   0.7087   0.7136   0.7183   0.7270   0.7548   0.7596
  0.7711   0.7724   0.7762   0.7769   0.7829   0.7843   0.7906   0.7984
  0.8005   0.8041   0.8078   0.8120   0.8170   0.8173   0.8240   0.8255
  0.8290   0.8328   0.8410   0.8458   0.8468   0.8490   0.8506   0.8546
  0.8615   0.8675   0.8690   0.8765   0.8909   0.9133   0.9263   0.9267
  0.9408   0.9565   0.9795   1.0008   1.0135   1.0265   1.0478   1.0761
  1.1001   1.1215   1.1656   1.1740   1.2468   1.2538   1.2605   1.2722
  1.2968   1.3030   1.4574   1.4658   1.4787   1.4881   1.6912   1.6912
  1.7513   1.7580   1.8085   1.8101   1.8651   1.8726   1.9160   1.9256
  1.9329   1.9388   1.9734   1.9763   1.9891   2.0031   2.0279   2.0398
  2.1175   2.1220   2.1237   2.1261   2.1391   2.1517   2.1569   2.1627
  2.1733   2.1905   2.2478   2.2495   2.2534   2.2572   2.2585   2.2593
  2.2856   2.2868   2.2977   2.2997   2.3177   2.3205   2.3780   2.3799
  2.3900   2.4045   2.5246   2.5298   2.6271   2.6342   2.7451   2.7530
  2.7781   2.7799   2.8024   2.8064   2.8241   2.8256
 --------------------------------------------------------------
 
          Ground-State Mulliken Net Atomic Charges

     Atom                 Charge (a.u.)
  ----------------------------------------
      1 C                    -0.349296
      2 C                    -0.199750
      3 C                    -0.243030
      4 C                    -0.275241
      5 C                    -0.299311
      6 C                    -0.268079
      7 H                     0.133124
      8 H                     0.120642
      9 H                     0.137242
     10 H                     0.096189
     11 H                     0.111040
     12 H                     0.110407
     13 H                     0.111503
     14 H                     0.117801
     15 H                     0.118563
     16 H                     0.111884
     17 H                     0.130045
     18 H                     0.110260
     19 H                     0.114805
     20 H                     0.111585
     21 C                    -0.348936
     22 C                    -0.199495
     23 C                    -0.243106
     24 C                    -0.275092
     25 C                    -0.268363
     26 C                    -0.299488
     27 H                     0.132934
     28 H                     0.136871
     29 H                     0.120555
     30 H                     0.110837
     31 H                     0.096142
     32 H                     0.110377
     33 H                     0.117710
     34 H                     0.111483
     35 H                     0.110219
     36 H                     0.111547
     37 H                     0.114931
     38 H                     0.118582
     39 H                     0.130036
     40 H                     0.111870
  ----------------------------------------
  Sum of atomic charges =     0.000000

 -----------------------------------------------------------------
                    Cartesian Multipole Moments
 -----------------------------------------------------------------
    Charge (ESU x 10^10)
                 0.0000
    Dipole Moment (Debye)
         X      -0.0031      Y       0.0001      Z      -0.0001
       Tot       0.0031
    Quadrupole Moments (Debye-Ang)
        XX     -83.9192     XY       0.2351     YY     -83.9659
        XZ      -0.2384     YZ       0.5391     ZZ     -83.8118
    Octopole Moments (Debye-Ang^2)
       XXX      -0.0706    XXY       0.0041    XYY       0.0112
       YYY       0.0209    XXZ      -0.0138    XYZ      -0.0264
       YYZ      -0.0232    XZZ       0.0081    YZZ      -0.0243
       ZZZ       0.0459
    Hexadecapole Moments (Debye-Ang^3)
      XXXX   -3838.6804   XXXY     -26.1675   XXYY    -771.3593
      XYYY       7.7643   YYYY    -856.9282   XXXZ      -9.3273
      XXYZ      12.5413   XYYZ      -9.8993   YYYZ       6.4057
      XXZZ    -705.4371   XYZZ       5.4254   YYZZ    -221.7601
      XZZZ       9.5471   YZZZ      -0.8411   ZZZZ    -483.6393
 -----------------------------------------------------------------
Archival summary:
1\1\tnxt-0465.cluster\SP\ProcedureUnspecified\BasisUnspecified\1228\peterli3\ThuSep1516:32:392022ThuSep1516:32:392022\0\\#,ProcedureUnspecified,BasisUnspecified,\\0,1\C\C,1,1.5355\H,2,1.10388,1,111.881\H,2,1.10469,1,111.104,3,-120.707,0\H,2,1.10493,1,110.61,3,119.664,0\C,1,1.53568,2,109.423,3,-57.5019,0\H,6,1.10401,1,111.848,2,58.6211,0\H,6,1.10493,1,110.715,2,-61.0572,0\H,6,1.10523,1,111.076,2,179.256,0\C,1,1.53611,2,108.843,3,-176.535,0\H,10,1.10498,1,111.146,2,60.4498,0\H,10,1.1051,1,111.117,2,-179.499,0\H,10,1.10515,1,110.966,2,-59.5433,0\C,1,1.5458,2,110.988,3,64.947,0\H,14,1.10575,1,108.016,2,65.6108,0\H,14,1.10664,1,108.046,2,179.609,0\C,14,1.52713,1,116.896,2,-57.2498,0\H,17,1.10372,14,112.1,1,-58.8254,0\H,17,1.10372,14,111.963,1,62.4769,0\H,17,1.10384,14,110.336,1,-178.282,0\H,15,2.35215,14,118.154,1,-86.3606,0\C,21,1.1058,15,117.885,14,179.718,0\H,22,1.10665,21,105.781,15,-157.866,0\C,22,1.52713,21,108.703,15,-41.1132,0\H,24,1.1037,22,112.088,21,-178.382,0\H,24,1.10371,22,111.981,21,60.3089,0\H,24,1.10385,22,110.333,21,-58.9307,0\C,22,1.54577,21,108.002,15,86.6377,0\C,28,1.53551,22,110.978,21,-65.2417,0\H,29,1.10388,28,111.889,22,-64.8407,0\H,29,1.1047,28,111.094,22,55.8676,0\H,29,1.10493,28,110.612,22,175.491,0\C,28,1.53566,22,110.7,21,173.037,0\H,33,1.104,28,111.847,22,64.128,0\H,33,1.10493,28,110.714,22,-176.195,0\H,33,1.10524,28,111.076,22,-56.5074,0\C,28,1.53611,22,107.831,21,53.8693,0\H,37,1.10497,28,111.143,22,179.171,0\H,37,1.10509,28,111.122,22,59.1184,0\H,37,1.10516,28,110.97,22,-60.8413,0\\\@

 Total job time:  221.22s(wall), 1036.28s(cpu) 
 Thu Sep 15 16:32:39 2022

        *************************************************************
        *                                                           *
        *  Thank you very much for using Q-Chem.  Have a nice day.  *
        *                                                           *
        *************************************************************


remove work dirs /scratch/user/peterli3819/peterli3819/12613588_1663277315000000691901985/qchem39599.0 -- /scratch/user/peterli3819/peterli3819/12613588_1663277315000000691901985/qchem39599.-1
rm -rf /scratch/user/peterli3819/peterli3819/12613588_1663277315000000691901985/qchem39599
real 221.96
user 1492.10
sys 59.09
