 Entering Gaussian System, Link 0=g16
 Input=gaussian_test.inp
 Output=gaussian_test.log
 Initial command:
 /sw/restricted/lms/sw/Gaussian/g16_B01/g16/l1.exe "/scratch/user/peterchao1/peterchao1/6097809_1659647584000000817307740/Gau-201492.inp" -scrdir="/scratch/user/peterchao1/peterchao1/6097809_1659647584000000817307740/"
 Entering Link 1 = /sw/restricted/lms/sw/Gaussian/g16_B01/g16/l1.exe PID=    201497.
  
 Copyright (c) 1988-2017, Gaussian, Inc.  All Rights Reserved.
  
 This is part of the Gaussian(R) 16 program.  It is based on
 the Gaussian(R) 09 system (copyright 2009, Gaussian, Inc.),
 the Gaussian(R) 03 system (copyright 2003, Gaussian, Inc.),
 the Gaussian(R) 98 system (copyright 1998, Gaussian, Inc.),
 the Gaussian(R) 94 system (copyright 1995, Gaussian, Inc.),
 the Gaussian 92(TM) system (copyright 1992, Gaussian, Inc.),
 the Gaussian 90(TM) system (copyright 1990, Gaussian, Inc.),
 the Gaussian 88(TM) system (copyright 1988, Gaussian, Inc.),
 the Gaussian 86(TM) system (copyright 1986, Carnegie Mellon
 University), and the Gaussian 82(TM) system (copyright 1983,
 Carnegie Mellon University). Gaussian is a federally registered
 trademark of Gaussian, Inc.
  
 This software contains proprietary and confidential information,
 including trade secrets, belonging to Gaussian, Inc.
  
 This software is provided under written license and may be
 used, copied, transmitted, or stored only in accord with that
 written license.
  
 The following legend is applicable only to US Government
 contracts under FAR:
  
                    RESTRICTED RIGHTS LEGEND
  
 Use, reproduction and disclosure by the US Government is
 subject to restrictions as set forth in subparagraphs (a)
 and (c) of the Commercial Computer Software - Restricted
 Rights clause in FAR 52.227-19.
  
 Gaussian, Inc.
 340 Quinnipiac St., Bldg. 40, Wallingford CT 06492
  
  
 ---------------------------------------------------------------
 Warning -- This program may not be used in any manner that
 competes with the business of Gaussian, Inc. or will provide
 assistance to any competitor of Gaussian, Inc.  The licensee
 of this program is prohibited from giving any competitor of
 Gaussian, Inc. access to this program.  By using this program,
 the user acknowledges that Gaussian, Inc. is engaged in the
 business of creating and licensing software in the field of
 computational chemistry and represents and warrants to the
 licensee that it is not a competitor of Gaussian, Inc. and that
 it will not use this program in any manner prohibited above.
 ---------------------------------------------------------------
  

 Cite this work as:
 Gaussian 16, Revision B.01,
 M. J. Frisch, G. W. Trucks, H. B. Schlegel, G. E. Scuseria, 
 M. A. Robb, J. R. Cheeseman, G. Scalmani, V. Barone, 
 G. A. Petersson, H. Nakatsuji, X. Li, M. Caricato, A. V. Marenich, 
 J. Bloino, B. G. Janesko, R. Gomperts, B. Mennucci, H. P. Hratchian, 
 J. V. Ortiz, A. F. Izmaylov, J. L. Sonnenberg, D. Williams-Young, 
 F. Ding, F. Lipparini, F. Egidi, J. Goings, B. Peng, A. Petrone, 
 T. Henderson, D. Ranasinghe, V. G. Zakrzewski, J. Gao, N. Rega, 
 G. Zheng, W. Liang, M. Hada, M. Ehara, K. Toyota, R. Fukuda, 
 J. Hasegawa, M. Ishida, T. Nakajima, Y. Honda, O. Kitao, H. Nakai, 
 T. Vreven, K. Throssell, J. A. Montgomery, Jr., J. E. Peralta, 
 F. Ogliaro, M. J. Bearpark, J. J. Heyd, E. N. Brothers, K. N. Kudin, 
 V. N. Staroverov, T. A. Keith, R. Kobayashi, J. Normand, 
 K. Raghavachari, A. P. Rendell, J. C. Burant, S. S. Iyengar, 
 J. Tomasi, M. Cossi, J. M. Millam, M. Klene, C. Adamo, R. Cammi, 
 J. W. Ochterski, R. L. Martin, K. Morokuma, O. Farkas, 
 J. B. Foresman, and D. J. Fox, Gaussian, Inc., Wallingford CT, 2016.
 
 ******************************************
 Gaussian 16:  ES64L-G16RevB.01 20-Dec-2017
                 4-Aug-2022 
 ******************************************
 %nprocshared=4
 Will use up to    4 processors via shared memory.
 %mem=8000mb
 ----------------------------------------------------------------------
 #T wB97XD/def2svpp opt=tight freq int(grid=ultrafine) scf=(verytight,q
 c)
 ----------------------------------------------------------------------
 --------------
 Comment gs min
 --------------
 Symbolic Z-matrix:
 Charge =  0 Multiplicity = 1
 C                     0.95014   0.1241   -0.01167 
 C                     2.48712   0.10663  -0.0023 
 C                     3.04397   0.87305  -1.21279 
 O                     2.64448   2.2464   -1.20136 
 C                     3.02952   0.65227   1.32753 
 O                     2.59667   1.98882   1.58735 
 N                     2.99361  -1.32327  -0.12483 
 O                     2.16554  -2.2357   -0.22525 
 O                     4.22323  -1.4876   -0.13086 
 H                     0.55651   1.14227   0.07508 
 H                     0.53622  -0.45505   0.82243 
 H                     0.54926  -0.30029  -0.94116 
 H                     2.72313   0.42673  -2.1611 
 H                     4.13967   0.87105  -1.21238 
 H                     1.75842   2.30665  -1.61047 
 H                     4.12497   0.65271   1.35644 
 H                     2.68722   0.03535   2.16653 
 H                     2.91229   2.54751   0.84679 
 

 GradGradGradGradGradGradGradGradGradGradGradGradGradGradGradGradGradGrad
 Initialization pass.
                           ----------------------------
                           !    Initial Parameters    !
                           ! (Angstroms and Degrees)  !
 --------------------------                            --------------------------
 ! Name  Definition              Value          Derivative Info.                !
 --------------------------------------------------------------------------------
 ! R1    R(1,2)                  1.5371         estimate D2E/DX2                !
 ! R2    R(1,10)                 1.0951         estimate D2E/DX2                !
 ! R3    R(1,11)                 1.0966         estimate D2E/DX2                !
 ! R4    R(1,12)                 1.0976         estimate D2E/DX2                !
 ! R5    R(2,3)                  1.5371         estimate D2E/DX2                !
 ! R6    R(2,5)                  1.5363         estimate D2E/DX2                !
 ! R7    R(2,7)                  1.5219         estimate D2E/DX2                !
 ! R8    R(3,4)                  1.4303         estimate D2E/DX2                !
 ! R9    R(3,13)                 1.0961         estimate D2E/DX2                !
 ! R10   R(3,14)                 1.0957         estimate D2E/DX2                !
 ! R11   R(4,15)                 0.9778         estimate D2E/DX2                !
 ! R12   R(5,6)                  1.4287         estimate D2E/DX2                !
 ! R13   R(5,16)                 1.0958         estimate D2E/DX2                !
 ! R14   R(5,17)                 1.0962         estimate D2E/DX2                !
 ! R15   R(6,18)                 0.9799         estimate D2E/DX2                !
 ! R16   R(7,8)                  1.2362         estimate D2E/DX2                !
 ! R17   R(7,9)                  1.2406         estimate D2E/DX2                !
 ! A1    A(2,1,10)             111.6858         estimate D2E/DX2                !
 ! A2    A(2,1,11)             111.5182         estimate D2E/DX2                !
 ! A3    A(2,1,12)             111.467          estimate D2E/DX2                !
 ! A4    A(10,1,11)            107.1649         estimate D2E/DX2                !
 ! A5    A(10,1,12)            107.1756         estimate D2E/DX2                !
 ! A6    A(11,1,12)            107.5817         estimate D2E/DX2                !
 ! A7    A(1,2,3)              110.5955         estimate D2E/DX2                !
 ! A8    A(1,2,5)              110.7478         estimate D2E/DX2                !
 ! A9    A(1,2,7)              110.0575         estimate D2E/DX2                !
 ! A10   A(3,2,5)              112.1273         estimate D2E/DX2                !
 ! A11   A(3,2,7)              106.5289         estimate D2E/DX2                !
 ! A12   A(5,2,7)              106.6115         estimate D2E/DX2                !
 ! A13   A(2,3,4)              111.794          estimate D2E/DX2                !
 ! A14   A(2,3,13)             111.8547         estimate D2E/DX2                !
 ! A15   A(2,3,14)             111.1654         estimate D2E/DX2                !
 ! A16   A(4,3,13)             108.4291         estimate D2E/DX2                !
 ! A17   A(4,3,14)             106.3229         estimate D2E/DX2                !
 ! A18   A(13,3,14)            106.9952         estimate D2E/DX2                !
 ! A19   A(3,4,15)             107.9939         estimate D2E/DX2                !
 ! A20   A(2,5,6)              112.5006         estimate D2E/DX2                !
 ! A21   A(2,5,16)             112.0799         estimate D2E/DX2                !
 ! A22   A(2,5,17)             110.6323         estimate D2E/DX2                !
 ! A23   A(6,5,16)             107.3186         estimate D2E/DX2                !
 ! A24   A(6,5,17)             107.0186         estimate D2E/DX2                !
 ! A25   A(16,5,17)            106.9887         estimate D2E/DX2                !
 ! A26   A(5,6,18)             107.3587         estimate D2E/DX2                !
 ! A27   A(2,7,8)              118.4942         estimate D2E/DX2                !
 ! A28   A(2,7,9)              117.0465         estimate D2E/DX2                !
 ! A29   A(8,7,9)              124.4546         estimate D2E/DX2                !
 ! D1    D(10,1,2,3)           -62.5497         estimate D2E/DX2                !
 ! D2    D(10,1,2,5)            62.3851         estimate D2E/DX2                !
 ! D3    D(10,1,2,7)          -179.9852         estimate D2E/DX2                !
 ! D4    D(11,1,2,3)           177.5703         estimate D2E/DX2                !
 ! D5    D(11,1,2,5)           -57.4949         estimate D2E/DX2                !
 ! D6    D(11,1,2,7)            60.1348         estimate D2E/DX2                !
 ! D7    D(12,1,2,3)            57.3089         estimate D2E/DX2                !
 ! D8    D(12,1,2,5)          -177.7563         estimate D2E/DX2                !
 ! D9    D(12,1,2,7)           -60.1267         estimate D2E/DX2                !
 ! D10   D(1,2,3,4)             61.0485         estimate D2E/DX2                !
 ! D11   D(1,2,3,13)           -60.7681         estimate D2E/DX2                !
 ! D12   D(1,2,3,14)           179.6943         estimate D2E/DX2                !
 ! D13   D(5,2,3,4)            -63.0994         estimate D2E/DX2                !
 ! D14   D(5,2,3,13)           175.084          estimate D2E/DX2                !
 ! D15   D(5,2,3,14)            55.5464         estimate D2E/DX2                !
 ! D16   D(7,2,3,4)           -179.3681         estimate D2E/DX2                !
 ! D17   D(7,2,3,13)            58.8154         estimate D2E/DX2                !
 ! D18   D(7,2,3,14)           -60.7222         estimate D2E/DX2                !
 ! D19   D(1,2,5,6)            -58.7629         estimate D2E/DX2                !
 ! D20   D(1,2,5,16)          -179.8102         estimate D2E/DX2                !
 ! D21   D(1,2,5,17)            60.8721         estimate D2E/DX2                !
 ! D22   D(3,2,5,6)             65.3001         estimate D2E/DX2                !
 ! D23   D(3,2,5,16)           -55.7472         estimate D2E/DX2                !
 ! D24   D(3,2,5,17)          -175.0649         estimate D2E/DX2                !
 ! D25   D(7,2,5,6)           -178.481          estimate D2E/DX2                !
 ! D26   D(7,2,5,16)            60.4716         estimate D2E/DX2                !
 ! D27   D(7,2,5,17)           -58.8461         estimate D2E/DX2                !
 ! D28   D(1,2,7,8)              0.7386         estimate D2E/DX2                !
 ! D29   D(1,2,7,9)            179.9864         estimate D2E/DX2                !
 ! D30   D(3,2,7,8)           -119.1935         estimate D2E/DX2                !
 ! D31   D(3,2,7,9)             60.0542         estimate D2E/DX2                !
 ! D32   D(5,2,7,8)            120.9025         estimate D2E/DX2                !
 ! D33   D(5,2,7,9)            -59.8497         estimate D2E/DX2                !
 ! D34   D(2,3,4,15)           -84.6229         estimate D2E/DX2                !
 ! D35   D(13,3,4,15)           39.1443         estimate D2E/DX2                !
 ! D36   D(14,3,4,15)          153.8915         estimate D2E/DX2                !
 ! D37   D(2,5,6,18)           -59.1531         estimate D2E/DX2                !
 ! D38   D(16,5,6,18)           64.5824         estimate D2E/DX2                !
 ! D39   D(17,5,6,18)          179.1344         estimate D2E/DX2                !
 --------------------------------------------------------------------------------
 Number of steps in this run=     95 maximum allowed number of steps=    108.
 GradGradGradGradGradGradGradGradGradGradGradGradGradGradGradGradGradGrad

                    Distance matrix (angstroms):
                    1          2          3          4          5
     1  C    0.000000
     2  C    1.537108   0.000000
     3  C    2.527398   1.537130   0.000000
     4  O    2.964845   2.457870   1.430319   0.000000
     5  C    2.529079   1.536349   2.549937   3.014099   0.000000
     6  O    2.957213   2.466096   3.047262   2.800989   1.428717
     7  N    2.506682   1.521893   2.451533   3.744777   2.452223
     8  O    2.662981   2.374791   3.378047   4.612092   3.390864
     9  O    3.650329   2.360545   2.851998   4.192992   2.851471
    10  H    1.095053   2.192212   2.813991   2.684776   2.815051
    11  H    1.096571   2.191272   3.492103   3.979738   2.774496
    12  H    1.097617   2.191425   2.770214   3.308063   3.493711
    13  H    2.802700   2.195127   1.096098   2.058758   3.509314
    14  H    3.488945   2.186219   1.095702   2.031576   2.780547
    15  H    2.823651   2.820869   1.966214   0.977805   3.603403
    16  H    3.497242   2.197028   2.796078   3.357684   1.095832
    17  H    2.787450   2.179207   3.499831   4.029051   1.096212
    18  H    3.234177   2.619087   2.657635   2.087417   1.958772
                    6          7          8          9         10
     6  O    0.000000
     7  N    3.749542   0.000000
     8  O    4.617138   1.236249   0.000000
     9  O    4.205168   1.240567   2.191495   0.000000
    10  H    2.676912   3.472507   3.753646   4.517019   0.000000
    11  H    3.286800   2.773062   2.631165   3.945753   1.763625
    12  H    3.978099   2.772676   2.621202   3.945168   1.764589
    13  H    4.062880   2.698528   3.338706   3.168096   3.194799
    14  H    3.386554   2.703934   3.810972   2.596131   3.817086
    15  H    3.321104   4.112072   4.766290   4.760343   2.375173
    16  H    2.043088   2.716364   3.831974   2.608188   3.823017
    17  H    2.039533   2.681428   3.339226   3.155425   3.184236
    18  H    0.979888   3.991691   4.958427   4.353904   2.849550
                   11         12         13         14         15
    11  H    0.000000
    12  H    1.770415   0.000000
    13  H    3.802836   2.596637   0.000000
    14  H    4.345555   3.786376   1.761839   0.000000
    15  H    3.878113   2.950624   2.183565   2.808874   0.000000
    16  H    3.793603   4.355787   3.793324   2.578124   4.139883
    17  H    2.583389   3.786986   4.345440   3.771610   4.504132
    18  H    3.829056   4.109822   3.685226   2.925263   2.725354
                   16         17         18
    16  H    0.000000
    17  H    1.761960   0.000000
    18  H    2.306643   2.846633   0.000000
 Framework group  C1[X(C4H9NO4)]
 Deg. of freedom    48
                         Standard orientation:                         
 ---------------------------------------------------------------------
 Center     Atomic      Atomic             Coordinates (Angstroms)
 Number     Number       Type             X           Y           Z
 ---------------------------------------------------------------------
      1          6           0       -0.144087   -0.216717    1.684058
      2          6           0        0.048176   -0.010231    0.173066
      3          6           0       -0.562134   -1.180648   -0.614596
      4          8           0       -1.969487   -1.297094   -0.387416
      5          6           0       -0.524513    1.345374   -0.268220
      6          8           0       -1.916764    1.472692    0.026162
      7          7           0        1.531643    0.013021   -0.165970
      8          8           0        2.348283   -0.141144    0.749259
      9          8           0        1.835404    0.173225   -1.358057
     10          1           0       -1.204132   -0.237978    1.957904
     11          1           0        0.323579    0.588765    2.262810
     12          1           0        0.296333   -1.164597    2.019196
     13          1           0       -0.089509   -2.135720   -0.357896
     14          1           0       -0.434988   -1.040238   -1.693801
     15          1           0       -2.101522   -1.818705    0.429035
     16          1           0       -0.401827    1.513837   -1.344052
     17          1           0       -0.011583    2.166963    0.245174
     18          1           0       -2.381996    0.748429   -0.442007
 ---------------------------------------------------------------------
 Rotational constants (GHZ):           2.3056844           1.2196880           1.1618952
   144 basis functions,   261 primitive gaussians,   153 cartesian basis functions
    36 alpha electrons       36 beta electrons
       nuclear repulsion energy       510.9486285215 Hartrees.
 NAtoms=   18 NActive=   18 NUniq=   18 SFac= 1.00D+00 NAtFMM=   60 NAOKFM=F Big=F
 Nuclear repulsion after empirical dispersion term =      510.9368993614 Hartrees.
   1 Symmetry operations used in ECPInt.
 ECPInt:  NShTT=    2628 NPrTT=   10584 LenC2=    2595 LenP2D=    8215.
 LDataN:  DoStor=T MaxTD1= 4 Len=   56
 ExpMin= 1.22D-01 ExpMax= 2.27D+03 ExpMxC= 3.41D+02 IAcc=3 IRadAn=         5 AccDes= 0.00D+00
 Harris functional with IExCor= 4639 and IRadAn=       5 diagonalized for initial guess.
 HarFok:  IExCor= 4639 AccDes= 0.00D+00 IRadAn=         5 IDoV= 1 UseB2=F ITyADJ=14
 ICtDFT=  3500011 ScaDFX=  1.000000  1.000000  1.000000  1.000000
 FoFCou: FMM=F IPFlag=           0 FMFlag=      100000 FMFlg1=           0
         NFxFlg=           0 DoJE=T BraDBF=F KetDBF=T FulRan=T
         wScrn=  0.000000 ICntrl=       500 IOpCl=  0 I1Cent=   200000004 NGrid=           0
         NMat0=    1 NMatS0=      1 NMatT0=    0 NMatD0=    1 NMtDS0=    0 NMtDT0=    0
 Petite list used in FoFCou.
     Minimum is close to point  3 DX=  2.26D-02 DF= -3.97D-04 DXR=  4.32D-02 DFR=  1.88D-03 which will be used.
     Accept linear search using points  2 and  3.
     Minimum is close to point  2 DX=  1.37D-02 DF= -1.18D-06 DXR=  2.24D-02 DFR=  5.00D-04 which will be used.
     Minimum is close to point  2 DX=  2.22D-02 DF= -7.16D-07 DXR=  3.56D-02 DFR=  1.27D-03 which will be used.
     Minimum is close to point  2 DX=  5.03D-02 DF= -8.99D-07 DXR=  7.73D-02 DFR=  6.02D-03 which will be used.
     Minimum is close to point  2 DX=  1.43D-03 DF= -1.35D-10 DXR=  1.43D-03 DFR=  2.04D-06 which will be used.
 SCF Done:  E(RwB97XD) =  -512.809059288     a.u. after    8 cycles
            Convg  =    0.1485D-08                    42 Fock formations.
              S**2 =  0.0000                  -V/T =  2.0081

 **********************************************************************

            Population analysis using the SCF Density.

 **********************************************************************

 Orbital symmetries:
       Occupied  (A) (A) (A) (A) (A) (A) (A) (A) (A) (A) (A) (A)
                 (A) (A) (A) (A) (A) (A) (A) (A) (A) (A) (A) (A)
                 (A) (A) (A) (A) (A) (A) (A) (A) (A) (A) (A) (A)
       Virtual   (A) (A) (A) (A) (A) (A) (A) (A) (A) (A) (A) (A)
                 (A) (A) (A) (A) (A) (A) (A) (A) (A) (A) (A) (A)
                 (A) (A) (A) (A) (A) (A) (A) (A) (A) (A) (A) (A)
                 (A) (A) (A) (A) (A) (A) (A) (A) (A) (A) (A) (A)
                 (A) (A) (A) (A) (A) (A) (A) (A) (A) (A) (A) (A)
                 (A) (A) (A) (A) (A) (A) (A) (A) (A) (A) (A) (A)
                 (A) (A) (A) (A) (A) (A) (A) (A) (A) (A) (A) (A)
                 (A) (A) (A) (A) (A) (A) (A) (A) (A) (A) (A) (A)
                 (A) (A) (A) (A) (A) (A) (A) (A) (A) (A) (A) (A)
 The electronic state is 1-A.
 Alpha  occ. eigenvalues --  -19.30156 -19.30010 -19.29465 -19.25594 -14.68832
 Alpha  occ. eigenvalues --  -10.38133 -10.37635 -10.35927 -10.30975  -1.32332
 Alpha  occ. eigenvalues --   -1.15079  -1.14896  -1.11163  -0.95659  -0.81202
 Alpha  occ. eigenvalues --   -0.80190  -0.78182  -0.67092  -0.65780  -0.64320
 Alpha  occ. eigenvalues --   -0.61861  -0.61215  -0.59262  -0.56478  -0.55230
 Alpha  occ. eigenvalues --   -0.51613  -0.51321  -0.48675  -0.47674  -0.46041
 Alpha  occ. eigenvalues --   -0.43994  -0.40621  -0.40092  -0.38982  -0.38678
 Alpha  occ. eigenvalues --   -0.36359
 Alpha virt. eigenvalues --   -0.00982   0.09456   0.14373   0.16305   0.17038
 Alpha virt. eigenvalues --    0.17461   0.18403   0.19377   0.21153   0.23123
 Alpha virt. eigenvalues --    0.24990   0.26498   0.27287   0.28108   0.29564
 Alpha virt. eigenvalues --    0.32598   0.37664   0.43815   0.47333   0.48275
 Alpha virt. eigenvalues --    0.51036   0.57447   0.58957   0.59230   0.63784
 Alpha virt. eigenvalues --    0.65781   0.66644   0.67771   0.68478   0.71550
 Alpha virt. eigenvalues --    0.72488   0.73412   0.74876   0.76464   0.76975
 Alpha virt. eigenvalues --    0.78420   0.79511   0.82048   0.82397   0.83497
 Alpha virt. eigenvalues --    0.88143   0.91740   0.94201   0.98368   0.98730
 Alpha virt. eigenvalues --    1.01059   1.06598   1.07730   1.11941   1.12486
 Alpha virt. eigenvalues --    1.13843   1.17273   1.19061   1.20043   1.23476
 Alpha virt. eigenvalues --    1.24426   1.32676   1.33323   1.42422   1.43900
 Alpha virt. eigenvalues --    1.47318   1.52841   1.61834   1.65778   1.67654
 Alpha virt. eigenvalues --    1.75070   1.82611   1.84705   1.86212   1.87858
 Alpha virt. eigenvalues --    1.88555   1.99957   2.04557   2.05411   2.11906
 Alpha virt. eigenvalues --    2.14336   2.15781   2.20660   2.23471   2.24204
 Alpha virt. eigenvalues --    2.29267   2.39334   2.46352   2.49123   2.53744
 Alpha virt. eigenvalues --    2.64499   2.65584   2.68048   2.70514   2.70945
 Alpha virt. eigenvalues --    2.73237   2.73749   2.74807   2.82162   2.86314
 Alpha virt. eigenvalues --    2.90938   2.98911   3.03915   3.07095   3.08647
 Alpha virt. eigenvalues --    3.11891   3.18582   3.32799   3.40824   3.43491
 Alpha virt. eigenvalues --    3.47132   3.79975   3.81268
          Condensed to atoms (all electrons):
 Mulliken charges:
               1
     1  C   -0.271809
     2  C   -0.201046
     3  C    0.039573
     4  O   -0.499113
     5  C    0.086281
     6  O   -0.505827
     7  N    0.235233
     8  O   -0.236871
     9  O   -0.251538
    10  H    0.137164
    11  H    0.145203
    12  H    0.131847
    13  H    0.124506
    14  H    0.145625
    15  H    0.337953
    16  H    0.124860
    17  H    0.123656
    18  H    0.334303
 Sum of Mulliken charges =   0.00000
 Mulliken charges with hydrogens summed into heavy atoms:
               1
     1  C    0.142404
     2  C   -0.201046
     3  C    0.309704
     4  O   -0.161160
     5  C    0.334798
     6  O   -0.171524
     7  N    0.235233
     8  O   -0.236871
     9  O   -0.251538
 Electronic spatial extent (au):  <R**2>=           1166.0208
 Charge=              0.0000 electrons
 Dipole moment (field-independent basis, Debye):
    X=             -2.0814    Y=             -2.2587    Z=              1.0338  Tot=              3.2407
   1 Symmetry operations used in ECPInt.
 ECPInt:  NShTT=    2628 NPrTT=   10584 LenC2=    2595 LenP2D=    8215.
 LDataN:  DoStor=T MaxTD1= 5 Len=  102
 Calling FoFJK, ICntrl=      2127 FMM=F ISym2X=0 I1Cent= 0 IOpClX= 0 NMat=1 NMatS=1 NMatT=0.

 GradGradGradGradGradGradGradGradGradGradGradGradGradGradGradGradGradGrad
 FormGI is forming the generalized inverse of G from B-inverse, IUseBI=4.
 Internal  Forces:  Max     0.042452603 RMS     0.007885824
 Step number   1 out of a maximum of   95
 All quantities printed in internal units (Hartrees-Bohrs-Radians)
 Mixed Optimization -- RFO/linear search
 Second derivative matrix not updated -- first step.
 ITU=  0
     Eigenvalues ---    0.00230   0.00231   0.00275   0.00275   0.00285
     Eigenvalues ---    0.01291   0.01312   0.04173   0.04696   0.04752
     Eigenvalues ---    0.05358   0.05362   0.05422   0.05496   0.05506
     Eigenvalues ---    0.05762   0.11759   0.11831   0.13933   0.13983
     Eigenvalues ---    0.14815   0.15418   0.16000   0.16000   0.16000
     Eigenvalues ---    0.16000   0.16000   0.21978   0.21991   0.25000
     Eigenvalues ---    0.25000   0.28775   0.28777   0.28845   0.30185
     Eigenvalues ---    0.33947   0.34064   0.34105   0.34117   0.34147
     Eigenvalues ---    0.34162   0.34235   0.40943   0.41174   0.51407
     Eigenvalues ---    0.51813   0.86822   0.88531
 Linear search not attempted -- first point.
 Iteration  1 RMS(Cart)=  0.08214875 RMS(Int)=  0.00354119
 Iteration  2 RMS(Cart)=  0.00451237 RMS(Int)=  0.00029546
 Iteration  3 RMS(Cart)=  0.00001060 RMS(Int)=  0.00029534
 Iteration  4 RMS(Cart)=  0.00000000 RMS(Int)=  0.00029534
 Variable       Old X    -DE/DX   Delta X   Delta X   Delta X     New X
                                 (Linear)    (Quad)   (Total)
    R1        2.90471  -0.01065   0.00000  -0.03536  -0.03536   2.86935
    R2        2.06935   0.00364   0.00000   0.01022   0.01022   2.07957
    R3        2.07222   0.00257   0.00000   0.00727   0.00727   2.07949
    R4        2.07420   0.00337   0.00000   0.00954   0.00954   2.08374
    R5        2.90475   0.00196   0.00000   0.00652   0.00652   2.91128
    R6        2.90328   0.00097   0.00000   0.00322   0.00322   2.90649
    R7        2.87596  -0.00659   0.00000  -0.02089  -0.02089   2.85507
    R8        2.70291  -0.01152   0.00000  -0.02725  -0.02725   2.67567
    R9        2.07133   0.00637   0.00000   0.01795   0.01795   2.08927
   R10        2.07058   0.00323   0.00000   0.00910   0.00910   2.07967
   R11        1.84778  -0.01105   0.00000  -0.02078  -0.02078   1.82700
   R12        2.69988  -0.01809   0.00000  -0.04255  -0.04255   2.65734
   R13        2.07082   0.00651   0.00000   0.01834   0.01834   2.08917
   R14        2.07154   0.00372   0.00000   0.01049   0.01049   2.08203
   R15        1.85172  -0.00888   0.00000  -0.01683  -0.01683   1.83489
   R16        2.33617  -0.04245   0.00000  -0.04723  -0.04723   2.28894
   R17        2.34433  -0.04220   0.00000  -0.04787  -0.04787   2.29647
    A1        1.94929  -0.00844   0.00000  -0.04998  -0.05027   1.89901
    A2        1.94636  -0.00053   0.00000  -0.00637  -0.00665   1.93971
    A3        1.94547  -0.00096   0.00000  -0.00090  -0.00088   1.94458
    A4        1.87038   0.00359   0.00000   0.01205   0.01145   1.88183
    A5        1.87057   0.00589   0.00000   0.04010   0.04012   1.91068
    A6        1.87765   0.00116   0.00000   0.00920   0.00922   1.88687
    A7        1.93026   0.00414   0.00000   0.03214   0.03222   1.96248
    A8        1.93291  -0.00039   0.00000   0.00743   0.00749   1.94040
    A9        1.92087  -0.00115   0.00000  -0.00414  -0.00394   1.91693
   A10        1.95699  -0.00254   0.00000  -0.01772  -0.01802   1.93897
   A11        1.85928  -0.00230   0.00000  -0.02442  -0.02448   1.83480
   A12        1.86072   0.00206   0.00000   0.00429   0.00398   1.86470
   A13        1.95117  -0.00059   0.00000  -0.00097  -0.00098   1.95020
   A14        1.95223  -0.00578   0.00000  -0.03470  -0.03506   1.91717
   A15        1.94020  -0.00206   0.00000  -0.02761  -0.02806   1.91214
   A16        1.89244   0.00653   0.00000   0.06073   0.06088   1.95332
   A17        1.85568   0.00003   0.00000  -0.00642  -0.00671   1.84897
   A18        1.86742   0.00247   0.00000   0.01281   0.01184   1.87926
   A19        1.88485   0.00522   0.00000   0.03006   0.03006   1.91491
   A20        1.96351  -0.00613   0.00000  -0.02594  -0.02623   1.93727
   A21        1.95616  -0.00748   0.00000  -0.04379  -0.04374   1.91243
   A22        1.93090   0.00067   0.00000  -0.01881  -0.01981   1.91108
   A23        1.87306   0.01182   0.00000   0.09779   0.09799   1.97106
   A24        1.86783  -0.00028   0.00000  -0.02157  -0.02267   1.84516
   A25        1.86730   0.00235   0.00000   0.01797   0.01712   1.88442
   A26        1.87376   0.00034   0.00000   0.00198   0.00198   1.87574
   A27        2.06811   0.00346   0.00000   0.01332   0.01296   2.08108
   A28        2.04285  -0.00460   0.00000  -0.01727  -0.01762   2.02523
   A29        2.17214   0.00115   0.00000   0.00454   0.00419   2.17633
    D1       -1.09170  -0.00126   0.00000  -0.03321  -0.03315  -1.12485
    D2        1.08883  -0.00183   0.00000  -0.02742  -0.02709   1.06174
    D3       -3.14133  -0.00024   0.00000  -0.02016  -0.02005   3.12180
    D4        3.09919   0.00029   0.00000  -0.01007  -0.01035   3.08884
    D5       -1.00347  -0.00027   0.00000  -0.00428  -0.00428  -1.00775
    D6        1.04955   0.00131   0.00000   0.00298   0.00276   1.05231
    D7        1.00023  -0.00016   0.00000  -0.01682  -0.01693   0.98330
    D8       -3.10243  -0.00073   0.00000  -0.01103  -0.01086  -3.11330
    D9       -1.04941   0.00086   0.00000  -0.00377  -0.00383  -1.05324
   D10        1.06550   0.00301   0.00000   0.08036   0.08025   1.14575
   D11       -1.06060  -0.00086   0.00000   0.02735   0.02769  -1.03292
   D12        3.13626   0.00129   0.00000   0.05319   0.05308  -3.09385
   D13       -1.10129   0.00229   0.00000   0.05962   0.05966  -1.04163
   D14        3.05579  -0.00158   0.00000   0.00661   0.00710   3.06289
   D15        0.96947   0.00057   0.00000   0.03246   0.03249   1.00196
   D16       -3.13056   0.00254   0.00000   0.07853   0.07816  -3.05240
   D17        1.02652  -0.00133   0.00000   0.02552   0.02560   1.05212
   D18       -1.05980   0.00082   0.00000   0.05136   0.05099  -1.00881
   D19       -1.02561   0.00310   0.00000   0.10324   0.10306  -0.92255
   D20       -3.13828  -0.00241   0.00000   0.02658   0.02688  -3.11140
   D21        1.06242  -0.00089   0.00000   0.04546   0.04561   1.10803
   D22        1.13970   0.00634   0.00000   0.13774   0.13743   1.27713
   D23       -0.97297   0.00083   0.00000   0.06108   0.06125  -0.91172
   D24       -3.05546   0.00235   0.00000   0.07996   0.07998  -2.97548
   D25       -3.11508   0.00346   0.00000   0.10148   0.10115  -3.01393
   D26        1.05543  -0.00205   0.00000   0.02482   0.02498   1.08041
   D27       -1.02706  -0.00053   0.00000   0.04369   0.04370  -0.98335
   D28        0.01289   0.00041   0.00000  -0.03020  -0.03015  -0.01726
   D29        3.14135   0.00115   0.00000   0.01686   0.01690  -3.12493
   D30       -2.08032  -0.00256   0.00000  -0.05200  -0.05209  -2.13241
   D31        1.04814  -0.00181   0.00000  -0.00494  -0.00504   1.04311
   D32        2.11015   0.00052   0.00000  -0.02103  -0.02098   2.08917
   D33       -1.04457   0.00126   0.00000   0.02603   0.02607  -1.01850
   D34       -1.47695   0.00126   0.00000   0.03223   0.03206  -1.44488
   D35        0.68320  -0.00186   0.00000   0.03035   0.03033   0.71352
   D36        2.68591   0.00412   0.00000   0.07085   0.07104   2.75695
   D37       -1.03242   0.00267   0.00000   0.05881   0.05925  -0.97317
   D38        1.12718  -0.00243   0.00000   0.05566   0.05527   1.18244
   D39        3.12648   0.00580   0.00000   0.11279   0.11275  -3.04396
         Item               Value     Threshold  Converged?
 Maximum Force            0.042453     0.000015     NO 
 RMS     Force            0.007886     0.000010     NO 
 Maximum Displacement     0.465582     0.000060     NO 
 RMS     Displacement     0.081817     0.000040     NO 
 GradGradGradGradGradGradGradGradGradGradGradGradGradGradGradGradGradGrad

                    Distance matrix (angstroms):
                    1          2          3          4          5
     1  C    0.000000
     2  C    1.518394   0.000000
     3  C    2.542608   1.540581   0.000000
     4  O    3.028373   2.448249   1.415902   0.000000
     5  C    2.521591   1.538051   2.538620   2.956386   0.000000
     6  O    2.862513   2.427550   3.072189   2.809467   1.406202
     7  N    2.478854   1.510839   2.422965   3.704860   2.448381
     8  O    2.643878   2.353172   3.357891   4.602558   3.364279
     9  O    3.591899   2.317605   2.784408   4.086745   2.805702
    10  H    1.100461   2.143316   2.809065   2.740370   2.754029
    11  H    1.100417   2.172897   3.502347   4.035012   2.764765
    12  H    1.102666   2.178094   2.785074   3.388317   3.491088
    13  H    2.789874   2.179956   1.105596   2.096604   3.494895
    14  H    3.485053   2.172473   1.100516   2.017843   2.756004
    15  H    2.895333   2.810223   1.965482   0.966807   3.520868
    16  H    3.474853   2.174202   2.717192   3.209440   1.105539
    17  H    2.791759   2.170398   3.484524   4.000314   1.101762
    18  H    3.050554   2.545662   2.667093   2.035250   1.933936
                    6          7          8          9         10
     6  O    0.000000
     7  N    3.705263   0.000000
     8  O    4.528052   1.211255   0.000000
     9  O    4.157175   1.215237   2.149332   0.000000
    10  H    2.520569   3.428866   3.734288   4.432172   0.000000
    11  H    3.166290   2.742566   2.602687   3.882173   1.778527
    12  H    3.897094   2.748160   2.619528   3.896295   1.798877
    13  H    4.067167   2.653628   3.304068   3.107272   3.185265
    14  H    3.461149   2.625946   3.730362   2.471011   3.806965
    15  H    3.222440   4.108381   4.812769   4.694722   2.420357
    16  H    2.100275   2.694720   3.790000   2.544626   3.749480
    17  H    2.007682   2.645133   3.278815   3.068042   3.159142
    18  H    0.970983   3.947185   4.856533   4.344976   2.562252
                   11         12         13         14         15
    11  H    0.000000
    12  H    1.783574   0.000000
    13  H    3.786723   2.577143   0.000000
    14  H    4.324427   3.781468   1.781086   0.000000
    15  H    3.945431   3.073371   2.260909   2.812942   0.000000
    16  H    3.784850   4.328064   3.723441   2.472302   3.985092
    17  H    2.582492   3.791498   4.318245   3.717930   4.463029
    18  H    3.637876   3.938046   3.667403   3.064085   2.494618
                   16         17         18
    16  H    0.000000
    17  H    1.785397   0.000000
    18  H    2.389742   2.814732   0.000000
 Framework group  C1[X(C4H9NO4)]
 Deg. of freedom    48
                         Standard orientation:                         
 ---------------------------------------------------------------------
 Center     Atomic      Atomic             Coordinates (Angstroms)
 Number     Number       Type             X           Y           Z
 ---------------------------------------------------------------------
      1          6           0       -0.130659    0.360741    1.654139
      2          6           0        0.044024    0.040109    0.180299
      3          6           0       -0.542437   -1.333829   -0.196193
      4          8           0       -1.950149   -1.361909   -0.046737
      5          6           0       -0.542646    1.153509   -0.703871
      6          8           0       -1.874611    1.430336   -0.348005
      7          7           0        1.514632   -0.054236   -0.152939
      8          8           0        2.332495    0.140079    0.719116
      9          8           0        1.784392   -0.290255   -1.314114
     10          1           0       -1.205644    0.445621    1.873726
     11          1           0        0.342200    1.320842    1.910125
     12          1           0        0.314167   -0.421195    2.291772
     13          1           0       -0.048802   -2.127298    0.394633
     14          1           0       -0.347299   -1.538785   -1.259700
     15          1           0       -2.176675   -1.534785    0.877122
     16          1           0       -0.429404    0.879134   -1.768817
     17          1           0        0.012664    2.089653   -0.533153
     18          1           0       -2.370343    0.597280   -0.403468
 ---------------------------------------------------------------------
 Rotational constants (GHZ):           2.3359547           1.2541633           1.1846771
   144 basis functions,   261 primitive gaussians,   153 cartesian basis functions
    36 alpha electrons       36 beta electrons
       nuclear repulsion energy       516.0817220381 Hartrees.
 NAtoms=   18 NActive=   18 NUniq=   18 SFac= 1.00D+00 NAtFMM=   60 NAOKFM=F Big=F
 Nuclear repulsion after empirical dispersion term =      516.0698598773 Hartrees.
   1 Symmetry operations used in ECPInt.
 ECPInt:  NShTT=    2628 NPrTT=   10584 LenC2=    2600 LenP2D=    8239.
 LDataN:  DoStor=T MaxTD1= 4 Len=   56
 Initial guess from the checkpoint file:  "/scratch/user/peterchao1/peterchao1/6097809_1659647584000000817307740/Gau-201497.chk"
 B after Tr=    -0.000000    0.000000    0.000000
         Rot=    0.987060    0.160338   -0.002078   -0.000067 Ang=  18.45 deg.
 ExpMin= 1.22D-01 ExpMax= 2.27D+03 ExpMxC= 3.41D+02 IAcc=3 IRadAn=         5 AccDes= 0.00D+00
 Harris functional with IExCor= 4639 and IRadAn=       5 diagonalized for initial guess.
 HarFok:  IExCor= 4639 AccDes= 0.00D+00 IRadAn=         5 IDoV= 1 UseB2=F ITyADJ=14
 ICtDFT=  3500011 ScaDFX=  1.000000  1.000000  1.000000  1.000000
 FoFCou: FMM=F IPFlag=           0 FMFlag=      100000 FMFlg1=           0
         NFxFlg=           0 DoJE=T BraDBF=F KetDBF=T FulRan=T
         wScrn=  0.000000 ICntrl=       500 IOpCl=  0 I1Cent=   200000004 NGrid=           0
         NMat0=    1 NMatS0=      1 NMatT0=    0 NMatD0=    1 NMtDS0=    0 NMtDT0=    0
 Petite list used in FoFCou.
     Minimum is close to point  4 DX=  3.03D-02 DF= -6.90D-06 DXR=  2.46D-02 DFR=  6.06D-04 which will be used.
     Accept linear search using points  1 and  2.
     Minimum is close to point  2 DX= -3.76D-02 DF= -1.71D-06 DXR=  3.91D-02 DFR=  1.53D-03 which will be used.
     Accept linear search using points  1 and  2.
     Accept linear search using points  1 and  2.
     Accept linear search using points  1 and  2.
     Accept linear search using points  1 and  2.
     Minimum is close to point  2 DX= -1.22D-04 DF= -1.36D-12 DXR=  1.22D-04 DFR=  1.46D-08 which will be used.
 SCF Done:  E(RwB97XD) =  -512.815750996     a.u. after   11 cycles
            Convg  =    0.2735D-08                    48 Fock formations.
              S**2 =  0.0000                  -V/T =  2.0076
   1 Symmetry operations used in ECPInt.
 ECPInt:  NShTT=    2628 NPrTT=   10584 LenC2=    2600 LenP2D=    8239.
 LDataN:  DoStor=T MaxTD1= 5 Len=  102
 Calling FoFJK, ICntrl=      2127 FMM=F ISym2X=0 I1Cent= 0 IOpClX= 0 NMat=1 NMatS=1 NMatT=0.

 GradGradGradGradGradGradGradGradGradGradGradGradGradGradGradGradGradGrad
 Using GEDIIS/GDIIS optimizer.
 FormGI is forming the generalized inverse of G from B-inverse, IUseBI=4.
 Internal  Forces:  Max     0.007087183 RMS     0.001670366
 Step number   2 out of a maximum of   95
 All quantities printed in internal units (Hartrees-Bohrs-Radians)
 Mixed Optimization -- RFO/linear search
 Trust test= 8.63D-01 RLast= 3.89D-01 DXMaxT set to 5.05D-01
 ITU=  1  0
 Use linear search instead of GDIIS.
     Eigenvalues ---    0.00230   0.00237   0.00275   0.00277   0.00334
     Eigenvalues ---    0.01291   0.01388   0.04054   0.04814   0.05262
     Eigenvalues ---    0.05362   0.05426   0.05674   0.05804   0.05877
     Eigenvalues ---    0.06048   0.10984   0.11502   0.13886   0.14243
     Eigenvalues ---    0.14775   0.15531   0.15925   0.16000   0.16000
     Eigenvalues ---    0.16000   0.16455   0.22012   0.22407   0.24967
     Eigenvalues ---    0.25168   0.28076   0.28781   0.29237   0.30912
     Eigenvalues ---    0.33729   0.33967   0.34070   0.34110   0.34140
     Eigenvalues ---    0.34205   0.34241   0.38383   0.41012   0.51532
     Eigenvalues ---    0.51781   0.80143   0.87705
 Quartic linear search produced a step of -0.03520.
 Iteration  1 RMS(Cart)=  0.05629739 RMS(Int)=  0.01190694
 Iteration  2 RMS(Cart)=  0.01214218 RMS(Int)=  0.00582710
 Iteration  3 RMS(Cart)=  0.00031762 RMS(Int)=  0.00581876
 Iteration  4 RMS(Cart)=  0.00000599 RMS(Int)=  0.00581875
 Iteration  5 RMS(Cart)=  0.00000015 RMS(Int)=  0.00581875
 Variable       Old X    -DE/DX   Delta X   Delta X   Delta X     New X
                                 (Linear)    (Quad)   (Total)
    R1        2.86935   0.00056   0.00124  -0.00949  -0.00825   2.86110
    R2        2.07957   0.00004  -0.00036   0.00341   0.00305   2.08262
    R3        2.07949  -0.00012  -0.00026   0.00200   0.00174   2.08123
    R4        2.08374  -0.00042  -0.00034   0.00188   0.00154   2.08528
    R5        2.91128   0.00177  -0.00023   0.00802   0.00779   2.91907
    R6        2.90649   0.00599  -0.00011   0.02105   0.02094   2.92743
    R7        2.85507   0.00406   0.00074   0.00624   0.00698   2.86205
    R8        2.67567  -0.00412   0.00096  -0.01849  -0.01753   2.65814
    R9        2.08927   0.00081  -0.00063   0.00807   0.00744   2.09671
   R10        2.07967  -0.00066  -0.00032   0.00105   0.00073   2.08040
   R11        1.82700   0.00008   0.00073  -0.00653  -0.00580   1.82120
   R12        2.65734  -0.00709   0.00150  -0.03031  -0.02882   2.62852
   R13        2.08917   0.00039  -0.00065   0.00700   0.00636   2.09552
   R14        2.08203   0.00074  -0.00037   0.00548   0.00511   2.08713
   R15        1.83489   0.00127   0.00059  -0.00302  -0.00243   1.83246
   R16        2.28894  -0.00478   0.00166  -0.02044  -0.01877   2.27017
   R17        2.29647  -0.00208   0.00168  -0.01773  -0.01604   2.28042
    A1        1.89901   0.00033   0.00177  -0.01417  -0.01243   1.88659
    A2        1.93971  -0.00025   0.00023  -0.00487  -0.00467   1.93504
    A3        1.94458  -0.00014   0.00003   0.00000   0.00004   1.94462
    A4        1.88183  -0.00034  -0.00040  -0.00083  -0.00130   1.88053
    A5        1.91068   0.00019  -0.00141   0.01632   0.01492   1.92560
    A6        1.88687   0.00021  -0.00032   0.00406   0.00373   1.89061
    A7        1.96248  -0.00135  -0.00113  -0.00082  -0.00193   1.96054
    A8        1.94040   0.00202  -0.00026   0.01230   0.01198   1.95239
    A9        1.91693  -0.00035   0.00014   0.00249   0.00260   1.91952
   A10        1.93897  -0.00133   0.00063  -0.01953  -0.01886   1.92010
   A11        1.83480   0.00189   0.00086   0.00670   0.00754   1.84233
   A12        1.86470  -0.00090  -0.00014  -0.00131  -0.00146   1.86324
   A13        1.95020  -0.00144   0.00003  -0.00828  -0.00827   1.94193
   A14        1.91717   0.00057   0.00123  -0.01338  -0.01217   1.90500
   A15        1.91214  -0.00097   0.00099  -0.01257  -0.01156   1.90059
   A16        1.95332  -0.00052  -0.00214   0.00763   0.00536   1.95868
   A17        1.84897   0.00197   0.00024   0.01625   0.01644   1.86541
   A18        1.87926   0.00049  -0.00042   0.01171   0.01119   1.89045
   A19        1.91491   0.00018  -0.00106   0.01072   0.00966   1.92457
   A20        1.93727   0.00273   0.00092   0.00434   0.00528   1.94256
   A21        1.91243  -0.00081   0.00154  -0.02737  -0.02595   1.88648
   A22        1.91108  -0.00201   0.00070  -0.01190  -0.01133   1.89975
   A23        1.97106  -0.00228  -0.00345   0.00868   0.00517   1.97623
   A24        1.84516   0.00183   0.00080   0.02322   0.02405   1.86920
   A25        1.88442   0.00052  -0.00060   0.00425   0.00332   1.88774
   A26        1.87574  -0.00159  -0.00007  -0.00886  -0.00893   1.86682
   A27        2.08108  -0.00173  -0.00046   0.00220  -0.02760   2.05348
   A28        2.02523   0.00108   0.00062   0.00316  -0.02573   1.99950
   A29        2.17633   0.00073  -0.00015   0.00883  -0.02369   2.15264
    D1       -1.12485   0.00055   0.00117  -0.01156  -0.01036  -1.13522
    D2        1.06174  -0.00067   0.00095  -0.02850  -0.02755   1.03419
    D3        3.12180  -0.00075   0.00071  -0.02099  -0.02023   3.10157
    D4        3.08884   0.00091   0.00036   0.00125   0.00160   3.09044
    D5       -1.00775  -0.00031   0.00015  -0.01569  -0.01559  -1.02335
    D6        1.05231  -0.00039  -0.00010  -0.00818  -0.00827   1.04403
    D7        0.98330   0.00091   0.00060  -0.00058   0.00002   0.98332
    D8       -3.11330  -0.00030   0.00038  -0.01752  -0.01717  -3.13046
    D9       -1.05324  -0.00039   0.00013  -0.01001  -0.00985  -1.06308
   D10        1.14575  -0.00059  -0.00282  -0.00042  -0.00319   1.14256
   D11       -1.03292   0.00070  -0.00097   0.00550   0.00453  -1.02839
   D12       -3.09385   0.00036  -0.00187   0.00672   0.00488  -3.08897
   D13       -1.04163  -0.00121  -0.00210  -0.00086  -0.00299  -1.04462
   D14        3.06289   0.00009  -0.00025   0.00506   0.00473   3.06762
   D15        1.00196  -0.00026  -0.00114   0.00628   0.00508   1.00704
   D16       -3.05240  -0.00056  -0.00275   0.00635   0.00365  -3.04875
   D17        1.05212   0.00073  -0.00090   0.01227   0.01137   1.06349
   D18       -1.00881   0.00039  -0.00179   0.01349   0.01172  -0.99709
   D19       -0.92255  -0.00127  -0.00363  -0.04410  -0.04767  -0.97021
   D20       -3.11140   0.00031  -0.00095  -0.03853  -0.03939   3.13240
   D21        1.10803   0.00135  -0.00161  -0.02040  -0.02209   1.08594
   D22        1.27713  -0.00251  -0.00484  -0.05068  -0.05552   1.22161
   D23       -0.91172  -0.00093  -0.00216  -0.04511  -0.04725  -0.95896
   D24       -2.97548   0.00011  -0.00282  -0.02699  -0.02994  -3.00542
   D25       -3.01393  -0.00144  -0.00356  -0.05333  -0.05684  -3.07076
   D26        1.08041   0.00013  -0.00088  -0.04776  -0.04856   1.03185
   D27       -0.98335   0.00118  -0.00154  -0.02964  -0.03126  -1.01461
   D28       -0.01726   0.00027   0.00106   0.18826   0.18531   0.16805
   D29       -3.12493  -0.00211  -0.00059  -0.25046  -0.24699   2.91126
   D30       -2.13241   0.00095   0.00183   0.18398   0.18176  -1.95064
   D31        1.04311  -0.00143   0.00018  -0.25473  -0.25054   0.79257
   D32        2.08917   0.00197   0.00074   0.20369   0.20038   2.28955
   D33       -1.01850  -0.00041  -0.00092  -0.23503  -0.23192  -1.25042
   D34       -1.44488   0.00024  -0.00113   0.03202   0.03088  -1.41400
   D35        0.71352  -0.00049  -0.00107   0.01398   0.01280   0.72632
   D36        2.75695   0.00100  -0.00250   0.04176   0.03937   2.79632
   D37       -0.97317  -0.00021  -0.00209   0.00333   0.00131  -0.97186
   D38        1.18244  -0.00088  -0.00195  -0.02291  -0.02493   1.15751
   D39       -3.04396  -0.00034  -0.00397   0.00153  -0.00243  -3.04639
         Item               Value     Threshold  Converged?
 Maximum Force            0.007087     0.000015     NO 
 RMS     Force            0.001670     0.000010     NO 
 Maximum Displacement     0.322540     0.000060     NO 
 RMS     Displacement     0.062477     0.000040     NO 
 GradGradGradGradGradGradGradGradGradGradGradGradGradGradGradGradGradGrad

                    Distance matrix (angstroms):
                    1          2          3          4          5
     1  C    0.000000
     2  C    1.514029   0.000000
     3  C    2.540790   1.544704   0.000000
     4  O    3.012050   2.437366   1.406627   0.000000
     5  C    2.537511   1.549130   2.534537   2.933068   0.000000
     6  O    2.907026   2.428994   3.028409   2.741538   1.390953
     7  N    2.480560   1.514533   2.436164   3.703068   2.458943
     8  O    2.622376   2.329379   3.271598   4.515281   3.428592
     9  O    3.562140   2.295546   2.652005   3.975160   2.905988
    10  H    1.102074   2.131492   2.800929   2.717512   2.746801
    11  H    1.101340   2.166398   3.500592   4.018525   2.784317
    12  H    1.103482   2.174897   2.781977   3.372384   3.506485
    13  H    2.777464   2.177509   1.109532   2.095296   3.494023
    14  H    3.477440   2.167839   1.100900   2.022350   2.737708
    15  H    2.863450   2.788634   1.961295   0.963737   3.485061
    16  H    3.476450   2.167058   2.706793   3.209828   1.108903
    17  H    2.792406   2.173730   3.483177   3.971878   1.104464
    18  H    3.099901   2.536966   2.600192   1.960132   1.913633
                    6          7          8          9         10
     6  O    0.000000
     7  N    3.706377   0.000000
     8  O    4.582333   1.201321   0.000000
     9  O    4.199741   1.206747   2.119623   0.000000
    10  H    2.549648   3.426107   3.712123   4.395703   0.000000
    11  H    3.234646   2.736326   2.643958   3.909151   1.779732
    12  H    3.931827   2.754340   2.543218   3.809659   1.810308
    13  H    4.034426   2.664599   3.162920   2.912988   3.175189
    14  H    3.393440   2.624566   3.643595   2.325011   3.794128
    15  H    3.154055   4.102963   4.710629   4.570084   2.379671
    16  H    2.093118   2.659742   3.800733   2.613795   3.747629
    17  H    2.014424   2.661335   3.405411   3.249216   3.130680
    18  H    0.969696   3.925177   4.851493   4.302712   2.622735
                   11         12         13         14         15
    11  H    0.000000
    12  H    1.787393   0.000000
    13  H    3.774743   2.559996   0.000000
    14  H    4.314180   3.773828   1.791845   0.000000
    15  H    3.911671   3.050066   2.269394   2.822022   0.000000
    16  H    3.785311   4.322464   3.709247   2.442572   3.974462
    17  H    2.585769   3.798495   4.318788   3.708917   4.414658
    18  H    3.705839   3.972597   3.615032   2.963560   2.443628
                   16         17         18
    16  H    0.000000
    17  H    1.792461   0.000000
    18  H    2.365722   2.813940   0.000000
 Framework group  C1[X(C4H9NO4)]
 Deg. of freedom    48
                         Standard orientation:                         
 ---------------------------------------------------------------------
 Center     Atomic      Atomic             Coordinates (Angstroms)
 Number     Number       Type             X           Y           Z
 ---------------------------------------------------------------------
      1          6           0       -0.095776    0.491292    1.630216
      2          6           0        0.053580    0.106947    0.173420
      3          6           0       -0.457423   -1.322614   -0.111785
      4          8           0       -1.845755   -1.418444    0.093036
      5          6           0       -0.650154    1.118651   -0.765205
      6          8           0       -1.992143    1.268465   -0.431481
      7          7           0        1.518162    0.099307   -0.212263
      8          8           0        2.327436    0.206492    0.669077
      9          8           0        1.755655   -0.431273   -1.269769
     10          1           0       -1.171710    0.527565    1.866052
     11          1           0        0.322705    1.492825    1.816646
     12          1           0        0.417570   -0.227764    2.291356
     13          1           0        0.109662   -2.043207    0.512891
     14          1           0       -0.273140   -1.562543   -1.170300
     15          1           0       -2.038227   -1.525511    1.031269
     16          1           0       -0.494207    0.784142   -1.810888
     17          1           0       -0.173406    2.107698   -0.645467
     18          1           0       -2.389293    0.384078   -0.452492
 ---------------------------------------------------------------------
 Rotational constants (GHZ):           2.3794290           1.2619975           1.1940253
   144 basis functions,   261 primitive gaussians,   153 cartesian basis functions
    36 alpha electrons       36 beta electrons
       nuclear repulsion energy       518.3905826777 Hartrees.
 NAtoms=   18 NActive=   18 NUniq=   18 SFac= 1.00D+00 NAtFMM=   60 NAOKFM=F Big=F
 Nuclear repulsion after empirical dispersion term =      518.3787284655 Hartrees.
   1 Symmetry operations used in ECPInt.
 ECPInt:  NShTT=    2628 NPrTT=   10584 LenC2=    2600 LenP2D=    8253.
 LDataN:  DoStor=T MaxTD1= 4 Len=   56
 Initial guess from the checkpoint file:  "/scratch/user/peterchao1/peterchao1/6097809_1659647584000000817307740/Gau-201497.chk"
 B after Tr=     0.000000   -0.000000   -0.000000
         Rot=    0.998964    0.039111   -0.009319   -0.021303 Ang=   5.22 deg.
 ExpMin= 1.22D-01 ExpMax= 2.27D+03 ExpMxC= 3.41D+02 IAcc=3 IRadAn=         5 AccDes= 0.00D+00
 Harris functional with IExCor= 4639 and IRadAn=       5 diagonalized for initial guess.
 HarFok:  IExCor= 4639 AccDes= 0.00D+00 IRadAn=         5 IDoV= 1 UseB2=F ITyADJ=14
 ICtDFT=  3500011 ScaDFX=  1.000000  1.000000  1.000000  1.000000
 FoFCou: FMM=F IPFlag=           0 FMFlag=      100000 FMFlg1=           0
         NFxFlg=           0 DoJE=T BraDBF=F KetDBF=T FulRan=T
         wScrn=  0.000000 ICntrl=       500 IOpCl=  0 I1Cent=   200000004 NGrid=           0
         NMat0=    1 NMatS0=      1 NMatT0=    0 NMatD0=    1 NMtDS0=    0 NMtDT0=    0
 Petite list used in FoFCou.
     Accept linear search using points  3 and  4.
     Accept linear search using points  2 and  3.
     Accept linear search using points  1 and  2.
     Minimum is close to point  2 DX= -1.21D-02 DF= -7.94D-07 DXR=  1.22D-02 DFR=  1.49D-04 which will be used.
     Accept linear search using points  1 and  2.
     Accept linear search using points  1 and  2.
     Accept linear search using points  1 and  2.
     Accept linear search using points  1 and  2.
     Accept linear search using points  1 and  2.
     Accept linear search using points  1 and  2.
     Accept linear search using points  1 and  2.
     Accept linear search using points  1 and  2.
     Accept linear search using points  1 and  2.
     Minimum is close to point  2 DX= -3.51D-03 DF= -4.15D-09 DXR=  3.52D-03 DFR=  1.24D-05 which will be used.
     Minimum is close to point  2 DX=  6.14D-05 DF=  0.00D+00 DXR=  6.14D-05 DFR=  0.00D+00 which will be used.
 SCF Done:  E(RwB97XD) =  -512.805785770     a.u. after   21 cycles
            Convg  =    0.1574D-07                    77 Fock formations.
              S**2 =  0.0000                  -V/T =  2.0073
   1 Symmetry operations used in ECPInt.
 ECPInt:  NShTT=    2628 NPrTT=   10584 LenC2=    2600 LenP2D=    8253.
 LDataN:  DoStor=T MaxTD1= 5 Len=  102
 Calling FoFJK, ICntrl=      2127 FMM=F ISym2X=0 I1Cent= 0 IOpClX= 0 NMat=1 NMatS=1 NMatT=0.

 GradGradGradGradGradGradGradGradGradGradGradGradGradGradGradGradGradGrad
 Using GEDIIS/GDIIS optimizer.
 FormGI is forming the generalized inverse of G from B-inverse, IUseBI=4.
 Internal  Forces:  Max     0.019203439 RMS     0.005841557
 Step number   3 out of a maximum of   95
 All quantities printed in internal units (Hartrees-Bohrs-Radians)
 Mixed Optimization -- RFO/linear search
 Trust test=-6.26D+00 RLast= 5.62D-01 DXMaxT set to 2.52D-01
 ITU= -1  1  0
 Use linear search instead of GDIIS.
     Eigenvalues ---    0.00233   0.00273   0.00278   0.00319   0.01266
     Eigenvalues ---    0.01376   0.03954   0.04610   0.04895   0.05245
     Eigenvalues ---    0.05444   0.05744   0.05886   0.05909   0.06092
     Eigenvalues ---    0.08066   0.10547   0.11381   0.13830   0.14058
     Eigenvalues ---    0.14628   0.15108   0.15929   0.16000   0.16000
     Eigenvalues ---    0.16014   0.16176   0.21648   0.22193   0.24852
     Eigenvalues ---    0.25550   0.26313   0.28820   0.28859   0.30210
     Eigenvalues ---    0.33823   0.33959   0.34066   0.34109   0.34141
     Eigenvalues ---    0.34191   0.34234   0.37436   0.41021   0.51433
     Eigenvalues ---    0.51770   0.83131   0.87571
 Quartic linear search produced a step of -0.88460.
 Iteration  1 RMS(Cart)=  0.06353758 RMS(Int)=  0.00833146
 Iteration  2 RMS(Cart)=  0.00894042 RMS(Int)=  0.00024242
 Iteration  3 RMS(Cart)=  0.00012394 RMS(Int)=  0.00021038
 Iteration  4 RMS(Cart)=  0.00000005 RMS(Int)=  0.00021038
 Variable       Old X    -DE/DX   Delta X   Delta X   Delta X     New X
                                 (Linear)    (Quad)   (Total)
    R1        2.86110   0.00263   0.00730  -0.00316   0.00414   2.86524
    R2        2.08262  -0.00054  -0.00270   0.00209  -0.00061   2.08201
    R3        2.08123  -0.00035  -0.00154   0.00083  -0.00071   2.08052
    R4        2.08528  -0.00148  -0.00136  -0.00047  -0.00184   2.08344
    R5        2.91907   0.00358  -0.00689   0.01225   0.00536   2.92443
    R6        2.92743   0.00321  -0.01852   0.03347   0.01495   2.94238
    R7        2.86205   0.00988  -0.00617   0.02028   0.01411   2.87616
    R8        2.65814   0.00040   0.01550  -0.02070  -0.00519   2.65295
    R9        2.09671  -0.00137  -0.00658   0.00677   0.00019   2.09690
   R10        2.08040  -0.00221  -0.00064  -0.00192  -0.00256   2.07784
   R11        1.82120   0.00311   0.00513  -0.00324   0.00189   1.82309
   R12        2.62852   0.00306   0.02549  -0.03381  -0.00832   2.62020
   R13        2.09552  -0.00045  -0.00562   0.00533  -0.00029   2.09523
   R14        2.08713  -0.00070  -0.00452   0.00518   0.00067   2.08780
   R15        1.83246   0.00254   0.00215   0.00093   0.00308   1.83554
   R16        2.27017   0.01847   0.01661  -0.01513   0.00148   2.27164
   R17        2.28042   0.01911   0.01419  -0.01056   0.00364   2.28406
    A1        1.88659   0.00174   0.01099  -0.00594   0.00508   1.89167
    A2        1.93504   0.00073   0.00413  -0.00505  -0.00088   1.93416
    A3        1.94462   0.00026  -0.00004   0.00054   0.00050   1.94512
    A4        1.88053  -0.00124   0.00115  -0.00587  -0.00463   1.87590
    A5        1.92560  -0.00108  -0.01320   0.01289  -0.00033   1.92527
    A6        1.89061  -0.00047  -0.00330   0.00334   0.00004   1.89065
    A7        1.96054  -0.00071   0.00171  -0.01201  -0.01033   1.95021
    A8        1.95239  -0.00129  -0.01060   0.01570   0.00508   1.95747
    A9        1.91952   0.00050  -0.00230   0.00491   0.00265   1.92218
   A10        1.92010   0.00170   0.01669  -0.02337  -0.00672   1.91339
   A11        1.84233  -0.00046  -0.00667   0.01766   0.01104   1.85337
   A12        1.86324   0.00038   0.00129  -0.00225  -0.00093   1.86231
   A13        1.94193   0.00157   0.00731  -0.01177  -0.00447   1.93746
   A14        1.90500   0.00070   0.01076  -0.01008   0.00066   1.90566
   A15        1.90059   0.00060   0.01022  -0.01022  -0.00001   1.90058
   A16        1.95868  -0.00210  -0.00474  -0.00861  -0.01327   1.94541
   A17        1.86541  -0.00045  -0.01454   0.02765   0.01316   1.87858
   A18        1.89045  -0.00032  -0.00989   0.01434   0.00460   1.89505
   A19        1.92457  -0.00025  -0.00855   0.00772  -0.00083   1.92374
   A20        1.94256   0.00631  -0.00467   0.01869   0.01392   1.95648
   A21        1.88648  -0.00056   0.02295  -0.02996  -0.00690   1.87958
   A22        1.89975  -0.00126   0.01003  -0.01343  -0.00348   1.89627
   A23        1.97623  -0.00289  -0.00458  -0.01718  -0.02164   1.95459
   A24        1.86920  -0.00171  -0.02127   0.04224   0.02088   1.89009
   A25        1.88774  -0.00003  -0.00293  -0.00030  -0.00287   1.88487
   A26        1.86682   0.00221   0.00790  -0.01266  -0.00477   1.86205
   A27        2.05348   0.00499   0.02441  -0.00351   0.01984   2.07333
   A28        1.99950   0.01188   0.02276   0.01067   0.03237   2.03187
   A29        2.15264  -0.00256   0.02096   0.00533   0.02523   2.17787
    D1       -1.13522  -0.00068   0.00917  -0.01779  -0.00865  -1.14387
    D2        1.03419   0.00003   0.02437  -0.04585  -0.02150   1.01269
    D3        3.10157   0.00001   0.01790  -0.03554  -0.01768   3.08388
    D4        3.09044  -0.00064  -0.00141  -0.00420  -0.00559   3.08485
    D5       -1.02335   0.00007   0.01379  -0.03226  -0.01844  -1.04178
    D6        1.04403   0.00005   0.00732  -0.02195  -0.01462   1.02941
    D7        0.98332  -0.00072  -0.00002  -0.00537  -0.00538   0.97794
    D8       -3.13046  -0.00001   0.01519  -0.03343  -0.01823   3.13449
    D9       -1.06308  -0.00003   0.00871  -0.02312  -0.01441  -1.07749
   D10        1.14256  -0.00130   0.00282  -0.03052  -0.02769   1.11486
   D11       -1.02839  -0.00020  -0.00401  -0.00431  -0.00830  -1.03669
   D12       -3.08897  -0.00055  -0.00432  -0.00992  -0.01422  -3.10319
   D13       -1.04462  -0.00038   0.00264  -0.02441  -0.02177  -1.06639
   D14        3.06762   0.00072  -0.00419   0.00179  -0.00238   3.06524
   D15        1.00704   0.00036  -0.00450  -0.00381  -0.00830   0.99874
   D16       -3.04875  -0.00138  -0.00323  -0.02005  -0.02330  -3.07205
   D17        1.06349  -0.00028  -0.01006   0.00616  -0.00391   1.05958
   D18       -0.99709  -0.00064  -0.01037   0.00055  -0.00983  -1.00692
   D19       -0.97021   0.00014   0.04217  -0.08970  -0.04758  -1.01779
   D20        3.13240  -0.00004   0.03485  -0.05940  -0.02461   3.10779
   D21        1.08594   0.00099   0.01954  -0.03521  -0.01559   1.07035
   D22        1.22161  -0.00045   0.04911  -0.11144  -0.06235   1.15926
   D23       -0.95896  -0.00063   0.04179  -0.08115  -0.03938  -0.99834
   D24       -3.00542   0.00040   0.02649  -0.05696  -0.03036  -3.03578
   D25       -3.07076   0.00005   0.05028  -0.10344  -0.05322  -3.12399
   D26        1.03185  -0.00014   0.04296  -0.07315  -0.03025   1.00160
   D27       -1.01461   0.00089   0.02765  -0.04895  -0.02123  -1.03584
   D28        0.16805  -0.01583  -0.16393  -0.02858  -0.19250  -0.02445
   D29        2.91126   0.01835   0.21849   0.00318   0.22166   3.13292
   D30       -1.95064  -0.01497  -0.16079  -0.02742  -0.18820  -2.13884
   D31        0.79257   0.01920   0.22163   0.00434   0.22597   1.01854
   D32        2.28955  -0.01687  -0.17726  -0.00812  -0.18538   2.10417
   D33       -1.25042   0.01731   0.20515   0.02364   0.22878  -1.02164
   D34       -1.41400   0.00042  -0.02732   0.04515   0.01780  -1.39620
   D35        0.72632   0.00097  -0.01133   0.01718   0.00601   0.73234
   D36        2.79632  -0.00091  -0.03482   0.04723   0.01227   2.80859
   D37       -0.97186  -0.00026  -0.00116  -0.00944  -0.01053  -0.98239
   D38        1.15751   0.00164   0.02206  -0.04716  -0.02496   1.13255
   D39       -3.04639  -0.00125   0.00215  -0.02969  -0.02776  -3.07415
         Item               Value     Threshold  Converged?
 Maximum Force            0.019203     0.000015     NO 
 RMS     Force            0.005842     0.000010     NO 
 Maximum Displacement     0.345581     0.000060     NO 
 RMS     Displacement     0.066668     0.000040     NO 
 GradGradGradGradGradGradGradGradGradGradGradGradGradGradGradGradGradGrad

                    Distance matrix (angstroms):
                    1          2          3          4          5
     1  C    0.000000
     2  C    1.516221   0.000000
     3  C    2.536124   1.547540   0.000000
     4  O    2.983357   2.433823   1.403879   0.000000
     5  C    2.550272   1.557041   2.537351   2.938623   0.000000
     6  O    2.958392   2.443611   3.004863   2.715294   1.386550
     7  N    2.490783   1.521998   2.454556   3.715172   2.470432
     8  O    2.649014   2.350311   3.378843   4.594237   3.380289
     9  O    3.597900   2.326860   2.810485   4.107919   2.827871
    10  H    1.101752   2.136942   2.802359   2.692445   2.753658
    11  H    1.100965   2.167407   3.497574   3.995634   2.804325
    12  H    1.102510   2.176444   2.771942   3.330461   3.517789
    13  H    2.774651   2.180560   1.109631   2.083793   3.499219
    14  H    3.474342   2.169323   1.099546   2.028583   2.733105
    15  H    2.818121   2.775999   1.959057   0.964739   3.486791
    16  H    3.483221   2.168638   2.720110   3.249576   1.108750
    17  H    2.796061   2.178331   3.487238   3.967331   1.104816
    18  H    3.171820   2.554389   2.568797   1.948577   1.907740
                    6          7          8          9         10
     6  O    0.000000
     7  N    3.721728   0.000000
     8  O    4.568537   1.202102   0.000000
     9  O    4.138100   1.208672   2.136270   0.000000
    10  H    2.603337   3.437847   3.737887   4.435309   0.000000
    11  H    3.309624   2.738081   2.585731   3.879996   1.776154
    12  H    3.971841   2.770482   2.649197   3.903779   1.809040
    13  H    4.023199   2.682444   3.327232   3.126303   3.181500
    14  H    3.339596   2.648170   3.745151   2.496865   3.791842
    15  H    3.152723   4.100655   4.784193   4.698944   2.344034
    16  H    2.074399   2.648882   3.735762   2.497091   3.760055
    17  H    2.026040   2.678976   3.304362   3.120493   3.118170
    18  H    0.971328   3.929064   4.869627   4.268081   2.722718
                   11         12         13         14         15
    11  H    0.000000
    12  H    1.786328   0.000000
    13  H    3.770205   2.551354   0.000000
    14  H    4.314496   3.768538   1.793801   0.000000
    15  H    3.869381   2.986403   2.256033   2.827957   0.000000
    16  H    3.792595   4.326486   3.717242   2.449549   4.007024
    17  H    2.598076   3.807212   4.326174   3.714966   4.398641
    18  H    3.793115   4.029551   3.599873   2.877397   2.488822
                   16         17         18
    16  H    0.000000
    17  H    1.790760   0.000000
    18  H    2.332346   2.821841   0.000000
 Framework group  C1[X(C4H9NO4)]
 Deg. of freedom    48
                         Standard orientation:                         
 ---------------------------------------------------------------------
 Center     Atomic      Atomic             Coordinates (Angstroms)
 Number     Number       Type             X           Y           Z
 ---------------------------------------------------------------------
      1          6           0       -0.096944   -0.120882    1.707163
      2          6           0        0.054516   -0.009229    0.202664
      3          6           0       -0.575466   -1.219129   -0.528188
      4          8           0       -1.962865   -1.266787   -0.319079
      5          6           0       -0.554285    1.312031   -0.352324
      6          8           0       -1.901338    1.434169   -0.047278
      7          7           0        1.528505   -0.004832   -0.176569
      8          8           0        2.351510   -0.058965    0.697949
      9          8           0        1.780008    0.071114   -1.356343
     10          1           0       -1.169076   -0.061384    1.953841
     11          1           0        0.406094    0.716887    2.214331
     12          1           0        0.331313   -1.063299    2.086603
     13          1           0       -0.080762   -2.150923   -0.184227
     14          1           0       -0.405039   -1.110441   -1.608995
     15          1           0       -2.157008   -1.652077    0.543812
     16          1           0       -0.372650    1.333457   -1.445885
     17          1           0       -0.017600    2.165468    0.099598
     18          1           0       -2.340256    0.643141   -0.400979
 ---------------------------------------------------------------------
 Rotational constants (GHZ):           2.3779079           1.2360469           1.1869840
   144 basis functions,   261 primitive gaussians,   153 cartesian basis functions
    36 alpha electrons       36 beta electrons
       nuclear repulsion energy       516.5248031272 Hartrees.
 NAtoms=   18 NActive=   18 NUniq=   18 SFac= 1.00D+00 NAtFMM=   60 NAOKFM=F Big=F
 Nuclear repulsion after empirical dispersion term =      516.5129630774 Hartrees.
   1 Symmetry operations used in ECPInt.
 ECPInt:  NShTT=    2628 NPrTT=   10584 LenC2=    2600 LenP2D=    8239.
 LDataN:  DoStor=T MaxTD1= 4 Len=   56
 Lowest energy guess from the checkpoint file:  "/scratch/user/peterchao1/peterchao1/6097809_1659647584000000817307740/Gau-201497.chk"
 B after Tr=    -0.000000    0.000000   -0.000000
         Rot=    0.991650   -0.128892   -0.004142    0.000959 Ang= -14.82 deg.
 B after Tr=    -0.000000    0.000000    0.000000
         Rot=    0.985560   -0.167689    0.002477    0.023364 Ang= -19.50 deg.
     Accept linear search using points  3 and  4.
     Accept linear search using points  1 and  2.
     Accept linear search using points  1 and  2.
     Accept linear search using points  2 and  3.
     Accept linear search using points  1 and  2.
     Accept linear search using points  1 and  2.
     Minimum is close to point  2 DX= -5.72D-06 DF=  0.00D+00 DXR=  5.72D-06 DFR=  0.00D+00 which will be used.
 SCF Done:  E(RwB97XD) =  -512.815617434     a.u. after   11 cycles
            Convg  =    0.7228D-09                    50 Fock formations.
              S**2 =  0.0000                  -V/T =  2.0075
   1 Symmetry operations used in ECPInt.
 ECPInt:  NShTT=    2628 NPrTT=   10584 LenC2=    2600 LenP2D=    8239.
 LDataN:  DoStor=T MaxTD1= 5 Len=  102
 Calling FoFJK, ICntrl=      2127 FMM=F ISym2X=0 I1Cent= 0 IOpClX= 0 NMat=1 NMatS=1 NMatT=0.

 GradGradGradGradGradGradGradGradGradGradGradGradGradGradGradGradGradGrad
 Using GEDIIS/GDIIS optimizer.
 FormGI is forming the generalized inverse of G from B-inverse, IUseBI=4.
 Internal  Forces:  Max     0.010268759 RMS     0.002257033
 Step number   4 out of a maximum of   95
 All quantities printed in internal units (Hartrees-Bohrs-Radians)
 Mixed Optimization -- RFO/linear search
 Trust test=-8.35D-02 RLast= 3.05D-01 DXMaxT set to 1.26D-01
 ITU= -1 -1  1  0
 Use linear search instead of GDIIS.
 Energy rises -- skip Quadratic/GDIIS search.
 Quartic linear search produced a step of -0.52634.
 Iteration  1 RMS(Cart)=  0.03311838 RMS(Int)=  0.00057818
 Iteration  2 RMS(Cart)=  0.00077241 RMS(Int)=  0.00003806
 Iteration  3 RMS(Cart)=  0.00000028 RMS(Int)=  0.00003806
 Variable       Old X    -DE/DX   Delta X   Delta X   Delta X     New X
                                 (Linear)    (Quad)   (Total)
    R1        2.86524   0.00073   0.00216   0.00000   0.00216   2.86740
    R2        2.08201  -0.00020  -0.00128   0.00000  -0.00128   2.08073
    R3        2.08052  -0.00026  -0.00054   0.00000  -0.00054   2.07998
    R4        2.08344  -0.00032   0.00016   0.00000   0.00016   2.08360
    R5        2.92443   0.00290  -0.00692   0.00000  -0.00692   2.91750
    R6        2.94238  -0.00069  -0.01889   0.00000  -0.01889   2.92349
    R7        2.87616  -0.00229  -0.01110   0.00000  -0.01110   2.86506
    R8        2.65295   0.00224   0.01196   0.00000   0.01196   2.66490
    R9        2.09690  -0.00142  -0.00401   0.00000  -0.00401   2.09289
   R10        2.07784   0.00005   0.00096   0.00000   0.00096   2.07881
   R11        1.82309   0.00155   0.00206   0.00000   0.00206   1.82515
   R12        2.62020   0.00503   0.01955   0.00000   0.01955   2.63975
   R13        2.09523  -0.00075  -0.00319   0.00000  -0.00319   2.09204
   R14        2.08780  -0.00092  -0.00304   0.00000  -0.00304   2.08476
   R15        1.83554   0.00068  -0.00034   0.00000  -0.00034   1.83520
   R16        2.27164   0.01027   0.00910   0.00000   0.00910   2.28075
   R17        2.28406   0.00815   0.00653   0.00000   0.00653   2.29059
    A1        1.89167   0.00071   0.00386   0.00000   0.00387   1.89554
    A2        1.93416   0.00060   0.00292   0.00000   0.00293   1.93709
    A3        1.94512   0.00054  -0.00028   0.00000  -0.00028   1.94484
    A4        1.87590  -0.00049   0.00312   0.00000   0.00314   1.87904
    A5        1.92527  -0.00082  -0.00768   0.00000  -0.00768   1.91759
    A6        1.89065  -0.00059  -0.00199   0.00000  -0.00199   1.88866
    A7        1.95021   0.00116   0.00646   0.00000   0.00646   1.95667
    A8        1.95747  -0.00265  -0.00898   0.00000  -0.00893   1.94855
    A9        1.92218   0.00110  -0.00276   0.00000  -0.00276   1.91942
   A10        1.91339   0.00292   0.01346   0.00000   0.01345   1.92683
   A11        1.85337  -0.00269  -0.00978   0.00000  -0.00978   1.84359
   A12        1.86231   0.00011   0.00126   0.00000   0.00125   1.86356
   A13        1.93746   0.00681   0.00670   0.00000   0.00674   1.94420
   A14        1.90566  -0.00097   0.00606   0.00000   0.00611   1.91177
   A15        1.90058  -0.00014   0.00609   0.00000   0.00607   1.90665
   A16        1.94541  -0.00196   0.00416   0.00000   0.00424   1.94965
   A17        1.87858  -0.00355  -0.01558   0.00000  -0.01558   1.86300
   A18        1.89505  -0.00031  -0.00831   0.00000  -0.00829   1.88676
   A19        1.92374   0.00015  -0.00465   0.00000  -0.00465   1.91909
   A20        1.95648   0.00094  -0.01011   0.00000  -0.01007   1.94641
   A21        1.87958  -0.00050   0.01729   0.00000   0.01735   1.89693
   A22        1.89627   0.00081   0.00780   0.00000   0.00797   1.90425
   A23        1.95459   0.00199   0.00867   0.00000   0.00865   1.96324
   A24        1.89009  -0.00290  -0.02365   0.00000  -0.02363   1.86646
   A25        1.88487  -0.00037  -0.00024   0.00000  -0.00013   1.88474
   A26        1.86205   0.00534   0.00721   0.00000   0.00721   1.86926
   A27        2.07333  -0.00100   0.00408   0.00000   0.00409   2.07742
   A28        2.03187  -0.00135  -0.00350   0.00000  -0.00348   2.02839
   A29        2.17787   0.00237  -0.00081   0.00000  -0.00080   2.17707
    D1       -1.14387  -0.00153   0.01001   0.00000   0.01000  -1.13387
    D2        1.01269   0.00120   0.02582   0.00000   0.02584   1.03852
    D3        3.08388   0.00038   0.01996   0.00000   0.01993   3.10382
    D4        3.08485  -0.00171   0.00210   0.00000   0.00210   3.08695
    D5       -1.04178   0.00102   0.01791   0.00000   0.01794  -1.02384
    D6        1.02941   0.00019   0.01205   0.00000   0.01204   1.04145
    D7        0.97794  -0.00174   0.00282   0.00000   0.00281   0.98075
    D8        3.13449   0.00099   0.01863   0.00000   0.01865  -3.13004
    D9       -1.07749   0.00016   0.01277   0.00000   0.01275  -1.06474
   D10        1.11486   0.00055   0.01626   0.00000   0.01621   1.13107
   D11       -1.03669  -0.00085   0.00198   0.00000   0.00196  -1.03473
   D12       -3.10319   0.00016   0.00491   0.00000   0.00488  -3.09831
   D13       -1.06639   0.00099   0.01303   0.00000   0.01307  -1.05333
   D14        3.06524  -0.00041  -0.00124   0.00000  -0.00118   3.06407
   D15        0.99874   0.00060   0.00169   0.00000   0.00174   1.00048
   D16       -3.07205   0.00086   0.01034   0.00000   0.01032  -3.06173
   D17        1.05958  -0.00054  -0.00393   0.00000  -0.00392   1.05566
   D18       -1.00692   0.00047  -0.00100   0.00000  -0.00101  -1.00793
   D19       -1.01779   0.00214   0.05013   0.00000   0.05011  -0.96768
   D20        3.10779  -0.00063   0.03368   0.00000   0.03363   3.14142
   D21        1.07035  -0.00034   0.01983   0.00000   0.01986   1.09021
   D22        1.15926   0.00392   0.06204   0.00000   0.06206   1.22132
   D23       -0.99834   0.00115   0.04559   0.00000   0.04558  -0.95276
   D24       -3.03578   0.00143   0.03174   0.00000   0.03181  -3.00398
   D25       -3.12399   0.00228   0.05793   0.00000   0.05792  -3.06607
   D26        1.00160  -0.00049   0.04148   0.00000   0.04143   1.04303
   D27       -1.03584  -0.00021   0.02763   0.00000   0.02767  -1.00818
   D28       -0.02445   0.00137   0.00379   0.00000   0.00376  -0.02070
   D29        3.13292   0.00012   0.01333   0.00000   0.01330  -3.13696
   D30       -2.13884   0.00097   0.00339   0.00000   0.00340  -2.13544
   D31        1.01854  -0.00028   0.01293   0.00000   0.01295   1.03148
   D32        2.10417  -0.00114  -0.00790   0.00000  -0.00788   2.09629
   D33       -1.02164  -0.00239   0.00165   0.00000   0.00166  -1.01997
   D34       -1.39620   0.00025  -0.02563   0.00000  -0.02560  -1.42180
   D35        0.73234   0.00241  -0.00990   0.00000  -0.00990   0.72244
   D36        2.80859  -0.00132  -0.02718   0.00000  -0.02721   2.78139
   D37       -0.98239   0.00040   0.00485   0.00000   0.00475  -0.97764
   D38        1.13255   0.00185   0.02626   0.00000   0.02624   1.15878
   D39       -3.07415   0.00071   0.01589   0.00000   0.01602  -3.05813
         Item               Value     Threshold  Converged?
 Maximum Force            0.010269     0.000015     NO 
 RMS     Force            0.002257     0.000010     NO 
 Maximum Displacement     0.184734     0.000060     NO 
 RMS     Displacement     0.033254     0.000040     NO 
 GradGradGradGradGradGradGradGradGradGradGradGradGradGradGradGradGradGrad

                    Distance matrix (angstroms):
                    1          2          3          4          5
     1  C    0.000000
     2  C    1.517365   0.000000
     3  C    2.539552   1.543877   0.000000
     4  O    3.007063   2.441443   1.410207   0.000000
     5  C    2.535222   1.547046   2.538102   2.947908   0.000000
     6  O    2.908373   2.435203   3.040164   2.762886   1.396893
     7  N    2.484502   1.516125   2.437924   3.709827   2.458825
     8  O    2.646317   2.351823   3.367837   4.598731   3.371866
     9  O    3.594776   2.321997   2.796681   4.096856   2.816198
    10  H    1.101073   2.140307   2.805870   2.717496   2.753860
    11  H    1.100677   2.170305   3.500104   4.016390   2.783512
    12  H    1.102592   2.177312   2.778875   3.360938   3.503847
    13  H    2.782729   2.180295   1.107507   2.090584   3.497047
    14  H    3.479998   2.170979   1.100056   2.023003   2.745251
    15  H    2.858770   2.794100   1.962448   0.965827   3.504675
    16  H    3.479297   2.171716   2.718103   3.228183   1.107060
    17  H    2.793996   2.174315   3.486158   3.985099   1.103208
    18  H    3.108966   2.549868   2.619688   1.988964   1.921521
                    6          7          8          9         10
     6  O    0.000000
     7  N    3.713910   0.000000
     8  O    4.548369   1.206920   0.000000
     9  O    4.149015   1.212127   2.143154   0.000000
    10  H    2.559174   3.433209   3.736151   4.433706   0.000000
    11  H    3.235287   2.740443   2.594631   3.881228   1.777418
    12  H    3.933137   2.758718   2.633611   3.899860   1.803701
    13  H    4.046379   2.667324   3.315135   3.116251   3.183501
    14  H    3.403867   2.636455   3.737400   2.483134   3.799806
    15  H    3.186872   4.104937   4.799480   4.696956   2.383973
    16  H    2.088001   2.673186   3.764625   2.521922   3.754936
    17  H    2.016540   2.661163   3.290885   3.092932   3.140093
    18  H    0.971147   3.939885   4.864481   4.309841   2.638515
                   11         12         13         14         15
    11  H    0.000000
    12  H    1.784879   0.000000
    13  H    3.778978   2.564993   0.000000
    14  H    4.319739   3.775377   1.787130   0.000000
    15  H    3.909439   3.032123   2.258657   2.820266   0.000000
    16  H    3.789262   4.327661   3.720171   2.460573   3.995516
    17  H    2.589861   3.799237   4.322377   3.716832   4.433026
    18  H    3.713254   3.982397   3.634921   2.975773   2.486445
                   16         17         18
    16  H    0.000000
    17  H    1.788005   0.000000
    18  H    2.362637   2.818385   0.000000
 Framework group  C1[X(C4H9NO4)]
 Deg. of freedom    48
                         Standard orientation:                         
 ---------------------------------------------------------------------
 Center     Atomic      Atomic             Coordinates (Angstroms)
 Number     Number       Type             X           Y           Z
 ---------------------------------------------------------------------
      1          6           0       -0.114350    0.171960    1.693159
      2          6           0        0.049216    0.022370    0.192071
      3          6           0       -0.557844   -1.297702   -0.329891
      4          8           0       -1.956442   -1.326642   -0.151649
      5          6           0       -0.547953    1.228995   -0.570029
      6          8           0       -1.888480    1.434149   -0.235047
      7          7           0        1.521491   -0.035668   -0.165246
      8          8           0        2.341907    0.059640    0.714805
      9          8           0        1.782500   -0.150086   -1.343395
     10          1           0       -1.188181    0.250919    1.923407
[...]
 ,0.4129519,-0.4919281,0.0777531,-0.0809449,0.1102975,-0.9795811,-0.186
 9419,-0.0827973,-0.1646325,-0.518122,1.4562387,0.1450893,-0.0827841,0.
 1840152,1.3000058,0.0614975,-0.0658913,0.0344603,0.1487164,-0.7441725,
 -0.1292886,0.0205225,-0.3827861,-0.8863636,-0.0111834,0.0121143,-0.017
 5247,-0.2006624,-1.0342706,-0.0634912,0.0511669,0.2214921,-0.5700285,-
 0.0211172,0.0557782,0.0015024,-0.2762598,0.0737591,0.0326903,-0.000743
 ,0.0770588,-0.0594551,-0.0028532,-0.002662,0.0023447,0.1027197,0.05074
 25,-0.0072269,0.0113068,-0.0493322,0.0610329,0.0592353,0.0315424,0.058
 0356,0.0020248,0.0261718,-0.0040619,-0.0223906,-0.0312413,0.0679474,-0
 .0499459,-0.0579677,-0.0522288,-0.0570648,0.0407406,-0.0454024,-0.0802
 124,-0.0002856,-0.0506523,-0.050398,-0.0294382,-0.0387065,-0.1171231,-
 0.0379793,0.0137041,0.0124468,-0.010984,0.0416951,0.0137869,-0.0202839
 ,0.0126788,0.0596288,0.1794019,-0.0182958,-0.0345289,-0.0531739,0.3128
 945,-0.0842677,-0.0247365,-0.1007586,0.3619492,-0.1336303,0.0335957,-0
 .0163492,-0.0004269,0.0031238,-0.0196587,0.0266032,-0.0397946,0.018941
 4,0.0412704,-0.0504818,0.0560607,-0.0151718,-0.0326863,0.0598467,0.013
 1191,0.0494491,-0.0631688,0.2775975,0.0596412,0.0763021,0.0390357,0.37
 78623,0.0378666,0.0615085,0.0381935,0.4006562\Polar=63.8274927,1.15157
 99,63.7780392,0.0130501,0.2238129,53.3174839\Quadrupole=1.844851,-4.51
 21611,2.6673101,-0.4857281,2.4162778,-3.6087584\PG=C01 [X(C4H9N1O4)]\N
 Imag=0\\0.50142671,0.00920487,0.60213153,-0.00049018,0.00299756,0.6095
 5565,-0.20817247,-0.01602396,-0.00270262,0.57014819,-0.00123993,-0.082
 67119,0.00074366,0.01867723,0.43983356,-0.00022513,0.00051505,-0.08582
 258,-0.00412024,-0.00909429,0.47650004,-0.01691138,-0.02081924,0.02992
 391,-0.10443651,-0.01212970,0.03130161,0.64979531,-0.00607544,0.002586
 34,-0.00007248,-0.01581884,-0.07858762,0.02291655,-0.01054906,0.507927
 89,0.00529432,0.00058233,-0.00109718,0.03513102,0.02504698,-0.14510879
 ,0.05695835,0.05554114,0.54223040,-0.00119412,0.00119602,0.00030113,0.
 00468559,-0.00806471,-0.00142204,-0.10525876,0.05800887,-0.00999726,0.
 54597367,0.00247103,0.00163069,-0.00087547,0.00889870,-0.04196507,0.00
 587333,0.01703705,-0.25360852,-0.02351327,-0.11227961,0.39066207,0.000
 34673,-0.00159122,0.00052425,-0.00779745,0.02702757,0.00776343,-0.0167
 1042,-0.00126940,-0.07164191,0.15508453,-0.00670028,0.12352924,-0.0163
 8781,-0.01451336,-0.03201425,-0.09990356,-0.00996022,-0.03283925,0.005
 14251,0.00396536,0.01001293,-0.00138898,0.00110055,0.00107889,0.603511
 10,-0.00588348,0.00241869,-0.00001931,-0.00956983,-0.07186432,-0.00708
 737,0.00522104,0.01972124,0.01476543,0.00198409,-0.00456014,-0.0094801
 2,0.00007180,0.56113049,-0.00742717,-0.00009338,-0.00165681,-0.0331641
 6,-0.00546200,-0.13948368,-0.00911529,-0.00612157,-0.03686015,0.000659
 66,-0.00497162,0.00084383,-0.05625871,-0.08503281,0.53128686,-0.002062
 28,0.00067688,-0.00138590,0.00466580,-0.00412833,0.00056435,-0.0009510
 4,0.00094185,-0.00059385,0.00462318,-0.00134321,-0.00100336,-0.1068488
 2,0.06111278,0.03196114,0.14157520,0.00253091,0.00060783,0.00049130,0.
 00864817,-0.03696259,-0.01793443,0.00082498,-0.00736990,0.00309721,-0.
 00141416,0.00833049,0.00440607,0.08081293,-0.24873610,-0.03867774,-0.0
 5517983,0.50268947,-0.00073901,0.00077054,0.00069367,0.01306050,-0.034
 51741,-0.00336713,-0.00053426,0.00655050,0.00259730,0.00143428,-0.0010
 3214,-0.01464144,0.02160224,-0.00656940,-0.09930096,-0.12268162,-0.149
 46971,0.41838604,-0.01568678,0.03734205,0.00297524,-0.08923293,0.00268
 803,-0.00127215,0.01236345,-0.00497229,-0.00909377,-0.00484912,-0.0047
 0081,0.00380775,0.01151915,-0.00536475,0.00935683,-0.00460418,-0.00408
 897,-0.00463626,1.05260340,0.01225697,-0.00447746,-0.00159702,0.013584
 59,-0.09768110,0.00220852,0.00044038,-0.03748193,0.00981911,-0.0012252
 2,0.00628208,0.00009532,-0.00022690,-0.03121818,-0.01933955,-0.0021771
 4,0.00844217,0.00219351,0.14502980,0.77804724,0.00002853,0.00063782,-0
 .00178783,-0.00101889,0.00134963,-0.10868981,-0.01410845,0.02812109,0.
 00866825,0.00314102,0.00833157,-0.00581590,0.01429365,-0.03492397,0.00
 330534,-0.00293385,-0.00694152,-0.00800388,-0.03886281,0.01169648,0.27
 616177,-0.00291981,0.00606388,0.00104949,0.00491626,-0.00952166,0.0002
 4682,-0.00145036,0.00140407,-0.00089861,0.00179920,-0.00088118,0.00013
 375,-0.00187990,0.00148552,0.00138508,0.00216141,-0.00094558,-0.000058
 27,-0.33283533,-0.24722620,0.00451541,0.43346045,-0.00263555,-0.002273
 46,-0.00036992,-0.03352330,-0.04704944,-0.00049706,0.00276732,-0.00146
 689,-0.00796406,0.00009827,-0.00510332,0.00345965,0.00190898,-0.001976
 57,0.00812071,0.00041650,-0.00419177,-0.00385512,-0.24763845,-0.467722
 81,-0.00172798,0.32301797,0.50186744,0.00032893,-0.00056659,-0.0016469
 7,-0.00046829,-0.00295944,0.02577483,0.00182485,-0.00119272,-0.0030574
 5,-0.00041097,-0.00218014,0.00096733,-0.00121320,0.00175468,-0.0030397
 6,0.00023941,0.00200772,0.00128304,0.00518491,-0.00099212,-0.07824685,
 -0.01032559,0.00076780,0.02662130,-0.00056411,0.00707611,0.00063427,-0
 .03546178,0.01888015,0.00430873,-0.00570786,-0.00340606,0.00443059,0.0
 0294149,0.00075844,-0.00123264,-0.00618270,-0.00279520,-0.00584465,0.0
 0317883,0.00116887,0.00188370,-0.61519867,0.08510842,0.03380349,-0.107
 60340,-0.04793436,0.00540023,0.76139312,0.00010891,-0.00788816,-0.0007
 9309,0.03969994,-0.00037384,-0.00242217,0.00106607,-0.00214602,-0.0005
 2214,0.00132332,-0.00125338,0.00112212,0.00193353,-0.00139858,0.001252
 87,0.00049634,-0.00116872,-0.00154514,0.08761159,-0.15872054,-0.007827
 35,-0.07866124,0.02904028,0.00428813,-0.06124349,0.14625604,0.00005149
 ,-0.00112779,0.00232655,0.00558470,-0.00188681,0.02127464,0.00323815,-
 0.00003113,-0.00193286,-0.00181838,-0.00069391,0.00106561,-0.00282702,
 0.00128542,-0.00151685,0.00141817,0.00050971,0.00125662,0.03243098,-0.
 00771131,-0.08430305,0.00497393,0.00285093,0.02745119,-0.04314647,0.00
 688337,0.03523813,-0.07563689,0.08119237,0.01055731,-0.00670758,0.0318
 6478,0.00347475,0.00044888,0.00173291,0.00005041,0.00097456,-0.0013211
 7,-0.00046061,0.00010732,0.00239018,0.00039790,0.00111705,-0.00152121,
 0.00028327,-0.00642610,-0.00313445,-0.00035359,0.00089783,-0.00011674,
 0.00008398,-0.00225062,0.00258864,0.00030386,0.08108877,0.08380643,-0.
 29199567,-0.03165963,0.00038087,0.00118837,0.00081981,0.00069725,-0.00
 108739,0.00048286,-0.00165348,-0.00025685,0.00098739,0.00076050,-0.001
 16443,-0.00086445,-0.00243434,-0.00015122,-0.00127544,-0.00334649,-0.0
 0067913,-0.00014676,0.00195601,-0.00017995,-0.00014367,0.00085756,0.00
 036877,-0.00002050,-0.08850149,0.31272965,0.01122687,-0.03449918,-0.05
 320077,0.00086410,0.00028231,-0.00124369,0.00024469,-0.00074424,0.0000
 4377,-0.00027257,0.00064046,-0.00046573,-0.00050390,0.00121912,0.00005
 916,0.00015551,-0.00082160,-0.00088657,-0.00010425,0.00080395,-0.00027
 524,-0.00047894,0.00005827,0.00097163,-0.00026931,0.00002849,0.0001074
 7,-0.01320218,0.03461579,0.05075277,-0.08265694,-0.05474837,0.07250104
 ,-0.01223552,-0.01942462,0.02654680,-0.00708571,0.00253810,-0.00173267
 ,0.00097254,-0.00023632,-0.00038788,0.00130979,-0.00025981,0.00168366,
 -0.00005470,0.00006546,-0.00039048,-0.00104239,-0.00237897,0.00074734,
 0.00111623,0.00157851,-0.00048595,0.00118084,0.00016156,-0.00025562,0.
 00394054,0.00580770,-0.00965965,0.09105497,-0.05758251,-0.13033372,0.1
 1796996,0.00106308,-0.00005399,-0.00193975,0.00095170,-0.00033397,-0.0
 0032236,-0.00062414,0.00029214,0.00025159,-0.00033157,0.00032688,0.000
 66768,0.00022406,-0.00006154,-0.00065615,0.00041106,0.00032459,-0.0007
 1799,0.00166191,-0.00183431,-0.00077150,-0.00050562,0.00006986,0.00008
 653,-0.01118210,-0.01285114,0.02228612,0.05989117,0.13622963,0.0754452
 9,0.11688372,-0.20989835,-0.00005307,-0.00232314,0.00068267,0.00010323
 ,-0.00027580,0.00051605,-0.00026013,-0.00003098,0.00021774,-0.00059419
 ,-0.00090695,0.00088400,0.00016223,0.00024373,-0.00015440,0.00221425,0
 .00243204,0.00012985,-0.00206189,-0.00036178,0.00056122,-0.00098840,-0
 .00057236,-0.00008582,-0.00283464,-0.00397406,0.00491194,-0.08058204,-
 0.12631316,0.21798763,-0.08272364,-0.03512306,-0.08088542,-0.01217524,
 -0.01291448,-0.02992564,0.00158412,0.00001412,-0.00199958,-0.00001701,
 0.00003937,0.00042237,-0.00678818,0.00213014,0.00206578,0.00131306,-0.
 00020484,0.00056995,-0.00082413,-0.00237506,-0.00069765,0.00098502,0.0
 0133962,0.00029280,0.00068302,0.00019860,0.00026429,0.00389126,0.00228
 471,0.01085673,0.00429771,0.00560042,0.00974041,0.09046989,-0.03685403
 ,-0.08594060,-0.08709082,0.00151727,-0.00116664,0.00184388,-0.00014752
 ,0.00018562,-0.00083763,0.00002804,-0.00020152,0.00060196,0.00089800,-
 0.00063513,-0.00010416,-0.00138773,0.00033558,-0.00051787,0.00082700,0
 .00099279,0.00085219,0.00036791,-0.00110181,0.00029359,-0.00041204,-0.
 00007225,-0.00004778,-0.01196524,-0.00631478,-0.02441672,0.00772173,0.
 00738231,0.01493312,0.03950953,0.08636238,-0.08344661,-0.08630650,-0.2
 5162486,0.00071929,0.00162712,0.00086221,0.00063128,0.00097516,0.00083
 875,0.00005322,-0.00030229,0.00013436,0.00015647,0.00013743,0.00076868
 ,-0.00011065,-0.00001587,0.00016570,-0.00193284,-0.00211121,0.00011837
 ,0.00179304,0.00031510,0.00073045,0.00065905,0.00058522,-0.00019014,0.
 00047454,0.00097061,-0.00040559,-0.00873262,-0.01008909,-0.01630637,0.
 08990717,0.09473920,0.26435909,0.00129288,0.00074755,0.00081370,0.0037
 1672,0.00298294,0.01307772,-0.08802922,-0.03487011,-0.07723939,0.00642
 793,0.00828462,0.00900466,-0.00078710,-0.00169798,0.00141270,0.0000038
 4,0.00005909,-0.00038270,0.00054120,0.00092992,-0.00042776,-0.00026675
 ,0.00014419,-0.00019643,0.00001179,0.00053502,0.00025111,-0.00010316,0
 .00008158,0.00001365,0.00006356,-0.00001798,-0.00020427,-0.00023502,-0
 .00025579,-0.00005279,0.08058786,0.00075983,0.00035934,-0.00015100,0.0
 0481098,0.00711265,0.01424966,-0.03041400,-0.08766506,-0.08047147,-0.0
 0646665,-0.03246439,-0.03120282,-0.00147545,-0.00331229,0.00231856,-0.
 00013260,0.00119047,-0.00094678,0.00030266,0.00239806,0.00039569,-0.00
 027309,-0.00026785,-0.00034101,0.00005211,-0.00005114,-0.00029753,-0.0
 0022562,0.00001586,0.00005840,0.00009597,-0.00000882,0.00001469,-0.000
 05614,0.00003622,-0.00017292,0.03497979,0.10810927,-0.00153516,-0.0006
 2280,0.00114466,-0.01039099,-0.00828558,-0.02295715,-0.07418277,-0.084
 72717,-0.23861681,0.00352598,-0.00191561,0.00703421,0.00252199,0.00489
 445,-0.00271988,0.00027363,-0.00081219,0.00064271,0.00050085,-0.002998
 83,-0.00048012,0.00058740,0.00128718,0.00020601,-0.00067635,0.00076150
 ,0.00020348,0.00002236,0.00000672,-0.00002508,-0.00001708,0.00021818,0
 .00037547,0.00115215,0.00029132,0.00021810,0.07770170,0.09257943,0.253
 67186,0.00027489,-0.00139335,0.00231258,-0.01266046,-0.00088352,-0.000
 59434,-0.33026713,0.01079810,-0.00917716,-0.00298702,0.00572028,-0.001
 16923,0.00061935,0.00008308,-0.00140170,0.00028816,0.00002820,0.000081
 39,-0.00367542,0.00033335,0.00074932,0.00110583,0.00027501,0.00006024,
 0.00214702,0.00234837,-0.00184477,0.00006226,0.00001612,-0.00007227,-0
 .00061210,0.00016645,0.00006925,0.00026464,0.00006818,-0.00000454,-0.0
 0557143,-0.00003667,0.00068028,0.34899568,-0.00071282,-0.00247436,0.00
 316038,-0.01518791,0.00170329,-0.00054437,0.00055452,-0.04657201,-0.00
 369916,0.04282582,-0.01417586,0.00486999,0.00032827,0.00030863,-0.0009
 5133,-0.00003996,0.00027347,-0.00009609,-0.00396929,0.00074304,-0.0000
 8544,0.00132061,0.00053209,0.00007402,0.00234777,-0.00188674,0.0001362
 5,0.00015166,0.00009000,-0.00000439,-0.00111920,0.00021732,0.00023439,
 0.00034532,0.00009794,-0.00001195,-0.01232340,0.00270432,0.00071785,-0
 .01808352,0.06464187,0.00038640,0.00315989,-0.00390541,0.02700610,0.00
 084029,-0.00130843,-0.01317722,-0.00279081,-0.05491106,0.00031732,0.00
 090643,0.00221121,0.00224571,-0.00031306,0.00183529,-0.00055897,0.0000
 2674,-0.00021030,0.00221074,-0.00117423,0.00025642,-0.00057952,-0.0000
 0597,0.00039805,-0.00137311,-0.00006926,-0.00027088,-0.00020250,-0.000
 18324,0.00010942,0.00158763,-0.00000051,0.00022441,0.00016973,0.000160
 76,0.00015049,-0.02622716,0.00156996,0.00150078,0.00842334,-0.00202127
 ,0.05411884,0.00051617,-0.00023876,-0.00038332,0.00156346,-0.00141892,
 -0.00013339,-0.00994200,-0.00199349,-0.00155476,-0.44744582,0.07496066
 ,-0.14298051,-0.00017710,-0.00000234,-0.00002802,-0.00035537,-0.000126
 97,0.00075788,-0.00038312,0.00032063,0.00059130,-0.00018240,-0.0004676
 8,-0.00012409,-0.00015600,0.00001827,-0.00011009,-0.00058580,-0.000467
 86,0.00129857,-0.00023027,0.00017686,-0.00008491,-0.00004749,-0.000314
 23,-0.00020195,0.00152610,-0.00212132,0.00017824,0.00162701,0.00300851
 ,0.00050112,0.45412966,0.00018018,-0.00046122,-0.00023600,0.00165929,-
 0.00041645,0.00013885,0.04491297,-0.01064975,0.01425118,0.02623064,-0.
 05081352,0.00100840,0.00009881,0.00015414,0.00026785,0.00023842,-0.000
 41635,-0.00077721,0.00133336,-0.00068575,-0.00043290,-0.00050378,0.000
 21951,0.00012637,-0.00095384,-0.00007371,0.00038358,-0.00095264,0.0003
 4926,0.00106215,-0.00024494,0.00033042,-0.00015654,-0.00020791,-0.0004
 2494,-0.00012760,0.00003394,0.00152765,-0.00101096,0.00040463,-0.00634
 329,-0.00004640,-0.07115127,0.06683283,-0.00025241,0.00137787,0.000741
 39,-0.00229615,0.00006814,-0.00021203,0.00476323,-0.00238140,-0.000304
 18,-0.14886410,0.01943297,-0.05340815,-0.00073333,0.00101164,0.0001070
 8,0.00208207,-0.00071424,0.00001304,-0.00038650,0.00106333,0.00029168,
 0.00014824,-0.00055545,-0.00022775,0.00059730,-0.00041378,-0.00008575,
 0.00159627,0.00026927,-0.00104485,0.00006728,-0.00058122,-0.00020915,-
 0.00010017,-0.00034979,-0.00014041,0.00169710,-0.00034831,0.00095333,0
 .00161219,-0.00232625,0.00073156,0.14348764,-0.01543869,0.05383367,0.0
 0038651,-0.00082892,-0.00253087,-0.01339913,-0.00221536,0.00090606,0.0
 0040115,0.00001590,0.00159715,0.00034163,-0.00003814,-0.00063470,-0.30
 360448,-0.01118694,0.01130990,-0.00643904,0.01390761,0.00146170,-0.004
 33669,0.00038411,-0.00048423,0.00140864,0.00030860,-0.00018468,0.00263
 737,0.00135955,0.00173912,0.00022575,0.00004950,0.00025340,0.00025116,
 0.00007096,0.00000993,-0.00061853,0.00017986,-0.00011656,0.00035627,-0
 .00014258,0.00013958,0.00051523,0.00028032,-0.00074805,-0.00003542,-0.
 00006939,0.00028112,0.32782678,-0.00050572,-0.00140453,-0.00269071,-0.
 01095591,0.00125125,0.00056005,0.00068500,-0.00034393,0.00074115,-0.00
 035006,0.00055204,0.00062715,-0.01223061,-0.05286987,0.00554312,0.0423
 6583,-0.01341041,-0.00569607,-0.00298752,0.00094734,0.00081338,0.00075
 197,0.00025821,-0.00024036,0.00164129,-0.00143168,-0.00056780,-0.00006
 515,0.00004197,-0.00015971,0.00034530,0.00011698,0.00002157,-0.0008293
 9,0.00024192,-0.00024578,-0.00000890,0.00000518,0.00002331,0.00014882,
 0.00032838,-0.00013615,-0.00001547,-0.00009662,-0.00019472,-0.00130594
 ,0.06216983,-0.00033981,-0.00258613,-0.00473385,-0.02911673,-0.0040404
 4,-0.00333030,-0.00188293,-0.00032453,0.00198183,0.00024723,0.00053506
 ,0.00009833,0.01547850,0.00533620,-0.05464179,0.00862298,-0.00523786,0
 .00366705,-0.00284259,0.00214271,0.00022224,0.00041558,-0.00049054,0.0
 0049743,0.00154852,-0.00014674,-0.00034052,0.00014260,0.00025931,0.000
 06804,-0.00012679,-0.00015596,0.00006563,-0.00170996,0.00002522,0.0001
 3051,0.00028743,-0.00013635,0.00029733,0.00060172,0.00023378,-0.001021
 90,-0.00002684,-0.00009772,0.00001772,-0.01369485,0.00344947,0.0561701
 3,0.00091468,0.00077190,-0.00062917,0.00326042,0.00648374,-0.01162140,
 -0.00088021,-0.00158461,-0.00162595,-0.00011494,-0.00002680,0.00012958
 ,-0.08155416,-0.05059543,0.06656495,0.00640163,0.01275764,-0.01229768,
 0.00085310,0.00086274,0.00080254,-0.00025798,0.00025765,0.00013779,-0.
 00010205,0.00035480,-0.00015631,-0.00005140,0.00007075,-0.00005363,-0.
 00026363,-0.00025855,-0.00011250,0.00001595,-0.00009718,0.00020466,0.0
 0068878,0.00026403,-0.00049793,0.00028610,0.00001171,-0.00031405,0.000
 05575,0.00000928,0.00004880,-0.00594947,-0.01756012,0.02359504,0.07674
 294,0.00041567,0.00033088,0.00013640,0.00341326,0.00738249,-0.01014549
 ,-0.00103895,-0.00176443,-0.00256345,-0.00027653,0.00077238,0.00119352
 ,-0.04473698,-0.13143162,0.11016416,-0.00447845,-0.03348705,0.02659622
 ,0.00058389,0.00181000,-0.00046924,-0.00014311,-0.00002773,0.00032543,
 -0.00007027,0.00003540,0.00029659,-0.00020648,-0.00002917,-0.00008758,
 0.00006835,0.00007720,0.00015118,0.00012410,0.00001923,-0.00002212,0.0
 0023812,0.00067983,-0.00070633,-0.00008513,-0.00007413,0.00005681,0.00
 001328,-0.00003502,-0.00017883,-0.00088056,0.00177846,0.00092942,0.044
 91856,0.15903098,0.00117502,0.00028294,0.00118798,0.00918748,0.0139442
 7,-0.02258366,-0.00254992,-0.00410351,-0.00372205,-0.00025290,0.000475
 24,0.00093136,0.06115924,0.11881037,-0.20876754,-0.00356761,-0.0059129
 3,0.01057635,0.00018488,0.00344179,-0.00006691,-0.00073303,-0.00133417
 ,0.00032109,0.00045723,-0.00078386,0.00007159,-0.00003669,-0.00007998,
 -0.00007433,-0.00099592,-0.00021023,0.00005476,0.00007567,-0.00027700,
 0.00029263,0.00045527,0.00097366,-0.00137657,-0.00018772,-0.00011340,0
 .00019113,0.00012906,-0.00008483,-0.00003178,-0.00059481,-0.00032588,0
 .00145043,-0.06443319,-0.12234348,0.22031245,0.00010438,-0.00058262,-0
 .00004693,0.00142874,0.00032457,0.00172674,0.00118473,-0.00014937,0.00
 043823,-0.00548402,0.00155655,0.00236856,0.00329358,0.01287712,-0.0135
 5788,-0.04401274,-0.05732229,0.10058539,0.00121458,-0.00050697,0.00021
 461,-0.00045494,0.00020347,-0.00014395,-0.00094629,0.00010021,-0.00009
 712,-0.00099267,-0.00036530,-0.00029682,-0.00000608,0.00028480,0.00003
 144,-0.00007545,0.00031625,-0.00000016,-0.00022424,0.00007876,0.000016
 12,-0.00041262,0.00026161,0.00033249,0.00012264,-0.00101777,-0.0037485
 8,0.00003227,0.00087658,-0.00119910,-0.00004551,0.00214122,0.00052795,
 0.04527364,-0.00024532,-0.00014493,0.00005619,-0.00127363,0.00032062,0
 .00053922,-0.00005980,-0.00134367,-0.00443385,0.00065949,-0.00411932,0
 .00459312,-0.00840364,-0.03489285,0.03328366,-0.03517107,-0.17591382,0
 .17084376,0.00093913,-0.00132042,0.00107531,0.00012601,0.00127837,-0.0
 0025019,-0.00056982,0.00069442,-0.00004782,-0.00072826,-0.00007416,-0.
 00032163,0.00013838,0.00011015,0.00000033,0.00012496,0.00020367,0.0000
 5548,0.00015740,-0.00036929,0.00029952,0.00009159,-0.00011397,0.000020
 04,-0.00017991,0.00100280,0.00025945,0.00011142,0.00186546,0.00030509,
 0.00335989,-0.00506769,-0.00235901,0.04092318,0.21788464,0.00017191,0.
 00018587,-0.00079954,-0.00042459,-0.00236085,0.00124944,0.00327197,-0.
 01006969,0.00037608,-0.00146600,0.00602064,0.00065223,-0.00156574,-0.0
 0488175,0.00889718,0.08735632,0.21575560,-0.31271686,0.00026472,0.0000
 2751,-0.00148432,-0.00011289,0.00030239,0.00043518,-0.00019219,0.00017
 418,-0.00026942,-0.00029703,-0.00006401,0.00059764,0.00023295,0.000277
 85,0.00004272,-0.00019864,-0.00009947,-0.00010200,0.00001546,0.0019081
 7,-0.00007232,-0.00013858,0.00042698,-0.00009962,-0.00131592,0.0011704
 7,-0.00102542,0.00129079,-0.00152203,-0.00059830,0.00025845,-0.0033332
 0,0.00123307,-0.08715099,-0.20391867,0.30368425\\0.00000079,-0.0000003
 6,0.00000024,-0.00000027,0.00000051,0.00000041,-0.00000019,-0.00000122
 ,-0.00000035,0.00000029,-0.00000066,-0.00000146,-0.00000070,0.00000147
 ,-0.00000019,-0.00000012,0.00000118,-0.00000139,0.00000054,-0.00000008
 ,0.00000168,0.00000015,-0.00000018,0.00000231,0.00000003,-0.00000018,0
 .00000195,-0.00000024,-0.00000006,-0.00000098,-0.00000016,0.00000058,0
 .00000047,0.00000005,-0.00000089,0.00000028,0.00000046,-0.00000183,0.0
 0000009,0.00000008,-0.00000071,-0.00000002,0.00000009,-0.00000144,-0.0
 0000185,-0.00000018,0.00000132,0.00000015,-0.00000023,0.00000182,0.000
 00046,-0.00000039,0.00000072,-0.00000181\\\@


 TRUTH, IN SCIENCE, CAN BE DEFINED AS THE WORKING HYPOTHESIS 
 BEST FITTED TO OPEN THE WAY TO THE NEXT BETTER ONE.

                              -- KONRAD LORENZ
 File lengths (MBytes):  RWF=     53 Int=      0 D2E=      0 Chk=      3 Scr=      1
 Normal termination of Gaussian 16 at Thu Aug  4 16:26:18 2022.
real 793.55
user 2988.29
sys 16.41
