You are running Q-Chem version: 5.3.2

#
# job setting
#
local host:  c262.cluster
current dir: /scratch/user/peterchao1/peterchao1/8569226_1688669764000000614032662
input file:  qchem_test.inp
output file: 
nprocs     : 0
nthreads   : 8
#
# qchem installation setting
#
QC:          /sw/restricted/qchem/sw/5.3.2
QCAUX:       /sw/restricted/qchem/sw/5.3.2/qcaux
QCPROG:      /sw/restricted/qchem/sw/5.3.2/exe/qcprog.exe_s
QCPROG_S:    /sw/restricted/qchem/sw/5.3.2/exe/qcprog.exe_s
PARALLEL:    -DSERIAL
QCMPI:       seq
#
# qchem directory setting
#
qcrun:       qchem71229
QCSCRATCH:   /scratch/user/peterchao1/peterchao1/8569226_1688669764000000614032662
QCLOCALSCR:  
QCTMPDIR:    /scratch/user/peterchao1/peterchao1/8569226_1688669764000000614032662
QCFILEPREF:  /scratch/user/peterchao1/peterchao1/8569226_1688669764000000614032662/qchem71229
QCSAVEDIR:   
workdirs:    /scratch/user/peterchao1/peterchao1/8569226_1688669764000000614032662/qchem71229
workdir0:    /scratch/user/peterchao1/peterchao1/8569226_1688669764000000614032662/qchem71229
partmpdirs =  
#
# parallel setting
#
QCRSH:           ssh
QCMPI:           seq
QCMPIRUN:        
QCMACHINEFILE:   /scratch/user/peterchao1/peterchao1/8569226_1688669764000000614032662/qchem71229/hostfile

#
# env setting
#
exported envs:   QC QCAUX QCSCRATCH QCRUNNAME QCFILEPREF QCPROG QCPROG_S GUIFILE

Running Job 1 of 1 qchem_test.inp
qchem qchem_test.inp_71229.0 /scratch/user/peterchao1/peterchao1/8569226_1688669764000000614032662/qchem71229/ 0
/sw/restricted/qchem/sw/5.3.2/exe/qcprog.exe_s qchem_test.inp_71229.0 /scratch/user/peterchao1/peterchao1/8569226_1688669764000000614032662/qchem71229/
                  Welcome to Q-Chem
     A Quantum Leap Into The Future Of Chemistry


 Q-Chem 5.3, Q-Chem, Inc., Pleasanton, CA (2020)

 License issued to: MRG Daniel Tabor and Mike Hall, Texas A&M University

 Yihan Shao,  Zhengting Gan,  E. Epifanovsky,  A. T. B. Gilbert,  M. Wormit,  
 J. Kussmann,  A. W. Lange,  A. Behn,  Jia Deng,  Xintian Feng,  D. Ghosh,  
 M. Goldey,  P. R. Horn,  L. D. Jacobson,  I. Kaliman,  T. Kus,  A. Landau,  
 Jie Liu,  E. I. Proynov,  R. M. Richard,  R. P. Steele,  E. J. Sundstrom,  
 H. L. Woodcock III,  P. M. Zimmerman,  D. Zuev,  B. Alam,  B. Albrecht,  
 A. Aldossary,  E. Alguire,  S. A. Baeppler,  D. Barton,  Z. Benda,  
 Y. A. Bernard,  E. J. Berquist,  K. B. Bravaya,  H. Burton,  K. Carter-Fenk,  
 D. Casanova,  Chun-Min Chang,  Yunqing Chen,  A. Chien,  K. D. Closser,  
 M. P. Coons,  S. Coriani,  S. Dasgupta,  A. L. Dempwolff,  M. Diedenhofen,  
 Hainam Do,  R. G. Edgar,  Po-Tung Fang,  S. Faraji,  S. Fatehi,  
 Qingguo Feng,  J. Fosso-Tande,  J. Gayvert,  Qinghui Ge,  A. Ghysels,  
 G. Gidofalvi,  J. Gomes,  J. Gonthier,  S. Gulania,  A. Gunina,  D. Hait,  
 M. W. D. Hanson-Heine,  S. Hammes-Schiffer,  P. H. P. Harbach,  
 A. W. Hauser,  M. F. Herbst,  J. E. Herr,  E. G. Hohenstein,  Z. C. Holden,  
 S. Houck,  Kerwin Hui,  B. C. Huynh,  M. Ivanov,  T.-C. Jagau,  Hyunjun Ji,  
 B. Kaduk,  K. Khistyaev,  Jaehoon Kim,  P. Klunzinger,  K. Koh,  
 D. Kosenkov,  L. Koulias,  T. Kowalczyk,  C. M. Krauter,  A. Kunitsa,  
 Ka Un Lao,  A. Laurent,  K. V. Lawler,  Joonho Lee,  D. Lefrancois,  
 S. Lehtola,  D. S. Levine,  Yi-Pei Li,  You-Sheng Lin,  Fenglai Liu,  
 Kuan-Yu Liu,  E. Livshits,  M. Loipersberger,  A. Luenser,  A. Manjanath,  
 P. Manohar,  E. Mansoor,  S. F. Manzer,  Shan-Ping Mao,  Yuezhi Mao,  
 N. Mardirossian,  A. V. Marenich,  T. Markovich,  L. A. Martinez-Martinez,  
 S. A. Maurer,  N. J. Mayhall,  S. C. McKenzie,  J.-M. Mewes,  P. Morgante,  
 A. F. Morrison,  J. W. Mullinax,  K. Nanda,  T. S. Nguyen-Beck,  
 R. Olivares-Amaya,  K. J. Oosterbaan,  J. A. Parkhill,  S. K. Paul,  
 F. Pavosevic,  Zheng Pei,  T. M. Perrine,  F. Plasser,  P. Pokhilko,  
 S. Prager,  A. Prociuk,  E. Ramos,  B. Rana,  D. R. Rehn,  F. Rob,  
 E. Rossomme,  M. Scheurer,  M. Schneider,  N. Sergueev,  S. M. Sharada,  
 S. Sharma,  W. Skomorowski,  D. W. Small,  T. Stauch,  C. J. Stein,  
 T. Stein,  Yu-Chuan Su,  S. P. Veccham,  Zhen Tao,  A. J. W. Thom,  
 A. Tkatchenko,  T. Tsuchimochi,  N. M. Tubman,  L. Vogt,  M. L. Vidal,  
 O. Vydrov,  M. A. Watson,  J. Wenzel,  M. de Wergifosse,  T. A. Wesolowski,  
 A. White,  J. Witte,  A. Yamada,  Jun Yang,  K. Yao,  S. Yeganeh,  
 S. R. Yost,  Zhi-Qiang You,  A. Zech,  Igor Ying Zhang,  Xing Zhang,  
 Yan Zhao,  Ying Zhu,  B. R. Brooks,  G. K. L. Chan,  C. J. Cramer,  
 M. S. Gordon,  W. J. Hehre,  A. Klamt,  M. W. Schmidt,  C. D. Sherrill,  
 D. G. Truhlar,  A. Aspuru-Guzik,  R. Baer,  A. T. Bell,  N. A. Besley,  
 Jeng-Da Chai,  A. E. DePrince, III,  R. A. DiStasio Jr.,  A. Dreuw,  
 B. D. Dunietz,  T. R. Furlani,  Chao-Ping Hsu,  Yousung Jung,  Jing Kong,  
 D. S. Lambrecht,  WanZhen Liang,  C. Ochsenfeld,  V. A. Rassolov,  
 L. V. Slipchenko,  J. E. Subotnik,  T. Van Voorhis,  J. M. Herbert,  
 A. I. Krylov,  P. M. W. Gill,  M. Head-Gordon

 Contributors to earlier versions of Q-Chem not listed above: 
 R. D. Adamson,  B. Austin,  J. Baker,  G. J. O. Beran,  K. Brandhorst,  
 S. T. Brown,  E. F. C. Byrd,  A. K. Chakraborty,  C.-L. Cheng,  
 Siu Hung Chien,  D. M. Chipman,  D. L. Crittenden,  H. Dachsel,  
 R. J. Doerksen,  A. D. Dutoi,  L. Fusti-Molnar,  W. A. Goddard III,  
 A. Golubeva-Zadorozhnaya,  S. R. Gwaltney,  G. Hawkins,  A. Heyden,  
 S. Hirata,  G. Kedziora,  F. J. Keil,  C. Kelley,  Jihan Kim,  R. A. King,  
 R. Z. Khaliullin,  P. P. Korambath,  W. Kurlancheek,  A. M. Lee,  M. S. Lee,  
 S. V. Levchenko,  Ching Yeh Lin,  D. Liotard,  R. C. Lochan,  I. Lotan,  
 P. E. Maslen,  N. Nair,  D. P. O'Neill,  D. Neuhauser,  E. Neuscamman,  
 C. M. Oana,  R. Olson,  B. Peters,  R. Peverati,  P. A. Pieniazek,  
 Y. M. Rhee,  J. Ritchie,  M. A. Rohrdanz,  E. Rosta,  N. J. Russ,  
 H. F. Schaefer III,  N. E. Schultz,  N. Shenvi,  A. C. Simmonett,  A. Sodt,  
 D. Stuck,  K. S. Thanthiriwatte,  V. Vanovschi,  Tao Wang,  A. Warshel,  
 C. F. Williams,  Q. Wu,  X. Xu,  W. Zhang

 Please cite Q-Chem as follows:
 Y. Shao et al., Mol. Phys. 113, 184-215 (2015)
 DOI: 10.1080/00268976.2014.952696

 Q-Chem 5.3.2 for Intel X86 EM64T Linux

 Parts of Q-Chem use Armadillo 9.800.1 (Horizon Scraper).
 http://arma.sourceforge.net/

 Q-Chem begins on Thu Jul  6 13:56:20 2023  

Host: 
0

     Scratch files written to /scratch/user/peterchao1/peterchao1/8569226_1688669764000000614032662/qchem71229//
 Dec820 |scratch|qcdevops|jenkins|workspace|build_RNUM -1
Processing $rem in /sw/restricted/qchem/sw/5.3.2/config/preferences:
Processing $rem in /home/peterchao1/.qchemrc:

 Q-Chem warning in module libgen/rem_setup.C, line 2945:

 Neither GIA nor STOLL is specified by user. Use STOLL as the default


Checking the input file for inconsistencies... 	...done.

--------------------------------------------------------------
User input:
--------------------------------------------------------------
$molecule
0 1
--
0 1
C       -1.838804    0.007886    1.689158
C       -2.393894    0.003055    0.295466
N       -1.975880   -1.235636   -0.491697
O       -2.153059   -2.275681    0.077836
O       -1.534041   -1.063316   -1.598004
N       -3.924131    0.024579    0.273716
O       -4.437612    0.716529    1.111826
O       -4.462193   -0.623354   -0.582171
N       -1.937599    1.216148   -0.508475
O       -2.768256    1.797579   -1.148402
O       -0.763102    1.474883   -0.426842
H       -2.176944    0.916335    2.208127
H       -0.740853   -0.013694    1.642214
H       -2.204920   -0.882764    2.220506
--
0 1
C        1.838899   -0.007815   -1.689194
C        2.393919   -0.003041   -0.295474
N        1.975831    1.235604    0.491724
O        1.533894    1.063219    1.597982
O        2.153049    2.275683   -0.077734
N        1.937605   -1.216184    0.508384
O        0.763118   -1.474940    0.426673
O        2.768241   -1.797631    1.148324
N        3.924153   -0.024531   -0.273640
O        4.437697   -0.716395   -1.111783
O        4.462151    0.623342    0.582333
H        2.204995    0.882889   -2.220465
H        0.740945    0.013722   -1.642290
H        2.177105   -0.916216   -2.208203
$end

$rem
JOBTYPE           eda
EDA2              2
METHOD            wB97X-D
BASIS             def2-SV(P)
SCF_CONVERGENCE   8
THRESH            14
SYMMETRY          false
DISP_FREE_X       wB97X-D
DISP_FREE_C       none
EDA_BSSE          true
$end
--------------------------------------------------------------
 ----------------------------------------------------------------
             Standard Nuclear Orientation (Angstroms)
    I     Atom           X                Y                Z
 ----------------------------------------------------------------
    1      C      -1.8388040749     0.0078853688     1.6891578249
    2      C      -2.3938939984     0.0030549739     0.2954657923
    3      N      -1.9758799644    -1.2356356898    -0.4916977188
    4      O      -2.1530590035    -2.2756809341     0.0778348231
    5      O      -1.5340409023    -1.0633152162    -1.5980046202
    6      N      -3.9241309970     0.0245789948     0.2737157175
    7      O      -4.4376120379     0.7165286373     1.1118259876
    8      O      -4.4621929548    -0.6233536322    -0.5821715915
    9      N      -1.9375989451     1.2161483171    -0.5084746596
   10      O      -2.7682559055     1.7975795993    -1.1484014545
   11      O      -0.7631019476     1.4748832731    -0.4268414834
   12      H      -2.1769440967     0.9163341476     2.2081271980
   13      H      -0.7408530725    -0.0136946192     1.6422138760
   14      H      -2.2049201108    -0.8827648575     2.2205054208
   15      C       1.8388991107    -0.0078142022    -1.6891939797
   16      C       2.3939190341    -0.0030408072    -0.2954739471
   17      N       1.9758310001     1.2356038565     0.4917245640
   18      O       1.5338939380     1.0632183828     1.5979824654
   19      O       2.1530490392     2.2756831007    -0.0777329778
   20      N       1.9376049808    -1.2161841504     0.5083835048
   21      O       0.7631179833    -1.4749401064     0.4266723286
   22      O       2.7682409412    -1.7976314326     1.1483232997
   23      N       3.9241530327    -0.0245308281    -0.2736398722
   24      O       4.4376970736    -0.7163944706    -1.1117831423
   25      O       4.4621509905     0.6233417988     0.5823334367
   26      H       2.2049951466     0.8828900242    -2.2204645755
   27      H       0.7409451082     0.0137227859    -1.6422900307
   28      H       2.1771051324    -0.9162149809    -2.2082033527
 ----------------------------------------------------------------
 Molecular Point Group                 C1    NOp =  1
 Largest Abelian Subgroup              C1    NOp =  1
 Nuclear Repulsion Energy =        2132.90565987 hartrees
 There are       84 alpha and       84 beta electrons
 Requested basis set is def2-SV(P)
 There are 144 shells and 320 basis functions

 Total QAlloc Memory Limit   7500 MB
 Mega-Array Size       188 MB
 MEM_STATIC part       192 MB
 A cutoff of  1.0D-14 yielded   8120 shell pairs
 There are     38960 function pairs (     43997 Cartesian)
 Smallest overlap matrix eigenvalue = 1.27E-03

 Scale SEOQF with 1.000000e-01/1.000000e-01/1.000000e-01

 Standard Electronic Orientation quadrupole field applied
 Nucleus-field energy     =     0.0000000482 hartrees

 -----------------------------------------------------------------------
  General SCF calculation program by
  Eric Jon Sundstrom, Paul Horn, Yuezhi Mao, Dmitri Zuev, Alec White,
  David Stuck, Shaama M.S., Shane Yost, Joonho Lee, David Small,
  Daniel Levine, Susi Lehtola, Hugh Burton, Evgeny Epifanovsky,
  Bang C. Huynh
 -----------------------------------------------------------------------
================================================================
                 ALMO-EDA with the EDA2 driver                  
================================================================
 The second-generation ALMO-EDA (for DFT):                      
 P. R. Horn, Y. Mao and M. Head-Gordon, PCCP, 18, 23067 (2016)  
 Decomposition of the frozen energy:                            
 P. R. Horn, Y. Mao and M. Head-Gordon, JCP, 144, 114107 (2016) 
Using eda2 option set 2
Option set summary: Frozen orbital wavefunction, initial wavefunction decomposition, and traditional AO-based POL.
--------------------------------
Printing EDA Options
--------------------------------
eda_child_super_basis      0
fragmo_guess_mode          0
child_mp                   0
child_mp_orders            0
cls_elec                   1
cls_disp                   0
scfmi_mode                 1
scfmi_occs                 0
scfmi_virts                0
frz_relax                  0
frz_relax_method           0
dc_pen_start               0
dc_pen_conv                0
dc_pen_increment           0
dc_pen_steps               0
dc_pen_thresh_factor       0
dc_pen_pre_newton_thresh   0
frz_ortho_decomp           1
frz_ortho_decomp_conv      6
plot_mo_ortho_frz          0
frgm_method                2
scfmi_freeze_ss            0
separate_rehyb             0
plot_diff_den              0
eda_nocv                   0
eda_vct_relax              1
disp_free_x                -110
disp_free_c                0
eda_bsse                   1
eda_pct_a                  0
eda_covp                   0
--------------------------------
Attempting to make child job directory: /scratch/user/peterchao1/peterchao1/8569226_1688669764000000614032662/qchem71229//Frg1/
Attempting to make child job directory: /scratch/user/peterchao1/peterchao1/8569226_1688669764000000614032662/qchem71229//Frg2/
Creating input file /scratch/user/peterchao1/peterchao1/8569226_1688669764000000614032662/qchem71229/Frg1.input
using default PutDataFrgm: nothing
calling putenv with: QCSCRATCH=/scratch/user/peterchao1/peterchao1/8569226_1688669764000000614032662/qchem71229/ 
Spawning Job For Fragment 0
Done Job For Fragment 0
calling putenv with: QCSCRATCH=/scratch/user/peterchao1/peterchao1/8569226_1688669764000000614032662 
calling putenv with: QCTHREADS=8 
Creating input file /scratch/user/peterchao1/peterchao1/8569226_1688669764000000614032662/qchem71229/Frg2.input
using default PutDataFrgm: nothing
calling putenv with: QCSCRATCH=/scratch/user/peterchao1/peterchao1/8569226_1688669764000000614032662/qchem71229/ 
Spawning Job For Fragment 1
Done Job For Fragment 1
calling putenv with: QCSCRATCH=/scratch/user/peterchao1/peterchao1/8569226_1688669764000000614032662 
calling putenv with: QCTHREADS=8 
Doing General SCFMI
 Exchange:     0.2220 Hartree-Fock + 1.0000 wB97X-D + LR-HF
 Correlation:  1.0000 wB97X-D
 Using SG-2 standard quadrature grid
 Dispersion:   Grimme D
performing fock build before subrot guess so that all methods have access
Printing subrot_rss_gen Method Specification:
Occupied Subspace Method is 0
Virtual Subspace Method is 0
Energy of the unrelaxed supersystem initial determinant -1385.063033697468
write pseudocanon occs and virts to disk
write pseudocanon orbital energies to disk
Tolerance of ortho_decomp_scf: 1.00e-06
GDM subspace size: 20
Beginning the Orthogonal Decomposition of the Initial Supersystem Wavefunction
    1   -1385.0265637318      2.70e-02     ortho_decomp Preconditoned Steepest Descent
    2   -1385.0307118197      3.64e-04     ortho_decomp BFGS Step
    3   -1385.0307168090      2.69e-05     ortho_decomp BFGS Step
    4   -1385.0307168232      9.07e-07     ortho_decomp 00000 Convergence criterion met
 Exchange:     0.2220 Hartree-Fock + 1.0000 wB97X-D + LR-HF
 Correlation:  1.0000 wB97X-D
 Using SG-2 standard quadrature grid
 Dispersion:   Grimme D
 Long-range K will be added via erf
 Coulomb attenuation parameter = 0.2 bohr**(-1)
 Exchange:     0.2220 Hartree-Fock + 1.0000 wB97X-D + LR-HF
 Correlation:  1.0000 wB97X-D
 Using SG-2 standard quadrature grid
 Dispersion:   Grimme D
 Long-range K will be added via erf
 Coulomb attenuation parameter = 0.2 bohr**(-1)
 Exchange:     0.2220 Hartree-Fock + 1.0000 wB97X-D + LR-HF
 Correlation:  1.0000 wB97X-D
 Using SG-2 standard quadrature grid
 Dispersion:   Grimme D
 Long-range K will be added via erf
 Coulomb attenuation parameter = 0.2 bohr**(-1)
Doing General SCFMI
 Exchange:     0.2220 Hartree-Fock + 1.0000 wB97X-D + LR-HF
 Correlation:  1.0000 wB97X-D
 Using SG-2 standard quadrature grid
 Dispersion:   Grimme D
performing fock build at end of subrot_r(subrot) constructor so that all methods have access
<S^2> of initial wavefunction before polarization iterations 0.0000000000
Beginning iterations for the determination of the polarized wavefunction
Energy prior to optimization (guess energy) = -1385.063033697468
Begin Timing: Total SCF Calculation
begin iterations for algorithm: DIIS         
the SCF tolerance is set to 1.00e-08
    1   -1385.0630336975      1.76e-04     00000 
    2   -1385.0636817362      2.08e-04     00000 
    3   -1385.0644152599      5.77e-05     00000 
    4   -1385.0644930578      2.26e-05     00000 
    5   -1385.0645022546      1.09e-05     00000 
    6   -1385.0645046835      2.78e-06     00000 
    7   -1385.0645048911      1.99e-06     00000 
    8   -1385.0645049764      7.04e-07     00000 
    9   -1385.0645049907      2.33e-07     00000 
   10   -1385.0645049929      1.05e-07     00000 
   11   -1385.0645049935      3.96e-08     00000 
   12   -1385.0645049937      1.52e-08     00000 
   13   -1385.0645049937      7.04e-09     00000 Convergence criterion met
write pseudocanon occs and virts to disk
write pseudocanon orbital energies to disk
Timing for Total SCF: 41.00s (wall), 314.81s (cpu)
<S^2> of polarized wavefunction after polarization iterations 0.0000000000
relaxing scfmi constraint to allow all rotations in the entire AO span
Doing General SCFMI
 Exchange:     0.2220 Hartree-Fock + 1.0000 wB97X-D + LR-HF
 Correlation:  1.0000 wB97X-D
 Using SG-2 standard quadrature grid
 Dispersion:   Grimme D
performing fock build at end of subrot_r(subrot) constructor so that all methods have access
<S^2> of polarized wavefunction before ct-allowed iterations 0.0000000000
Beginning iterations for the determination of the CT-Allowed wavefunction
Energy prior to optimization (guess energy) = -1385.064504993698
Begin Timing: Total SCF Calculation
begin iterations for algorithm: DIIS         
the SCF tolerance is set to 1.00e-08
    1   -1385.0645049937      3.68e-04     00000 
    2   -1385.0724859679      5.04e-05     00000 
    3   -1385.0728127436      2.48e-05     00000 
    4   -1385.0728248046      2.22e-05     00000 
    5   -1385.0728445040      5.35e-06     00000 
    6   -1385.0728455986      1.56e-06     00000 
    7   -1385.0728457079      5.10e-07     00000 
    8   -1385.0728457243      2.17e-07     00000 
    9   -1385.0728457267      8.87e-08     00000 
   10   -1385.0728457273      4.94e-08     00000 
   11   -1385.0728457276      1.85e-08     00000 
   12   -1385.0728457276      7.16e-09     00000 Convergence criterion met
write pseudocanon occs and virts to disk
write pseudocanon orbital energies to disk
Timing for Total SCF: 38.00s (wall), 295.94s (cpu)
<S^2> of ct_allowed wavefunction after ct-allowed iterations 0.0000000000
Attempting to make child job directory: /scratch/user/peterchao1/peterchao1/8569226_1688669764000000614032662/qchem71229//FrgBSSE1/
Attempting to make child job directory: /scratch/user/peterchao1/peterchao1/8569226_1688669764000000614032662/qchem71229//FrgBSSE2/
Creating input file /scratch/user/peterchao1/peterchao1/8569226_1688669764000000614032662/qchem71229/FrgBSSE1.input
calling putenv with: QCSCRATCH=/scratch/user/peterchao1/peterchao1/8569226_1688669764000000614032662/qchem71229/ 
Spawning Job For Fragment 0
Done Job For Fragment 0
calling putenv with: QCSCRATCH=/scratch/user/peterchao1/peterchao1/8569226_1688669764000000614032662 
calling putenv with: QCTHREADS=8 
Creating input file /scratch/user/peterchao1/peterchao1/8569226_1688669764000000614032662/qchem71229/FrgBSSE2.input
calling putenv with: QCSCRATCH=/scratch/user/peterchao1/peterchao1/8569226_1688669764000000614032662/qchem71229/ 
Spawning Job For Fragment 1
Done Job For Fragment 1
calling putenv with: QCSCRATCH=/scratch/user/peterchao1/peterchao1/8569226_1688669764000000614032662 
calling putenv with: QCTHREADS=8 
====================================================================
   Evaluating the BSSE with fragment SCF in the supersystem basis
   Fragment contributions (kJ/mol) 
   Frgm 1: 6.9250
   Frgm 2: 6.9251
   BSSE (kJ/mol) = 13.8501
====================================================================

================================
        Results of EDA2         
================================
Basic EDA Quantities
--------------------
Fragment Energies (Ha):
1 -692.5293822409
2 -692.5293821648
--------------------
  E_prp (kJ/mol) = -0.0000
  E_frz (kJ/mol) = -11.2092
  E_pol (kJ/mol) = -3.8629
  E_vct (kJ/mol) = -8.0488 (CP-corrected)
  E_int (kJ/mol) = -23.1209 (CP-corrected)
--------------------


Decomposition of frozen interaction energy
--------------------
  --------------------
  Orthogonal Frozen Decomposition:
  --------------------
     E_elec   (ELEC)   (kJ/mol) = -49.9860
     E_pauli  (PAULI)  (kJ/mol) = 55.7791
     E_disp   (DISP)   (kJ/mol) = -17.0023
  --------------------
  Classical Frozen Decomposition:
  --------------------
     E_cls_elec  (CLS ELEC)  (kJ/mol) = -22.5497
     E_mod_pauli (MOD PAULI) (kJ/mol) = 28.3428 (FRZ - CLS ELEC - DISP)
     E_disp      (DISP)      (kJ/mol) = -17.0023
  --------------------
--------------------

Simplified EDA Summary (kJ/mol)
--------------------
 PREPARATION      -0.0000
 FROZEN           -11.2092 (ELEC + PAULI + DISP)
[ELEC + PAULI = 5.7931, DISP = -17.0023]
 POLARIZATION    -3.8629
 CHARGE TRANSFER -8.0488     (counterpoise-corrected)
 TOTAL           -23.1209     (PRP + FRZ + POL + CT)
--------------------
 
 --------------------------------------------------------------
 
                    Orbital Energies (a.u.)
 --------------------------------------------------------------
 
 Alpha MOs
 -- Occupied --
-19.3563 -19.3563 -19.3538 -19.3537 -19.3493 -19.3493 -19.3491 -19.3491
-19.3467 -19.3467 -19.3461 -19.3461 -14.7530 -14.7530 -14.7478 -14.7478
-14.7451 -14.7451 -10.4997 -10.4997 -10.3573 -10.3573  -1.4200  -1.4193
 -1.3996  -1.3988  -1.3946  -1.3944  -1.2340  -1.2335  -1.2289  -1.2288
 -1.2263  -1.2263  -1.0485  -1.0481  -0.8708  -0.8690  -0.8586  -0.8583
 -0.8532  -0.8524  -0.7330  -0.7265  -0.7232  -0.7220  -0.7161  -0.7146
 -0.6930  -0.6924  -0.6824  -0.6788  -0.6768  -0.6765  -0.6625  -0.6607
 -0.6563  -0.6560  -0.6531  -0.6528  -0.5922  -0.5916  -0.5593  -0.5586
 -0.5553  -0.5547  -0.4817  -0.4777  -0.4682  -0.4673  -0.4603  -0.4580
 -0.4568  -0.4530  -0.4505  -0.4497  -0.4474  -0.4468  -0.4413  -0.4411
 -0.4364  -0.4360  -0.4353  -0.4352
 -- Virtual --
 -0.0585  -0.0577  -0.0526  -0.0491  -0.0432  -0.0425   0.1180   0.1220
  0.1256   0.1271   0.1428   0.1509   0.1876   0.1884   0.1973   0.2006
  0.2038   0.2171   0.2285   0.2466   0.2983   0.3197   0.3242   0.3277
  0.3388   0.3523   0.4192   0.4239   0.4263   0.4349   0.4375   0.4524
  0.4806   0.4825   0.4925   0.5021   0.5027   0.5114   0.5389   0.5417
  0.5504   0.5565   0.5574   0.5649   0.6461   0.6507   0.6555   0.6570
  0.6681   0.6701   0.7147   0.7262   0.7283   0.7340   0.7376   0.7472
  0.7527   0.7663   0.7690   0.7716   0.7736   0.7984   0.8411   0.8416
  0.8534   0.8684   0.8930   0.9027   0.9138   0.9176   0.9407   0.9467
  0.9517   0.9527   0.9572   0.9599   0.9614   0.9669   0.9741   0.9813
  1.0063   1.0104   1.0260   1.0308   1.0321   1.0505   1.0551   1.0692
  1.0709   1.0744   1.1000   1.1070   1.1085   1.1098   1.1198   1.1244
  1.1328   1.1506   1.1519   1.1814   1.1822   1.1909   1.1909   1.2091
  1.2118   1.2451   1.2649   1.2659   1.2963   1.3179   1.3465   1.3519
  1.3747   1.3754   1.4094   1.4114   1.4291   1.4469   1.4898   1.4944
  1.5024   1.5174   1.5195   1.5328   1.6939   1.6993   1.7207   1.7250
  1.7512   1.7565   1.7944   1.7961   1.8015   1.8076   1.8120   1.8121
  1.8140   1.8155   1.8399   1.8402   1.8948   1.8959   2.0236   2.0358
  2.0410   2.0502   2.1471   2.1519   2.1541   2.1578   2.1648   2.1709
  2.3207   2.3271   2.3337   2.3379   2.3414   2.3446   2.3828   2.3841
  2.4124   2.4151   2.4186   2.4260   2.5000   2.5005   2.5119   2.5130
  2.5273   2.5375   2.5600   2.5619   2.6112   2.6126   2.6199   2.6240
  2.6374   2.6378   2.6448   2.6480   2.6630   2.6642   2.6774   2.6786
  2.6821   2.6956   2.7137   2.7139   2.7199   2.7226   2.7247   2.7273
  2.7816   2.7872   2.7958   2.8041   2.8417   2.8489   2.8535   2.8604
  3.0811   3.0848   3.0959   3.0978   3.1053   3.1067   3.1935   3.2007
  3.2287   3.2326   3.2468   3.2496   3.3554   3.3572   3.3661   3.3682
  3.3684   3.3708   3.4284   3.4376   3.4792   3.4792   3.4909   3.5012
  3.7593   3.7608   3.7643   3.7664   3.7883   3.7942   3.8450   3.8610
  3.8631   3.8650   3.8807   3.8838
 --------------------------------------------------------------
 
          Ground-State Mulliken Net Atomic Charges

     Atom                 Charge (a.u.)
  ----------------------------------------
      1 C                    -0.258952
      2 C                     0.120591
      3 N                     0.255189
      4 O                    -0.179432
      5 O                    -0.204993
      6 N                     0.240317
      7 O                    -0.194009
      8 O                    -0.188672
      9 N                     0.246115
     10 O                    -0.178281
     11 O                    -0.220002
     12 H                     0.184985
     13 H                     0.192339
     14 H                     0.184800
     15 C                    -0.258943
     16 C                     0.120589
     17 N                     0.255191
     18 O                    -0.204995
     19 O                    -0.179430
     20 N                     0.246113
     21 O                    -0.219998
     22 O                    -0.178282
     23 N                     0.240318
     24 O                    -0.194009
     25 O                    -0.188672
     26 H                     0.184801
     27 H                     0.192333
     28 H                     0.184987
  ----------------------------------------
  Sum of atomic charges =     0.000000

 -----------------------------------------------------------------
                    Cartesian Multipole Moments
 -----------------------------------------------------------------
    Charge (ESU x 10^10)
                 0.0000
    Dipole Moment (Debye)
         X       0.0002      Y       0.0001      Z      -0.0001
       Tot       0.0003
    Quadrupole Moments (Debye-Ang)
        XX    -144.9466     XY      -0.2176     YY    -133.3256
        XZ     -11.2054     YZ      -0.3740     ZZ    -120.4015
    Octopole Moments (Debye-Ang^2)
       XXX       0.0005    XXY      -0.0003    XYY       0.0013
       YYY       0.0009    XXZ      -0.0017    XYZ       0.0003
       YYZ      -0.0004    XZZ       0.0005    YZZ      -0.0004
       ZZZ       0.0002
    Hexadecapole Moments (Debye-Ang^3)
      XXXX   -6545.7404   XXXY      65.2307   XXYY   -1195.9785
      XYYY     -27.4363   YYYY   -1155.8724   XXXZ      15.2478
      XXYZ     -36.3705   XYYZ     -16.5931   YYYZ      20.1087
      XXZZ   -1113.6361   XYZZ      17.2413   YYZZ    -315.7529
      XZZZ     -13.9563   YZZZ     -10.4908   ZZZZ    -745.2971
 -----------------------------------------------------------------
Archival summary:
1\1\c262.cluster\SP\ProcedureUnspecified\BasisUnspecified\12646\petercha\ThuJul614:00:572023ThuJul614:00:572023\0\\#,ProcedureUnspecified,BasisUnspecified,\\0,1\O\N,1,1.20543\O,2,1.19898,1,127.379\C,2,1.52516,1,115.247,3,179.62,0\C,4,1.50018,2,112.113,1,45.7516,0\H,5,1.09917,4,109.261,2,-60.5562,0\H,5,1.09952,4,109.109,2,59.8566,0\H,5,1.09983,4,108.847,2,179.658,0\N,4,1.52601,2,106.964,1,-77.8431,0\O,9,1.19894,4,114.748,2,173.149,0\O,9,1.20367,4,117.287,2,-7.92566,0\N,4,1.53054,2,106.287,1,169.086,0\O,12,1.20078,4,116.779,2,94.0938,0\O,12,1.20203,4,115.168,2,-84.5972,0\H,1,2.42373,2,116.185,3,-105.18,0\C,15,1.09917,1,130.774,2,-176.086,0\H,16,1.09952,15,110.095,1,170.421,0\H,16,1.09983,15,109.709,1,-68.6394,0\C,16,1.50018,15,109.26,1,50.613,0\N,19,1.52516,16,112.113,15,60.5551,0\O,20,1.19898,19,117.373,16,134.588,0\O,20,1.20543,19,115.247,16,-45.7513,0\N,19,1.52601,16,112.363,15,-59.9568,0\O,23,1.19894,19,114.748,16,-49.7108,0\O,23,1.20367,19,117.287,16,131.364,0\N,19,1.53054,16,112.526,15,-179.694,0\O,26,1.20078,19,116.779,16,142.833,0\O,26,1.20203,19,115.168,16,-38.4761,0\\\@

 Total job time:  276.98s(wall), 1127.29s(cpu) 
 Thu Jul  6 14:00:57 2023

        *************************************************************
        *                                                           *
        *  Thank you very much for using Q-Chem.  Have a nice day.  *
        *                                                           *
        *************************************************************


remove work dirs /scratch/user/peterchao1/peterchao1/8569226_1688669764000000614032662/qchem71229.0 -- /scratch/user/peterchao1/peterchao1/8569226_1688669764000000614032662/qchem71229.-1
rm -rf /scratch/user/peterchao1/peterchao1/8569226_1688669764000000614032662/qchem71229
real 292.89
user 1824.93
sys 64.66
