You are running Q-Chem version: 5.3.2

#
# job setting
#
local host:  c024.cluster
current dir: /scratch/user/peterchao1/peterchao1/10001414_1712071972000000424150449
input file:  qchem_test.inp
output file: 
nprocs     : 0
nthreads   : 8
#
# qchem installation setting
#
QC:          /sw/restricted/qchem/sw/5.3.2
QCAUX:       /sw/restricted/qchem/sw/5.3.2/qcaux
QCPROG:      /sw/restricted/qchem/sw/5.3.2/exe/qcprog.exe_s
QCPROG_S:    /sw/restricted/qchem/sw/5.3.2/exe/qcprog.exe_s
PARALLEL:    -DSERIAL
QCMPI:       seq
#
# qchem directory setting
#
qcrun:       qchem242798
QCSCRATCH:   /scratch/user/peterchao1/peterchao1/10001414_1712071972000000424150449
QCLOCALSCR:  
QCTMPDIR:    /scratch/user/peterchao1/peterchao1/10001414_1712071972000000424150449
QCFILEPREF:  /scratch/user/peterchao1/peterchao1/10001414_1712071972000000424150449/qchem242798
QCSAVEDIR:   
workdirs:    /scratch/user/peterchao1/peterchao1/10001414_1712071972000000424150449/qchem242798
workdir0:    /scratch/user/peterchao1/peterchao1/10001414_1712071972000000424150449/qchem242798
partmpdirs =  
#
# parallel setting
#
QCRSH:           ssh
QCMPI:           seq
QCMPIRUN:        
QCMACHINEFILE:   /scratch/user/peterchao1/peterchao1/10001414_1712071972000000424150449/qchem242798/hostfile

#
# env setting
#
exported envs:   QC QCAUX QCSCRATCH QCRUNNAME QCFILEPREF QCPROG QCPROG_S GUIFILE

Running Job 1 of 1 qchem_test.inp
qchem qchem_test.inp_242798.0 /scratch/user/peterchao1/peterchao1/10001414_1712071972000000424150449/qchem242798/ 0
/sw/restricted/qchem/sw/5.3.2/exe/qcprog.exe_s qchem_test.inp_242798.0 /scratch/user/peterchao1/peterchao1/10001414_1712071972000000424150449/qchem242798/
                  Welcome to Q-Chem
     A Quantum Leap Into The Future Of Chemistry


 Q-Chem 5.3, Q-Chem, Inc., Pleasanton, CA (2020)

 License issued to: MRG Daniel Tabor and Mike Hall, Texas A&M University

 Yihan Shao,  Zhengting Gan,  E. Epifanovsky,  A. T. B. Gilbert,  M. Wormit,  
 J. Kussmann,  A. W. Lange,  A. Behn,  Jia Deng,  Xintian Feng,  D. Ghosh,  
 M. Goldey,  P. R. Horn,  L. D. Jacobson,  I. Kaliman,  T. Kus,  A. Landau,  
 Jie Liu,  E. I. Proynov,  R. M. Richard,  R. P. Steele,  E. J. Sundstrom,  
 H. L. Woodcock III,  P. M. Zimmerman,  D. Zuev,  B. Alam,  B. Albrecht,  
 A. Aldossary,  E. Alguire,  S. A. Baeppler,  D. Barton,  Z. Benda,  
 Y. A. Bernard,  E. J. Berquist,  K. B. Bravaya,  H. Burton,  K. Carter-Fenk,  
 D. Casanova,  Chun-Min Chang,  Yunqing Chen,  A. Chien,  K. D. Closser,  
 M. P. Coons,  S. Coriani,  S. Dasgupta,  A. L. Dempwolff,  M. Diedenhofen,  
 Hainam Do,  R. G. Edgar,  Po-Tung Fang,  S. Faraji,  S. Fatehi,  
 Qingguo Feng,  J. Fosso-Tande,  J. Gayvert,  Qinghui Ge,  A. Ghysels,  
 G. Gidofalvi,  J. Gomes,  J. Gonthier,  S. Gulania,  A. Gunina,  D. Hait,  
 M. W. D. Hanson-Heine,  S. Hammes-Schiffer,  P. H. P. Harbach,  
 A. W. Hauser,  M. F. Herbst,  J. E. Herr,  E. G. Hohenstein,  Z. C. Holden,  
 S. Houck,  Kerwin Hui,  B. C. Huynh,  M. Ivanov,  T.-C. Jagau,  Hyunjun Ji,  
 B. Kaduk,  K. Khistyaev,  Jaehoon Kim,  P. Klunzinger,  K. Koh,  
 D. Kosenkov,  L. Koulias,  T. Kowalczyk,  C. M. Krauter,  A. Kunitsa,  
 Ka Un Lao,  A. Laurent,  K. V. Lawler,  Joonho Lee,  D. Lefrancois,  
 S. Lehtola,  D. S. Levine,  Yi-Pei Li,  You-Sheng Lin,  Fenglai Liu,  
 Kuan-Yu Liu,  E. Livshits,  M. Loipersberger,  A. Luenser,  A. Manjanath,  
 P. Manohar,  E. Mansoor,  S. F. Manzer,  Shan-Ping Mao,  Yuezhi Mao,  
 N. Mardirossian,  A. V. Marenich,  T. Markovich,  L. A. Martinez-Martinez,  
 S. A. Maurer,  N. J. Mayhall,  S. C. McKenzie,  J.-M. Mewes,  P. Morgante,  
 A. F. Morrison,  J. W. Mullinax,  K. Nanda,  T. S. Nguyen-Beck,  
 R. Olivares-Amaya,  K. J. Oosterbaan,  J. A. Parkhill,  S. K. Paul,  
 F. Pavosevic,  Zheng Pei,  T. M. Perrine,  F. Plasser,  P. Pokhilko,  
 S. Prager,  A. Prociuk,  E. Ramos,  B. Rana,  D. R. Rehn,  F. Rob,  
 E. Rossomme,  M. Scheurer,  M. Schneider,  N. Sergueev,  S. M. Sharada,  
 S. Sharma,  W. Skomorowski,  D. W. Small,  T. Stauch,  C. J. Stein,  
 T. Stein,  Yu-Chuan Su,  S. P. Veccham,  Zhen Tao,  A. J. W. Thom,  
 A. Tkatchenko,  T. Tsuchimochi,  N. M. Tubman,  L. Vogt,  M. L. Vidal,  
 O. Vydrov,  M. A. Watson,  J. Wenzel,  M. de Wergifosse,  T. A. Wesolowski,  
 A. White,  J. Witte,  A. Yamada,  Jun Yang,  K. Yao,  S. Yeganeh,  
 S. R. Yost,  Zhi-Qiang You,  A. Zech,  Igor Ying Zhang,  Xing Zhang,  
 Yan Zhao,  Ying Zhu,  B. R. Brooks,  G. K. L. Chan,  C. J. Cramer,  
 M. S. Gordon,  W. J. Hehre,  A. Klamt,  M. W. Schmidt,  C. D. Sherrill,  
 D. G. Truhlar,  A. Aspuru-Guzik,  R. Baer,  A. T. Bell,  N. A. Besley,  
 Jeng-Da Chai,  A. E. DePrince, III,  R. A. DiStasio Jr.,  A. Dreuw,  
 B. D. Dunietz,  T. R. Furlani,  Chao-Ping Hsu,  Yousung Jung,  Jing Kong,  
 D. S. Lambrecht,  WanZhen Liang,  C. Ochsenfeld,  V. A. Rassolov,  
 L. V. Slipchenko,  J. E. Subotnik,  T. Van Voorhis,  J. M. Herbert,  
 A. I. Krylov,  P. M. W. Gill,  M. Head-Gordon

 Contributors to earlier versions of Q-Chem not listed above: 
 R. D. Adamson,  B. Austin,  J. Baker,  G. J. O. Beran,  K. Brandhorst,  
 S. T. Brown,  E. F. C. Byrd,  A. K. Chakraborty,  C.-L. Cheng,  
 Siu Hung Chien,  D. M. Chipman,  D. L. Crittenden,  H. Dachsel,  
 R. J. Doerksen,  A. D. Dutoi,  L. Fusti-Molnar,  W. A. Goddard III,  
 A. Golubeva-Zadorozhnaya,  S. R. Gwaltney,  G. Hawkins,  A. Heyden,  
 S. Hirata,  G. Kedziora,  F. J. Keil,  C. Kelley,  Jihan Kim,  R. A. King,  
 R. Z. Khaliullin,  P. P. Korambath,  W. Kurlancheek,  A. M. Lee,  M. S. Lee,  
 S. V. Levchenko,  Ching Yeh Lin,  D. Liotard,  R. C. Lochan,  I. Lotan,  
 P. E. Maslen,  N. Nair,  D. P. O'Neill,  D. Neuhauser,  E. Neuscamman,  
 C. M. Oana,  R. Olson,  B. Peters,  R. Peverati,  P. A. Pieniazek,  
 Y. M. Rhee,  J. Ritchie,  M. A. Rohrdanz,  E. Rosta,  N. J. Russ,  
 H. F. Schaefer III,  N. E. Schultz,  N. Shenvi,  A. C. Simmonett,  A. Sodt,  
 D. Stuck,  K. S. Thanthiriwatte,  V. Vanovschi,  Tao Wang,  A. Warshel,  
 C. F. Williams,  Q. Wu,  X. Xu,  W. Zhang

 Please cite Q-Chem as follows:
 Y. Shao et al., Mol. Phys. 113, 184-215 (2015)
 DOI: 10.1080/00268976.2014.952696

 Q-Chem 5.3.2 for Intel X86 EM64T Linux

 Parts of Q-Chem use Armadillo 9.800.1 (Horizon Scraper).
 http://arma.sourceforge.net/

 Q-Chem begins on Tue Apr  2 10:33:03 2024  

Host: 
0

     Scratch files written to /scratch/user/peterchao1/peterchao1/10001414_1712071972000000424150449/qchem242798//
 Dec820 |scratch|qcdevops|jenkins|workspace|build_RNUM -1
Processing $rem in /sw/restricted/qchem/sw/5.3.2/config/preferences:
Processing $rem in /home/peterchao1/.qchemrc:

 Q-Chem warning in module libgen/rem_setup.C, line 2945:

 Neither GIA nor STOLL is specified by user. Use STOLL as the default


Checking the input file for inconsistencies... 	...done.

--------------------------------------------------------------
User input:
--------------------------------------------------------------
$molecule
0 1
--
0 1
O        2.356731   -2.374427    1.226018
C        1.782517   -1.114510    1.285710
C        2.450225   -0.115589    0.309123
C        3.981748   -0.157320    0.360856
O        4.586348    0.572510   -0.650307
N        2.028067   -0.406541   -1.116714
O        1.663888    0.509406   -1.807067
O        2.141566   -1.559960   -1.458226
N        1.927074    1.273484    0.613104
O        0.736520    1.384011    0.777844
O        2.730208    2.173839    0.690661
H        2.163732   -2.755005    0.354214
H        1.943615   -0.725020    2.304221
H        0.696412   -1.118665    1.093312
H        4.268302   -1.211044    0.239213
H        4.282429    0.156414    1.379365
H        4.420435    1.513511   -0.487259
--
0 1
O       -2.356738    2.374424   -1.226020
C       -1.782527    1.114506   -1.285718
C       -2.450227    0.115588   -0.309124
C       -3.981751    0.157320   -0.360845
O       -4.586343   -0.572508    0.650324
N       -1.927078   -1.273487   -0.613103
O       -0.736526   -1.384015   -0.777855
O       -2.730213   -2.173842   -0.690650
N       -2.028058    0.406545    1.116709
O       -2.141559    1.559965    1.458218
O       -1.663871   -0.509400    1.807061
H       -2.163730    2.755002   -0.354218
H       -0.696420    1.118660   -1.093329
H       -1.943634    0.725015   -2.304227
H       -4.282439   -0.156417   -1.379351
H       -4.268302    1.211044   -0.239202
H       -4.420434   -1.513509    0.487276
$end

$rem
JOBTYPE           eda
EDA2              2
METHOD            wB97x-D
BASIS             def2-SV(P)
SCF_CONVERGENCE   8
THRESH            14
SYMMETRY          false
DISP_FREE_X       wB97X-D
DISP_FREE_C       none
EDA_BSSE          true
$end
--------------------------------------------------------------
 ----------------------------------------------------------------
             Standard Nuclear Orientation (Angstroms)
    I     Atom           X                Y                Z
 ----------------------------------------------------------------
    1      O      -2.3567310788     2.3744268066     1.2260180471
    2      C      -1.7825170402     1.1145098220     1.2857100004
    3      C      -2.4502250094     0.1155888378     0.3091229631
    4      C      -3.9817480107     0.1573197890     0.3608559643
    5      O      -4.5863479881    -0.5725101920    -0.6503070629
    6      N      -2.0280670180     0.4065409038    -1.1167140260
    7      O      -1.6638879898    -0.5094060594    -1.8070670600
    8      O      -2.1415660533     1.5599599130    -1.4582259831
    9      N      -1.9270739669    -1.2734841574     0.6131039116
   10      O      -0.7365199636    -1.3840111271     0.7778439077
   11      O      -2.7302079393    -2.1738391849     0.6906608779
   12      H      -2.1637320903     2.7550048449     0.3542140613
   13      H      -1.9436150285     0.7250197792     2.3042209859
   14      H      -0.6964120403     1.1186648624     1.0933120007
   15      H      -4.2683020430     1.2110437847     0.2392130035
   16      H      -4.2824290013    -0.1564142581     1.3793649526
   17      H      -4.4204349593    -1.5135111929    -0.4872590979
   18      O       2.3567380672    -2.3744239578    -1.2260201285
   19      C       1.7825270286    -1.1145059732    -1.2857180818
   20      C       2.4502269978    -0.1155879890    -0.3091240445
   21      C       3.9817509991    -0.1573199401    -0.3608450457
   22      O       4.5863429765     0.5725080408     0.6503239815
   23      N       1.9270779553     1.2734870063    -0.6131029930
   24      O       0.7365259519     1.3840149759    -0.7778549891
   25      O       2.7302129277     2.1738420338    -0.6906499593
   26      N       2.0280580064    -0.4065450549     1.1167089446
   27      O       2.1415590417    -1.5599650642     1.4582179017
   28      O       1.6638709782     0.5093999082     1.8070609786
   29      H       2.1637300787    -2.7550019961    -0.3542181427
   30      H       0.6964200287    -1.1186600136    -1.0933290821
   31      H       1.9436340169    -0.7250149304    -2.3042270673
   32      H       4.2824389897     0.1564171069    -1.3793510340
   33      H       4.2683020314    -1.2110439359    -0.2392020849
   34      H       4.4204339477     1.5135090418     0.4872760165
 ----------------------------------------------------------------
 Molecular Point Group                 C1    NOp =  1
 Largest Abelian Subgroup              C1    NOp =  1
 Nuclear Repulsion Energy =        2212.37986298 hartrees
 There are       86 alpha and       86 beta electrons
 Requested basis set is def2-SV(P)
 There are 156 shells and 332 basis functions

 Total QAlloc Memory Limit   7500 MB
 Mega-Array Size       188 MB
 MEM_STATIC part       192 MB
 A cutoff of  1.0D-14 yielded   9741 shell pairs
 There are     42765 function pairs (     48010 Cartesian)
 Smallest overlap matrix eigenvalue = 1.12E-03

 Scale SEOQF with 1.000000e-01/1.000000e-01/1.000000e-01

 Standard Electronic Orientation quadrupole field applied
 Nucleus-field energy     =     0.0000000444 hartrees

 -----------------------------------------------------------------------
  General SCF calculation program by
  Eric Jon Sundstrom, Paul Horn, Yuezhi Mao, Dmitri Zuev, Alec White,
  David Stuck, Shaama M.S., Shane Yost, Joonho Lee, David Small,
  Daniel Levine, Susi Lehtola, Hugh Burton, Evgeny Epifanovsky,
  Bang C. Huynh
 -----------------------------------------------------------------------
================================================================
                 ALMO-EDA with the EDA2 driver                  
================================================================
 The second-generation ALMO-EDA (for DFT):                      
 P. R. Horn, Y. Mao and M. Head-Gordon, PCCP, 18, 23067 (2016)  
 Decomposition of the frozen energy:                            
 P. R. Horn, Y. Mao and M. Head-Gordon, JCP, 144, 114107 (2016) 
Using eda2 option set 2
Option set summary: Frozen orbital wavefunction, initial wavefunction decomposition, and traditional AO-based POL.
--------------------------------
Printing EDA Options
--------------------------------
eda_child_super_basis      0
fragmo_guess_mode          0
child_mp                   0
child_mp_orders            0
cls_elec                   1
cls_disp                   0
scfmi_mode                 1
scfmi_occs                 0
scfmi_virts                0
frz_relax                  0
frz_relax_method           0
dc_pen_start               0
dc_pen_conv                0
dc_pen_increment           0
dc_pen_steps               0
dc_pen_thresh_factor       0
dc_pen_pre_newton_thresh   0
frz_ortho_decomp           1
frz_ortho_decomp_conv      6
plot_mo_ortho_frz          0
frgm_method                2
scfmi_freeze_ss            0
separate_rehyb             0
plot_diff_den              0
eda_nocv                   0
eda_vct_relax              1
disp_free_x                -110
disp_free_c                0
eda_bsse                   1
eda_pct_a                  0
eda_covp                   0
--------------------------------
Attempting to make child job directory: /scratch/user/peterchao1/peterchao1/10001414_1712071972000000424150449/qchem242798//Frg1/
Attempting to make child job directory: /scratch/user/peterchao1/peterchao1/10001414_1712071972000000424150449/qchem242798//Frg2/
Creating input file /scratch/user/peterchao1/peterchao1/10001414_1712071972000000424150449/qchem242798/Frg1.input
using default PutDataFrgm: nothing
calling putenv with: QCSCRATCH=/scratch/user/peterchao1/peterchao1/10001414_1712071972000000424150449/qchem242798/ 
Spawning Job For Fragment 0
Done Job For Fragment 0
calling putenv with: QCSCRATCH=/scratch/user/peterchao1/peterchao1/10001414_1712071972000000424150449 
calling putenv with: QCTHREADS=8 
Creating input file /scratch/user/peterchao1/peterchao1/10001414_1712071972000000424150449/qchem242798/Frg2.input
using default PutDataFrgm: nothing
calling putenv with: QCSCRATCH=/scratch/user/peterchao1/peterchao1/10001414_1712071972000000424150449/qchem242798/ 
Spawning Job For Fragment 1
Done Job For Fragment 1
calling putenv with: QCSCRATCH=/scratch/user/peterchao1/peterchao1/10001414_1712071972000000424150449 
calling putenv with: QCTHREADS=8 
Doing General SCFMI
 Exchange:     0.2220 Hartree-Fock + 1.0000 wB97X-D + LR-HF
 Correlation:  1.0000 wB97X-D
 Using SG-2 standard quadrature grid
 Dispersion:   Grimme D
performing fock build before subrot guess so that all methods have access
Printing subrot_rss_gen Method Specification:
Occupied Subspace Method is 0
Virtual Subspace Method is 0
Energy of the unrelaxed supersystem initial determinant -1355.612950559304
write pseudocanon occs and virts to disk
write pseudocanon orbital energies to disk
Tolerance of ortho_decomp_scf: 1.00e-06
GDM subspace size: 20
Beginning the Orthogonal Decomposition of the Initial Supersystem Wavefunction
    1   -1355.5741430254      2.74e-02     ortho_decomp Preconditoned Steepest Descent
    2   -1355.5786482195      3.71e-04     ortho_decomp BFGS Step
    3   -1355.5786535600      2.67e-05     ortho_decomp BFGS Step
    4   -1355.5786535743      9.10e-07     ortho_decomp 00000 Convergence criterion met
 Exchange:     0.2220 Hartree-Fock + 1.0000 wB97X-D + LR-HF
 Correlation:  1.0000 wB97X-D
 Using SG-2 standard quadrature grid
 Dispersion:   Grimme D
 Long-range K will be added via erf
 Coulomb attenuation parameter = 0.2 bohr**(-1)
 Exchange:     0.2220 Hartree-Fock + 1.0000 wB97X-D + LR-HF
 Correlation:  1.0000 wB97X-D
 Using SG-2 standard quadrature grid
 Dispersion:   Grimme D
 Long-range K will be added via erf
 Coulomb attenuation parameter = 0.2 bohr**(-1)
 Exchange:     0.2220 Hartree-Fock + 1.0000 wB97X-D + LR-HF
 Correlation:  1.0000 wB97X-D
 Using SG-2 standard quadrature grid
 Dispersion:   Grimme D
 Long-range K will be added via erf
 Coulomb attenuation parameter = 0.2 bohr**(-1)
Doing General SCFMI
 Exchange:     0.2220 Hartree-Fock + 1.0000 wB97X-D + LR-HF
 Correlation:  1.0000 wB97X-D
 Using SG-2 standard quadrature grid
 Dispersion:   Grimme D
performing fock build at end of subrot_r(subrot) constructor so that all methods have access
<S^2> of initial wavefunction before polarization iterations 0.0000000000
Beginning iterations for the determination of the polarized wavefunction
Energy prior to optimization (guess energy) = -1355.612950559303
Begin Timing: Total SCF Calculation
begin iterations for algorithm: DIIS         
the SCF tolerance is set to 1.00e-08
    1   -1355.6129505593      1.55e-04     00000 
    2   -1355.6136686815      1.63e-04     00000 
    3   -1355.6141275597      5.74e-05     00000 
    4   -1355.6142129335      1.88e-05     00000 
    5   -1355.6142204236      9.35e-06     00000 
    6   -1355.6142224661      2.71e-06     00000 
    7   -1355.6142226949      1.73e-06     00000 
    8   -1355.6142227649      6.60e-07     00000 
    9   -1355.6142227768      1.77e-07     00000 
   10   -1355.6142227782      5.70e-08     00000 
   11   -1355.6142227784      2.86e-08     00000 
   12   -1355.6142227785      1.09e-08     00000 
   13   -1355.6142227785      5.66e-09     00000 Convergence criterion met
write pseudocanon occs and virts to disk
write pseudocanon orbital energies to disk
Timing for Total SCF: 156.00s (wall), 421.38s (cpu)
<S^2> of polarized wavefunction after polarization iterations 0.0000000000
relaxing scfmi constraint to allow all rotations in the entire AO span
Doing General SCFMI
 Exchange:     0.2220 Hartree-Fock + 1.0000 wB97X-D + LR-HF
 Correlation:  1.0000 wB97X-D
 Using SG-2 standard quadrature grid
 Dispersion:   Grimme D
performing fock build at end of subrot_r(subrot) constructor so that all methods have access
<S^2> of polarized wavefunction before ct-allowed iterations 0.0000000000
Beginning iterations for the determination of the CT-Allowed wavefunction
Energy prior to optimization (guess energy) = -1355.614222778493
Begin Timing: Total SCF Calculation
begin iterations for algorithm: DIIS         
the SCF tolerance is set to 1.00e-08
    1   -1355.6142227785      3.71e-04     00000 
    2   -1355.6228155247      5.10e-05     00000 
    3   -1355.6231950663      2.43e-05     00000 
    4   -1355.6232097552      2.22e-05     00000 
    5   -1355.6232313991      5.11e-06     00000 
    6   -1355.6232325321      1.63e-06     00000 
    7   -1355.6232326673      5.50e-07     00000 
    8   -1355.6232326885      2.10e-07     00000 
    9   -1355.6232326907      9.34e-08     00000 
   10   -1355.6232326913      3.65e-08     00000 
   11   -1355.6232326915      8.30e-09     00000 Convergence criterion met
write pseudocanon occs and virts to disk
write pseudocanon orbital energies to disk
Timing for Total SCF: 137.00s (wall), 371.77s (cpu)
<S^2> of ct_allowed wavefunction after ct-allowed iterations 0.0000000000
Attempting to make child job directory: /scratch/user/peterchao1/peterchao1/10001414_1712071972000000424150449/qchem242798//FrgBSSE1/
Attempting to make child job directory: /scratch/user/peterchao1/peterchao1/10001414_1712071972000000424150449/qchem242798//FrgBSSE2/
Creating input file /scratch/user/peterchao1/peterchao1/10001414_1712071972000000424150449/qchem242798/FrgBSSE1.input
calling putenv with: QCSCRATCH=/scratch/user/peterchao1/peterchao1/10001414_1712071972000000424150449/qchem242798/ 
Spawning Job For Fragment 0
Done Job For Fragment 0
calling putenv with: QCSCRATCH=/scratch/user/peterchao1/peterchao1/10001414_1712071972000000424150449 
calling putenv with: QCTHREADS=8 
Creating input file /scratch/user/peterchao1/peterchao1/10001414_1712071972000000424150449/qchem242798/FrgBSSE2.input
calling putenv with: QCSCRATCH=/scratch/user/peterchao1/peterchao1/10001414_1712071972000000424150449/qchem242798/ 
Spawning Job For Fragment 1
Done Job For Fragment 1
calling putenv with: QCSCRATCH=/scratch/user/peterchao1/peterchao1/10001414_1712071972000000424150449 
calling putenv with: QCTHREADS=8 
====================================================================
   Evaluating the BSSE with fragment SCF in the supersystem basis
   Fragment contributions (kJ/mol) 
   Frgm 1: 7.6199
   Frgm 2: 7.6199
   BSSE (kJ/mol) = 15.2397
====================================================================

================================
        Results of EDA2         
================================
Basic EDA Quantities
--------------------
Fragment Energies (Ha):
1 -677.8043550795
2 -677.8043550532
--------------------
  E_prp (kJ/mol) = 0.0000
  E_frz (kJ/mol) = -11.1334
  E_pol (kJ/mol) = -3.3403
  E_vct (kJ/mol) = -8.4161 (CP-corrected)
  E_int (kJ/mol) = -22.8897 (CP-corrected)
--------------------


Decomposition of frozen interaction energy
--------------------
  --------------------
  Orthogonal Frozen Decomposition:
  --------------------
     E_elec   (ELEC)   (kJ/mol) = -52.4690
     E_pauli  (PAULI)  (kJ/mol) = 59.5907
     E_disp   (DISP)   (kJ/mol) = -18.2551
  --------------------
  Classical Frozen Decomposition:
  --------------------
     E_cls_elec  (CLS ELEC)  (kJ/mol) = -23.1231
     E_mod_pauli (MOD PAULI) (kJ/mol) = 30.2449 (FRZ - CLS ELEC - DISP)
     E_disp      (DISP)      (kJ/mol) = -18.2551
  --------------------
--------------------

Simplified EDA Summary (kJ/mol)
--------------------
 PREPARATION      0.0000
 FROZEN           -11.1334 (ELEC + PAULI + DISP)
[ELEC + PAULI = 7.1217, DISP = -18.2551]
 POLARIZATION    -3.3403
 CHARGE TRANSFER -8.4161     (counterpoise-corrected)
 TOTAL           -22.8897     (PRP + FRZ + POL + CT)
--------------------
 
 --------------------------------------------------------------
 
                    Orbital Energies (a.u.)
 --------------------------------------------------------------
 
 Alpha MOs
 -- Occupied --
-19.3398 -19.3398 -19.3385 -19.3384 -19.3317 -19.3317 -19.3303 -19.3303
-19.2855 -19.2855 -19.2821 -19.2821 -14.7314 -14.7314 -14.7252 -14.7252
-10.4376 -10.4376 -10.3902 -10.3902 -10.3874 -10.3874  -1.3942  -1.3933
 -1.3775  -1.3768  -1.2122  -1.2119  -1.2065  -1.2063  -1.1595  -1.1595
 -1.1532  -1.1531  -1.0033  -1.0031  -0.8363  -0.8357  -0.8270  -0.8270
 -0.8155  -0.8135  -0.7181  -0.7128  -0.7038  -0.7030  -0.6923  -0.6869
 -0.6816  -0.6790  -0.6582  -0.6547  -0.6525  -0.6441  -0.6393  -0.6383
 -0.6273  -0.6261  -0.6003  -0.5988  -0.5745  -0.5704  -0.5618  -0.5613
 -0.5399  -0.5389  -0.4826  -0.4817  -0.4725  -0.4722  -0.4554  -0.4487
 -0.4393  -0.4379  -0.4356  -0.4347  -0.4338  -0.4325  -0.4285  -0.4283
 -0.4185  -0.4182  -0.4014  -0.4011  -0.3901  -0.3898
 -- Virtual --
 -0.0441  -0.0427  -0.0274  -0.0270   0.1145   0.1181   0.1350   0.1353
  0.1499   0.1528   0.1631   0.1679   0.1747   0.1789   0.1947   0.2020
  0.2159   0.2197   0.2359   0.2431   0.2465   0.2470   0.2610   0.2729
  0.2908   0.2986   0.3047   0.3160   0.3501   0.3662   0.3686   0.3825
  0.4274   0.4307   0.4391   0.4613   0.5002   0.5100   0.5190   0.5302
  0.5351   0.5423   0.5578   0.5612   0.5620   0.5681   0.5867   0.5871
  0.6023   0.6189   0.6279   0.6340   0.6509   0.6582   0.6692   0.6810
  0.6823   0.6968   0.6972   0.7020   0.7067   0.7192   0.7397   0.7436
  0.7489   0.7598   0.7744   0.7745   0.7818   0.7845   0.8060   0.8137
  0.8425   0.8498   0.8696   0.8874   0.8878   0.8942   0.9154   0.9243
  0.9512   0.9579   0.9580   0.9644   0.9693   0.9822   0.9878   0.9940
  1.0271   1.0314   1.0415   1.0464   1.0586   1.0740   1.0857   1.0977
  1.1158   1.1239   1.1329   1.1355   1.1438   1.1498   1.1540   1.1726
  1.1731   1.1894   1.1979   1.2047   1.2103   1.2173   1.2287   1.2506
  1.2607   1.2687   1.2965   1.3094   1.3104   1.3311   1.3702   1.3772
  1.3893   1.4008   1.4097   1.4110   1.4208   1.4426   1.4693   1.4764
  1.5179   1.5181   1.5473   1.6107   1.6307   1.6365   1.6400   1.6540
  1.7185   1.7223   1.7491   1.7535   1.7645   1.7647   1.7937   1.8005
  1.8283   1.8342   1.8499   1.8678   1.8681   1.8719   1.9091   1.9213
  1.9802   1.9840   2.0234   2.0311   2.0885   2.0911   2.1035   2.1070
  2.1615   2.1667   2.1799   2.1811   2.2159   2.2164   2.2952   2.2965
  2.3196   2.3220   2.3733   2.3756   2.4435   2.4467   2.4710   2.4792
  2.4900   2.4955   2.5344   2.5394   2.5471   2.5492   2.6262   2.6305
  2.6324   2.6384   2.6560   2.6591   2.6756   2.6757   2.6814   2.6833
  2.6968   2.6991   2.7073   2.7082   2.7143   2.7342   2.7555   2.7577
  2.7859   2.7900   2.8136   2.8232   2.8696   2.8711   2.9044   2.9049
  2.9160   2.9167   3.0287   3.0295   3.0632   3.0645   3.0698   3.0715
  3.1023   3.1035   3.1082   3.1092   3.1399   3.1408   3.1953   3.2049
  3.2419   3.2459   3.3509   3.3520   3.3707   3.3720   3.4385   3.4386
  3.4733   3.4762   3.4782   3.4986   3.5038   3.5234   3.7843   3.7861
  3.8018   3.8088   3.8418   3.8588   3.8656   3.8755
 --------------------------------------------------------------
 
          Ground-State Mulliken Net Atomic Charges

     Atom                 Charge (a.u.)
  ----------------------------------------
      1 O                    -0.461444
      2 C                     0.079841
      3 C                    -0.169205
      4 C                     0.121456
      5 O                    -0.471351
      6 N                     0.279274
      7 O                    -0.210391
      8 O                    -0.232888
      9 N                     0.255645
     10 O                    -0.220625
     11 O                    -0.228394
     12 H                     0.344345
     13 H                     0.139394
     14 H                     0.158156
     15 H                     0.148433
     16 H                     0.130594
     17 H                     0.337159
     18 O                    -0.461444
     19 C                     0.079842
     20 C                    -0.169205
     21 C                     0.121457
     22 O                    -0.471351
     23 N                     0.255645
     24 O                    -0.220624
     25 O                    -0.228394
     26 N                     0.279274
     27 O                    -0.232888
     28 O                    -0.210391
     29 H                     0.344345
     30 H                     0.158155
     31 H                     0.139395
     32 H                     0.130594
     33 H                     0.148433
     34 H                     0.337159
  ----------------------------------------
  Sum of atomic charges =     0.000000

 -----------------------------------------------------------------
                    Cartesian Multipole Moments
 -----------------------------------------------------------------
    Charge (ESU x 10^10)
                -0.0000
    Dipole Moment (Debye)
         X       0.0000      Y       0.0000      Z       0.0000
       Tot       0.0000
    Quadrupole Moments (Debye-Ang)
        XX    -125.1901     XY       3.8400     YY    -131.7787
        XZ     -13.2721     YZ      -1.0513     ZZ    -132.6691
    Octopole Moments (Debye-Ang^2)
       XXX       0.0007    XXY       0.0003    XYY      -0.0002
       YYY      -0.0001    XXZ      -0.0000    XYZ       0.0000
       YYZ       0.0000    XZZ       0.0001    YZZ       0.0000
       ZZZ       0.0001
    Hexadecapole Moments (Debye-Ang^3)
      XXXX   -5619.2057   XXXY     111.9882   XXYY   -1090.2859
      XYYY      20.3625   YYYY   -1363.4916   XXXZ    -188.8519
      XXYZ     -18.9132   XYYZ      88.7121   YYYZ     -28.4285
      XXZZ   -1090.6174   XYZZ      48.4401   YYZZ    -438.5614
      XZZZ     -24.8438   YZZZ     -20.8740   ZZZZ    -929.7290
 -----------------------------------------------------------------
Archival summary:
1\1\c024.cluster\SP\ProcedureUnspecified\BasisUnspecified\124612\petercha\TueApr210:48:252024TueApr210:48:252024\0\\#,ProcedureUnspecified,BasisUnspecified,\\0,1\O\N,1,1.20697\O,2,1.209,1,125.332\C,2,1.51513,1,116.867,3,178.849,0\N,4,1.51522,2,105.583,1,73.071,0\O,5,1.2034,4,118.554,2,15.4222,0\O,5,1.20826,4,115.031,2,-167.078,0\C,4,1.53296,2,111.294,1,-170.288,0\H,8,1.09875,4,106.435,2,173.991,0\H,8,1.10734,4,107.134,2,59.0799,0\O,8,1.38587,4,113.384,2,-67.308,0\H,11,0.969327,8,108.29,4,68.7184,0\C,4,1.54835,2,108.423,1,-45.3097,0\H,13,1.10228,4,106.966,2,-52.606,0\H,13,1.10302,4,108.484,2,63.4827,0\O,13,1.38588,4,112.375,2,-170.337,0\H,16,0.970634,13,108.225,4,-66.7397,0\O,15,2.37171,13,137.134,4,51.995,0\N,18,1.20697,15,118.556,13,-177.079,0\O,19,1.209,18,125.332,15,-111.175,0\C,19,1.51513,18,116.868,15,69.977,0\N,21,1.51522,19,105.583,18,-73.0712,0\O,22,1.2034,21,118.554,19,-15.422,0\O,22,1.20826,21,115.031,19,167.078,0\C,21,1.53297,19,111.294,18,170.287,0\H,25,1.09875,21,106.435,19,-173.992,0\H,25,1.10734,21,107.134,19,-59.0799,0\O,25,1.38587,21,113.384,19,67.3078,0\H,28,0.969326,25,108.29,21,-68.7186,0\C,21,1.54835,19,108.423,18,45.3095,0\H,30,1.10228,21,106.966,19,52.6062,0\H,30,1.10302,21,108.484,19,-63.4826,0\O,30,1.38588,21,112.375,19,170.337,0\H,33,0.970634,30,108.225,21,66.7397,0\\\@

 Total job time:  922.48s(wall), 1461.66s(cpu) 
 Tue Apr  2 10:48:25 2024

        *************************************************************
        *                                                           *
        *  Thank you very much for using Q-Chem.  Have a nice day.  *
        *                                                           *
        *************************************************************


remove work dirs /scratch/user/peterchao1/peterchao1/10001414_1712071972000000424150449/qchem242798.0 -- /scratch/user/peterchao1/peterchao1/10001414_1712071972000000424150449/qchem242798.-1
rm -rf /scratch/user/peterchao1/peterchao1/10001414_1712071972000000424150449/qchem242798
real 933.30
user 2258.76
sys 197.38
