You are running Q-Chem version: 5.3.2

#
# job setting
#
local host:  c243.cluster
current dir: /scratch/user/peterchao1/peterchao1/10001428_1712072030000000754404851
input file:  qchem_test.inp
output file: 
nprocs     : 0
nthreads   : 8
#
# qchem installation setting
#
QC:          /sw/restricted/qchem/sw/5.3.2
QCAUX:       /sw/restricted/qchem/sw/5.3.2/qcaux
QCPROG:      /sw/restricted/qchem/sw/5.3.2/exe/qcprog.exe_s
QCPROG_S:    /sw/restricted/qchem/sw/5.3.2/exe/qcprog.exe_s
PARALLEL:    -DSERIAL
QCMPI:       seq
#
# qchem directory setting
#
qcrun:       qchem1253
QCSCRATCH:   /scratch/user/peterchao1/peterchao1/10001428_1712072030000000754404851
QCLOCALSCR:  
QCTMPDIR:    /scratch/user/peterchao1/peterchao1/10001428_1712072030000000754404851
QCFILEPREF:  /scratch/user/peterchao1/peterchao1/10001428_1712072030000000754404851/qchem1253
QCSAVEDIR:   
workdirs:    /scratch/user/peterchao1/peterchao1/10001428_1712072030000000754404851/qchem1253
workdir0:    /scratch/user/peterchao1/peterchao1/10001428_1712072030000000754404851/qchem1253
partmpdirs =  
#
# parallel setting
#
QCRSH:           ssh
QCMPI:           seq
QCMPIRUN:        
QCMACHINEFILE:   /scratch/user/peterchao1/peterchao1/10001428_1712072030000000754404851/qchem1253/hostfile

#
# env setting
#
exported envs:   QC QCAUX QCSCRATCH QCRUNNAME QCFILEPREF QCPROG QCPROG_S GUIFILE

Running Job 1 of 1 qchem_test.inp
qchem qchem_test.inp_1253.0 /scratch/user/peterchao1/peterchao1/10001428_1712072030000000754404851/qchem1253/ 0
/sw/restricted/qchem/sw/5.3.2/exe/qcprog.exe_s qchem_test.inp_1253.0 /scratch/user/peterchao1/peterchao1/10001428_1712072030000000754404851/qchem1253/
                  Welcome to Q-Chem
     A Quantum Leap Into The Future Of Chemistry


 Q-Chem 5.3, Q-Chem, Inc., Pleasanton, CA (2020)

 License issued to: MRG Daniel Tabor and Mike Hall, Texas A&M University

 Yihan Shao,  Zhengting Gan,  E. Epifanovsky,  A. T. B. Gilbert,  M. Wormit,  
 J. Kussmann,  A. W. Lange,  A. Behn,  Jia Deng,  Xintian Feng,  D. Ghosh,  
 M. Goldey,  P. R. Horn,  L. D. Jacobson,  I. Kaliman,  T. Kus,  A. Landau,  
 Jie Liu,  E. I. Proynov,  R. M. Richard,  R. P. Steele,  E. J. Sundstrom,  
 H. L. Woodcock III,  P. M. Zimmerman,  D. Zuev,  B. Alam,  B. Albrecht,  
 A. Aldossary,  E. Alguire,  S. A. Baeppler,  D. Barton,  Z. Benda,  
 Y. A. Bernard,  E. J. Berquist,  K. B. Bravaya,  H. Burton,  K. Carter-Fenk,  
 D. Casanova,  Chun-Min Chang,  Yunqing Chen,  A. Chien,  K. D. Closser,  
 M. P. Coons,  S. Coriani,  S. Dasgupta,  A. L. Dempwolff,  M. Diedenhofen,  
 Hainam Do,  R. G. Edgar,  Po-Tung Fang,  S. Faraji,  S. Fatehi,  
 Qingguo Feng,  J. Fosso-Tande,  J. Gayvert,  Qinghui Ge,  A. Ghysels,  
 G. Gidofalvi,  J. Gomes,  J. Gonthier,  S. Gulania,  A. Gunina,  D. Hait,  
 M. W. D. Hanson-Heine,  S. Hammes-Schiffer,  P. H. P. Harbach,  
 A. W. Hauser,  M. F. Herbst,  J. E. Herr,  E. G. Hohenstein,  Z. C. Holden,  
 S. Houck,  Kerwin Hui,  B. C. Huynh,  M. Ivanov,  T.-C. Jagau,  Hyunjun Ji,  
 B. Kaduk,  K. Khistyaev,  Jaehoon Kim,  P. Klunzinger,  K. Koh,  
 D. Kosenkov,  L. Koulias,  T. Kowalczyk,  C. M. Krauter,  A. Kunitsa,  
 Ka Un Lao,  A. Laurent,  K. V. Lawler,  Joonho Lee,  D. Lefrancois,  
 S. Lehtola,  D. S. Levine,  Yi-Pei Li,  You-Sheng Lin,  Fenglai Liu,  
 Kuan-Yu Liu,  E. Livshits,  M. Loipersberger,  A. Luenser,  A. Manjanath,  
 P. Manohar,  E. Mansoor,  S. F. Manzer,  Shan-Ping Mao,  Yuezhi Mao,  
 N. Mardirossian,  A. V. Marenich,  T. Markovich,  L. A. Martinez-Martinez,  
 S. A. Maurer,  N. J. Mayhall,  S. C. McKenzie,  J.-M. Mewes,  P. Morgante,  
 A. F. Morrison,  J. W. Mullinax,  K. Nanda,  T. S. Nguyen-Beck,  
 R. Olivares-Amaya,  K. J. Oosterbaan,  J. A. Parkhill,  S. K. Paul,  
 F. Pavosevic,  Zheng Pei,  T. M. Perrine,  F. Plasser,  P. Pokhilko,  
 S. Prager,  A. Prociuk,  E. Ramos,  B. Rana,  D. R. Rehn,  F. Rob,  
 E. Rossomme,  M. Scheurer,  M. Schneider,  N. Sergueev,  S. M. Sharada,  
 S. Sharma,  W. Skomorowski,  D. W. Small,  T. Stauch,  C. J. Stein,  
 T. Stein,  Yu-Chuan Su,  S. P. Veccham,  Zhen Tao,  A. J. W. Thom,  
 A. Tkatchenko,  T. Tsuchimochi,  N. M. Tubman,  L. Vogt,  M. L. Vidal,  
 O. Vydrov,  M. A. Watson,  J. Wenzel,  M. de Wergifosse,  T. A. Wesolowski,  
 A. White,  J. Witte,  A. Yamada,  Jun Yang,  K. Yao,  S. Yeganeh,  
 S. R. Yost,  Zhi-Qiang You,  A. Zech,  Igor Ying Zhang,  Xing Zhang,  
 Yan Zhao,  Ying Zhu,  B. R. Brooks,  G. K. L. Chan,  C. J. Cramer,  
 M. S. Gordon,  W. J. Hehre,  A. Klamt,  M. W. Schmidt,  C. D. Sherrill,  
 D. G. Truhlar,  A. Aspuru-Guzik,  R. Baer,  A. T. Bell,  N. A. Besley,  
 Jeng-Da Chai,  A. E. DePrince, III,  R. A. DiStasio Jr.,  A. Dreuw,  
 B. D. Dunietz,  T. R. Furlani,  Chao-Ping Hsu,  Yousung Jung,  Jing Kong,  
 D. S. Lambrecht,  WanZhen Liang,  C. Ochsenfeld,  V. A. Rassolov,  
 L. V. Slipchenko,  J. E. Subotnik,  T. Van Voorhis,  J. M. Herbert,  
 A. I. Krylov,  P. M. W. Gill,  M. Head-Gordon

 Contributors to earlier versions of Q-Chem not listed above: 
 R. D. Adamson,  B. Austin,  J. Baker,  G. J. O. Beran,  K. Brandhorst,  
 S. T. Brown,  E. F. C. Byrd,  A. K. Chakraborty,  C.-L. Cheng,  
 Siu Hung Chien,  D. M. Chipman,  D. L. Crittenden,  H. Dachsel,  
 R. J. Doerksen,  A. D. Dutoi,  L. Fusti-Molnar,  W. A. Goddard III,  
 A. Golubeva-Zadorozhnaya,  S. R. Gwaltney,  G. Hawkins,  A. Heyden,  
 S. Hirata,  G. Kedziora,  F. J. Keil,  C. Kelley,  Jihan Kim,  R. A. King,  
 R. Z. Khaliullin,  P. P. Korambath,  W. Kurlancheek,  A. M. Lee,  M. S. Lee,  
 S. V. Levchenko,  Ching Yeh Lin,  D. Liotard,  R. C. Lochan,  I. Lotan,  
 P. E. Maslen,  N. Nair,  D. P. O'Neill,  D. Neuhauser,  E. Neuscamman,  
 C. M. Oana,  R. Olson,  B. Peters,  R. Peverati,  P. A. Pieniazek,  
 Y. M. Rhee,  J. Ritchie,  M. A. Rohrdanz,  E. Rosta,  N. J. Russ,  
 H. F. Schaefer III,  N. E. Schultz,  N. Shenvi,  A. C. Simmonett,  A. Sodt,  
 D. Stuck,  K. S. Thanthiriwatte,  V. Vanovschi,  Tao Wang,  A. Warshel,  
 C. F. Williams,  Q. Wu,  X. Xu,  W. Zhang

 Please cite Q-Chem as follows:
 Y. Shao et al., Mol. Phys. 113, 184-215 (2015)
 DOI: 10.1080/00268976.2014.952696

 Q-Chem 5.3.2 for Intel X86 EM64T Linux

 Parts of Q-Chem use Armadillo 9.800.1 (Horizon Scraper).
 http://arma.sourceforge.net/

 Q-Chem begins on Tue Apr  2 10:33:52 2024  

Host: 
0

     Scratch files written to /scratch/user/peterchao1/peterchao1/10001428_1712072030000000754404851/qchem1253//
 Dec820 |scratch|qcdevops|jenkins|workspace|build_RNUM -1
Processing $rem in /sw/restricted/qchem/sw/5.3.2/config/preferences:
Processing $rem in /home/peterchao1/.qchemrc:

 Q-Chem warning in module libgen/rem_setup.C, line 2945:

 Neither GIA nor STOLL is specified by user. Use STOLL as the default


Checking the input file for inconsistencies... 	...done.

--------------------------------------------------------------
User input:
--------------------------------------------------------------
$molecule
0 1
--
0 1
C       -2.173870   -0.547724   -1.361582
C       -2.929788   -0.325594   -0.044813
C       -4.396497   -0.735962   -0.223751
C       -2.291722   -1.170075    1.064568
C       -2.888765    1.178681    0.340626
N       -1.612363    1.761754    0.694180
H       -2.156800   -1.618794   -1.634802
H       -1.130768   -0.194215   -1.288292
H       -2.656307    0.003579   -2.189476
H       -4.892873   -0.110946   -0.988556
H       -4.961122   -0.624597    0.719944
H       -4.480576   -1.790169   -0.544685
H       -1.221747   -0.925781    1.185866
H       -2.363874   -2.248523    0.834623
H       -2.793108   -0.998316    2.035337
H       -3.581058    1.335514    1.190091
H       -3.310985    1.756668   -0.504248
H       -0.896748    1.623741   -0.026374
H       -1.254278    1.366658    1.561991
--
0 1
C        3.396539   -0.846556   -1.262463
C        3.009565   -0.235444    0.090529
C        3.216691   -1.275155    1.199235
C        3.882447    0.994387    0.371861
C        1.512281    0.159525    0.088734
N        1.061557    1.139802   -0.881481
H        4.450673   -1.176165   -1.259285
H        3.284938   -0.117967   -2.085499
H        2.769039   -1.725849   -1.496843
H        2.943814   -0.863774    2.187923
H        4.271775   -1.598321    1.248682
H        2.596856   -2.173236    1.024677
H        3.776393    1.758471   -0.419084
H        4.950759    0.717802    0.417508
H        3.613802    1.462052    1.336689
H        1.247879    0.539493    1.093329
H        0.909025   -0.755638   -0.059464
H        1.200061    0.828707   -1.841333
H        1.519583    2.042207   -0.765278
$end

$rem
JOBTYPE           eda
EDA2              2
METHOD            wB97x-D
BASIS             def2-SV(P)
SCF_CONVERGENCE   8
THRESH            14
SYMMETRY          false
DISP_FREE_X       wB97X-D
DISP_FREE_C       none
EDA_BSSE          true
$end
--------------------------------------------------------------
 ----------------------------------------------------------------
             Standard Nuclear Orientation (Angstroms)
    I     Atom           X                Y                Z
 ----------------------------------------------------------------
    1      C      -2.1738699641     0.5477237694     1.3615820460
    2      C      -2.9297879854     0.3255937601     0.0448130598
    3      C      -4.3964970019     0.7359616815     0.2237511053
    4      C      -2.2917220559     1.1700748170    -1.0645679373
    5      C      -2.8887649185    -1.1786812294    -0.3406259744
    6      N      -1.6123628976    -1.7617541566    -0.6941800189
    7      H      -2.1568000118     1.6187937642     1.6348020692
    8      H      -1.1307679479     0.1942148241     1.2882920123
    9      H      -2.6563069155    -0.0035792734     2.1894760458
   10      H      -4.8928729511     0.1109456394     0.9885561038
   11      H      -4.9611220196     0.6245966737    -0.7199438832
   12      H      -4.4805760475     1.7901686702     0.5446851307
   13      H      -1.2217470465     0.9257808741    -1.1858659693
   14      H      -2.3638741050     2.2485228082    -0.8346229117
   15      H      -2.7931080712     0.9983158129    -2.0353369287
   16      H      -3.5810579316    -1.3355142458    -1.1900909607
   17      H      -3.3109848682    -1.7566682695     0.5042480233
   18      H      -0.8967478868    -1.6237411362     0.0263739664
   19      H      -1.2542779393    -1.3666581193    -1.5619910191
   20      C       3.3965390183     0.8465560548     1.2624629145
   21      C       3.0095650158     0.2354440650    -0.0905290894
   22      C       3.2166909354     1.2751551000    -1.1992350716
   23      C       3.8824470713    -0.9943868844    -0.3718611382
   24      C       1.5122810359    -0.1595250112    -0.0887340610
   25      N       1.0615571098    -1.1398020555     0.8814809285
   26      H       4.4506730014     1.1761651085     1.2592848956
   27      H       3.2849380757     0.1179670310     2.0854989011
   28      H       2.7690389794     1.7258490177     1.4968429494
   29      H       2.9438139318     0.8637741080    -2.1879230739
   30      H       4.2717749178     1.5983211548    -1.2486820906
   31      H       2.5968558941     2.1732360647    -1.0246770364
   32      H       3.7763931298    -1.7584709073     0.4190838475
   33      H       4.9507590561    -0.7178018291    -0.4175081586
   34      H       3.6138020712    -1.4620518767    -1.3366891419
   35      H       1.2478790303    -0.5394930024    -1.0933290629
   36      H       0.9090249931     0.7556379549     0.0594639741
   37      H       1.2000611178    -0.8287070697     1.8413329319
   38      H       1.5195831528    -2.0422070296     0.7652778972
 ----------------------------------------------------------------
 Molecular Point Group                 C1    NOp =  1
 Largest Abelian Subgroup              C1    NOp =  1
 Nuclear Repulsion Energy =         777.97321389 hartrees
 There are       50 alpha and       50 beta electrons
 Requested basis set is def2-SV(P)
 There are 124 shells and 220 basis functions

 Total QAlloc Memory Limit   7500 MB
 Mega-Array Size       188 MB
 MEM_STATIC part       192 MB
 A cutoff of  1.0D-14 yielded   6806 shell pairs
 There are     20752 function pairs (     22871 Cartesian)
 Smallest overlap matrix eigenvalue = 1.53E-03

 Scale SEOQF with 1.000000e-01/1.000000e-01/1.000000e-01

 Standard Electronic Orientation quadrupole field applied
 Nucleus-field energy     =     0.0000000290 hartrees

 -----------------------------------------------------------------------
  General SCF calculation program by
  Eric Jon Sundstrom, Paul Horn, Yuezhi Mao, Dmitri Zuev, Alec White,
  David Stuck, Shaama M.S., Shane Yost, Joonho Lee, David Small,
  Daniel Levine, Susi Lehtola, Hugh Burton, Evgeny Epifanovsky,
  Bang C. Huynh
 -----------------------------------------------------------------------
================================================================
                 ALMO-EDA with the EDA2 driver                  
================================================================
 The second-generation ALMO-EDA (for DFT):                      
 P. R. Horn, Y. Mao and M. Head-Gordon, PCCP, 18, 23067 (2016)  
 Decomposition of the frozen energy:                            
 P. R. Horn, Y. Mao and M. Head-Gordon, JCP, 144, 114107 (2016) 
Using eda2 option set 2
Option set summary: Frozen orbital wavefunction, initial wavefunction decomposition, and traditional AO-based POL.
--------------------------------
Printing EDA Options
--------------------------------
eda_child_super_basis      0
fragmo_guess_mode          0
child_mp                   0
child_mp_orders            0
cls_elec                   1
cls_disp                   0
scfmi_mode                 1
scfmi_occs                 0
scfmi_virts                0
frz_relax                  0
frz_relax_method           0
dc_pen_start               0
dc_pen_conv                0
dc_pen_increment           0
dc_pen_steps               0
dc_pen_thresh_factor       0
dc_pen_pre_newton_thresh   0
frz_ortho_decomp           1
frz_ortho_decomp_conv      6
plot_mo_ortho_frz          0
frgm_method                2
scfmi_freeze_ss            0
separate_rehyb             0
plot_diff_den              0
eda_nocv                   0
eda_vct_relax              1
disp_free_x                -110
disp_free_c                0
eda_bsse                   1
eda_pct_a                  0
eda_covp                   0
--------------------------------
Attempting to make child job directory: /scratch/user/peterchao1/peterchao1/10001428_1712072030000000754404851/qchem1253//Frg1/
Attempting to make child job directory: /scratch/user/peterchao1/peterchao1/10001428_1712072030000000754404851/qchem1253//Frg2/
Creating input file /scratch/user/peterchao1/peterchao1/10001428_1712072030000000754404851/qchem1253/Frg1.input
using default PutDataFrgm: nothing
calling putenv with: QCSCRATCH=/scratch/user/peterchao1/peterchao1/10001428_1712072030000000754404851/qchem1253/ 
Spawning Job For Fragment 0
Done Job For Fragment 0
calling putenv with: QCSCRATCH=/scratch/user/peterchao1/peterchao1/10001428_1712072030000000754404851 
calling putenv with: QCTHREADS=8 
Creating input file /scratch/user/peterchao1/peterchao1/10001428_1712072030000000754404851/qchem1253/Frg2.input
using default PutDataFrgm: nothing
calling putenv with: QCSCRATCH=/scratch/user/peterchao1/peterchao1/10001428_1712072030000000754404851/qchem1253/ 
Spawning Job For Fragment 1
Done Job For Fragment 1
calling putenv with: QCSCRATCH=/scratch/user/peterchao1/peterchao1/10001428_1712072030000000754404851 
calling putenv with: QCTHREADS=8 
Doing General SCFMI
 Exchange:     0.2220 Hartree-Fock + 1.0000 wB97X-D + LR-HF
 Correlation:  1.0000 wB97X-D
 Using SG-2 standard quadrature grid
 Dispersion:   Grimme D
performing fock build before subrot guess so that all methods have access
Printing subrot_rss_gen Method Specification:
Occupied Subspace Method is 0
Virtual Subspace Method is 0
Energy of the unrelaxed supersystem initial determinant -505.655644999671
write pseudocanon occs and virts to disk
write pseudocanon orbital energies to disk
Tolerance of ortho_decomp_scf: 1.00e-06
GDM subspace size: 20
Beginning the Orthogonal Decomposition of the Initial Supersystem Wavefunction
    1    -505.6192073808      3.26e-02     ortho_decomp Preconditoned Steepest Descent
    2    -505.6220545270      5.64e-04     ortho_decomp BFGS Step
    3    -505.6220595627      4.65e-05     ortho_decomp BFGS Step
    4    -505.6220595806      1.97e-06     ortho_decomp BFGS Step
    5    -505.6220595807      7.40e-08     ortho_decomp 00000 Convergence criterion met
 Exchange:     0.2220 Hartree-Fock + 1.0000 wB97X-D + LR-HF
 Correlation:  1.0000 wB97X-D
 Using SG-2 standard quadrature grid
 Dispersion:   Grimme D
 Long-range K will be added via erf
 Coulomb attenuation parameter = 0.2 bohr**(-1)
 Exchange:     0.2220 Hartree-Fock + 1.0000 wB97X-D + LR-HF
 Correlation:  1.0000 wB97X-D
 Using SG-2 standard quadrature grid
 Dispersion:   Grimme D
 Long-range K will be added via erf
 Coulomb attenuation parameter = 0.2 bohr**(-1)
 Exchange:     0.2220 Hartree-Fock + 1.0000 wB97X-D + LR-HF
 Correlation:  1.0000 wB97X-D
 Using SG-2 standard quadrature grid
 Dispersion:   Grimme D
 Long-range K will be added via erf
 Coulomb attenuation parameter = 0.2 bohr**(-1)
Doing General SCFMI
 Exchange:     0.2220 Hartree-Fock + 1.0000 wB97X-D + LR-HF
 Correlation:  1.0000 wB97X-D
 Using SG-2 standard quadrature grid
 Dispersion:   Grimme D
performing fock build at end of subrot_r(subrot) constructor so that all methods have access
<S^2> of initial wavefunction before polarization iterations 0.0000000000
Beginning iterations for the determination of the polarized wavefunction
Energy prior to optimization (guess energy) = -505.655644999671
Begin Timing: Total SCF Calculation
begin iterations for algorithm: DIIS         
the SCF tolerance is set to 1.00e-08
    1    -505.6556449997      2.26e-04     00000 
    2    -505.6569031582      6.99e-05     00000 
    3    -505.6570034166      3.40e-05     00000 
    4    -505.6570236558      1.23e-05     00000 
    5    -505.6570265293      3.52e-06     00000 
    6    -505.6570268078      9.19e-07     00000 
    7    -505.6570268241      4.43e-07     00000 
    8    -505.6570268276      8.91e-08     00000 
    9    -505.6570268280      2.91e-08     00000 
   10    -505.6570268280      1.21e-08     00000 
   11    -505.6570268280      2.48e-09     00000 Convergence criterion met
write pseudocanon occs and virts to disk
write pseudocanon orbital energies to disk
Timing for Total SCF: 30.00s (wall), 218.29s (cpu)
<S^2> of polarized wavefunction after polarization iterations 0.0000000000
relaxing scfmi constraint to allow all rotations in the entire AO span
Doing General SCFMI
 Exchange:     0.2220 Hartree-Fock + 1.0000 wB97X-D + LR-HF
 Correlation:  1.0000 wB97X-D
 Using SG-2 standard quadrature grid
 Dispersion:   Grimme D
performing fock build at end of subrot_r(subrot) constructor so that all methods have access
<S^2> of polarized wavefunction before ct-allowed iterations 0.0000000000
Beginning iterations for the determination of the CT-Allowed wavefunction
Energy prior to optimization (guess energy) = -505.657026827993
Begin Timing: Total SCF Calculation
begin iterations for algorithm: DIIS         
the SCF tolerance is set to 1.00e-08
    1    -505.6570268280      3.88e-04     00000 
    2    -505.6633678986      7.37e-05     00000 
    3    -505.6637252832      3.24e-05     00000 
    4    -505.6637537766      1.59e-05     00000 
    5    -505.6637610694      1.99e-06     00000 
    6    -505.6637612354      8.83e-07     00000 
    7    -505.6637612630      2.54e-07     00000 
    8    -505.6637612654      4.94e-08     00000 
    9    -505.6637612657      2.16e-08     00000 
   10    -505.6637612657      6.32e-09     00000 Convergence criterion met
write pseudocanon occs and virts to disk
write pseudocanon orbital energies to disk
Timing for Total SCF: 27.00s (wall), 202.09s (cpu)
<S^2> of ct_allowed wavefunction after ct-allowed iterations 0.0000000000
Attempting to make child job directory: /scratch/user/peterchao1/peterchao1/10001428_1712072030000000754404851/qchem1253//FrgBSSE1/
Attempting to make child job directory: /scratch/user/peterchao1/peterchao1/10001428_1712072030000000754404851/qchem1253//FrgBSSE2/
Creating input file /scratch/user/peterchao1/peterchao1/10001428_1712072030000000754404851/qchem1253/FrgBSSE1.input
calling putenv with: QCSCRATCH=/scratch/user/peterchao1/peterchao1/10001428_1712072030000000754404851/qchem1253/ 
Spawning Job For Fragment 0
Done Job For Fragment 0
calling putenv with: QCSCRATCH=/scratch/user/peterchao1/peterchao1/10001428_1712072030000000754404851 
calling putenv with: QCTHREADS=8 
Creating input file /scratch/user/peterchao1/peterchao1/10001428_1712072030000000754404851/qchem1253/FrgBSSE2.input
calling putenv with: QCSCRATCH=/scratch/user/peterchao1/peterchao1/10001428_1712072030000000754404851/qchem1253/ 
Spawning Job For Fragment 1
Done Job For Fragment 1
calling putenv with: QCSCRATCH=/scratch/user/peterchao1/peterchao1/10001428_1712072030000000754404851 
calling putenv with: QCTHREADS=8 
====================================================================
   Evaluating the BSSE with fragment SCF in the supersystem basis
   Fragment contributions (kJ/mol) 
   Frgm 1: 3.4558
   Frgm 2: 6.7960
   BSSE (kJ/mol) = 10.2518
====================================================================

================================
        Results of EDA2         
================================
Basic EDA Quantities
--------------------
Fragment Energies (Ha):
1 -252.8255885762
2 -252.8258953501
--------------------
  E_prp (kJ/mol) = 0.0000
  E_frz (kJ/mol) = -10.9250
  E_pol (kJ/mol) = -3.6280
  E_vct (kJ/mol) = -7.4297 (CP-corrected)
  E_int (kJ/mol) = -21.9828 (CP-corrected)
--------------------


Decomposition of frozen interaction energy
--------------------
  --------------------
  Orthogonal Frozen Decomposition:
  --------------------
     E_elec   (ELEC)   (kJ/mol) = -50.9281
     E_pauli  (PAULI)  (kJ/mol) = 55.0957
     E_disp   (DISP)   (kJ/mol) = -15.0926
  --------------------
  Classical Frozen Decomposition:
  --------------------
     E_cls_elec  (CLS ELEC)  (kJ/mol) = -24.9753
     E_mod_pauli (MOD PAULI) (kJ/mol) = 29.1429 (FRZ - CLS ELEC - DISP)
     E_disp      (DISP)      (kJ/mol) = -15.0926
  --------------------
--------------------

Simplified EDA Summary (kJ/mol)
--------------------
 PREPARATION      0.0000
 FROZEN           -10.9250 (ELEC + PAULI + DISP)
[ELEC + PAULI = 4.1676, DISP = -15.0926]
 POLARIZATION    -3.6280
 CHARGE TRANSFER -7.4297     (counterpoise-corrected)
 TOTAL           -21.9828     (PRP + FRZ + POL + CT)
--------------------
 
 --------------------------------------------------------------
 
                    Orbital Energies (a.u.)
 --------------------------------------------------------------
 
 Alpha MOs
 -- Occupied --
-14.4306 -14.3849 -10.3197 -10.3112 -10.2924 -10.2902 -10.2885 -10.2883
-10.2862 -10.2723 -10.2706 -10.2684  -0.9890  -0.9520  -0.9071  -0.8837
 -0.7820  -0.7818  -0.7653  -0.7627  -0.7540  -0.7260  -0.6328  -0.6109
 -0.5990  -0.5639  -0.5594  -0.5436  -0.5373  -0.5368  -0.5199  -0.5150
 -0.5054  -0.4821  -0.4788  -0.4667  -0.4591  -0.4538  -0.4501  -0.4476
 -0.4376  -0.4320  -0.4222  -0.4140  -0.4110  -0.4084  -0.3932  -0.3891
 -0.3262  -0.2863
 -- Virtual --
  0.1112   0.1351   0.1437   0.1549   0.1692   0.1768   0.1811   0.1866
  0.1889   0.1902   0.2004   0.2061   0.2116   0.2236   0.2260   0.2367
  0.2433   0.2476   0.2520   0.2535   0.2574   0.2644   0.2702   0.2781
  0.2845   0.2940   0.3028   0.3103   0.3131   0.3174   0.3200   0.3315
  0.3343   0.3469   0.3553   0.3762   0.4743   0.4808   0.4925   0.4997
  0.5132   0.5266   0.5336   0.5413   0.5632   0.5924   0.6107   0.6213
  0.6374   0.6542   0.6591   0.6743   0.6859   0.6953   0.7076   0.7112
  0.7304   0.7342   0.7433   0.7576   0.7610   0.7649   0.7665   0.7759
  0.7796   0.7850   0.7866   0.7907   0.7941   0.7983   0.8062   0.8106
  0.8135   0.8231   0.8250   0.8279   0.8321   0.8372   0.8425   0.8449
  0.8469   0.8513   0.8559   0.8608   0.8688   0.8794   0.8882   0.8983
  0.9094   0.9125   0.9291   0.9611   0.9688   0.9811   1.0044   1.0614
  1.0760   1.0994   1.1335   1.1457   1.2145   1.2243   1.2379   1.2485
  1.2595   1.2624   1.2812   1.3085   1.3917   1.4498   1.4698   1.4967
  1.5068   1.5301   1.7660   1.7849   1.7967   1.7976   1.8050   1.8193
  1.8798   1.8969   1.9093   1.9260   1.9300   1.9493   2.0374   2.0571
  2.0841   2.1056   2.1077   2.1098   2.1273   2.1333   2.1380   2.1634
  2.1730   2.1966   2.2271   2.2402   2.2433   2.2459   2.2537   2.2562
  2.2585   2.2617   2.2702   2.2780   2.2927   2.3049   2.4016   2.4367
  2.4865   2.5258   2.5343   2.5536   2.6116   2.6284   2.6472   2.6765
  2.7569   2.7649   2.7764   2.7905   2.8045   2.8239   2.8609   2.8774
  3.0856   3.1199
 --------------------------------------------------------------
 
          Ground-State Mulliken Net Atomic Charges

     Atom                 Charge (a.u.)
  ----------------------------------------
      1 C                    -0.302168
      2 C                    -0.243425
      3 C                    -0.266969
      4 C                    -0.295258
      5 C                    -0.045785
      6 N                    -0.544164
      7 H                     0.105174
      8 H                     0.124082
      9 H                     0.106143
     10 H                     0.110380
     11 H                     0.109446
     12 H                     0.108944
     13 H                     0.107582
     14 H                     0.109880
     15 H                     0.108083
     16 H                     0.087614
     17 H                     0.090086
     18 H                     0.260556
     19 H                     0.215600
     20 C                    -0.286715
     21 C                    -0.235835
     22 C                    -0.271814
     23 C                    -0.285371
     24 C                    -0.088793
     25 N                    -0.509606
     26 H                     0.119871
     27 H                     0.105495
     28 H                     0.116254
     29 H                     0.115648
     30 H                     0.117292
     31 H                     0.116627
     32 H                     0.105004
     33 H                     0.119615
     34 H                     0.116481
     35 H                     0.102954
     36 H                     0.122211
     37 H                     0.237529
     38 H                     0.237351
  ----------------------------------------
  Sum of atomic charges =     0.000000

 -----------------------------------------------------------------
                    Cartesian Multipole Moments
 -----------------------------------------------------------------
    Charge (ESU x 10^10)
                 0.0000
    Dipole Moment (Debye)
         X       2.6614      Y       1.1460      Z       0.6504
       Tot       2.9698
    Quadrupole Moments (Debye-Ang)
        XX     -81.0667     XY      -4.5489     YY     -86.4841
        XZ       0.8337     YZ      -2.0991     ZZ     -79.2610
    Octopole Moments (Debye-Ang^2)
       XXX      19.1656    XXY      -0.7236    XYY      15.6854
       YYY       8.0707    XXZ       1.5096    XYZ       1.1855
       YYZ       9.6214    XZZ       1.0796    YZZ      -7.8139
       ZZZ       0.9570
    Hexadecapole Moments (Debye-Ang^3)
      XXXX   -4300.3815   XXXY      26.4547   XXYY    -845.4944
      XYYY     -45.8966   YYYY    -692.8596   XXXZ      10.2726
      XXYZ     -13.2394   XYYZ      -5.7419   YYYZ     -19.0041
      XXZZ    -798.5187   XYZZ      -4.5221   YYZZ    -200.5684
      XZZZ      15.4823   YZZZ      -2.6294   ZZZZ    -508.5361
 -----------------------------------------------------------------
Archival summary:
1\1\c243.cluster\SP\ProcedureUnspecified\BasisUnspecified\21026\petercha\TueApr210:36:532024TueApr210:36:532024\0\\#,ProcedureUnspecified,BasisUnspecified,\\0,1\N\H,1,1.01847\H,1,1.01864,2,108.479\C,1,1.451,2,112.431,3,-125.051,0\H,4,1.10608,1,107.456,2,-61.6075,0\H,4,1.10612,1,107.515,2,-175.318,0\C,4,1.5485,1,118.258,2,61.4624,0\C,7,1.53399,4,107.715,1,-179.988,0\H,8,1.10457,7,111.077,4,179.917,0\H,8,1.10508,7,111.16,4,-60.1239,0\H,8,1.10509,7,111.157,4,59.9354,0\C,7,1.53413,4,110.236,1,60.5779,0\H,12,1.10448,7,110.927,4,177.637,0\H,12,1.10484,7,111.623,4,-62.888,0\H,12,1.10534,7,111.159,4,57.7622,0\C,7,1.53421,4,110.149,1,-60.6501,0\H,16,1.10447,7,110.92,4,-177.362,0\H,16,1.10485,7,111.641,4,63.1762,0\H,16,1.10537,7,111.141,4,-57.4984,0\H,1,2.19097,2,123.838,3,115.423,0\N,20,1.02487,1,158.163,2,155.8,0\H,21,1.01854,20,107.536,1,-11.8906,0\C,21,1.44713,20,112.945,1,-134.983,0\H,23,1.107,21,107.881,20,177.487,0\H,23,1.10732,21,108.205,20,-68.4234,0\C,23,1.55341,21,118.3,20,54.466,0\C,26,1.5333,23,110.049,21,54.1487,0\H,27,1.10419,26,111.154,23,-63.5077,0\H,27,1.10505,26,111.087,23,176.736,0\H,27,1.10602,26,111.154,23,56.7852,0\C,26,1.53351,23,108.261,21,173.884,0\H,31,1.10518,26,111.217,23,177.415,0\H,31,1.10533,26,111.222,23,-62.4574,0\H,31,1.10542,26,111.033,23,57.4838,0\C,26,1.53448,23,109.882,21,-66.6812,0\H,35,1.10381,26,111.235,23,57.2072,0\H,35,1.10548,26,110.822,23,-62.4553,0\H,35,1.1055,26,111.096,23,177.791,0\\\@

 Total job time:  180.98s(wall), 861.22s(cpu) 
 Tue Apr  2 10:36:53 2024

        *************************************************************
        *                                                           *
        *  Thank you very much for using Q-Chem.  Have a nice day.  *
        *                                                           *
        *************************************************************


remove work dirs /scratch/user/peterchao1/peterchao1/10001428_1712072030000000754404851/qchem1253.0 -- /scratch/user/peterchao1/peterchao1/10001428_1712072030000000754404851/qchem1253.-1
rm -rf /scratch/user/peterchao1/peterchao1/10001428_1712072030000000754404851/qchem1253
real 182.53
user 1282.21
sys 76.95
