 Entering Gaussian System, Link 0=g16
 Input=gaussian_test.inp
 Output=gaussian_test.log
 Initial command:
 /sw/restricted/lms/sw/Gaussian/g16_B01/g16/l1.exe "/scratch/user/peterchao1/peterchao1/9982551_1711744408000000689692649/Gau-10488.inp" -scrdir="/scratch/user/peterchao1/peterchao1/9982551_1711744408000000689692649/"
 Entering Link 1 = /sw/restricted/lms/sw/Gaussian/g16_B01/g16/l1.exe PID=     10494.
  
 Copyright (c) 1988-2017, Gaussian, Inc.  All Rights Reserved.
  
 This is part of the Gaussian(R) 16 program.  It is based on
 the Gaussian(R) 09 system (copyright 2009, Gaussian, Inc.),
 the Gaussian(R) 03 system (copyright 2003, Gaussian, Inc.),
 the Gaussian(R) 98 system (copyright 1998, Gaussian, Inc.),
 the Gaussian(R) 94 system (copyright 1995, Gaussian, Inc.),
 the Gaussian 92(TM) system (copyright 1992, Gaussian, Inc.),
 the Gaussian 90(TM) system (copyright 1990, Gaussian, Inc.),
 the Gaussian 88(TM) system (copyright 1988, Gaussian, Inc.),
 the Gaussian 86(TM) system (copyright 1986, Carnegie Mellon
 University), and the Gaussian 82(TM) system (copyright 1983,
 Carnegie Mellon University). Gaussian is a federally registered
 trademark of Gaussian, Inc.
  
 This software contains proprietary and confidential information,
 including trade secrets, belonging to Gaussian, Inc.
  
 This software is provided under written license and may be
 used, copied, transmitted, or stored only in accord with that
 written license.
  
 The following legend is applicable only to US Government
 contracts under FAR:
  
                    RESTRICTED RIGHTS LEGEND
  
 Use, reproduction and disclosure by the US Government is
 subject to restrictions as set forth in subparagraphs (a)
 and (c) of the Commercial Computer Software - Restricted
 Rights clause in FAR 52.227-19.
  
 Gaussian, Inc.
 340 Quinnipiac St., Bldg. 40, Wallingford CT 06492
  
  
 ---------------------------------------------------------------
 Warning -- This program may not be used in any manner that
 competes with the business of Gaussian, Inc. or will provide
 assistance to any competitor of Gaussian, Inc.  The licensee
 of this program is prohibited from giving any competitor of
 Gaussian, Inc. access to this program.  By using this program,
 the user acknowledges that Gaussian, Inc. is engaged in the
 business of creating and licensing software in the field of
 computational chemistry and represents and warrants to the
 licensee that it is not a competitor of Gaussian, Inc. and that
 it will not use this program in any manner prohibited above.
 ---------------------------------------------------------------
  

 Cite this work as:
 Gaussian 16, Revision B.01,
 M. J. Frisch, G. W. Trucks, H. B. Schlegel, G. E. Scuseria, 
 M. A. Robb, J. R. Cheeseman, G. Scalmani, V. Barone, 
 G. A. Petersson, H. Nakatsuji, X. Li, M. Caricato, A. V. Marenich, 
 J. Bloino, B. G. Janesko, R. Gomperts, B. Mennucci, H. P. Hratchian, 
 J. V. Ortiz, A. F. Izmaylov, J. L. Sonnenberg, D. Williams-Young, 
 F. Ding, F. Lipparini, F. Egidi, J. Goings, B. Peng, A. Petrone, 
 T. Henderson, D. Ranasinghe, V. G. Zakrzewski, J. Gao, N. Rega, 
 G. Zheng, W. Liang, M. Hada, M. Ehara, K. Toyota, R. Fukuda, 
 J. Hasegawa, M. Ishida, T. Nakajima, Y. Honda, O. Kitao, H. Nakai, 
 T. Vreven, K. Throssell, J. A. Montgomery, Jr., J. E. Peralta, 
 F. Ogliaro, M. J. Bearpark, J. J. Heyd, E. N. Brothers, K. N. Kudin, 
 V. N. Staroverov, T. A. Keith, R. Kobayashi, J. Normand, 
 K. Raghavachari, A. P. Rendell, J. C. Burant, S. S. Iyengar, 
 J. Tomasi, M. Cossi, J. M. Millam, M. Klene, C. Adamo, R. Cammi, 
 J. W. Ochterski, R. L. Martin, K. Morokuma, O. Farkas, 
 J. B. Foresman, and D. J. Fox, Gaussian, Inc., Wallingford CT, 2016.
 
 ******************************************
 Gaussian 16:  ES64L-G16RevB.01 20-Dec-2017
                29-Mar-2024 
 ******************************************
 %nprocshared=4
 Will use up to    4 processors via shared memory.
 %mem=8000mb
 %chk=monomer.chk
 %nprocshared=4
 Will use up to    4 processors via shared memory.
 %mem=8000mb
 ----------------------------------------------------------------------
 #T wB97XD/def2svpp opt=tight freq int(grid=ultrafine) scf=(verytight,q
 c) Volume=tight
 ----------------------------------------------------------------------
 -------
 Monomer
 -------
 Symbolic Z-matrix:
 Charge =  0 Multiplicity = 1
 C                    -1.81954  -1.32745   0.00411 
 C                    -0.992    -0.33174   0.80993 
 C                     0.00001   0.52303   0. 
 C                    -0.75771   1.42412  -0.98194 
 C                     0.75786   1.42399   0.98198 
 C                     0.99199  -0.33177  -0.80993 
 C                     1.8194   -1.3276   -0.00416 
 H                    -2.41706  -0.82336  -0.75071 
 H                    -2.49775  -1.85974   0.66841 
 H                    -1.18682  -2.06147  -0.48757 
 H                    -0.44011  -0.87593   1.57893 
 H                    -1.6744    0.34788   1.32716 
 H                    -1.51402   2.00721  -0.46086 
 H                    -1.24661   0.83881  -1.75634 
 H                    -0.06999   2.1137   -1.46708 
 H                     1.2464    0.8386    1.75655 
 H                     0.07025   2.11387   1.46689 
 H                     1.51446   2.00677   0.46099 
 H                     1.67447   0.34783  -1.32708 
 H                     0.44007  -0.87584  -1.57899 
 H                     2.41744  -0.82355   0.75026 
 H                     2.4971   -1.86036  -0.66857 
 H                     1.1866   -2.06121   0.48799 
 

 GradGradGradGradGradGradGradGradGradGradGradGradGradGradGradGradGradGrad
 Initialization pass.
                           ----------------------------
                           !    Initial Parameters    !
                           ! (Angstroms and Degrees)  !
 --------------------------                            --------------------------
 ! Name  Definition              Value          Derivative Info.                !
 --------------------------------------------------------------------------------
 ! R1    R(1,2)                  1.525          estimate D2E/DX2                !
 ! R2    R(1,8)                  1.0867         estimate D2E/DX2                !
 ! R3    R(1,9)                  1.0884         estimate D2E/DX2                !
 ! R4    R(1,10)                 1.0867         estimate D2E/DX2                !
 ! R5    R(2,3)                  1.5397         estimate D2E/DX2                !
 ! R6    R(2,11)                 1.0918         estimate D2E/DX2                !
 ! R7    R(2,12)                 1.0932         estimate D2E/DX2                !
 ! R8    R(3,4)                  1.5331         estimate D2E/DX2                !
 ! R9    R(3,5)                  1.5331         estimate D2E/DX2                !
 ! R10   R(3,6)                  1.5397         estimate D2E/DX2                !
 ! R11   R(4,13)                 1.0879         estimate D2E/DX2                !
 ! R12   R(4,14)                 1.0869         estimate D2E/DX2                !
 ! R13   R(4,15)                 1.088          estimate D2E/DX2                !
 ! R14   R(5,16)                 1.0869         estimate D2E/DX2                !
 ! R15   R(5,17)                 1.0881         estimate D2E/DX2                !
 ! R16   R(5,18)                 1.0879         estimate D2E/DX2                !
 ! R17   R(6,7)                  1.525          estimate D2E/DX2                !
 ! R18   R(6,19)                 1.0932         estimate D2E/DX2                !
 ! R19   R(6,20)                 1.0918         estimate D2E/DX2                !
 ! R20   R(7,21)                 1.0867         estimate D2E/DX2                !
 ! R21   R(7,22)                 1.0884         estimate D2E/DX2                !
 ! R22   R(7,23)                 1.0867         estimate D2E/DX2                !
 ! A1    A(2,1,8)              111.2563         estimate D2E/DX2                !
 ! A2    A(2,1,9)              109.5698         estimate D2E/DX2                !
 ! A3    A(2,1,10)             111.3559         estimate D2E/DX2                !
 ! A4    A(8,1,9)              107.9498         estimate D2E/DX2                !
 ! A5    A(8,1,10)             108.6149         estimate D2E/DX2                !
 ! A6    A(9,1,10)             107.9764         estimate D2E/DX2                !
 ! A7    A(1,2,3)              115.7308         estimate D2E/DX2                !
 ! A8    A(1,2,11)             108.7253         estimate D2E/DX2                !
 ! A9    A(1,2,12)             108.4928         estimate D2E/DX2                !
 ! A10   A(3,2,11)             108.755          estimate D2E/DX2                !
 ! A11   A(3,2,12)             107.8144         estimate D2E/DX2                !
 ! A12   A(11,2,12)            106.9863         estimate D2E/DX2                !
 ! A13   A(2,3,4)              110.1684         estimate D2E/DX2                !
 ! A14   A(2,3,5)              107.9271         estimate D2E/DX2                !
 ! A15   A(2,3,6)              112.5565         estimate D2E/DX2                !
 ! A16   A(4,3,5)              108.0089         estimate D2E/DX2                !
 ! A17   A(4,3,6)              107.9275         estimate D2E/DX2                !
 ! A18   A(5,3,6)              110.1647         estimate D2E/DX2                !
 ! A19   A(3,4,13)             110.5999         estimate D2E/DX2                !
 ! A20   A(3,4,14)             111.2323         estimate D2E/DX2                !
 ! A21   A(3,4,15)             110.2245         estimate D2E/DX2                !
 ! A22   A(13,4,14)            108.4941         estimate D2E/DX2                !
 ! A23   A(13,4,15)            108.2579         estimate D2E/DX2                !
 ! A24   A(14,4,15)            107.9348         estimate D2E/DX2                !
 ! A25   A(3,5,16)             111.2319         estimate D2E/DX2                !
 ! A26   A(3,5,17)             110.2234         estimate D2E/DX2                !
 ! A27   A(3,5,18)             110.6008         estimate D2E/DX2                !
 ! A28   A(16,5,17)            107.9356         estimate D2E/DX2                !
 ! A29   A(16,5,18)            108.4941         estimate D2E/DX2                !
 ! A30   A(17,5,18)            108.2576         estimate D2E/DX2                !
 ! A31   A(3,6,7)              115.7311         estimate D2E/DX2                !
 ! A32   A(3,6,19)             107.8146         estimate D2E/DX2                !
 ! A33   A(3,6,20)             108.7534         estimate D2E/DX2                !
 ! A34   A(7,6,19)             108.4928         estimate D2E/DX2                !
 ! A35   A(7,6,20)             108.7264         estimate D2E/DX2                !
 ! A36   A(19,6,20)            106.9864         estimate D2E/DX2                !
 ! A37   A(6,7,21)             111.2555         estimate D2E/DX2                !
 ! A38   A(6,7,22)             109.5688         estimate D2E/DX2                !
 ! A39   A(6,7,23)             111.3587         estimate D2E/DX2                !
 ! A40   A(21,7,22)            107.9499         estimate D2E/DX2                !
 ! A41   A(21,7,23)            108.6146         estimate D2E/DX2                !
 ! A42   A(22,7,23)            107.9756         estimate D2E/DX2                !
 ! D1    D(8,1,2,3)            -59.5064         estimate D2E/DX2                !
 ! D2    D(8,1,2,11)           177.795          estimate D2E/DX2                !
 ! D3    D(8,1,2,12)            61.7779         estimate D2E/DX2                !
 ! D4    D(9,1,2,3)           -178.7971         estimate D2E/DX2                !
 ! D5    D(9,1,2,11)            58.5042         estimate D2E/DX2                !
 ! D6    D(9,1,2,12)           -57.5128         estimate D2E/DX2                !
 ! D7    D(10,1,2,3)            61.8167         estimate D2E/DX2                !
 ! D8    D(10,1,2,11)          -60.882          estimate D2E/DX2                !
 ! D9    D(10,1,2,12)         -176.899          estimate D2E/DX2                !
 ! D10   D(1,2,3,4)             63.8584         estimate D2E/DX2                !
 ! D11   D(1,2,3,5)           -178.4318         estimate D2E/DX2                !
 ! D12   D(1,2,3,6)            -56.649          estimate D2E/DX2                !
 ! D13   D(11,2,3,4)          -173.4586         estimate D2E/DX2                !
 ! D14   D(11,2,3,5)           -55.7488         estimate D2E/DX2                !
 ! D15   D(11,2,3,6)            66.034          estimate D2E/DX2                !
 ! D16   D(12,2,3,4)           -57.7894         estimate D2E/DX2                !
 ! D17   D(12,2,3,5)            59.9204         estimate D2E/DX2                !
 ! D18   D(12,2,3,6)          -178.2968         estimate D2E/DX2                !
 ! D19   D(2,3,4,13)            53.4209         estimate D2E/DX2                !
 ! D20   D(2,3,4,14)           -67.2154         estimate D2E/DX2                !
 ! D21   D(2,3,4,15)           173.1015         estimate D2E/DX2                !
 ! D22   D(5,3,4,13)           -64.2384         estimate D2E/DX2                !
 ! D23   D(5,3,4,14)           175.1253         estimate D2E/DX2                !
 ! D24   D(5,3,4,15)            55.4422         estimate D2E/DX2                !
 ! D25   D(6,3,4,13)           176.6738         estimate D2E/DX2                !
 ! D26   D(6,3,4,14)            56.0375         estimate D2E/DX2                !
 ! D27   D(6,3,4,15)           -63.6457         estimate D2E/DX2                !
 ! D28   D(2,3,5,16)            56.0144         estimate D2E/DX2                !
 ! D29   D(2,3,5,17)           -63.6688         estimate D2E/DX2                !
 ! D30   D(2,3,5,18)           176.6511         estimate D2E/DX2                !
 ! D31   D(4,3,5,16)           175.1063         estimate D2E/DX2                !
 ! D32   D(4,3,5,17)            55.4232         estimate D2E/DX2                !
 ! D33   D(4,3,5,18)           -64.2569         estimate D2E/DX2                !
 ! D34   D(6,3,5,16)           -67.236          estimate D2E/DX2                !
 ! D35   D(6,3,5,17)           173.0809         estimate D2E/DX2                !
 ! D36   D(6,3,5,18)            53.4008         estimate D2E/DX2                !
 ! D37   D(2,3,6,7)            -56.6439         estimate D2E/DX2                !
 ! D38   D(2,3,6,19)          -178.292          estimate D2E/DX2                !
 ! D39   D(2,3,6,20)            66.0395         estimate D2E/DX2                !
 ! D40   D(4,3,6,7)           -178.4316         estimate D2E/DX2                !
 ! D41   D(4,3,6,19)            59.9204         estimate D2E/DX2                !
 ! D42   D(4,3,6,20)           -55.7482         estimate D2E/DX2                !
 ! D43   D(5,3,6,7)             63.8604         estimate D2E/DX2                !
 ! D44   D(5,3,6,19)           -57.7877         estimate D2E/DX2                !
 ! D45   D(5,3,6,20)          -173.4562         estimate D2E/DX2                !
 ! D46   D(3,6,7,21)           -59.5455         estimate D2E/DX2                !
 ! D47   D(3,6,7,22)          -178.8352         estimate D2E/DX2                !
 ! D48   D(3,6,7,23)            61.7785         estimate D2E/DX2                !
 ! D49   D(19,6,7,21)           61.7392         estimate D2E/DX2                !
 ! D50   D(19,6,7,22)          -57.5505         estimate D2E/DX2                !
 ! D51   D(19,6,7,23)         -176.9368         estimate D2E/DX2                !
 ! D52   D(20,6,7,21)          177.7568         estimate D2E/DX2                !
 ! D53   D(20,6,7,22)           58.4672         estimate D2E/DX2                !
 ! D54   D(20,6,7,23)          -60.9191         estimate D2E/DX2                !
 --------------------------------------------------------------------------------
 Number of steps in this run=    128 maximum allowed number of steps=    138.
 GradGradGradGradGradGradGradGradGradGradGradGradGradGradGradGradGradGrad

                    Distance matrix (angstroms):
                    1          2          3          4          5
     1  C    0.000000
     2  C    1.524985   0.000000
     3  C    2.595196   1.539708   0.000000
     4  C    3.109809   2.519671   1.533081   0.000000
     5  C    3.894819   2.484796   1.533086   2.480721   0.000000
     6  C    3.091720   2.561280   1.539703   2.484795   2.519615
     7  C    3.638945   3.091672   2.595189   3.894810   3.109757
     8  H    1.086687   2.169806   2.866807   2.803229   4.258278
     9  H    1.088386   2.149898   3.516125   4.066338   4.634669
    10  H    1.086687   2.171043   2.885472   3.546538   4.253212
    11  H    2.141664   1.091830   2.154951   3.456761   2.661038
    12  H    2.139677   1.093194   2.143752   2.707501   2.681985
    13  H    3.380750   2.712577   2.169669   1.087892   2.753789
    14  H    2.849580   2.832088   2.176812   1.086875   3.443652
    15  H    4.131205   3.466276   2.165060   1.088048   2.675625
    16  H    4.142797   2.697451   2.176818   3.443644   1.086884
    17  H    4.189709   2.746084   2.165053   2.675459   1.088053
    18  H    4.737223   3.445685   2.169687   2.753962   1.087896
    19  H    4.097161   3.484065   2.143752   2.681989   2.707418
    20  H    2.795710   2.837918   2.154921   2.661007   3.456699
    21  H    4.331583   3.445245   2.867073   4.258422   2.803451
    22  H    4.401122   4.086133   3.516105   4.634637   4.066482
    23  H    3.132000   2.800185   2.885211   4.253075   3.546056
                    6          7          8          9         10
     6  C    0.000000
     7  C    1.524975   0.000000
     8  H    3.444823   4.331186   0.000000
     9  H    4.086370   4.401503   1.759111   0.000000
    10  H    2.800535   3.132024   1.765126   1.759407   0.000000
    11  H    2.837900   2.795632   3.055862   2.455762   2.496696
    12  H    3.484062   4.097101   2.498173   2.446510   3.055478
    13  H    3.445682   4.737210   2.985237   4.146835   4.081907
    14  H    2.697638   4.142926   2.268055   3.837564   3.166228
    15  H    2.745902   4.189569   3.827310   5.122748   4.431576
    16  H    2.832192   2.849708   4.740192   4.741697   4.400800
    17  H    3.466212   4.131241   4.442048   4.798094   4.778452
    18  H    2.712370   3.380435   4.993467   5.575902   4.974661
    19  H    1.093196   2.139669   4.294709   5.124715   3.833598
    20  H    1.091823   2.141663   2.975231   3.827480   2.289911
    21  H    2.169780   1.086676   5.062142   5.023882   4.006908
    22  H    2.149870   1.088377   5.023056   5.170685   3.693838
    23  H    2.171050   1.086663   4.006623   3.694257   2.566090
                   11         12         13         14         15
    11  H    0.000000
    12  H    1.756292   0.000000
    13  H    3.691410   2.444608   0.000000
    14  H    3.835985   3.151504   1.764919   0.000000
    15  H    4.284052   3.674242   1.763246   1.758822   0.000000
    16  H    2.411532   2.992701   3.728602   4.307610   3.708182
    17  H    3.035112   2.486374   2.497502   3.707981   2.937326
    18  H    3.657884   3.697433   3.165671   3.728829   2.497874
    19  H    3.796573   4.273165   3.697343   2.992994   2.486175
    20  H    3.278287   3.796595   3.657951   2.411707   3.034802
    21  H    2.975739   4.295134   4.993629   4.740432   4.442000
    22  H    3.827217   5.124516   5.575867   4.741739   4.797996
    23  H    2.289375   3.833177   4.974507   4.400869   4.778208
                   16         17         18         19         20
    16  H    0.000000
    17  H    1.758843   0.000000
    18  H    1.764930   1.763251   0.000000
    19  H    3.151655   3.674060   2.444359   0.000000
    20  H    3.836050   4.283977   3.691235   1.756288   0.000000
    21  H    2.268630   3.827692   2.984919   2.497898   3.055833
    22  H    3.837951   5.122916   4.146827   2.446723   2.455508
    23  H    3.165712   4.431226   4.081263   3.055486   2.496965
                   21         22         23
    21  H    0.000000
    22  H    1.759096   0.000000
    23  H    1.765095   1.759372   0.000000
 Framework group  C1[X(C7H16)]
 Deg. of freedom    63
                         Standard orientation:                         
 ---------------------------------------------------------------------
 Center     Atomic      Atomic             Coordinates (Angstroms)
 Number     Number       Type             X           Y           Z
 ---------------------------------------------------------------------
      1          6           0       -1.819313   -1.322079    0.029028
      2          6           0       -0.980821   -0.326373    0.823434
      3          6           0        0.000011    0.528396    0.000004
      4          6           0       -0.771090    1.429491   -0.971474
      5          6           0        0.771233    1.429357    0.971517
      6          6           0        0.980805   -0.326401   -0.823436
      7          6           0        1.819168   -1.322232   -0.029071
      8          1           0       -2.427115   -0.817995   -0.717540
      9          1           0       -2.488359   -1.854370    0.702547
     10          1           0       -1.193382   -2.056108   -0.471272
     11          1           0       -0.418453   -0.870566    1.584808
     12          1           0       -1.656071    0.353244    1.349962
     13          1           0       -1.520184    2.012577   -0.440083
     14          1           0       -1.270540    0.844176   -1.739104
     15          1           0       -0.090072    2.119071   -1.465985
     16          1           0        1.270335    0.843962    1.739324
     17          1           0        0.090334    2.119230    1.465796
     18          1           0        1.520632    2.012134    0.440207
     19          1           0        1.656141    0.353192   -1.349888
     20          1           0        0.418406   -0.870468   -1.584865
     21          1           0        2.427482   -0.818185    0.717090
     22          1           0        2.487709   -1.854996   -0.702704
     23          1           0        1.193169   -2.055849    0.471697
 ---------------------------------------------------------------------
 Rotational constants (GHZ):           2.5904880           2.3097229           1.7309140
   130 basis functions,   239 primitive gaussians,   137 cartesian basis functions
    29 alpha electrons       29 beta electrons
       nuclear repulsion energy       343.9032865784 Hartrees.
 NAtoms=   23 NActive=   23 NUniq=   23 SFac= 1.00D+00 NAtFMM=   60 NAOKFM=F Big=F
 Nuclear repulsion after empirical dispersion term =      343.8854705351 Hartrees.
   1 Symmetry operations used in ECPInt.
 ECPInt:  NShTT=    2775 NPrTT=   11165 LenC2=    2769 LenP2D=    9127.
 LDataN:  DoStor=T MaxTD1= 4 Len=   56
 ExpMin= 1.22D-01 ExpMax= 1.24D+03 ExpMxC= 1.86D+02 IAcc=3 IRadAn=         5 AccDes= 0.00D+00
 Harris functional with IExCor= 4639 and IRadAn=       5 diagonalized for initial guess.
 HarFok:  IExCor= 4639 AccDes= 0.00D+00 IRadAn=         5 IDoV= 1 UseB2=F ITyADJ=14
 ICtDFT=  3500011 ScaDFX=  1.000000  1.000000  1.000000  1.000000
 FoFCou: FMM=F IPFlag=           0 FMFlag=      100000 FMFlg1=           0
         NFxFlg=           0 DoJE=T BraDBF=F KetDBF=T FulRan=T
         wScrn=  0.000000 ICntrl=       500 IOpCl=  0 I1Cent=   200000004 NGrid=           0
         NMat0=    1 NMatS0=      1 NMatT0=    0 NMatD0=    1 NMtDS0=    0 NMtDT0=    0
 Petite list used in FoFCou.
     Minimum is close to point  3 DX=  2.76D-02 DF= -1.11D-04 DXR=  4.39D-02 DFR=  1.93D-03 which will be used.
     Minimum is close to point  3 DX=  4.63D-02 DF= -1.22D-05 DXR=  4.90D-02 DFR=  2.40D-03 which will be used.
     Accept linear search using points  1 and  2.
     Minimum is close to point  2 DX=  4.26D-04 DF= -8.92D-12 DXR=  4.26D-04 DFR=  1.81D-07 which will be used.
 SCF Done:  E(RwB97XD) =  -276.084268393     a.u. after    6 cycles
            Convg  =    0.1549D-08                    27 Fock formations.
              S**2 =  0.0000                  -V/T =  2.0109

 **********************************************************************

            Population analysis using the SCF Density.

 **********************************************************************

 Orbital symmetries:
       Occupied  (A) (A) (A) (A) (A) (A) (A) (A) (A) (A) (A) (A)
                 (A) (A) (A) (A) (A) (A) (A) (A) (A) (A) (A) (A)
                 (A) (A) (A) (A) (A)
       Virtual   (A) (A) (A) (A) (A) (A) (A) (A) (A) (A) (A) (A)
                 (A) (A) (A) (A) (A) (A) (A) (A) (A) (A) (A) (A)
                 (A) (A) (A) (A) (A) (A) (A) (A) (A) (A) (A) (A)
                 (A) (A) (A) (A) (A) (A) (A) (A) (A) (A) (A) (A)
                 (A) (A) (A) (A) (A) (A) (A) (A) (A) (A) (A) (A)
                 (A) (A) (A) (A) (A) (A) (A) (A) (A) (A) (A) (A)
                 (A) (A) (A) (A) (A) (A) (A) (A) (A) (A) (A) (A)
                 (A) (A) (A) (A) (A) (A) (A) (A) (A) (A) (A) (A)
                 (A) (A) (A) (A) (A)
 The electronic state is 1-A.
 Alpha  occ. eigenvalues --  -10.29724 -10.27888 -10.27885 -10.27240 -10.27239
 Alpha  occ. eigenvalues --  -10.26926 -10.26925  -0.92353  -0.83745  -0.82012
 Alpha  occ. eigenvalues --   -0.77293  -0.71456  -0.70633  -0.60646  -0.55670
 Alpha  occ. eigenvalues --   -0.55600  -0.52527  -0.51409  -0.49021  -0.48314
 Alpha  occ. eigenvalues --   -0.46675  -0.46188  -0.44328  -0.44175  -0.42592
 Alpha  occ. eigenvalues --   -0.41928  -0.38835  -0.38668  -0.38143
 Alpha virt. eigenvalues --    0.12926   0.16358   0.16797   0.17638   0.19263
 Alpha virt. eigenvalues --    0.19573   0.21245   0.21436   0.21494   0.23104
 Alpha virt. eigenvalues --    0.24917   0.25638   0.25784   0.27115   0.28836
 Alpha virt. eigenvalues --    0.29548   0.30062   0.31810   0.32203   0.33211
 Alpha virt. eigenvalues --    0.33535   0.34576   0.47839   0.49969   0.50121
 Alpha virt. eigenvalues --    0.51953   0.54220   0.55213   0.57176   0.60210
 Alpha virt. eigenvalues --    0.64528   0.66177   0.68846   0.70755   0.73080
 Alpha virt. eigenvalues --    0.73397   0.73806   0.77122   0.78139   0.79134
 Alpha virt. eigenvalues --    0.79800   0.80303   0.81361   0.81559   0.81574
 Alpha virt. eigenvalues --    0.82204   0.82508   0.82941   0.84272   0.84657
 Alpha virt. eigenvalues --    0.85906   0.85926   0.87107   0.87295   0.87656
 Alpha virt. eigenvalues --    0.90667   0.90889   0.96703   0.97513   1.06107
 Alpha virt. eigenvalues --    1.09945   1.11959   1.21827   1.27110   1.27431
 Alpha virt. eigenvalues --    1.34453   1.44767   1.48397   1.67958   1.69492
 Alpha virt. eigenvalues --    1.70610   1.85265   1.87162   1.93896   1.97299
 Alpha virt. eigenvalues --    1.97616   2.00540   2.00955   2.04654   2.06218
 Alpha virt. eigenvalues --    2.13597   2.14767   2.15538   2.19022   2.19216
 Alpha virt. eigenvalues --    2.26979   2.27456   2.30437   2.31421   2.33764
 Alpha virt. eigenvalues --    2.35419   2.37585   2.37861   2.40411   2.51068
 Alpha virt. eigenvalues --    2.63487   2.63967   2.81620   2.82459   2.83427
 Alpha virt. eigenvalues --    2.83860
          Condensed to atoms (all electrons):
 Mulliken charges:
               1
     1  C   -0.305249
     2  C   -0.178844
     3  C   -0.269970
     4  C   -0.246694
     5  C   -0.246704
     6  C   -0.178842
     7  C   -0.305238
     8  H    0.114616
     9  H    0.116067
    10  H    0.116716
    11  H    0.099505
    12  H    0.092659
    13  H    0.106629
    14  H    0.113204
    15  H    0.106380
    16  H    0.113205
    17  H    0.106379
    18  H    0.106629
    19  H    0.092661
    20  H    0.099498
    21  H    0.114616
    22  H    0.116063
    23  H    0.116715
 Sum of Mulliken charges =   0.00000
 Mulliken charges with hydrogens summed into heavy atoms:
               1
     1  C    0.042150
     2  C    0.013321
     3  C   -0.269970
     4  C    0.079518
     5  C    0.079509
     6  C    0.013317
     7  C    0.042156
 Electronic spatial extent (au):  <R**2>=            914.4824
 Charge=              0.0000 electrons
 Dipole moment (field-independent basis, Debye):
    X=             -0.0000    Y=             -0.0658    Z=             -0.0000  Tot=              0.0658
 Evaluate density.
 Using the total density.
 Monte-Carlo method of calculating molar volume:
 based on  0.001 e/bohr**3 density envelope.
 Number of points per bohr**3 =  100 CutOff= 1.00D-04
 Using the SCF density.
 There are      1822 points.  Will hold      1822 in memory.
 LenV=  1048301130 MDV=  1048576000.
 Box volume = 6056.253 fraction occupied=0.203
 Integrated density= 1.0066740306453758D+02 error= 4.2667403064537581D+01
 Molar volume = 1226.541 bohr**3/mol (109.455 cm**3/mol)
 Recommended a0 for SCRF calculation =  4.37 angstrom (  8.25 bohr)
   1 Symmetry operations used in ECPInt.
 ECPInt:  NShTT=    2775 NPrTT=   11165 LenC2=    2769 LenP2D=    9127.
 LDataN:  DoStor=T MaxTD1= 5 Len=  102
 Calling FoFJK, ICntrl=      2127 FMM=F ISym2X=0 I1Cent= 0 IOpClX= 0 NMat=1 NMatS=1 NMatT=0.

 GradGradGradGradGradGradGradGradGradGradGradGradGradGradGradGradGradGrad
 FormGI is forming the generalized inverse of G from B-inverse, IUseBI=4.
 Internal  Forces:  Max     0.011510963 RMS     0.004099207
 Step number   1 out of a maximum of  128
 All quantities printed in internal units (Hartrees-Bohrs-Radians)
 Mixed Optimization -- RFO/linear search
 Second derivative matrix not updated -- first step.
 ITU=  0
     Eigenvalues ---    0.00241   0.00241   0.00328   0.00328   0.00435
     Eigenvalues ---    0.00436   0.03259   0.03259   0.04338   0.04772
     Eigenvalues ---    0.04772   0.04814   0.05204   0.05500   0.05500
     Eigenvalues ---    0.05502   0.05502   0.05610   0.05610   0.05733
     Eigenvalues ---    0.05733   0.08805   0.08805   0.12544   0.12544
     Eigenvalues ---    0.14124   0.14673   0.16000   0.16000   0.16000
     Eigenvalues ---    0.16000   0.16000   0.16000   0.16000   0.16000
     Eigenvalues ---    0.16000   0.16000   0.16000   0.16000   0.21996
     Eigenvalues ---    0.21996   0.28545   0.28545   0.29140   0.29141
     Eigenvalues ---    0.29891   0.29892   0.34446   0.34446   0.34602
     Eigenvalues ---    0.34603   0.35000   0.35001   0.35039   0.35039
     Eigenvalues ---    0.35057   0.35057   0.35175   0.35176   0.35198
     Eigenvalues ---    0.35198   0.35200   0.35201
 Linear search not attempted -- first point.
 Iteration  1 RMS(Cart)=  0.02522870 RMS(Int)=  0.00017257
 Iteration  2 RMS(Cart)=  0.00020012 RMS(Int)=  0.00003096
 Iteration  3 RMS(Cart)=  0.00000005 RMS(Int)=  0.00003096
 Variable       Old X    -DE/DX   Delta X   Delta X   Delta X     New X
                                 (Linear)    (Quad)   (Total)
    R1        2.88180   0.00430   0.00000   0.01411   0.01411   2.89591
    R2        2.05354   0.01105   0.00000   0.03087   0.03087   2.08441
    R3        2.05675   0.01019   0.00000   0.02862   0.02862   2.08537
    R4        2.05354   0.01132   0.00000   0.03162   0.03162   2.08516
    R5        2.90963   0.00469   0.00000   0.01608   0.01608   2.92571
    R6        2.06326   0.00881   0.00000   0.02502   0.02502   2.08828
    R7        2.06584   0.00843   0.00000   0.02405   0.02405   2.08988
    R8        2.89710   0.00442   0.00000   0.01486   0.01486   2.91197
    R9        2.89711   0.00442   0.00000   0.01487   0.01487   2.91198
   R10        2.90962   0.00469   0.00000   0.01610   0.01610   2.92572
   R11        2.05582   0.01151   0.00000   0.03227   0.03227   2.08809
   R12        2.05390   0.01135   0.00000   0.03172   0.03172   2.08562
   R13        2.05611   0.01113   0.00000   0.03123   0.03123   2.08734
   R14        2.05391   0.01135   0.00000   0.03171   0.03171   2.08562
   R15        2.05612   0.01113   0.00000   0.03122   0.03122   2.08734
   R16        2.05583   0.01151   0.00000   0.03227   0.03227   2.08809
   R17        2.88179   0.00431   0.00000   0.01413   0.01413   2.89591
   R18        2.06584   0.00843   0.00000   0.02404   0.02404   2.08988
   R19        2.06325   0.00882   0.00000   0.02504   0.02504   2.08828
   R20        2.05352   0.01106   0.00000   0.03089   0.03089   2.08441
   R21        2.05673   0.01020   0.00000   0.02864   0.02864   2.08537
   R22        2.05350   0.01134   0.00000   0.03166   0.03166   2.08516
    A1        1.94179   0.00162   0.00000   0.00979   0.00974   1.95153
    A2        1.91235   0.00189   0.00000   0.01184   0.01178   1.92414
    A3        1.94353   0.00139   0.00000   0.00789   0.00785   1.95138
    A4        1.88408  -0.00169   0.00000  -0.00923  -0.00930   1.87478
    A5        1.89569  -0.00174   0.00000  -0.01125  -0.01128   1.88441
    A6        1.88454  -0.00170   0.00000  -0.01032  -0.01037   1.87418
    A7        2.01988   0.00248   0.00000   0.01586   0.01578   2.03566
    A8        1.89761  -0.00069   0.00000  -0.00098  -0.00101   1.89660
    A9        1.89356   0.00008   0.00000   0.00598   0.00593   1.89949
   A10        1.89813  -0.00040   0.00000   0.00009   0.00003   1.89816
   A11        1.88172  -0.00097   0.00000  -0.00316  -0.00328   1.87843
   A12        1.86726  -0.00072   0.00000  -0.02081  -0.02081   1.84645
   A13        1.92280   0.00033   0.00000   0.00224   0.00223   1.92503
   A14        1.88368   0.00006   0.00000   0.00038   0.00037   1.88406
   A15        1.96448  -0.00063   0.00000  -0.00693  -0.00693   1.95755
   A16        1.88511  -0.00013   0.00000   0.00201   0.00201   1.88712
   A17        1.88369   0.00005   0.00000   0.00037   0.00037   1.88406
   A18        1.92274   0.00033   0.00000   0.00230   0.00229   1.92503
   A19        1.93033   0.00119   0.00000   0.00743   0.00739   1.93773
   A20        1.94137   0.00176   0.00000   0.01082   0.01078   1.95215
   A21        1.92378   0.00093   0.00000   0.00509   0.00507   1.92885
   A22        1.89358  -0.00145   0.00000  -0.00784  -0.00789   1.88569
   A23        1.88946  -0.00114   0.00000  -0.00733  -0.00735   1.88211
   A24        1.88382  -0.00145   0.00000  -0.00921  -0.00923   1.87459
   A25        1.94136   0.00176   0.00000   0.01081   0.01077   1.95214
   A26        1.92376   0.00093   0.00000   0.00512   0.00510   1.92887
   A27        1.93035   0.00119   0.00000   0.00741   0.00738   1.93773
   A28        1.88383  -0.00145   0.00000  -0.00922  -0.00924   1.87459
   A29        1.89358  -0.00145   0.00000  -0.00784  -0.00789   1.88569
   A30        1.88945  -0.00114   0.00000  -0.00733  -0.00735   1.88211
   A31        2.01989   0.00248   0.00000   0.01586   0.01578   2.03567
   A32        1.88172  -0.00097   0.00000  -0.00318  -0.00330   1.87842
   A33        1.89810  -0.00040   0.00000   0.00013   0.00007   1.89818
   A34        1.89356   0.00007   0.00000   0.00594   0.00590   1.89946
   A35        1.89763  -0.00069   0.00000  -0.00097  -0.00100   1.89663
   A36        1.86726  -0.00072   0.00000  -0.02081  -0.02082   1.84645
   A37        1.94178   0.00162   0.00000   0.00979   0.00974   1.95151
   A38        1.91234   0.00190   0.00000   0.01186   0.01180   1.92413
   A39        1.94358   0.00139   0.00000   0.00787   0.00783   1.95141
   A40        1.88408  -0.00169   0.00000  -0.00923  -0.00929   1.87479
   A41        1.89568  -0.00173   0.00000  -0.01124  -0.01127   1.88441
   A42        1.88453  -0.00170   0.00000  -0.01032  -0.01036   1.87417
    D1       -1.03858   0.00019   0.00000   0.00439   0.00438  -1.03420
    D2        3.10311  -0.00050   0.00000  -0.00625  -0.00625   3.09686
    D3        1.07823   0.00068   0.00000   0.01570   0.01575   1.09398
    D4       -3.12060   0.00005   0.00000   0.00208   0.00205  -3.11855
    D5        1.02109  -0.00065   0.00000  -0.00856  -0.00858   1.01251
    D6       -1.00379   0.00054   0.00000   0.01339   0.01342  -0.99037
    D7        1.07891   0.00006   0.00000   0.00228   0.00225   1.08115
    D8       -1.06259  -0.00063   0.00000  -0.00836  -0.00838  -1.07097
    D9       -3.08747   0.00055   0.00000   0.01359   0.01362  -3.07385
   D10        1.11454   0.00017   0.00000   0.00767   0.00766   1.12220
   D11       -3.11422   0.00023   0.00000   0.01157   0.01155  -3.10267
   D12       -0.98871   0.00029   0.00000   0.01029   0.01028  -0.97843
   D13       -3.02742   0.00071   0.00000   0.01776   0.01775  -3.00967
   D14       -0.97300   0.00077   0.00000   0.02165   0.02165  -0.95135
   D15        1.15251   0.00083   0.00000   0.02037   0.02037   1.17288
   D16       -1.00862  -0.00086   0.00000  -0.00837  -0.00836  -1.01698
   D17        1.04581  -0.00080   0.00000  -0.00448  -0.00447   1.04134
   D18       -3.11187  -0.00074   0.00000  -0.00576  -0.00574  -3.11761
   D19        0.93237   0.00037   0.00000   0.01119   0.01120   0.94357
   D20       -1.17313   0.00023   0.00000   0.00887   0.00887  -1.16426
   D21        3.02119   0.00030   0.00000   0.01008   0.01008   3.03127
   D22       -1.12117   0.00019   0.00000   0.00831   0.00831  -1.11286
   D23        3.05651   0.00005   0.00000   0.00599   0.00598   3.06249
   D24        0.96765   0.00012   0.00000   0.00719   0.00719   0.97484
   D25        3.08354  -0.00016   0.00000   0.00427   0.00427   3.08781
   D26        0.97804  -0.00030   0.00000   0.00195   0.00194   0.97998
   D27       -1.11083  -0.00023   0.00000   0.00315   0.00315  -1.10768
   D28        0.97764  -0.00030   0.00000   0.00215   0.00214   0.97978
   D29       -1.11123  -0.00023   0.00000   0.00335   0.00335  -1.10788
   D30        3.08314  -0.00016   0.00000   0.00445   0.00446   3.08760
   D31        3.05618   0.00005   0.00000   0.00613   0.00612   3.06230
   D32        0.96732   0.00012   0.00000   0.00732   0.00732   0.97464
   D33       -1.12149   0.00019   0.00000   0.00842   0.00843  -1.11306
   D34       -1.17349   0.00023   0.00000   0.00903   0.00903  -1.16446
   D35        3.02083   0.00030   0.00000   0.01023   0.01023   3.03106
   D36        0.93202   0.00037   0.00000   0.01133   0.01134   0.94336
   D37       -0.98862   0.00028   0.00000   0.01005   0.01004  -0.97859
   D38       -3.11178  -0.00074   0.00000  -0.00594  -0.00592  -3.11770
   D39        1.15261   0.00083   0.00000   0.02018   0.02018   1.17279
   D40       -3.11422   0.00023   0.00000   0.01140   0.01139  -3.10283
   D41        1.04581  -0.00080   0.00000  -0.00458  -0.00457   1.04123
   D42       -0.97299   0.00077   0.00000   0.02153   0.02153  -0.95146
   D43        1.11457   0.00017   0.00000   0.00748   0.00747   1.12204
   D44       -1.00858  -0.00086   0.00000  -0.00850  -0.00849  -1.01708
   D45       -3.02738   0.00071   0.00000   0.01761   0.01761  -3.00977
   D46       -1.03927   0.00019   0.00000   0.00462   0.00461  -1.03466
   D47       -3.12126   0.00005   0.00000   0.00230   0.00227  -3.11899
   D48        1.07824   0.00007   0.00000   0.00250   0.00247   1.08071
   D49        1.07755   0.00069   0.00000   0.01588   0.01593   1.09348
   D50       -1.00445   0.00054   0.00000   0.01356   0.01359  -0.99085
   D51       -3.08813   0.00056   0.00000   0.01376   0.01379  -3.07434
   D52        3.10244  -0.00050   0.00000  -0.00609  -0.00609   3.09635
   D53        1.02044  -0.00065   0.00000  -0.00840  -0.00842   1.01202
   D54       -1.06324  -0.00063   0.00000  -0.00821  -0.00822  -1.07146
         Item               Value     Threshold  Converged?
 Maximum Force            0.011511     0.000015     NO 
 RMS     Force            0.004099     0.000010     NO 
 Maximum Displacement     0.074921     0.000060     NO 
 RMS     Displacement     0.025279     0.000040     NO 
 GradGradGradGradGradGradGradGradGradGradGradGradGradGradGradGradGradGrad

                    Distance matrix (angstroms):
                    1          2          3          4          5
     1  C    0.000000
     2  C    1.532452   0.000000
     3  C    2.621571   1.548218   0.000000
     4  C    3.149507   2.535072   1.540946   0.000000
     5  C    3.922147   2.498382   1.540955   2.495270   0.000000
     6  C    3.112386   2.569475   1.548225   2.498380   2.535080
     7  C    3.650230   3.112479   2.621584   3.922150   3.149433
     8  H    1.103021   2.195751   2.909564   2.857043   4.309018
     9  H    1.103530   2.176362   3.557499   4.119023   4.674505
    10  H    1.103419   2.195946   2.929466   3.604053   4.296616
    11  H    2.157231   1.105069   2.172194   3.482273   2.668270
    12  H    2.160009   1.105919   2.158002   2.728046   2.694288
    13  H    3.436408   2.745361   2.194804   1.104971   2.777313
    14  H    2.897333   2.859256   2.204198   1.103662   3.477810
    15  H    4.185398   3.498802   2.188057   1.104572   2.703655
    16  H    4.179248   2.726974   2.204199   3.477798   1.103663
    17  H    4.226296   2.768321   2.188077   2.703579   1.104573
    18  H    4.786408   3.478030   2.194814   2.777417   1.104970
    19  H    4.130966   3.503565   2.157995   2.694221   2.728085
    20  H    2.828204   2.859319   2.172214   2.668334   3.482299
    21  H    4.353753   3.476035   2.909753   4.309070   2.857120
    22  H    4.428982   4.123516   3.557512   4.674497   4.119124
    23  H    3.137825   2.832608   2.929311   4.296590   3.603631
                    6          7          8          9         10
     6  C    0.000000
     7  C    1.532450   0.000000
     8  H    3.475554   4.353404   0.000000
     9  H    4.123575   4.429294   1.778518   0.000000
    10  H    2.832708   3.137777   1.784694   1.778442   0.000000
    11  H    2.859350   2.828346   3.091693   2.482643   2.527701
    12  H    3.503575   4.131070   2.539159   2.477466   3.093831
    13  H    3.478034   4.786422   3.055773   4.212762   4.156503
    14  H    2.727072   4.179370   2.316010   3.896366   3.232225
    15  H    2.768202   4.226155   3.893499   5.191011   4.501201
    16  H    2.859349   2.897352   4.802402   4.788681   4.449003
    17  H    3.498809   4.185397   4.504613   4.842517   4.834273
    18  H    2.745276   3.436119   5.063488   5.637599   5.040374
    19  H    1.105918   2.159979   4.337268   5.174828   3.878723
    20  H    1.105072   2.157252   2.999835   3.878366   2.336744
    21  H    2.195739   1.103023   5.106000   5.056604   4.023894
    22  H    2.176358   1.103530   5.055879   5.213916   3.712730
    23  H    2.195962   1.103417   4.023713   3.713126   2.554716
                   11         12         13         14         15
    11  H    0.000000
    12  H    1.763375   0.000000
    13  H    3.729333   2.474318   0.000000
    14  H    3.880205   3.183705   1.787297   0.000000
    15  H    4.324807   3.712385   1.785708   1.779745   0.000000
    16  H    2.424932   3.019776   3.773124   4.362080   3.752766
    17  H    3.044764   2.497734   2.523883   3.752675   2.981163
    18  H    3.686481   3.726886   3.192889   3.773263   2.524081
    19  H    3.828076   4.301543   3.726783   3.019835   2.497532
    20  H    3.323812   3.828041   3.686590   2.425107   3.044690
    21  H    3.000474   4.337790   5.063582   4.802552   4.504430
    22  H    3.878378   5.174814   5.637601   4.788729   4.842428
    23  H    2.336546   3.878586   5.040337   4.449189   4.834124
                   16         17         18         19         20
    16  H    0.000000
    17  H    1.779748   0.000000
    18  H    1.787296   1.785705   0.000000
    19  H    3.183904   3.712350   2.474272   0.000000
    20  H    3.880264   4.324835   3.729318   1.763376   0.000000
    21  H    2.316346   3.893702   3.055384   2.538924   3.091695
    22  H    3.896610   5.191132   4.212738   2.477607   2.482482
    23  H    3.231698   4.500883   4.155953   3.093831   2.527931
                   21         22         23
    21  H    0.000000
    22  H    1.778521   0.000000
    23  H    1.784696   1.778435   0.000000
 Framework group  C1[X(C7H16)]
 Deg. of freedom    63
                         Standard orientation:                         
 ---------------------------------------------------------------------
 Center     Atomic      Atomic             Coordinates (Angstroms)
 Number     Number       Type             X           Y           Z
 ---------------------------------------------------------------------
      1          6           0       -1.824817   -1.342264    0.032705
      2          6           0       -0.990798   -0.324269    0.817886
      3          6           0       -0.000010    0.539662   -0.000002
      4          6           0       -0.766196    1.444087   -0.984628
      5          6           0        0.766250    1.444033    0.984631
      6          6           0        0.990723   -0.324341   -0.817894
      7          6           0        1.824827   -1.342251   -0.032698
      8          1           0       -2.443024   -0.856232   -0.740761
      9          1           0       -2.508155   -1.880824    0.711512
     10          1           0       -1.190339   -2.096712   -0.463055
     11          1           0       -0.429613   -0.859041    1.605456
     12          1           0       -1.674624    0.363249    1.349635
     13          1           0       -1.529047    2.045965   -0.458547
     14          1           0       -1.274660    0.858385   -1.769796
     15          1           0       -0.073654    2.141403   -1.488827
     16          1           0        1.274502    0.858294    1.769909
     17          1           0        0.073803    2.141547    1.488688
     18          1           0        1.529289    2.045701    0.458582
     19          1           0        1.674521    0.363146   -1.349716
     20          1           0        0.429498   -0.859161   -1.605408
     21          1           0        2.443440   -0.856075    0.740355
     22          1           0        2.507788   -1.881180   -0.711594
     23          1           0        1.190405   -2.096410    0.463570
 ---------------------------------------------------------------------
 Rotational constants (GHZ):           2.5313242           2.2853680           1.7023692
   130 basis functions,   239 primitive gaussians,   137 cartesian basis functions
    29 alpha electrons       29 beta electrons
       nuclear repulsion energy       340.8911548391 Hartrees.
 NAtoms=   23 NActive=   23 NUniq=   23 SFac= 1.00D+00 NAtFMM=   60 NAOKFM=F Big=F
 Nuclear repulsion after empirical dispersion term =      340.8734571825 Hartrees.
   1 Symmetry operations used in ECPInt.
 ECPInt:  NShTT=    2775 NPrTT=   11165 LenC2=    2769 LenP2D=    9105.
 LDataN:  DoStor=T MaxTD1= 4 Len=   56
 Initial guess from the checkpoint file:  "monomer.chk"
 B after Tr=     0.000000    0.000000    0.000000
         Rot=    0.999998    0.000011    0.001962   -0.000020 Ang=   0.22 deg.
 ExpMin= 1.22D-01 ExpMax= 1.24D+03 ExpMxC= 1.86D+02 IAcc=3 IRadAn=         5 AccDes= 0.00D+00
 Harris functional with IExCor= 4639 and IRadAn=       5 diagonalized for initial guess.
 HarFok:  IExCor= 4639 AccDes= 0.00D+00 IRadAn=         5 IDoV= 1 UseB2=F ITyADJ=14
 ICtDFT=  3500011 ScaDFX=  1.000000  1.000000  1.000000  1.000000
 FoFCou: FMM=F IPFlag=           0 FMFlag=      100000 FMFlg1=           0
         NFxFlg=           0 DoJE=T BraDBF=F KetDBF=T FulRan=T
         wScrn=  0.000000 ICntrl=       500 IOpCl=  0 I1Cent=   200000004 NGrid=           0
         NMat0=    1 NMatS0=      1 NMatT0=    0 NMatD0=    1 NMtDS0=    0 NMtDT0=    0
 Petite list used in FoFCou.
     Accept linear search using points  3 and  4.
     Minimum is close to point  3 DX=  7.70D-02 DF= -5.07D-07 DXR=  6.54D-02 DFR=  4.30D-03 which will be used.
     Accept linear search using points  1 and  2.
     Minimum is close to point  2 DX= -2.60D-04 DF= -3.58D-12 DXR=  2.60D-04 DFR=  6.70D-08 which will be used.
 SCF Done:  E(RwB97XD) =  -276.087248102     a.u. after    5 cycles
            Convg  =    0.3638D-09                    27 Fock formations.
              S**2 =  0.0000                  -V/T =  2.0124
   1 Symmetry operations used in ECPInt.
 ECPInt:  NShTT=    2775 NPrTT=   11165 LenC2=    2769 LenP2D=    9105.
 LDataN:  DoStor=T MaxTD1= 5 Len=  102
 Calling FoFJK, ICntrl=      2127 FMM=F ISym2X=0 I1Cent= 0 IOpClX= 0 NMat=1 NMatS=1 NMatT=0.

 GradGradGradGradGradGradGradGradGradGradGradGradGradGradGradGradGradGrad
 Using GEDIIS/GDIIS optimizer.
 FormGI is forming the generalized inverse of G from B-inverse, IUseBI=4.
 Internal  Forces:  Max     0.002489958 RMS     0.000496507
 Step number   2 out of a maximum of  128
 All quantities printed in internal units (Hartrees-Bohrs-Radians)
 Mixed Optimization -- En-DIIS/RFO-DIIS
 Trust test= 9.55D-01 RLast= 1.57D-01 DXMaxT set to 4.72D-01
 ITU=  1  0
 Use linear search instead of GDIIS.
     Eigenvalues ---    0.00241   0.00241   0.00328   0.00328   0.00435
     Eigenvalues ---    0.00436   0.03140   0.03140   0.04384   0.04721
     Eigenvalues ---    0.04725   0.04803   0.05159   0.05402   0.05404
     Eigenvalues ---    0.05410   0.05411   0.05545   0.05545   0.05620
     Eigenvalues ---    0.05620   0.09000   0.09002   0.12677   0.12685
     Eigenvalues ---    0.14131   0.14669   0.15804   0.16000   0.16000
     Eigenvalues ---    0.16000   0.16000   0.16000   0.16000   0.16000
     Eigenvalues ---    0.16000   0.16000   0.16000   0.16020   0.21968
     Eigenvalues ---    0.22089   0.28545   0.28675   0.29141   0.29199
     Eigenvalues ---    0.29646   0.29892   0.34446   0.34456   0.34602
     Eigenvalues ---    0.34611   0.35000   0.35005   0.35039   0.35045
     Eigenvalues ---    0.35057   0.35114   0.35176   0.35182   0.35197
     Eigenvalues ---    0.35199   0.35200   0.36596
 Quartic linear search produced a step of -0.00831.
 Iteration  1 RMS(Cart)=  0.01239997 RMS(Int)=  0.00012041
 Iteration  2 RMS(Cart)=  0.00012506 RMS(Int)=  0.00000114
 Iteration  3 RMS(Cart)=  0.00000001 RMS(Int)=  0.00000114
 Variable       Old X    -DE/DX   Delta X   Delta X   Delta X     New X
                                 (Linear)    (Quad)   (Total)
    R1        2.89591  -0.00249  -0.00012  -0.00786  -0.00797   2.88794
    R2        2.08441   0.00027  -0.00026   0.00164   0.00138   2.08579
    R3        2.08537  -0.00002  -0.00024   0.00074   0.00050   2.08587
    R4        2.08516   0.00019  -0.00026   0.00142   0.00116   2.08632
    R5        2.92571  -0.00144  -0.00013  -0.00455  -0.00468   2.92103
    R6        2.08828   0.00027  -0.00021   0.00149   0.00128   2.08956
    R7        2.08988   0.00027  -0.00020   0.00147   0.00127   2.09116
    R8        2.91197  -0.00198  -0.00012  -0.00630  -0.00642   2.90554
    R9        2.91198  -0.00198  -0.00012  -0.00632  -0.00644   2.90554
   R10        2.92572  -0.00145  -0.00013  -0.00457  -0.00470   2.92102
   R11        2.08809   0.00005  -0.00027   0.00106   0.00080   2.08889
   R12        2.08562   0.00015  -0.00026   0.00132   0.00106   2.08668
   R13        2.08734   0.00018  -0.00026   0.00139   0.00113   2.08847
   R14        2.08562   0.00015  -0.00026   0.00132   0.00106   2.08668
   R15        2.08734   0.00018  -0.00026   0.00139   0.00113   2.08847
   R16        2.08809   0.00005  -0.00027   0.00106   0.00080   2.08889
   R17        2.89591  -0.00249  -0.00012  -0.00785  -0.00797   2.88794
   R18        2.08988   0.00028  -0.00020   0.00148   0.00128   2.09116
   R19        2.08828   0.00027  -0.00021   0.00148   0.00127   2.08956
   R20        2.08441   0.00027  -0.00026   0.00164   0.00138   2.08579
   R21        2.08537  -0.00003  -0.00024   0.00074   0.00050   2.08587
   R22        2.08516   0.00019  -0.00026   0.00143   0.00116   2.08632
    A1        1.95153   0.00034  -0.00008   0.00231   0.00223   1.95376
    A2        1.92414   0.00002  -0.00010   0.00075   0.00065   1.92479
    A3        1.95138   0.00020  -0.00007   0.00122   0.00116   1.95254
    A4        1.87478  -0.00013   0.00008  -0.00061  -0.00054   1.87425
    A5        1.88441  -0.00036   0.00009  -0.00309  -0.00300   1.88141
    A6        1.87418  -0.00010   0.00009  -0.00083  -0.00074   1.87344
    A7        2.03566  -0.00085  -0.00013  -0.00285  -0.00298   2.03268
    A8        1.89660   0.00037   0.00001   0.00188   0.00189   1.89849
    A9        1.89949   0.00020  -0.00005   0.00113   0.00108   1.90058
   A10        1.89816   0.00023  -0.00000   0.00097   0.00097   1.89913
   A11        1.87843   0.00042   0.00003   0.00265   0.00267   1.88111
   A12        1.84645  -0.00033   0.00017  -0.00400  -0.00383   1.84262
   A13        1.92503  -0.00016  -0.00002  -0.00105  -0.00107   1.92397
   A14        1.88406   0.00020  -0.00000   0.00140   0.00139   1.88545
   A15        1.95755  -0.00017   0.00006  -0.00314  -0.00309   1.95447
   A16        1.88712   0.00010  -0.00002   0.00263   0.00261   1.88973
   A17        1.88406   0.00020  -0.00000   0.00140   0.00139   1.88545
   A18        1.92503  -0.00016  -0.00002  -0.00105  -0.00107   1.92395
   A19        1.93773   0.00010  -0.00006   0.00057   0.00051   1.93823
   A20        1.95215   0.00004  -0.00009   0.00042   0.00033   1.95247
   A21        1.92885   0.00028  -0.00004   0.00219   0.00215   1.93100
   A22        1.88569  -0.00014   0.00007  -0.00170  -0.00164   1.88405
   A23        1.88211  -0.00017   0.00006  -0.00106  -0.00100   1.88111
   A24        1.87459  -0.00012   0.00008  -0.00058  -0.00051   1.87408
   A25        1.95214   0.00004  -0.00009   0.00042   0.00033   1.95246
   A26        1.92887   0.00027  -0.00004   0.00218   0.00214   1.93101
   A27        1.93773   0.00010  -0.00006   0.00057   0.00051   1.93824
   A28        1.87459  -0.00012   0.00008  -0.00058  -0.00050   1.87408
   A29        1.88569  -0.00014   0.00007  -0.00170  -0.00164   1.88405
   A30        1.88211  -0.00017   0.00006  -0.00105  -0.00099   1.88111
   A31        2.03567  -0.00085  -0.00013  -0.00287  -0.00300   2.03266
   A32        1.87842   0.00042   0.00003   0.00266   0.00269   1.88111
   A33        1.89818   0.00023  -0.00000   0.00095   0.00095   1.89913
   A34        1.89946   0.00020  -0.00005   0.00115   0.00111   1.90056
   A35        1.89663   0.00037   0.00001   0.00188   0.00189   1.89851
   A36        1.84645  -0.00033   0.00017  -0.00400  -0.00383   1.84262
   A37        1.95151   0.00034  -0.00008   0.00231   0.00223   1.95374
   A38        1.92413   0.00002  -0.00010   0.00075   0.00065   1.92479
   A39        1.95141   0.00020  -0.00007   0.00121   0.00114   1.95255
   A40        1.87479  -0.00013   0.00008  -0.00061  -0.00053   1.87425
   A41        1.88441  -0.00036   0.00009  -0.00310  -0.00300   1.88141
   A42        1.87417  -0.00010   0.00009  -0.00082  -0.00073   1.87344
    D1       -1.03420   0.00004  -0.00004   0.00830   0.00826  -1.02594
    D2        3.09686   0.00006   0.00005   0.00755   0.00760   3.10446
    D3        1.09398   0.00015  -0.00013   0.01068   0.01055   1.10452
    D4       -3.11855  -0.00002  -0.00002   0.00707   0.00705  -3.11150
    D5        1.01251  -0.00001   0.00007   0.00632   0.00639   1.01890
    D6       -0.99037   0.00008  -0.00011   0.00945   0.00934  -0.98103
    D7        1.08115  -0.00003  -0.00002   0.00681   0.00680   1.08795
    D8       -1.07097  -0.00002   0.00007   0.00607   0.00614  -1.06483
    D9       -3.07385   0.00007  -0.00011   0.00920   0.00908  -3.06477
   D10        1.12220  -0.00005  -0.00006  -0.00073  -0.00079   1.12141
   D11       -3.10267   0.00009  -0.00010   0.00267   0.00258  -3.10009
   D12       -0.97843  -0.00009  -0.00009   0.00032   0.00023  -0.97820
   D13       -3.00967   0.00000  -0.00015   0.00049   0.00034  -3.00933
   D14       -0.95135   0.00015  -0.00018   0.00389   0.00371  -0.94764
   D15        1.17288  -0.00003  -0.00017   0.00153   0.00136   1.17425
   D16       -1.01698  -0.00006   0.00007  -0.00234  -0.00227  -1.01925
   D17        1.04134   0.00009   0.00004   0.00106   0.00110   1.04244
   D18       -3.11761  -0.00009   0.00005  -0.00130  -0.00125  -3.11886
   D19        0.94357   0.00017  -0.00009   0.02437   0.02428   0.96785
   D20       -1.16426   0.00026  -0.00007   0.02587   0.02579  -1.13847
   D21        3.03127   0.00020  -0.00008   0.02485   0.02477   3.05604
   D22       -1.11286  -0.00004  -0.00007   0.02173   0.02166  -1.09120
   D23        3.06249   0.00005  -0.00005   0.02322   0.02317   3.08567
   D24        0.97484  -0.00001  -0.00006   0.02221   0.02215   0.99699
   D25        3.08781  -0.00001  -0.00004   0.02074   0.02070   3.10852
   D26        0.97998   0.00007  -0.00002   0.02224   0.02222   1.00220
   D27       -1.10768   0.00002  -0.00003   0.02122   0.02120  -1.08648
   D28        0.97978   0.00007  -0.00002   0.02248   0.02246   1.00224
   D29       -1.10788   0.00002  -0.00003   0.02146   0.02143  -1.08645
   D30        3.08760  -0.00001  -0.00004   0.02098   0.02094   3.10855
   D31        3.06230   0.00005  -0.00005   0.02347   0.02342   3.08572
   D32        0.97464  -0.00001  -0.00006   0.02246   0.02240   0.99703
   D33       -1.11306  -0.00004  -0.00007   0.02198   0.02191  -1.09115
   D34       -1.16446   0.00026  -0.00008   0.02611   0.02604  -1.13842
   D35        3.03106   0.00020  -0.00009   0.02510   0.02501   3.05608
   D36        0.94336   0.00017  -0.00009   0.02462   0.02453   0.96789
   D37       -0.97859  -0.00009  -0.00008   0.00028   0.00019  -0.97839
   D38       -3.11770  -0.00009   0.00005  -0.00136  -0.00132  -3.11902
   D39        1.17279  -0.00003  -0.00017   0.00146   0.00129   1.17408
   D40       -3.10283   0.00009  -0.00009   0.00263   0.00253  -3.10030
   D41        1.04123   0.00009   0.00004   0.00099   0.00103   1.04226
   D42       -0.95146   0.00014  -0.00018   0.00381   0.00363  -0.94783
   D43        1.12204  -0.00005  -0.00006  -0.00077  -0.00083   1.12121
   D44       -1.01708  -0.00006   0.00007  -0.00241  -0.00234  -1.01942
   D45       -3.00977   0.00000  -0.00015   0.00041   0.00027  -3.00950
   D46       -1.03466   0.00004  -0.00004   0.00849   0.00845  -1.02621
   D47       -3.11899  -0.00002  -0.00002   0.00725   0.00723  -3.11176
   D48        1.08071  -0.00003  -0.00002   0.00699   0.00697   1.08768
   D49        1.09348   0.00015  -0.00013   0.01090   0.01076   1.10424
   D50       -0.99085   0.00009  -0.00011   0.00966   0.00955  -0.98131
   D51       -3.07434   0.00007  -0.00011   0.00940   0.00928  -3.06505
   D52        3.09635   0.00006   0.00005   0.00778   0.00783   3.10418
   D53        1.01202  -0.00001   0.00007   0.00654   0.00661   1.01864
   D54       -1.07146  -0.00002   0.00007   0.00628   0.00635  -1.06511
         Item               Value     Threshold  Converged?
 Maximum Force            0.002490     0.000015     NO 
 RMS     Force            0.000497     0.000010     NO 
 Maximum Displacement     0.041198     0.000060     NO 
 RMS     Displacement     0.012398     0.000040     NO 
 GradGradGradGradGradGradGradGradGradGradGradGradGradGradGradGradGradGrad

                    Distance matrix (angstroms):
                    1          2          3          4          5
     1  C    0.000000
     2  C    1.528233   0.000000
     3  C    2.613466   1.545741   0.000000
     4  C    3.138126   2.529310   1.537546   0.000000
     5  C    3.912866   2.494886   1.537548   2.492112   0.000000
     6  C    3.099339   2.562690   1.545738   2.494883   2.529297
     7  C    3.633362   3.099423   2.613453   3.912861   3.137985
     8  H    1.103752   2.194167   2.899783   2.842891   4.299731
     9  H    1.103796   2.173325   3.550955   4.106261   4.668053
    10  H    1.104032   2.193509   2.925110   3.598185   4.288439
    11  H    2.155450   1.105746   2.171246   3.477822   2.665074
    12  H    2.157623   1.106593   2.158353   2.726317   2.694793
    13  H    3.445100   2.751015   2.192491   1.105392   2.765234
    14  H    2.871040   2.841800   2.201847   1.104222   3.475476
    15  H    4.168943   3.496029   2.187077   1.105169   2.714056
    16  H    4.178856   2.734964   2.201842   3.475474   1.104223
    17  H    4.213228   2.756944   2.187080   2.714082   1.105169
    18  H    4.777365   3.475387   2.192493   2.765214   1.105392
    19  H    4.119071   3.499657   2.158353   2.694703   2.726384
    20  H    2.815560   2.854052   2.171243   2.665158   3.477823
    21  H    4.334011   3.458618   2.899865   4.299713   2.842808
    22  H    4.416142   4.113186   3.550949   4.668050   4.106246
    23  H    3.121929   2.822102   2.924991   4.288443   3.597804
                    6          7          8          9         10
     6  C    0.000000
     7  C    1.528232   0.000000
     8  H    3.458277   4.333776   0.000000
     9  H    4.113204   4.416352   1.778972   0.000000
    10  H    2.822148   3.121891   1.783832   1.778667   0.000000
    11  H    2.854134   2.815748   3.092018   2.483862   2.524880
    12  H    3.499654   4.119170   2.542845   2.472179   3.092753
    13  H    3.475382   4.777356   3.068228   4.219212   4.168386
    14  H    2.734953   4.178909   2.279758   3.864431   3.219708
    15  H    2.756954   4.213176   3.870754   5.175866   4.485204
    16  H    2.841757   2.870840   4.802060   4.796011   4.442687
    17  H    3.496022   4.168817   4.498448   4.827371   4.823073
    18  H    2.751018   3.444932   5.048833   5.631406   5.036675
    19  H    1.106593   2.157613   4.319972   5.165386   3.868240
    20  H    1.105746   2.155464   2.980214   3.867195   2.326899
    21  H    2.194154   1.103753   5.085378   5.039886   4.006277
    22  H    2.173325   1.103797   5.039395   5.204528   3.700578
    23  H    2.193517   1.104032   4.006162   3.700847   2.537319
                   11         12         13         14         15
    11  H    0.000000
    12  H    1.761893   0.000000
    13  H    3.732403   2.482995   0.000000
    14  H    3.866995   3.164664   1.787027   0.000000
    15  H    4.324359   3.719330   1.785881   1.780345   0.000000
    16  H    2.433199   3.037062   3.770635   4.359101   3.756715
    17  H    3.026480   2.488455   2.523113   3.756748   3.016217
    18  H    3.689700   3.723075   3.161699   3.770609   2.523062
    19  H    3.825274   4.301621   3.723012   3.036904   2.488373
    20  H    3.320601   3.825169   3.689753   2.433278   3.026637
    21  H    2.980730   4.320361   5.048858   4.802095   4.498273
    22  H    3.867297   5.165402   5.631399   4.795997   4.827387
    23  H    2.326849   3.868183   5.036626   4.442859   4.823039
                   16         17         18         19         20
    16  H    0.000000
    17  H    1.780349   0.000000
    18  H    1.787027   1.785881   0.000000
    19  H    3.164737   3.719387   2.483086   0.000000
    20  H    3.866928   4.324372   3.732459   1.761897   0.000000
    21  H    2.279710   3.870711   3.067959   2.542713   3.092017
    22  H    3.864369   5.175843   4.219231   2.472268   2.483779
    23  H    3.219164   4.484823   4.168032   3.092760   2.525011
                   21         22         23
    21  H    0.000000
    22  H    1.778975   0.000000
    23  H    1.783833   1.778668   0.000000
 Framework group  C1[X(C7H16)]
 Deg. of freedom    63
                         Standard orientation:                         
 ---------------------------------------------------------------------
 Center     Atomic      Atomic             Coordinates (Angstroms)
 Number     Number       Type             X           Y           Z
 ---------------------------------------------------------------------
      1          6           0       -1.816402   -1.338542    0.035252
      2          6           0       -0.984878   -0.324313    0.819729
      3          6           0        0.000018    0.540175    0.000000
      4          6           0       -0.770835    1.441044   -0.978912
      5          6           0        0.771050    1.440857    0.978947
      6          6           0        0.984759   -0.324460   -0.819756
      7          6           0        1.816276   -1.338681   -0.035265
      8          1           0       -2.431864   -0.853961   -0.742345
      9          1           0       -2.503106   -1.875689    0.712213
     10          1           0       -1.182698   -2.095487   -0.459055
     11          1           0       -0.420663   -0.858927    1.606191
     12          1           0       -1.668295    0.360018    1.357484
     13          1           0       -1.516358    2.059504   -0.446379
     14          1           0       -1.302987    0.852880   -1.747147
     15          1           0       -0.080194    2.124184   -1.505917
     16          1           0        1.303125    0.852549    1.747125
     17          1           0        0.080541    2.124081    1.506014
     18          1           0        1.516665    2.059224    0.446432
     19          1           0        1.668191    0.359769   -1.357622
     20          1           0        0.420422   -0.859082   -1.606125
     21          1           0        2.432051   -0.854032    0.742043
     22          1           0        2.502683   -1.876136   -0.712284
     23          1           0        1.182554   -2.095375    0.459405
 ---------------------------------------------------------------------
 Rotational constants (GHZ):           2.5413021           2.2984418           1.7115515
   130 basis functions,   239 primitive gaussians,   137 cartesian basis functions
    29 alpha electrons       29 beta electrons
       nuclear repulsion energy       341.5098163375 Hartrees.
 NAtoms=   23 NActive=   23 NUniq=   23 SFac= 1.00D+00 NAtFMM=   60 NAOKFM=F Big=F
 Nuclear repulsion after empirical dispersion term =      341.4920939778 Hartrees.
   1 Symmetry operations used in ECPInt.
 ECPInt:  NShTT=    2775 NPrTT=   11165 LenC2=    2769 LenP2D=    9109.
 LDataN:  DoStor=T MaxTD1= 4 Len=   56
 Initial guess from the checkpoint file:  "monomer.chk"
 B after Tr=    -0.000000    0.000000   -0.000000
         Rot=    0.999998   -0.000009   -0.001801    0.000023 Ang=  -0.21 deg.
 ExpMin= 1.22D-01 ExpMax= 1.24D+03 ExpMxC= 1.86D+02 IAcc=3 IRadAn=         5 AccDes= 0.00D+00
 Harris functional with IExCor= 4639 and IRadAn=       5 diagonalized for initial guess.
 HarFok:  IExCor= 4639 AccDes= 0.00D+00 IRadAn=         5 IDoV= 1 UseB2=F ITyADJ=14
 ICtDFT=  3500011 ScaDFX=  1.000000  1.000000  1.000000  1.000000
 FoFCou: FMM=F IPFlag=           0 FMFlag=      100000 FMFlg1=           0
         NFxFlg=           0 DoJE=T BraDBF=F KetDBF=T FulRan=T
         wScrn=  0.000000 ICntrl=       500 IOpCl=  0 I1Cent=   200000004 NGrid=           0
         NMat0=    1 NMatS0=      1 NMatT0=    0 NMatD0=    1 NMtDS0=    0 NMtDT0=    0
 Petite list used in FoFCou.
     Minimum is close to point  2 DX=  1.23D-04 DF= -9.09D-13 DXR=  1.23D-04 DFR=  1.52D-08 which will be used.
 SCF Done:  E(RwB97XD) =  -276.087320454     a.u. after    4 cycles
            Convg  =    0.1585D-08                    24 Fock formations.
              S**2 =  0.0000                  -V/T =  2.0124
   1 Symmetry operations used in ECPInt.
 ECPInt:  NShTT=    2775 NPrTT=   11165 LenC2=    2769 LenP2D=    9109.
 LDataN:  DoStor=T MaxTD1= 5 Len=  102
 Calling FoFJK, ICntrl=      2127 FMM=F ISym2X=0 I1Cent= 0 IOpClX= 0 NMat=1 NMatS=1 NMatT=0.

 GradGradGradGradGradGradGradGradGradGradGradGradGradGradGradGradGradGrad
 Using GEDIIS/GDIIS optimizer.
 FormGI is forming the generalized inverse of G from B-inverse, IUseBI=4.
 Internal  Forces:  Max     0.000691487 RMS     0.000170348
 Step number   3 out of a maximum of  128
 All quantities printed in internal units (Hartrees-Bohrs-Radians)
 Mixed Optimization -- En-DIIS/RFO-DIIS
 Swapping is turned off.
 Trust test= 9.72D-01 RLast= 1.06D-01 DXMaxT set to 4.72D-01
 ITU=  1  1  0
     Eigenvalues ---    0.00220   0.00241   0.00328   0.00338   0.00428
     Eigenvalues ---    0.00436   0.03141   0.03147   0.04413   0.04453
     Eigenvalues ---    0.04722   0.04965   0.05128   0.05397   0.05397
     Eigenvalues ---    0.05398   0.05433   0.05528   0.05528   0.05606
     Eigenvalues ---    0.05606   0.08981   0.08984   0.12664   0.12673
     Eigenvalues ---    0.14127   0.14521   0.14865   0.16000   0.16000
     Eigenvalues ---    0.16000   0.16000   0.16000   0.16000   0.16000
     Eigenvalues ---    0.16000   0.16000   0.16001   0.16046   0.21955
     Eigenvalues ---    0.22967   0.27661   0.28545   0.29141   0.29463
     Eigenvalues ---    0.29892   0.34352   0.34446   0.34504   0.34602
     Eigenvalues ---    0.34611   0.35000   0.35020   0.35039   0.35050
     Eigenvalues ---    0.35057   0.35170   0.35176   0.35185   0.35199
     Eigenvalues ---    0.35200   0.35669   0.36921
 En-DIIS/RFO-DIIS/Sim-DIIS IScMMF=       -3 using points:     3    2
 RFO step:  Lambda=-4.05004303D-05.
 DidBck=F Rises=F RFO-DIIS coefs:    1.39011   -0.39011
 Iteration  1 RMS(Cart)=  0.02139614 RMS(Int)=  0.00017752
 Iteration  2 RMS(Cart)=  0.00023860 RMS(Int)=  0.00000098
 Iteration  3 RMS(Cart)=  0.00000002 RMS(Int)=  0.00000098
 Variable       Old X    -DE/DX   Delta X   Delta X   Delta X     New X
                                 (Linear)    (Quad)   (Total)
    R1        2.88794  -0.00015  -0.00311   0.00045  -0.00266   2.88529
    R2        2.08579  -0.00024   0.00054  -0.00077  -0.00023   2.08556
    R3        2.08587  -0.00015   0.00020  -0.00043  -0.00023   2.08564
    R4        2.08632  -0.00017   0.00045  -0.00054  -0.00009   2.08623
    R5        2.92103   0.00052  -0.00183   0.00237   0.00054   2.92157
    R6        2.08956  -0.00011   0.00050  -0.00040   0.00010   2.08966
    R7        2.09116  -0.00008   0.00050  -0.00031   0.00018   2.09134
    R8        2.90554  -0.00023  -0.00251  -0.00003  -0.00253   2.90301
    R9        2.90554  -0.00023  -0.00251  -0.00003  -0.00254   2.90301
   R10        2.92102   0.00052  -0.00183   0.00238   0.00054   2.92157
   R11        2.08889  -0.00016   0.00031  -0.00046  -0.00015   2.08874
   R12        2.08668  -0.00028   0.00041  -0.00085  -0.00044   2.08624
   R13        2.08847  -0.00019   0.00044  -0.00058  -0.00014   2.08833
   R14        2.08668  -0.00028   0.00041  -0.00085  -0.00044   2.08624
   R15        2.08847  -0.00019   0.00044  -0.00058  -0.00014   2.08833
   R16        2.08889  -0.00016   0.00031  -0.00046  -0.00015   2.08874
   R17        2.88794  -0.00015  -0.00311   0.00046  -0.00265   2.88529
   R18        2.09116  -0.00008   0.00050  -0.00031   0.00018   2.09134
   R19        2.08956  -0.00011   0.00050  -0.00040   0.00010   2.08966
   R20        2.08579  -0.00024   0.00054  -0.00077  -0.00023   2.08556
   R21        2.08587  -0.00015   0.00020  -0.00043  -0.00023   2.08564
   R22        2.08632  -0.00017   0.00045  -0.00054  -0.00009   2.08623
    A1        1.95376   0.00021   0.00087   0.00110   0.00197   1.95572
    A2        1.92479   0.00015   0.00025   0.00083   0.00109   1.92587
    A3        1.95254   0.00014   0.00045   0.00080   0.00125   1.95379
    A4        1.87425  -0.00019  -0.00021  -0.00119  -0.00140   1.87285
    A5        1.88141  -0.00018  -0.00117  -0.00071  -0.00188   1.87953
    A6        1.87344  -0.00016  -0.00029  -0.00103  -0.00132   1.87212
    A7        2.03268   0.00069  -0.00116   0.00416   0.00299   2.03567
    A8        1.89849  -0.00021   0.00074  -0.00121  -0.00047   1.89802
    A9        1.90058  -0.00015   0.00042   0.00001   0.00043   1.90101
   A10        1.89913  -0.00020   0.00038  -0.00104  -0.00066   1.89847
   A11        1.88111  -0.00019   0.00104  -0.00055   0.00049   1.88160
   A12        1.84262   0.00001  -0.00149  -0.00193  -0.00343   1.83919
   A13        1.92397   0.00011  -0.00042   0.00091   0.00049   1.92445
   A14        1.88545  -0.00005   0.00054  -0.00049   0.00005   1.88551
   A15        1.95447   0.00002  -0.00120   0.00157   0.00036   1.95483
   A16        1.88973  -0.00015   0.00102  -0.00256  -0.00154   1.88819
   A17        1.88545  -0.00005   0.00054  -0.00049   0.00005   1.88550
   A18        1.92395   0.00011  -0.00042   0.00093   0.00051   1.92447
   A19        1.93823   0.00009   0.00020   0.00062   0.00082   1.93905
   A20        1.95247   0.00016   0.00013   0.00106   0.00118   1.95365
   A21        1.93100   0.00009   0.00084   0.00015   0.00099   1.93199
   A22        1.88405  -0.00011  -0.00064  -0.00025  -0.00089   1.88316
   A23        1.88111  -0.00010  -0.00039  -0.00063  -0.00102   1.88009
   A24        1.87408  -0.00015  -0.00020  -0.00107  -0.00127   1.87281
   A25        1.95246   0.00017   0.00013   0.00107   0.00119   1.95366
   A26        1.93101   0.00008   0.00083   0.00015   0.00099   1.93199
   A27        1.93824   0.00009   0.00020   0.00062   0.00082   1.93905
   A28        1.87408  -0.00015  -0.00020  -0.00108  -0.00128   1.87281
   A29        1.88405  -0.00011  -0.00064  -0.00025  -0.00089   1.88316
   A30        1.88111  -0.00010  -0.00039  -0.00063  -0.00102   1.88009
   A31        2.03266   0.00069  -0.00117   0.00417   0.00300   2.03566
   A32        1.88111  -0.00020   0.00105  -0.00055   0.00050   1.88161
   A33        1.89913  -0.00020   0.00037  -0.00105  -0.00067   1.89846
   A34        1.90056  -0.00015   0.00043   0.00002   0.00045   1.90101
   A35        1.89851  -0.00021   0.00074  -0.00123  -0.00049   1.89802
   A36        1.84262   0.00001  -0.00149  -0.00194  -0.00343   1.83919
   A37        1.95374   0.00021   0.00087   0.00111   0.00198   1.95572
   A38        1.92479   0.00015   0.00026   0.00083   0.00109   1.92588
   A39        1.95255   0.00014   0.00045   0.00079   0.00124   1.95379
   A40        1.87425  -0.00019  -0.00021  -0.00119  -0.00140   1.87285
   A41        1.88141  -0.00018  -0.00117  -0.00071  -0.00188   1.87953
   A42        1.87344  -0.00016  -0.00028  -0.00103  -0.00131   1.87213
    D1       -1.02594  -0.00001   0.00322   0.00107   0.00430  -1.02165
    D2        3.10446  -0.00007   0.00297   0.00040   0.00337   3.10783
    D3        1.10452   0.00010   0.00411   0.00333   0.00744   1.11197
    D4       -3.11150  -0.00001   0.00275   0.00130   0.00405  -3.10745
    D5        1.01890  -0.00007   0.00249   0.00063   0.00312   1.02202
    D6       -0.98103   0.00011   0.00364   0.00355   0.00719  -0.97384
    D7        1.08795   0.00000   0.00265   0.00151   0.00416   1.09211
    D8       -1.06483  -0.00006   0.00239   0.00084   0.00323  -1.06160
    D9       -3.06477   0.00012   0.00354   0.00376   0.00731  -3.05746
   D10        1.12141   0.00013  -0.00031   0.02341   0.02310   1.14451
   D11       -3.10009  -0.00001   0.00101   0.02054   0.02155  -3.07854
   D12       -0.97820   0.00011   0.00009   0.02237   0.02246  -0.95575
   D13       -3.00933   0.00019   0.00013   0.02399   0.02412  -2.98520
   D14       -0.94764   0.00005   0.00145   0.02112   0.02257  -0.92507
   D15        1.17425   0.00017   0.00053   0.02295   0.02348   1.19773
   D16       -1.01925   0.00001  -0.00089   0.02092   0.02003  -0.99921
   D17        1.04244  -0.00014   0.00043   0.01805   0.01848   1.06092
   D18       -3.11886  -0.00002  -0.00049   0.01988   0.01939  -3.09947
   D19        0.96785  -0.00003   0.00947  -0.00176   0.00771   0.97557
   D20       -1.13847  -0.00006   0.01006  -0.00259   0.00747  -1.13099
   D21        3.05604  -0.00004   0.00966  -0.00204   0.00762   3.06366
   D22       -1.09120   0.00006   0.00845  -0.00017   0.00828  -1.08292
   D23        3.08567   0.00002   0.00904  -0.00100   0.00804   3.09371
   D24        0.99699   0.00005   0.00864  -0.00045   0.00819   1.00518
   D25        3.10852   0.00003   0.00808   0.00043   0.00850   3.11702
   D26        1.00220  -0.00000   0.00867  -0.00041   0.00826   1.01046
   D27       -1.08648   0.00002   0.00827   0.00014   0.00841  -1.07807
   D28        1.00224  -0.00000   0.00876  -0.00049   0.00827   1.01051
   D29       -1.08645   0.00002   0.00836   0.00006   0.00843  -1.07802
   D30        3.10855   0.00003   0.00817   0.00035   0.00852   3.11707
   D31        3.08572   0.00002   0.00914  -0.00112   0.00802   3.09374
   D32        0.99703   0.00004   0.00874  -0.00056   0.00818   1.00521
   D33       -1.09115   0.00006   0.00855  -0.00027   0.00827  -1.08288
   D34       -1.13842  -0.00006   0.01016  -0.00269   0.00746  -1.13096
   D35        3.05608  -0.00004   0.00976  -0.00214   0.00762   3.06370
   D36        0.96789  -0.00003   0.00957  -0.00185   0.00772   0.97561
   D37       -0.97839   0.00011   0.00008   0.02258   0.02266  -0.95573
   D38       -3.11902  -0.00002  -0.00051   0.02007   0.01956  -3.09946
   D39        1.17408   0.00016   0.00050   0.02315   0.02365   1.19773
   D40       -3.10030  -0.00001   0.00099   0.02079   0.02178  -3.07851
   D41        1.04226  -0.00014   0.00040   0.01828   0.01868   1.06094
   D42       -0.94783   0.00005   0.00142   0.02136   0.02278  -0.92505
   D43        1.12121   0.00014  -0.00032   0.02364   0.02332   1.14453
   D44       -1.01942   0.00001  -0.00091   0.02113   0.02022  -0.99920
   D45       -3.00950   0.00019   0.00010   0.02421   0.02431  -2.98519
   D46       -1.02621  -0.00001   0.00330   0.00109   0.00439  -1.02182
   D47       -3.11176  -0.00001   0.00282   0.00131   0.00413  -3.10763
   D48        1.08768   0.00000   0.00272   0.00153   0.00425   1.09193
   D49        1.10424   0.00010   0.00420   0.00337   0.00757   1.11181
   D50       -0.98131   0.00011   0.00372   0.00359   0.00732  -0.97399
   D51       -3.06505   0.00012   0.00362   0.00381   0.00743  -3.05762
   D52        3.10418  -0.00007   0.00305   0.00043   0.00349   3.10767
   D53        1.01864  -0.00007   0.00258   0.00065   0.00323   1.02187
   D54       -1.06511  -0.00006   0.00248   0.00087   0.00335  -1.06176
         Item               Value     Threshold  Converged?
 Maximum Force            0.000691     0.000015     NO 
 RMS     Force            0.000170     0.000010     NO 
 Maximum Displacement     0.069350     0.000060     NO 
 RMS     Displacement     0.021407     0.000040     NO 
 GradGradGradGradGradGradGradGradGradGradGradGradGradGradGradGradGradGrad

                    Distance matrix (angstroms):
                    1          2          3          4          5
     1  C    0.000000
     2  C    1.526827   0.000000
     3  C    2.614934   1.546028   0.000000
     4  C    3.153516   2.528877   1.536206   0.000000
     5  C    3.911324   2.494083   1.536204   2.488550   0.000000
     6  C    3.091033   2.563481   1.546026   2.494082   2.528886
     7  C    3.593024   3.091018   2.614928   3.911320   3.153538
     8  H    1.103631   2.194230   2.901743   2.863626   4.306046
     9  H    1.103673   2.172786   3.552194   4.116154   4.666491
    10  H    1.103984   2.193123   2.929964   3.624000   4.283067
    11  H    2.153911   1.105800   2.171043   3.475333   2.653575
    12  H    2.156788   1.106690   2.159044   2.717304   2.703918
    13  H    3.472566   2.754701   2.191839   1.105313   2.758202
    14  H    2.886709   2.838675   2.201330   1.103991   3.472755
    15  H    4.179924   3.496306   2.186560   1.105095   2.715003
    16  H    4.174132   2.738795   2.201329   3.472755   1.103990
    17  H    4.214849   2.752712   2.186557   2.715015   1.105095
    18  H    4.777259   3.475134   2.191838   2.758185   1.105313
    19  H    4.119656   3.500407   2.159053   2.703938   2.717322
    20  H    2.824144   2.865821   2.171031   2.653552   3.475331
    21  H    4.285912   3.440064   2.901805   4.306089   2.863719
    22  H    4.383121   4.109350   3.552194   4.666489   4.116235
    23  H    3.066447   2.817535   2.929879   4.283007   3.623897
                    6          7          8          9         10
     6  C    0.000000
     7  C    1.526827   0.000000
     8  H    3.439955   4.285805   0.000000
     9  H    4.109409   4.383217   1.777860   0.000000
    10  H    2.817652   3.066477   1.782472   1.777669   0.000000
    11  H    2.865832   2.824139   3.091647   2.484230   2.523050
    12  H    3.500399   4.119639   2.546378   2.469602   3.092389
    13  H    3.475132   4.777253   3.111571   4.239960   4.202022
    14  H    2.738772   4.174104   2.292976   3.872616   3.256444
    15  H    2.752737   4.214876   3.885433   5.183344   4.505044
    16  H    2.838670   2.886718   4.804399   4.794580   4.427412
    17  H    3.496311   4.179930   4.515162   4.825587   4.820637
    18  H    2.754731   3.472630   5.054038   5.630973   5.035895
[...]
 92,0.11422715,-0.00068116,-0.00099334,0.00047508,-0.00050301,0.0006832
 4,-0.00043069,0.00978444,0.01165748,0.01262956,-0.06936513,-0.12758253
 ,-0.10160911,0.00149456,-0.00189764,0.00188380,0.00028869,0.00107055,0
 .00099074,-0.00017650,0.00012357,0.00007693,-0.00054202,-0.00091211,0.
 00084023,0.00009356,-0.00000409,0.00002258,0.00006820,-0.00008113,0.00
 001467,0.00014446,0.00011921,-0.00021450,-0.00009301,-0.00008631,0.000
 05028,-0.00917040,-0.00847122,-0.00951921,0.07446687,0.13541192,-0.000
 49557,0.00042596,-0.00043404,-0.00045311,-0.00097771,0.00008890,-0.008
 53333,-0.01281122,-0.01353725,-0.08777663,-0.10014696,-0.17642563,-0.0
 0186044,0.00399205,-0.00260363,0.00122706,-0.00102879,0.00036398,0.000
 15970,0.00020641,0.00015062,0.00090461,0.00052803,0.00041180,0.0002373
 4,-0.00015408,0.00037942,0.00010744,-0.00006218,0.00006884,0.00008498,
 0.00007192,0.00015783,-0.00004796,0.00005878,-0.00002306,-0.00781018,-
 0.00637059,-0.00905811,0.09772330,0.10744991,0.18752887,-0.00023136,-0
 .00001574,-0.00014590,-0.00145663,0.00165234,-0.00191253,0.00989655,0.
 01025368,-0.00770872,-0.15806747,-0.10452183,0.08100299,0.00097381,0.0
 0074889,-0.00031435,0.00085756,0.00048889,-0.00071344,0.00017780,-0.00
 012555,-0.00007603,0.00025661,0.00011381,0.00022465,0.00007276,-0.0000
 4283,0.00011385,0.00004869,-0.00005739,0.00002525,0.00064385,0.0004405
 8,-0.00050606,0.00009206,-0.00004072,-0.00027742,-0.01165327,-0.013290
 67,0.00735359,-0.00848171,-0.00666812,0.00737440,0.16709709,0.00004513
 ,0.00034154,0.00019370,0.00316405,-0.00158080,0.00176682,-0.01308307,-
 0.01188049,0.00805345,-0.10313296,-0.14602255,0.07477878,-0.00061968,0
 .00060995,-0.00128251,-0.00136242,0.00018764,0.00038213,0.00029655,0.0
 0022680,-0.00022365,0.00023441,0.00010396,-0.00004885,-0.00000380,-0.0
 0009367,0.00003735,0.00003784,-0.00008218,-0.00001209,-0.00074791,-0.0
 0057468,0.00082496,-0.00011358,0.00019814,0.00005623,0.01216133,0.0130
 2406,-0.00855937,-0.00953401,-0.00939984,0.00894157,0.11114073,0.15441
 327,-0.00053314,-0.00036737,-0.00015803,-0.00366281,0.00220350,-0.0028
 3382,0.01442736,0.01193389,-0.01062311,0.07968138,0.07438763,-0.105555
 91,0.00141707,0.00059975,0.00038456,0.00082754,-0.00091915,0.00030499,
 -0.00017895,-0.00016705,0.00000149,0.00034994,-0.00000530,0.00022059,0
 .00016020,-0.00002396,0.00018261,0.00004474,0.00005571,0.00005601,0.00
 080901,0.00120487,-0.00068035,-0.00031419,-0.00014441,0.00035516,0.008
 05624,0.00988898,-0.00655847,-0.01488501,-0.01343726,0.01234996,-0.084
 78236,-0.08449893,0.11200904,0.00015898,-0.00018233,0.00030278,0.00017
 870,0.00125569,-0.00086845,-0.00788856,0.00922102,-0.00909002,-0.00150
 473,-0.00304899,-0.00203203,-0.10910535,0.06846161,-0.08748159,-0.0001
 0904,0.00018113,0.00047810,-0.00015067,0.00062123,0.00041877,0.0001605
 4,0.00013931,0.00011299,-0.00002130,-0.00001808,-0.00000253,0.00000755
 ,0.00005661,0.00000537,-0.00025058,-0.00101582,0.00030970,-0.00004578,
 0.00006676,-0.00003534,0.00031572,-0.00023617,0.00022801,-0.00021743,0
 .00061291,-0.00102306,0.00017761,0.00016433,-0.00007353,0.11420775,0.0
 0017649,0.00012358,-0.00007697,-0.00028858,0.00107042,-0.00099064,-0.0
 0978188,0.01165755,-0.01262830,-0.00149461,-0.00189703,-0.00188353,0.0
 6936293,-0.12760094,0.10162066,0.00050310,0.00068316,0.00043062,0.0006
 8102,-0.00099344,-0.00047513,0.00001763,0.00004048,-0.00002259,0.00004
 537,0.00004582,0.00002705,-0.00000598,-0.00000578,0.00000373,-0.000156
 35,-0.00022641,0.00009753,0.00002948,-0.00007564,0.00016235,-0.0002936
 0,0.00000593,0.00001233,-0.00061280,0.00059991,-0.00079218,0.00011772,
 -0.00002192,-0.00026517,-0.07446427,0.13543169,0.00015968,-0.00020643,
 0.00015061,0.00122720,0.00102863,0.00036398,-0.00853170,0.01281240,-0.
 01353727,-0.00186096,-0.00399181,-0.00260364,-0.08776339,0.10015850,-0
 .17642498,-0.00045298,0.00097777,0.00008891,-0.00049566,-0.00042588,-0
 .00043402,0.00017182,0.00009268,0.00009089,-0.00000299,-0.00004793,0.0
 0000818,-0.00002222,-0.00003055,-0.00005601,-0.00013394,-0.00038825,0.
 00077031,0.00007139,-0.00012029,-0.00000444,-0.00009318,0.00009102,0.0
 0019856,-0.00102296,0.00079232,-0.00077841,0.00019049,-0.00026577,0.00
 035243,0.09770912,-0.10746279,0.18752819,0.00017778,0.00012556,-0.0000
 7600,0.00085767,-0.00048898,-0.00071349,0.00989692,-0.01025649,-0.0077
 0979,0.00097379,-0.00074894,-0.00031419,-0.15804045,0.10452317,0.08099
 352,-0.00145725,-0.00165235,-0.00191276,-0.00023137,0.00001581,-0.0001
 4592,0.00001136,-0.00000434,0.00001285,0.00004230,0.00005204,0.0000251
 7,0.00001727,-0.00001574,-0.00003283,-0.00007521,0.00007552,0.00015607
 ,-0.00019761,-0.00008247,-0.00006202,-0.00009403,0.00001437,-0.0000154
 8,0.00017758,-0.00011774,0.00019052,-0.00010817,0.00015454,0.00006784,
 -0.00847960,0.00666797,0.00737325,0.16706815,-0.00029655,0.00022682,0.
 00022366,0.00136233,0.00018752,-0.00038204,0.01308021,-0.01188081,-0.0
 0805245,0.00061963,0.00060996,0.00128255,0.10313429,-0.14604916,-0.074
 78941,-0.00316406,-0.00158017,-0.00176657,-0.00004505,0.00034155,-0.00
 019368,0.00006104,0.00001466,0.00001936,-0.00002893,-0.00002816,-0.000
 00383,0.00010795,0.00021604,0.00011031,0.00006873,-0.00006228,-0.00000
 749,-0.00107082,-0.00017251,0.00019309,-0.00033633,0.00059811,-0.00016
 672,-0.00016436,-0.00002189,0.00026574,-0.00015452,-0.00001492,-0.0000
 0091,0.00953391,-0.00940195,-0.00894259,-0.11114214,0.15444173,-0.0001
 7893,0.00016707,0.00000149,0.00082766,0.00091904,0.00030499,0.01442585
 ,-0.01193577,-0.01062317,0.00141699,-0.00059993,0.00038456,0.07967196,
 -0.07439809,-0.10555631,-0.00366311,-0.00220302,-0.00283383,-0.0005331
 0,0.00036745,-0.00015802,-0.00000277,-0.00003298,-0.00004183,-0.000033
 75,0.00000744,0.00000748,0.00005176,0.00015338,0.00003394,-0.00015780,
 0.00005726,-0.00001383,-0.00033304,0.00001462,0.00061744,-0.00093568,0
 .00024528,-0.00031911,-0.00007350,0.00026518,0.00035243,0.00006784,0.0
 0000091,-0.00009123,-0.01488322,0.01343912,0.01234997,-0.08477164,0.08
 451006,0.11200949,-0.00010794,-0.00049128,0.00096107,-0.00127172,-0.00
 169391,-0.00349441,-0.01092824,-0.00751795,0.00873326,0.00001722,-0.00
 038459,0.00115822,-0.16780896,-0.09913453,0.08563205,0.00058336,0.0011
 4367,0.00078380,0.00005324,-0.00015057,-0.00006029,-0.00003262,0.00005
 009,-0.00004485,-0.00019924,-0.00026658,-0.00019422,-0.00002716,-0.000
 14502,-0.00010080,0.00020362,-0.00001401,0.00018208,0.00041309,0.00016
 111,-0.00025037,-0.00003100,-0.00007712,0.00002170,0.00031579,0.000293
 56,-0.00009319,-0.00009399,0.00033642,-0.00093571,0.01251705,0.0091677
 0,-0.00780932,-0.01165312,-0.01215814,0.00805492,0.17744686,-0.0009264
 1,0.00001203,0.00099115,-0.00145379,-0.00230036,-0.00376290,-0.0118191
 0,-0.01140875,0.01040678,0.00097996,0.00041417,0.00070878,-0.09899972,
 -0.13140814,0.07215048,-0.00091073,0.00013516,0.00139518,0.00026725,-0
 .00014503,-0.00018085,-0.00009713,-0.00003870,-0.00011327,-0.00025567,
 -0.00031519,-0.00022804,0.00008360,-0.00002356,-0.00001117,0.00017755,
 0.00030062,-0.00036449,-0.00015989,0.00022577,0.00013896,0.00007713,0.
 00000151,-0.00010195,0.00023613,0.00000587,-0.00009101,-0.00001428,0.0
 0059807,-0.00024515,-0.01194064,-0.00847091,0.00637160,0.01329387,0.01
 302392,-0.00988998,0.11073532,0.13899392,-0.00077438,-0.00066325,0.001
 02027,-0.00157246,-0.00193971,-0.00265653,-0.01432738,-0.01163480,0.00
 982764,-0.00038166,-0.00084838,0.00118193,0.08703154,0.07337338,-0.111
 06168,-0.00075508,-0.00035908,0.00117348,0.00001478,0.00008849,0.00002
 575,0.00007056,0.00011784,0.00004835,-0.00023043,-0.00028625,-0.000160
 69,0.00007926,0.00005383,0.00003361,0.00009068,-0.00033603,0.00006949,
 -0.00023987,0.00006961,-0.00007223,0.00002171,0.00010195,-0.00009154,0
 .00022801,-0.00001237,0.00019856,-0.00001546,0.00016672,-0.00031912,0.
 01529312,0.00951722,-0.00905806,0.00735474,0.00855846,-0.00655847,-0.0
 9203721,-0.07635264,0.11659922,0.00040608,0.00021822,0.00027237,-0.001
 89407,0.00362434,0.00130601,-0.01465790,-0.01326006,0.00961253,-0.0000
 0296,-0.00118946,0.00046195,0.00064926,-0.00080288,-0.00105978,-0.1515
 5611,-0.10209706,0.07492670,0.01188242,0.01378523,-0.00943163,-0.00001
 417,-0.00000587,-0.00008786,-0.00011515,0.00000913,0.00004140,0.000084
 78,0.00023483,-0.00012403,0.00010342,-0.00001854,0.00012085,-0.0008697
 6,-0.00060541,0.00094026,0.00041310,0.00015986,-0.00023988,-0.00004580
 ,-0.00002948,0.00007141,-0.00019746,0.00107083,-0.00033304,0.00000432,
 0.00009299,-0.00004797,0.00009208,0.00011359,-0.00031417,0.00061921,0.
 00051899,0.00022160,0.16441598,-0.00001594,-0.00036599,-0.00001141,0.0
 0230581,-0.00211076,-0.00176444,0.01210030,0.00916946,-0.00865635,0.00
 064975,0.00079511,-0.00079103,0.00091723,0.00099201,-0.00042534,-0.102
 44571,-0.14694364,0.07380011,-0.01333263,-0.01477732,0.00973173,-0.000
 00842,0.00004528,0.00000512,-0.00005631,0.00011304,0.00009621,0.000070
 45,0.00029876,0.00014938,-0.00008359,-0.00001840,-0.00008099,0.0006056
 1,0.00071294,-0.00060295,-0.00016113,0.00022577,-0.00006958,-0.0000667
 6,-0.00007563,0.00012028,0.00008247,-0.00017266,-0.00001458,-0.0000650
 8,-0.00008632,-0.00005878,0.00004073,0.00019811,0.00014445,-0.00003661
 ,-0.00013346,0.00004490,0.10485743,0.16198041,-0.00026716,-0.00049868,
 0.00013259,0.00169753,-0.00356501,-0.00117397,0.01318699,0.01127576,-0
 .01023235,-0.00106323,0.00059881,0.00034824,0.00057768,0.00138991,0.00
 007645,0.07370502,0.07281477,-0.10307303,0.01111342,0.01191117,-0.0084
 4585,0.00012317,0.00001243,0.00001864,-0.00006354,0.00017977,0.0001431
 5,-0.00006941,0.00028235,0.00004009,-0.00024217,0.00004099,0.00019468,
 0.00094033,0.00060283,-0.00062729,-0.00025039,-0.00013893,-0.00007224,
 -0.00003536,-0.00016235,-0.00000444,-0.00006205,-0.00019309,0.00061744
 ,0.00002796,-0.00005028,-0.00002306,-0.00027742,-0.00005620,0.00035516
 ,-0.00031231,-0.00094223,-0.00027454,-0.08219214,-0.08074798,0.1104580
 6,-0.00095594,-0.00099301,0.00087052,0.00073514,-0.00039695,-0.0002489
 1,0.01015797,0.01148340,0.01472427,0.00096841,0.00060149,0.00120386,-0
 .00274356,0.00202274,0.00173496,-0.11499038,-0.06423317,-0.09359473,-0
 .00956204,-0.00768653,-0.01242553,-0.00005396,0.00000206,-0.00010079,-
 0.00009263,0.00017786,0.00005522,-0.00095108,-0.00059940,0.00072867,-0
 .00008925,0.00001640,0.00008918,0.00010344,0.00008357,-0.00024217,0.00
 020360,-0.00017754,0.00009072,-0.00025042,0.00015635,-0.00013390,-0.00
 007523,-0.00006873,-0.00015781,-0.00002626,-0.00014444,0.00008497,0.00
 064390,0.00074775,0.00080886,0.00008628,0.00024648,-0.00010641,-0.0096
 3730,-0.00864024,-0.01459073,0.12675483,-0.00069739,-0.00015247,0.0005
 4499,-0.00019349,-0.00019430,0.00046046,-0.00906481,-0.00978036,-0.011
 63474,-0.00102055,-0.00005724,-0.00103469,0.00363277,-0.00201794,-0.00
 171812,-0.06391772,-0.10836276,-0.08926345,0.01370638,0.01091008,0.018
 20575,0.00021719,-0.00004782,-0.00003859,-0.00000231,0.00010733,0.0001
 8617,-0.00087545,-0.00020491,0.00062273,-0.00001639,0.00000526,0.00006
 222,0.00001853,-0.00001841,-0.00004096,0.00001403,0.00030064,0.0003360
 2,0.00101582,-0.00022656,0.00038826,-0.00007552,-0.00006226,-0.0000572
 4,-0.00000631,0.00011923,-0.00007194,-0.00044074,-0.00057472,-0.001204
 97,0.00026437,0.00039320,0.00026428,-0.00873637,-0.00885144,-0.0142444
 9,0.06431782,0.11962155,0.00046074,-0.00050534,-0.00012057,-0.00076924
 ,-0.00055600,-0.00026626,-0.00965053,-0.00951226,-0.01361509,-0.000979
 01,0.00141240,0.00063453,0.00360192,-0.00125352,-0.00087489,-0.0922346
 6,-0.08847172,-0.18116177,-0.00933221,-0.00801702,-0.01266626,0.000060
 99,0.00002653,-0.00001498,-0.00025179,0.00031786,0.00035289,0.00040124
 ,0.00107271,-0.00008779,0.00008918,-0.00006223,0.00008736,0.00012086,0
 .00008097,0.00019469,0.00018213,0.00036446,0.00006949,0.00030968,-0.00
 009758,0.00077031,0.00015607,0.00000747,-0.00001383,-0.00004881,0.0002
 1451,0.00015783,-0.00050617,-0.00082489,-0.00068035,-0.00009343,-0.000
 02017,0.00018080,0.00763798,0.00716638,0.01183550,0.10210039,0.0959754
 0,0.19522837,0.00011966,-0.00014455,-0.00010936,-0.00013996,0.00010553
 ,-0.00025510,0.00025344,-0.00117602,-0.00065462,0.00003845,0.00013917,
 0.00014471,-0.00014106,0.00056806,-0.00063272,-0.00929511,-0.00838984,
 -0.01157407,-0.12741340,-0.06486691,-0.10338736,0.00000282,0.00009322,
 0.00009236,-0.00002540,0.00005283,0.00005541,0.00016145,0.00020185,0.0
 0010466,-0.00005398,-0.00021719,0.00006098,-0.00001418,0.00000843,0.00
 012317,-0.00003261,0.00009713,0.00007055,0.00016052,-0.00001765,0.0001
 7181,0.00001135,-0.00006104,-0.00000277,0.00003369,0.00054190,0.000904
 55,0.00025656,-0.00023443,0.00034994,-0.00007214,-0.00009007,0.0000860
 1,0.00072977,0.00023428,0.00056004,-0.00095127,0.00294056,-0.00189005,
 0.13228404,0.00003459,-0.00006346,-0.00008043,-0.00007927,-0.00002704,
 -0.00017799,-0.00011153,0.00083095,-0.00036028,-0.00023848,0.00000660,
 0.00007699,0.00044241,-0.00042366,-0.00022421,0.01262804,0.01271262,0.
 01757072,-0.06571766,-0.10126598,-0.08508946,-0.00009321,0.00007703,0.
 00003583,-0.00001945,-0.00000223,-0.00002635,0.00008382,0.00000403,0.0
 0012848,-0.00000207,-0.00004780,-0.00002655,0.00000588,0.00004528,-0.0
 0001244,-0.00005009,-0.00003871,-0.00011785,-0.00013932,0.00004050,-0.
 00009270,0.00000434,0.00001466,0.00003298,0.00079528,-0.00091223,-0.00
 052814,-0.00011382,0.00010399,0.00000527,-0.00008523,-0.00008981,0.000
 06977,-0.00062461,0.00104171,-0.00039895,0.00315573,-0.00285208,0.0028
 4226,0.06760349,0.10562078,0.00008026,-0.00006261,0.00011286,-0.000070
 78,0.00020562,0.00008756,0.00065660,-0.00056448,-0.00007526,-0.0000454
 7,-0.00003993,0.00011025,0.00016878,-0.00034651,-0.00011480,-0.0086072
 1,-0.00773281,-0.01185434,-0.10355065,-0.08429887,-0.18673589,0.000092
 36,-0.00003584,-0.00003718,-0.00003092,0.00001337,0.00003787,-0.000045
 92,0.00005553,-0.00008421,-0.00010079,0.00003861,-0.00001497,-0.000087
 86,-0.00000511,0.00001864,-0.00004483,0.00011328,0.00004835,0.00011299
 ,0.00002257,0.00009089,0.00001285,-0.00001936,-0.00004183,0.00055618,-
 0.00084030,0.00041179,0.00022465,0.00004882,0.00022059,-0.00005083,0.0
 0013933,-0.00008060,0.00038259,-0.00010278,0.00007320,-0.00158010,0.00
 305806,-0.00093103,0.11499848,0.09081920,0.19870825,0.00003106,0.00011
 678,0.00006897,0.00039276,0.00009994,-0.00005686,-0.00040819,0.0011570
 5,-0.00329492,-0.00051109,0.00058062,0.00077838,0.00000952,-0.00020167
 ,-0.00041484,-0.01099354,0.00714694,0.01124064,-0.15530260,0.07990366,
 0.10444924,-0.00002541,0.00001945,-0.00003093,-0.00002950,-0.00004034,
 -0.00000448,0.00003390,0.00002806,0.00007193,-0.00009266,0.00000234,-0
 .00025183,-0.00011514,0.00005634,-0.00006357,-0.00019917,0.00025566,-0
 .00023039,-0.00002131,-0.00004536,-0.00000298,0.00004229,0.00002892,-0
 .00003375,0.00006725,-0.00009357,0.00023737,0.00007277,0.00000378,0.00
 016021,0.00002028,0.00004387,0.00001806,0.00095352,-0.00020182,-0.0001
 7881,-0.00013567,-0.00041115,0.00017814,0.01315213,-0.00858565,-0.0113
 0584,0.16362832,0.00006480,0.00004866,-0.00007561,-0.00032958,-0.00013
 397,0.00060220,0.00101767,-0.00166587,0.00399854,0.00083523,-0.0005043
 8,-0.00092612,0.00021564,0.00036454,0.00016353,0.01345679,-0.01120150,
 -0.01485710,0.07960792,-0.10859076,-0.07882431,-0.00005282,-0.00000222
 ,-0.00001337,0.00004034,0.00004330,0.00001369,0.00000866,0.00003286,0.
 00008341,-0.00017784,0.00010736,-0.00031782,-0.00000910,0.00011304,-0.
 00017976,0.00026657,-0.00031525,0.00028628,0.00001809,0.00004583,0.000
 04793,-0.00005205,-0.00002815,-0.00000744,-0.00002162,-0.00000407,0.00
 015406,0.00004281,-0.00009367,0.00002394,-0.00003693,-0.00004639,0.000
 01924,-0.00042133,0.00003118,-0.00054034,-0.00028760,0.00095491,0.0001
 5687,0.00926614,-0.00635394,-0.00714071,-0.08978110,0.11467314,-0.0000
 0572,-0.00007464,0.00008330,0.00005196,0.00024638,-0.00057862,-0.00145
 559,0.00196173,-0.00242409,-0.00047454,0.00042200,0.00060030,-0.000112
 30,-0.00000315,-0.00049255,-0.01367888,0.01051381,0.01227688,0.1056009
 4,-0.08012903,-0.15029922,0.00005541,0.00002635,0.00003787,-0.00000448
 ,-0.00001369,-0.00002310,-0.00000667,-0.00003616,-0.00004925,0.0000552
 0,-0.00018617,0.00035289,0.00004138,-0.00009621,0.00014315,-0.00019419
 ,0.00022806,-0.00016069,-0.00000254,-0.00002705,0.00000818,0.00002518,
 0.00000383,0.00000748,0.00015346,-0.00002260,0.00037942,0.00011385,-0.
 00003736,0.00018262,0.00001378,-0.00001836,0.00006034,0.00032855,-0.00
 046180,0.00081206,0.00021682,-0.00048556,0.00082623,0.01494939,-0.0084
 0912,-0.01218241,-0.11150964,0.08308168,0.15780394,-0.00058082,0.00042
 984,0.00012215,-0.00067201,0.00050856,0.00052268,0.00067082,-0.0001426
 0,0.00037261,0.00004843,-0.00017790,-0.00013715,0.00004100,-0.00005720
 ,-0.00004276,0.01338782,0.01302912,-0.00805563,-0.14366246,-0.11037936
 ,0.06696597,0.00016142,-0.00008384,-0.00004592,0.00003390,-0.00000866,
 -0.00000666,-0.00074003,-0.00019629,-0.00051077,-0.00095073,0.00087543
 ,0.00040104,0.00008476,-0.00007044,-0.00006942,-0.00002716,-0.00008359
 ,0.00007926,0.00000755,0.00000598,-0.00002222,0.00001725,-0.00010792,0
 .00005174,-0.00002987,-0.00006820,0.00010744,0.00004870,-0.00003786,0.
 00004473,-0.00004987,0.00000728,-0.00006973,-0.00136324,0.00325019,-0.
 00232742,0.00086143,-0.00066925,0.00045659,-0.00906478,-0.00889318,0.0
 0823547,-0.01056951,-0.01367069,0.00583864,0.15234739,0.00006183,0.000
 32830,-0.00012337,0.00043296,-0.00047141,0.00049765,-0.00137871,0.0002
 2883,0.00052759,0.00017695,0.00007989,-0.00012437,0.00025730,-0.000133
 81,-0.00012111,-0.01369540,-0.01447430,0.00844028,-0.10940184,-0.17404
 166,0.07682292,-0.00020187,0.00000406,-0.00005553,-0.00002806,0.000032
 86,0.00003616,0.00019640,0.00007723,0.00013217,0.00059940,-0.00020502,
 -0.00107270,-0.00023482,0.00029880,-0.00028236,0.00014502,-0.00002356,
 -0.00005385,-0.00005662,-0.00000578,0.00003055,0.00001576,0.00021606,-
 0.00015339,-0.00011047,-0.00008111,0.00006216,0.00005737,-0.00008218,-
 0.00005572,0.00004024,0.00027607,-0.00001320,0.00310565,-0.00206815,0.
 00242971,0.00021595,0.00099108,-0.00031711,-0.00665489,-0.00842121,0.0
 0667490,0.00991726,0.01252538,-0.00648294,0.11654059,0.18494962,-0.000
 14600,0.00021402,0.00019009,0.00042088,-0.00004711,0.00040641,0.000272
 24,-0.00064678,0.00002860,0.00009358,0.00002538,0.00006316,-0.00002025
 ,-0.00007383,-0.00011730,0.01084409,0.01128932,-0.00763162,0.06641091,
 0.07680497,-0.09675602,0.00010465,-0.00012849,-0.00008420,0.00007192,-
 0.00008342,-0.00004925,-0.00051079,-0.00013211,-0.00027194,0.00072851,
 -0.00062276,-0.00008775,-0.00012406,-0.00014936,0.00004008,-0.00010080
 ,0.00001119,0.00003361,0.00000537,-0.00000373,-0.00005601,-0.00003284,
 -0.00011031,0.00003394,-0.00005697,-0.00001466,0.00006883,0.00002525,0
 .00001209,0.00005601,-0.00006394,0.00001997,-0.00008598,-0.00249369,0.
 00252944,-0.00117850,0.00047263,-0.00030959,0.00009482,-0.01416600,-0.
 01603701,0.01223230,0.01017592,0.01425122,-0.00736471,-0.07191062,-0.0
 8679844,0.10043545\\0.00000007,-0.00000010,0.00000075,0.00000033,0.000
 00008,0.00000042,0.00000010,0.00000017,-0.00000003,-0.00000036,-0.0000
 0005,0.00000032,0.00000027,-0.00000016,-0.00000037,-0.00000047,-0.0000
 0003,-0.00000036,0.00000002,-0.00000002,-0.00000076,-0.00000026,0.0000
 0004,0.00000098,0.00000027,0.00000002,0.00000099,-0.00000021,-0.000000
 06,0.00000045,0.00000056,0.00000005,0.00000008,0.00000049,-0.00000002,
 0.00000074,-0.00000020,0.00000004,0.00000054,-0.00000073,0.,0.00000054
 ,-0.00000063,0.,0.,0.00000076,-0.00000004,-0.00000052,0.00000060,0.,0.
 ,0.00000018,0.,-0.00000058,-0.00000047,-0.00000005,-0.00000062,-0.0000
 0056,0.00000008,-0.00000018,0.00000031,0.00000005,-0.00000096,-0.00000
 026,-0.00000003,-0.00000097,0.00000018,0.00000003,-0.00000046\\\@


 A successful marriage requires falling in love
 many times, always with the same person.
                           -- Mignon McLaughlin
 File lengths (MBytes):  RWF=     51 Int=      0 D2E=      0 Chk=      3 Scr=      1
 Normal termination of Gaussian 16 at Fri Mar 29 15:41:48 2024.
real 499.38
user 1866.13
sys 10.91
