 Entering Gaussian System, Link 0=g16
 Input=gaussian_test.inp
 Output=gaussian_test.log
 Initial command:
 /sw/restricted/lms/sw/Gaussian/g16_B01/g16/l1.exe "/scratch/user/peterchao1/peterchao1/7003906_1675700106000000511517831/Gau-178958.inp" -scrdir="/scratch/user/peterchao1/peterchao1/7003906_1675700106000000511517831/"
 Entering Link 1 = /sw/restricted/lms/sw/Gaussian/g16_B01/g16/l1.exe PID=    178959.
  
 Copyright (c) 1988-2017, Gaussian, Inc.  All Rights Reserved.
  
 This is part of the Gaussian(R) 16 program.  It is based on
 the Gaussian(R) 09 system (copyright 2009, Gaussian, Inc.),
 the Gaussian(R) 03 system (copyright 2003, Gaussian, Inc.),
 the Gaussian(R) 98 system (copyright 1998, Gaussian, Inc.),
 the Gaussian(R) 94 system (copyright 1995, Gaussian, Inc.),
 the Gaussian 92(TM) system (copyright 1992, Gaussian, Inc.),
 the Gaussian 90(TM) system (copyright 1990, Gaussian, Inc.),
 the Gaussian 88(TM) system (copyright 1988, Gaussian, Inc.),
 the Gaussian 86(TM) system (copyright 1986, Carnegie Mellon
 University), and the Gaussian 82(TM) system (copyright 1983,
 Carnegie Mellon University). Gaussian is a federally registered
 trademark of Gaussian, Inc.
  
 This software contains proprietary and confidential information,
 including trade secrets, belonging to Gaussian, Inc.
  
 This software is provided under written license and may be
 used, copied, transmitted, or stored only in accord with that
 written license.
  
 The following legend is applicable only to US Government
 contracts under FAR:
  
                    RESTRICTED RIGHTS LEGEND
  
 Use, reproduction and disclosure by the US Government is
 subject to restrictions as set forth in subparagraphs (a)
 and (c) of the Commercial Computer Software - Restricted
 Rights clause in FAR 52.227-19.
  
 Gaussian, Inc.
 340 Quinnipiac St., Bldg. 40, Wallingford CT 06492
  
  
 ---------------------------------------------------------------
 Warning -- This program may not be used in any manner that
 competes with the business of Gaussian, Inc. or will provide
 assistance to any competitor of Gaussian, Inc.  The licensee
 of this program is prohibited from giving any competitor of
 Gaussian, Inc. access to this program.  By using this program,
 the user acknowledges that Gaussian, Inc. is engaged in the
 business of creating and licensing software in the field of
 computational chemistry and represents and warrants to the
 licensee that it is not a competitor of Gaussian, Inc. and that
 it will not use this program in any manner prohibited above.
 ---------------------------------------------------------------
  

 Cite this work as:
 Gaussian 16, Revision B.01,
 M. J. Frisch, G. W. Trucks, H. B. Schlegel, G. E. Scuseria, 
 M. A. Robb, J. R. Cheeseman, G. Scalmani, V. Barone, 
 G. A. Petersson, H. Nakatsuji, X. Li, M. Caricato, A. V. Marenich, 
 J. Bloino, B. G. Janesko, R. Gomperts, B. Mennucci, H. P. Hratchian, 
 J. V. Ortiz, A. F. Izmaylov, J. L. Sonnenberg, D. Williams-Young, 
 F. Ding, F. Lipparini, F. Egidi, J. Goings, B. Peng, A. Petrone, 
 T. Henderson, D. Ranasinghe, V. G. Zakrzewski, J. Gao, N. Rega, 
 G. Zheng, W. Liang, M. Hada, M. Ehara, K. Toyota, R. Fukuda, 
 J. Hasegawa, M. Ishida, T. Nakajima, Y. Honda, O. Kitao, H. Nakai, 
 T. Vreven, K. Throssell, J. A. Montgomery, Jr., J. E. Peralta, 
 F. Ogliaro, M. J. Bearpark, J. J. Heyd, E. N. Brothers, K. N. Kudin, 
 V. N. Staroverov, T. A. Keith, R. Kobayashi, J. Normand, 
 K. Raghavachari, A. P. Rendell, J. C. Burant, S. S. Iyengar, 
 J. Tomasi, M. Cossi, J. M. Millam, M. Klene, C. Adamo, R. Cammi, 
 J. W. Ochterski, R. L. Martin, K. Morokuma, O. Farkas, 
 J. B. Foresman, and D. J. Fox, Gaussian, Inc., Wallingford CT, 2016.
 
 ******************************************
 Gaussian 16:  ES64L-G16RevB.01 20-Dec-2017
                 6-Feb-2023 
 ******************************************
 %nprocshared=4
 Will use up to    4 processors via shared memory.
 %mem=8000mb
 %chk=22.chk
 %nprocshared=4
 Will use up to    4 processors via shared memory.
 %mem=8000mb
 ----------------------------------------------------------------------
 #T wB97XD/def2svpp opt=tight freq int(grid=ultrafine) scf=(verytight,q
 c) Volume=tight
 ----------------------------------------------------------------------
 -------
 Monomer
 -------
 Symbolic Z-matrix:
 Charge =  0 Multiplicity = 1
 C                     0.2897    1.54083   0.00068 
 C                     0.40848   0.01872   0.00001 
 C                     1.14437  -0.46642  -1.25462 
 C                     1.14443  -0.46755   1.25417 
 C                    -0.96346  -0.61766  -0.00022 
 O                    -2.0116   -0.03861  -0.00003 
 H                    -0.2546    1.87601  -0.87872 
 H                     1.27539   1.99954   0.00049 
 H                    -0.25396   1.87529   0.88075 
 H                     1.21234  -1.5522   -1.26816 
 H                     2.1519   -0.05746  -1.27259 
 H                     0.62365  -0.14087  -2.15242 
 H                     0.62324  -0.14361   2.15227 
 H                     2.15164  -0.05785   1.27295 
 H                     1.21323  -1.55329   1.26627 
 H                    -0.92488  -1.72712  -0.00056 
 

 GradGradGradGradGradGradGradGradGradGradGradGradGradGradGradGradGradGrad
 Initialization pass.
                           ----------------------------
                           !    Initial Parameters    !
                           ! (Angstroms and Degrees)  !
 --------------------------                            --------------------------
 ! Name  Definition              Value          Derivative Info.                !
 --------------------------------------------------------------------------------
 ! R1    R(1,2)                  1.5267         estimate D2E/DX2                !
 ! R2    R(1,7)                  1.0872         estimate D2E/DX2                !
 ! R3    R(1,8)                  1.0872         estimate D2E/DX2                !
 ! R4    R(1,9)                  1.0872         estimate D2E/DX2                !
 ! R5    R(2,3)                  1.5333         estimate D2E/DX2                !
 ! R6    R(2,4)                  1.5333         estimate D2E/DX2                !
 ! R7    R(2,5)                  1.5124         estimate D2E/DX2                !
 ! R8    R(3,10)                 1.088          estimate D2E/DX2                !
 ! R9    R(3,11)                 1.0875         estimate D2E/DX2                !
 ! R10   R(3,12)                 1.0877         estimate D2E/DX2                !
 ! R11   R(4,13)                 1.0877         estimate D2E/DX2                !
 ! R12   R(4,14)                 1.0875         estimate D2E/DX2                !
 ! R13   R(4,15)                 1.088          estimate D2E/DX2                !
 ! R14   R(5,6)                  1.1974         estimate D2E/DX2                !
 ! R15   R(5,16)                 1.1101         estimate D2E/DX2                !
 ! A1    A(2,1,7)              110.2402         estimate D2E/DX2                !
 ! A2    A(2,1,8)              110.4933         estimate D2E/DX2                !
 ! A3    A(2,1,9)              110.2411         estimate D2E/DX2                !
 ! A4    A(7,1,8)              108.8866         estimate D2E/DX2                !
 ! A5    A(7,1,9)              108.0343         estimate D2E/DX2                !
 ! A6    A(8,1,9)              108.8882         estimate D2E/DX2                !
 ! A7    A(1,2,3)              110.68           estimate D2E/DX2                !
 ! A8    A(1,2,4)              110.6809         estimate D2E/DX2                !
 ! A9    A(1,2,5)              110.4224         estimate D2E/DX2                !
 ! A10   A(3,2,4)              109.7907         estimate D2E/DX2                !
 ! A11   A(3,2,5)              107.585          estimate D2E/DX2                !
 ! A12   A(4,2,5)              107.5829         estimate D2E/DX2                !
 ! A13   A(2,3,10)             110.8505         estimate D2E/DX2                !
 ! A14   A(2,3,11)             109.827          estimate D2E/DX2                !
 ! A15   A(2,3,12)             110.5437         estimate D2E/DX2                !
 ! A16   A(10,3,11)            108.4935         estimate D2E/DX2                !
 ! A17   A(10,3,12)            108.5606         estimate D2E/DX2                !
 ! A18   A(11,3,12)            108.5016         estimate D2E/DX2                !
 ! A19   A(2,4,13)             110.5432         estimate D2E/DX2                !
 ! A20   A(2,4,14)             109.8275         estimate D2E/DX2                !
 ! A21   A(2,4,15)             110.8511         estimate D2E/DX2                !
 ! A22   A(13,4,14)            108.5008         estimate D2E/DX2                !
 ! A23   A(13,4,15)            108.5608         estimate D2E/DX2                !
 ! A24   A(14,4,15)            108.4936         estimate D2E/DX2                !
 ! A25   A(2,5,6)              126.1965         estimate D2E/DX2                !
 ! A26   A(2,5,16)             112.8931         estimate D2E/DX2                !
 ! A27   A(6,5,16)             120.9103         estimate D2E/DX2                !
 ! D1    D(7,1,2,3)             59.4466         estimate D2E/DX2                !
 ! D2    D(7,1,2,4)           -178.5939         estimate D2E/DX2                !
 ! D3    D(7,1,2,5)            -59.5746         estimate D2E/DX2                !
 ! D4    D(8,1,2,3)            -60.9592         estimate D2E/DX2                !
 ! D5    D(8,1,2,4)             61.0004         estimate D2E/DX2                !
 ! D6    D(8,1,2,5)           -179.9804         estimate D2E/DX2                !
 ! D7    D(9,1,2,3)            178.6325         estimate D2E/DX2                !
 ! D8    D(9,1,2,4)            -59.408          estimate D2E/DX2                !
 ! D9    D(9,1,2,5)             59.6113         estimate D2E/DX2                !
 ! D10   D(1,2,3,10)          -178.8193         estimate D2E/DX2                !
 ! D11   D(1,2,3,11)            61.3036         estimate D2E/DX2                !
 ! D12   D(1,2,3,12)           -58.3897         estimate D2E/DX2                !
 ! D13   D(4,2,3,10)            58.7004         estimate D2E/DX2                !
 ! D14   D(4,2,3,11)           -61.1767         estimate D2E/DX2                !
 ! D15   D(4,2,3,12)           179.1301         estimate D2E/DX2                !
 ! D16   D(5,2,3,10)           -58.0965         estimate D2E/DX2                !
 ! D17   D(5,2,3,11)          -177.9736         estimate D2E/DX2                !
 ! D18   D(5,2,3,12)            62.3331         estimate D2E/DX2                !
 ! D19   D(1,2,4,13)            58.4434         estimate D2E/DX2                !
 ! D20   D(1,2,4,14)           -61.2489         estimate D2E/DX2                !
 ! D21   D(1,2,4,15)           178.8734         estimate D2E/DX2                !
 ! D22   D(3,2,4,13)          -179.0769         estimate D2E/DX2                !
 ! D23   D(3,2,4,14)            61.2309         estimate D2E/DX2                !
 ! D24   D(3,2,4,15)           -58.6469         estimate D2E/DX2                !
 ! D25   D(5,2,4,13)           -62.2787         estimate D2E/DX2                !
 ! D26   D(5,2,4,14)           178.0291         estimate D2E/DX2                !
 ! D27   D(5,2,4,15)            58.1513         estimate D2E/DX2                !
 ! D28   D(1,2,5,6)              0.0063         estimate D2E/DX2                !
 ! D29   D(1,2,5,16)          -179.9917         estimate D2E/DX2                !
 ! D30   D(3,2,5,6)           -120.8784         estimate D2E/DX2                !
 ! D31   D(3,2,5,16)            59.1236         estimate D2E/DX2                !
 ! D32   D(4,2,5,6)            120.8909         estimate D2E/DX2                !
 ! D33   D(4,2,5,16)           -59.1071         estimate D2E/DX2                !
 --------------------------------------------------------------------------------
 Number of steps in this run=     85 maximum allowed number of steps=    100.
 GradGradGradGradGradGradGradGradGradGradGradGradGradGradGradGradGradGrad

                    Distance matrix (angstroms):
                    1          2          3          4          5
     1  C    0.000000
     2  C    1.526738   0.000000
     3  C    2.517002   1.533291   0.000000
     4  C    2.517023   1.533299   2.508787   0.000000
     5  C    2.495904   1.512358   2.457512   2.457487   0.000000
     6  O    2.791170   2.420759   3.423034   3.423087   1.197450
     7  H    1.087179   2.159015   2.754156   3.463926   2.737273
     8  H    1.087192   2.162207   2.770091   2.770445   3.444153
     9  H    1.087177   2.159026   3.463921   2.753883   2.737578
    10  H    3.468153   2.173071   1.087991   2.746492   2.686105
    11  H    2.764700   2.159817   1.087510   2.750938   3.411487
    12  H    2.752367   2.169037   1.087744   3.461618   2.716290
    13  H    2.752805   2.169034   3.461601   1.087738   2.715794
    14  H    2.764286   2.159827   2.751390   1.087505   3.411483
    15  H    3.468175   2.173081   2.746074   1.087984   2.686522
    16  H    3.486369   2.196783   2.728346   2.728176   1.110130
                    6          7          8          9         10
     6  O    0.000000
     7  H    2.743160   0.000000
     8  H    3.867600   1.768939   0.000000
     9  H    2.743736   1.759474   1.768954   0.000000
    10  H    3.780594   3.749157   3.772040   4.302973   0.000000
    11  H    4.353675   3.112023   2.572989   3.763058   1.765509
    12  H    3.404081   2.541936   3.105025   3.746367   1.766442
    13  H    3.403784   3.746515   3.106207   2.542089   3.745734
    14  H    4.353548   3.762911   2.572898   3.110913   3.093968
    15  H    3.781176   4.302978   3.772086   3.749197   2.534434
    16  H    2.007986   3.768688   4.327724   3.768852   2.491014
                   11         12         13         14         15
    11  H    0.000000
    12  H    1.765398   0.000000
    13  H    3.751520   4.304694   0.000000
    14  H    2.545546   3.751650   1.765379   0.000000
    15  H    3.092637   3.745665   1.766433   1.765500   0.000000
    16  H    3.724571   3.089442   3.088504   3.724689   2.491311
                   16
    16  H    0.000000
 Framework group  C1[X(C5H10O)]
 Deg. of freedom    42
                         Standard orientation:                         
 ---------------------------------------------------------------------
 Center     Atomic      Atomic             Coordinates (Angstroms)
 Number     Number       Type             X           Y           Z
 ---------------------------------------------------------------------
      1          6           0       -0.184691    1.538612   -0.000678
      2          6           0       -0.327681    0.018585   -0.000003
      3          6           0       -1.071197   -0.454783    1.254623
      4          6           0       -1.071277   -0.455917   -1.254163
      5          6           0        1.033964   -0.639555    0.000222
      6          8           0        2.091181   -0.077257    0.000030
      7          1           0        0.364874    1.865082    0.878726
      8          1           0       -1.162954    2.012942   -0.000492
      9          1           0        0.364227    1.864377   -0.880747
     10          1           0       -1.156436   -1.539346    1.268167
     11          1           0       -2.072090   -0.029849    1.272594
     12          1           0       -0.545355   -0.137568    2.152427
     13          1           0       -0.544988   -0.140313   -2.152266
     14          1           0       -2.071833   -0.030239   -1.272952
     15          1           0       -1.157346   -1.540424   -1.266267
     16          1           0        0.977736   -1.748260    0.000564
 ---------------------------------------------------------------------
 Rotational constants (GHZ):           4.4911414           2.7893664           2.7558975
   104 basis functions,   190 primitive gaussians,   110 cartesian basis functions
    24 alpha electrons       24 beta electrons
       nuclear repulsion energy       249.0208964354 Hartrees.
 NAtoms=   16 NActive=   16 NUniq=   16 SFac= 1.00D+00 NAtFMM=   60 NAOKFM=F Big=F
 Nuclear repulsion after empirical dispersion term =      249.0116087896 Hartrees.
   1 Symmetry operations used in ECPInt.
 ECPInt:  NShTT=    1596 NPrTT=    6436 LenC2=    1594 LenP2D=    5383.
 LDataN:  DoStor=T MaxTD1= 4 Len=   56
 ExpMin= 1.22D-01 ExpMax= 2.27D+03 ExpMxC= 3.41D+02 IAcc=3 IRadAn=         5 AccDes= 0.00D+00
 Harris functional with IExCor= 4639 and IRadAn=       5 diagonalized for initial guess.
 HarFok:  IExCor= 4639 AccDes= 0.00D+00 IRadAn=         5 IDoV= 1 UseB2=F ITyADJ=14
 ICtDFT=  3500011 ScaDFX=  1.000000  1.000000  1.000000  1.000000
 FoFCou: FMM=F IPFlag=           0 FMFlag=      100000 FMFlg1=           0
         NFxFlg=           0 DoJE=T BraDBF=F KetDBF=T FulRan=T
         wScrn=  0.000000 ICntrl=       500 IOpCl=  0 I1Cent=   200000004 NGrid=           0
         NMat0=    1 NMatS0=      1 NMatT0=    0 NMatD0=    1 NMtDS0=    0 NMtDT0=    0
 Petite list used in FoFCou.
     Accept linear search using points  2 and  3.
     Accept linear search using points  1 and  2.
     Accept linear search using points  1 and  2.
     Accept linear search using points  1 and  2.
     Minimum is close to point  2 DX= -1.55D-04 DF= -4.55D-13 DXR=  1.55D-04 DFR=  2.35D-08 which will be used.
 SCF Done:  E(RwB97XD) =  -271.470702952     a.u. after    8 cycles
            Convg  =    0.1758D-09                    34 Fock formations.
              S**2 =  0.0000                  -V/T =  2.0093

 **********************************************************************

            Population analysis using the SCF Density.

 **********************************************************************

 Orbital symmetries:
       Occupied  (A) (A) (A) (A) (A) (A) (A) (A) (A) (A) (A) (A)
                 (A) (A) (A) (A) (A) (A) (A) (A) (A) (A) (A) (A)
       Virtual   (A) (A) (A) (A) (A) (A) (A) (A) (A) (A) (A) (A)
                 (A) (A) (A) (A) (A) (A) (A) (A) (A) (A) (A) (A)
                 (A) (A) (A) (A) (A) (A) (A) (A) (A) (A) (A) (A)
                 (A) (A) (A) (A) (A) (A) (A) (A) (A) (A) (A) (A)
                 (A) (A) (A) (A) (A) (A) (A) (A) (A) (A) (A) (A)
                 (A) (A) (A) (A) (A) (A) (A) (A) (A) (A) (A) (A)
                 (A) (A) (A) (A) (A) (A) (A) (A)
 The electronic state is 1-A.
 Alpha  occ. eigenvalues --  -19.25684 -10.37988 -10.31699 -10.29275 -10.29274
 Alpha  occ. eigenvalues --  -10.27905  -1.14380  -0.92823  -0.79356  -0.78775
 Alpha  occ. eigenvalues --   -0.73079  -0.62739  -0.57594  -0.54973  -0.54537
 Alpha  occ. eigenvalues --   -0.52131  -0.49843  -0.47879  -0.46592  -0.45919
 Alpha  occ. eigenvalues --   -0.45839  -0.42249  -0.42135  -0.33469
 Alpha virt. eigenvalues --    0.05600   0.12846   0.16758   0.18002   0.19477
 Alpha virt. eigenvalues --    0.20112   0.20507   0.21809   0.24776   0.25325
 Alpha virt. eigenvalues --    0.26585   0.27031   0.28450   0.29571   0.34398
 Alpha virt. eigenvalues --    0.36996   0.46555   0.47149   0.48090   0.55076
 Alpha virt. eigenvalues --    0.56023   0.63283   0.65413   0.66621   0.69589
 Alpha virt. eigenvalues --    0.72961   0.73187   0.75421   0.76268   0.76430
 Alpha virt. eigenvalues --    0.77772   0.78417   0.80270   0.80783   0.81098
 Alpha virt. eigenvalues --    0.82788   0.83869   0.84383   0.85013   0.85319
 Alpha virt. eigenvalues --    0.88053   0.96015   1.02128   1.03267   1.10857
 Alpha virt. eigenvalues --    1.10869   1.21534   1.24123   1.32389   1.42143
 Alpha virt. eigenvalues --    1.53129   1.57916   1.74248   1.79061   1.79923
 Alpha virt. eigenvalues --    1.86589   1.89826   1.91110   1.95651   2.05259
 Alpha virt. eigenvalues --    2.10632   2.11525   2.13132   2.15039   2.23885
 Alpha virt. eigenvalues --    2.24867   2.25438   2.25817   2.26820   2.44697
 Alpha virt. eigenvalues --    2.57029   2.63384   2.67793   2.71517   2.77476
 Alpha virt. eigenvalues --    2.81089   2.84105   3.24572   3.37875   3.69599
          Condensed to atoms (all electrons):
 Mulliken charges:
               1
     1  C   -0.236613
     2  C   -0.313120
     3  C   -0.268370
     4  C   -0.268390
     5  C    0.121101
     6  O   -0.200736
     7  H    0.122965
     8  H    0.109533
     9  H    0.122949
    10  H    0.117419
    11  H    0.124555
    12  H    0.128259
    13  H    0.128259
    14  H    0.124563
    15  H    0.117424
    16  H    0.070203
 Sum of Mulliken charges =   0.00000
 Mulliken charges with hydrogens summed into heavy atoms:
               1
     1  C    0.118833
     2  C   -0.313120
     3  C    0.101863
     4  C    0.101856
     5  C    0.191304
     6  O   -0.200736
 Electronic spatial extent (au):  <R**2>=            604.8739
 Charge=              0.0000 electrons
 Dipole moment (field-independent basis, Debye):
    X=             -2.5536    Y=             -0.7078    Z=              0.0002  Tot=              2.6498
 Evaluate density.
 Using the total density.
 Monte-Carlo method of calculating molar volume:
 based on  0.001 e/bohr**3 density envelope.
 Number of points per bohr**3 =  100 CutOff= 1.00D-04
 Using the SCF density.
 There are      1745 points.  Will hold      1745 in memory.
 LenV=  1048365505 MDV=  1048576000.
 Box volume = 5317.267 fraction occupied=0.145
 Integrated density= 2.9821718499283900D+01 error=-1.8178281500716100D+01
 Molar volume =  770.927 bohr**3/mol ( 68.797 cm**3/mol)
 Recommended a0 for SCRF calculation =  3.81 angstrom (  7.21 bohr)
   1 Symmetry operations used in ECPInt.
 ECPInt:  NShTT=    1596 NPrTT=    6436 LenC2=    1594 LenP2D=    5383.
 LDataN:  DoStor=T MaxTD1= 5 Len=  102
 Calling FoFJK, ICntrl=      2127 FMM=F ISym2X=0 I1Cent= 0 IOpClX= 0 NMat=1 NMatS=1 NMatT=0.

 GradGradGradGradGradGradGradGradGradGradGradGradGradGradGradGradGradGrad
 FormGI is forming the generalized inverse of G from B-inverse, IUseBI=4.
 Internal  Forces:  Max     0.011481630 RMS     0.004243241
 Step number   1 out of a maximum of   85
 All quantities printed in internal units (Hartrees-Bohrs-Radians)
 Mixed Optimization -- RFO/linear search
 Second derivative matrix not updated -- first step.
 ITU=  0
     Eigenvalues ---    0.00325   0.00326   0.00412   0.00602   0.00602
     Eigenvalues ---    0.04498   0.05319   0.05552   0.05552   0.05642
     Eigenvalues ---    0.05658   0.05658   0.05712   0.05826   0.15029
     Eigenvalues ---    0.15236   0.16000   0.16000   0.16000   0.16000
     Eigenvalues ---    0.16000   0.16000   0.16000   0.16000   0.16000
     Eigenvalues ---    0.16000   0.22000   0.29121   0.29122   0.29727
     Eigenvalues ---    0.31115   0.32586   0.35046   0.35047   0.35075
     Eigenvalues ---    0.35075   0.35102   0.35103   0.35139   0.35141
     Eigenvalues ---    0.35141   1.06115
 Linear search not attempted -- first point.
 Iteration  1 RMS(Cart)=  0.01886661 RMS(Int)=  0.00010519
 Iteration  2 RMS(Cart)=  0.00011438 RMS(Int)=  0.00003373
 Iteration  3 RMS(Cart)=  0.00000002 RMS(Int)=  0.00003373
 Variable       Old X    -DE/DX   Delta X   Delta X   Delta X     New X
                                 (Linear)    (Quad)   (Total)
    R1        2.88512   0.00300   0.00000   0.00995   0.00995   2.89506
    R2        2.05447   0.01059   0.00000   0.02981   0.02981   2.08428
    R3        2.05450   0.01119   0.00000   0.03148   0.03148   2.08597
    R4        2.05447   0.01060   0.00000   0.02981   0.02981   2.08428
    R5        2.89750   0.00461   0.00000   0.01563   0.01563   2.91313
    R6        2.89752   0.00461   0.00000   0.01561   0.01561   2.91313
    R7        2.85794   0.00492   0.00000   0.01562   0.01562   2.87356
    R8        2.05601   0.01148   0.00000   0.03238   0.03238   2.08838
    R9        2.05510   0.01092   0.00000   0.03076   0.03076   2.08585
   R10        2.05554   0.01105   0.00000   0.03115   0.03115   2.08669
   R11        2.05553   0.01106   0.00000   0.03116   0.03116   2.08669
   R12        2.05509   0.01092   0.00000   0.03076   0.03076   2.08585
   R13        2.05599   0.01148   0.00000   0.03239   0.03239   2.08838
   R14        2.26285   0.00566   0.00000   0.00532   0.00532   2.26817
   R15        2.09784   0.00939   0.00000   0.02847   0.02847   2.12631
    A1        1.92405   0.00206   0.00000   0.01299   0.01294   1.93699
    A2        1.92847  -0.00053   0.00000  -0.00415  -0.00413   1.92434
    A3        1.92407   0.00206   0.00000   0.01298   0.01293   1.93700
    A4        1.90043  -0.00090   0.00000  -0.00638  -0.00637   1.89406
    A5        1.88555  -0.00187   0.00000  -0.00958  -0.00969   1.87586
    A6        1.90046  -0.00091   0.00000  -0.00641  -0.00640   1.89406
    A7        1.93173   0.00044   0.00000   0.00645   0.00643   1.93816
    A8        1.93175   0.00044   0.00000   0.00643   0.00642   1.93816
    A9        1.92723  -0.00021   0.00000  -0.00189  -0.00187   1.92536
   A10        1.91621  -0.00030   0.00000  -0.00113  -0.00118   1.91503
   A11        1.87771  -0.00021   0.00000  -0.00527  -0.00528   1.87244
   A12        1.87768  -0.00021   0.00000  -0.00526  -0.00527   1.87241
   A13        1.93471   0.00193   0.00000   0.01220   0.01215   1.94685
   A14        1.91684   0.00030   0.00000   0.00017   0.00018   1.91702
   A15        1.92935   0.00165   0.00000   0.01132   0.01126   1.94061
   A16        1.89357  -0.00142   0.00000  -0.01105  -0.01105   1.88252
   A17        1.89474  -0.00150   0.00000  -0.00596  -0.00608   1.88866
   A18        1.89371  -0.00110   0.00000  -0.00756  -0.00756   1.88615
   A19        1.92934   0.00166   0.00000   0.01134   0.01128   1.94062
   A20        1.91685   0.00030   0.00000   0.00015   0.00016   1.91701
   A21        1.93472   0.00192   0.00000   0.01219   0.01213   1.94685
   A22        1.89370  -0.00110   0.00000  -0.00756  -0.00756   1.88613
   A23        1.89474  -0.00150   0.00000  -0.00596  -0.00608   1.88867
   A24        1.89357  -0.00142   0.00000  -0.01104  -0.01103   1.88254
   A25        2.20255  -0.00160   0.00000  -0.00715  -0.00715   2.19540
   A26        1.97036   0.00335   0.00000   0.01911   0.01911   1.98947
   A27        2.11028  -0.00175   0.00000  -0.01196  -0.01196   2.09832
    D1        1.03754  -0.00025   0.00000  -0.00596  -0.00601   1.03153
    D2       -3.11705  -0.00002   0.00000   0.00137   0.00135  -3.11570
    D3       -1.03977  -0.00014   0.00000  -0.00230  -0.00233  -1.04211
    D4       -1.06394  -0.00011   0.00000  -0.00375  -0.00376  -1.06770
    D5        1.06466   0.00011   0.00000   0.00358   0.00360   1.06825
    D6       -3.14125  -0.00000   0.00000  -0.00009  -0.00009  -3.14134
    D7        3.11773   0.00002   0.00000  -0.00150  -0.00148   3.11625
    D8       -1.03686   0.00025   0.00000   0.00584   0.00588  -1.03098
    D9        1.04041   0.00014   0.00000   0.00217   0.00220   1.04262
   D10       -3.12099   0.00005   0.00000   0.00953   0.00950  -3.11149
   D11        1.06995   0.00040   0.00000   0.01542   0.01543   1.08538
   D12       -1.01909   0.00053   0.00000   0.01757   0.01760  -1.00149
   D13        1.02452  -0.00060   0.00000  -0.00211  -0.00213   1.02238
   D14       -1.06773  -0.00025   0.00000   0.00379   0.00379  -1.06394
   D15        3.12641  -0.00012   0.00000   0.00593   0.00596   3.13237
   D16       -1.01398  -0.00007   0.00000   0.00773   0.00770  -1.00628
   D17       -3.10623   0.00028   0.00000   0.01363   0.01362  -3.09260
   D18        1.08792   0.00041   0.00000   0.01577   0.01579   1.10371
   D19        1.02003  -0.00053   0.00000  -0.01787  -0.01791   1.00212
   D20       -1.06899  -0.00041   0.00000  -0.01573  -0.01574  -1.08473
   D21        3.12193  -0.00005   0.00000  -0.00983  -0.00980   3.11213
   D22       -3.12548   0.00012   0.00000  -0.00623  -0.00626  -3.13174
   D23        1.06868   0.00024   0.00000  -0.00409  -0.00409   1.06459
   D24       -1.02358   0.00060   0.00000   0.00182   0.00184  -1.02174
   D25       -1.08697  -0.00041   0.00000  -0.01607  -0.01610  -1.10306
   D26        3.10719  -0.00028   0.00000  -0.01393  -0.01393   3.09327
   D27        1.01493   0.00007   0.00000  -0.00803  -0.00799   1.00694
   D28        0.00011   0.00000   0.00000   0.00005   0.00005   0.00016
   D29       -3.14145  -0.00000   0.00000  -0.00007  -0.00007  -3.14152
   D30       -2.10973  -0.00028   0.00000  -0.00341  -0.00341  -2.11313
   D31        1.03190  -0.00029   0.00000  -0.00353  -0.00353   1.02837
   D32        2.10994   0.00028   0.00000   0.00350   0.00350   2.11344
   D33       -1.03161   0.00028   0.00000   0.00337   0.00337  -1.02824
         Item               Value     Threshold  Converged?
 Maximum Force            0.011482     0.000015     NO 
 RMS     Force            0.004243     0.000010     NO 
 Maximum Displacement     0.051471     0.000060     NO 
 RMS     Displacement     0.018890     0.000040     NO 
 GradGradGradGradGradGradGradGradGradGradGradGradGradGradGradGradGradGrad

                    Distance matrix (angstroms):
                    1          2          3          4          5
     1  C    0.000000
     2  C    1.532001   0.000000
     3  C    2.533747   1.541560   0.000000
     4  C    2.533748   1.541562   2.521262   0.000000
     5  C    2.505378   1.520621   2.466073   2.466047   0.000000
     6  O    2.793046   2.426421   3.432064   3.432150   1.200263
     7  H    1.102951   2.184856   2.786059   3.499427   2.763873
     8  H    1.103849   2.176351   2.792112   2.792370   3.467487
     9  H    1.102953   2.184865   3.499438   2.785820   2.764116
    10  H    3.503876   2.202052   1.105125   2.774241   2.706266
    11  H    2.796421   2.179357   1.103786   2.767108   3.435787
    12  H    2.778831   2.196871   1.104228   3.494256   2.746940
    13  H    2.779127   2.196885   3.494261   1.104229   2.746607
    14  H    2.796108   2.179349   2.767405   1.103785   3.435776
    15  H    3.503881   2.202049   2.773941   1.105123   2.706536
    16  H    3.517770   2.229249   2.755995   2.755900   1.125197
                    6          7          8          9         10
     6  O    0.000000
     7  H    2.756658   0.000000
     8  H    3.885795   1.791226   0.000000
     9  H    2.757166   1.778700   1.791227   0.000000
    10  H    3.802063   3.798276   3.813646   4.358254   0.000000
    11  H    4.379846   3.159217   2.600777   3.810676   1.785467
    12  H    3.431685   2.575046   3.132749   3.792661   1.789807
    13  H    3.431586   3.792740   3.133600   2.575094   3.794392
    14  H    4.379796   3.810565   2.600708   3.158373   3.122371
    15  H    3.802504   4.358245   3.813689   3.798266   2.567874
    16  H    2.016533   3.814311   4.373651   3.814463   2.520685
                   11         12         13         14         15
    11  H    0.000000
    12  H    1.787095   0.000000
    13  H    3.785077   4.359136   0.000000
    14  H    2.554026   3.785138   1.787086   0.000000
    15  H    3.121448   3.794316   1.789810   1.785472   0.000000
    16  H    3.766195   3.135490   3.134894   3.766296   2.520905
                   16
    16  H    0.000000
 Framework group  C1[X(C5H10O)]
 Deg. of freedom    42
                         Standard orientation:                         
 ---------------------------------------------------------------------
 Center     Atomic      Atomic             Coordinates (Angstroms)
 Number     Number       Type             X           Y           Z
 ---------------------------------------------------------------------
      1          6           0       -0.169959    1.548082   -0.000141
      2          6           0       -0.329571    0.024419    0.000001
      3          6           0       -1.076726   -0.453892    1.260710
      4          6           0       -1.076851   -0.454114   -1.260552
      5          6           0        1.033698   -0.649217   -0.000034
      6          8           0        2.094279   -0.087256    0.000006
      7          1           0        0.387864    1.886822    0.889011
      8          1           0       -1.160084    2.036073    0.000150
      9          1           0        0.387293    1.886727   -0.889689
     10          1           0       -1.169530   -1.554862    1.284282
     11          1           0       -2.094870   -0.027909    1.276941
     12          1           0       -0.555987   -0.131697    2.179589
     13          1           0       -0.555867   -0.132635   -2.179546
     14          1           0       -2.094765   -0.027595   -1.277085
     15          1           0       -1.170229   -1.555044   -1.283592
     16          1           0        0.988395   -1.773502   -0.000011
 ---------------------------------------------------------------------
 Rotational constants (GHZ):           4.4245592           2.7661691           2.7305798
   104 basis functions,   190 primitive gaussians,   110 cartesian basis functions
    24 alpha electrons       24 beta electrons
       nuclear repulsion energy       247.3667361920 Hartrees.
 NAtoms=   16 NActive=   16 NUniq=   16 SFac= 1.00D+00 NAtFMM=   60 NAOKFM=F Big=F
 Nuclear repulsion after empirical dispersion term =      247.3574596329 Hartrees.
   1 Symmetry operations used in ECPInt.
 ECPInt:  NShTT=    1596 NPrTT=    6436 LenC2=    1594 LenP2D=    5361.
 LDataN:  DoStor=T MaxTD1= 4 Len=   56
 Initial guess from the checkpoint file:  "22.chk"
 B after Tr=    -0.000000   -0.000000   -0.000000
         Rot=    0.999997   -0.000181   -0.000005    0.002597 Ang=  -0.30 deg.
 ExpMin= 1.22D-01 ExpMax= 2.27D+03 ExpMxC= 3.41D+02 IAcc=3 IRadAn=         5 AccDes= 0.00D+00
 Harris functional with IExCor= 4639 and IRadAn=       5 diagonalized for initial guess.
 HarFok:  IExCor= 4639 AccDes= 0.00D+00 IRadAn=         5 IDoV= 1 UseB2=F ITyADJ=14
 ICtDFT=  3500011 ScaDFX=  1.000000  1.000000  1.000000  1.000000
 FoFCou: FMM=F IPFlag=           0 FMFlag=      100000 FMFlg1=           0
         NFxFlg=           0 DoJE=T BraDBF=F KetDBF=T FulRan=T
         wScrn=  0.000000 ICntrl=       500 IOpCl=  0 I1Cent=   200000004 NGrid=           0
         NMat0=    1 NMatS0=      1 NMatT0=    0 NMatD0=    1 NMtDS0=    0 NMtDT0=    0
 Petite list used in FoFCou.
     Minimum is close to point  3 DX=  1.08D-01 DF= -5.45D-07 DXR=  9.73D-02 DFR=  9.56D-03 which will be used.
     Accept linear search using points  1 and  2.
     Minimum is close to point  2 DX= -3.08D-04 DF= -2.33D-12 DXR=  3.08D-04 DFR=  9.54D-08 which will be used.
 SCF Done:  E(RwB97XD) =  -271.472662793     a.u. after    5 cycles
            Convg  =    0.2568D-09                    30 Fock formations.
              S**2 =  0.0000                  -V/T =  2.0104
   1 Symmetry operations used in ECPInt.
 ECPInt:  NShTT=    1596 NPrTT=    6436 LenC2=    1594 LenP2D=    5361.
 LDataN:  DoStor=T MaxTD1= 5 Len=  102
 Calling FoFJK, ICntrl=      2127 FMM=F ISym2X=0 I1Cent= 0 IOpClX= 0 NMat=1 NMatS=1 NMatT=0.

 GradGradGradGradGradGradGradGradGradGradGradGradGradGradGradGradGradGrad
 Using GEDIIS/GDIIS optimizer.
 FormGI is forming the generalized inverse of G from B-inverse, IUseBI=4.
 Internal  Forces:  Max     0.002238771 RMS     0.000384245
 Step number   2 out of a maximum of   85
 All quantities printed in internal units (Hartrees-Bohrs-Radians)
 Mixed Optimization -- En-DIIS/RFO-DIIS
 Trust test= 9.56D-01 RLast= 1.23D-01 DXMaxT set to 3.69D-01
 ITU=  1  0
 Use linear search instead of GDIIS.
     Eigenvalues ---    0.00325   0.00326   0.00412   0.00602   0.00602
     Eigenvalues ---    0.04427   0.05323   0.05426   0.05431   0.05587
     Eigenvalues ---    0.05615   0.05616   0.05616   0.05920   0.15041
     Eigenvalues ---    0.15233   0.15835   0.16000   0.16000   0.16000
     Eigenvalues ---    0.16000   0.16000   0.16000   0.16000   0.16000
     Eigenvalues ---    0.16090   0.21966   0.29121   0.29275   0.29477
     Eigenvalues ---    0.31132   0.32713   0.35000   0.35046   0.35061
     Eigenvalues ---    0.35075   0.35102   0.35110   0.35131   0.35141
     Eigenvalues ---    0.36362   1.06124
 Quartic linear search produced a step of -0.01545.
 Iteration  1 RMS(Cart)=  0.00596818 RMS(Int)=  0.00002459
 Iteration  2 RMS(Cart)=  0.00002637 RMS(Int)=  0.00000071
 Iteration  3 RMS(Cart)=  0.00000000 RMS(Int)=  0.00000071
 Variable       Old X    -DE/DX   Delta X   Delta X   Delta X     New X
                                 (Linear)    (Quad)   (Total)
    R1        2.89506  -0.00224  -0.00015  -0.00717  -0.00732   2.88774
    R2        2.08428  -0.00017  -0.00046   0.00026  -0.00020   2.08407
    R3        2.08597   0.00015  -0.00049   0.00119   0.00070   2.08667
    R4        2.08428  -0.00017  -0.00046   0.00026  -0.00020   2.08408
    R5        2.91313  -0.00157  -0.00024  -0.00492  -0.00516   2.90796
    R6        2.91313  -0.00157  -0.00024  -0.00492  -0.00516   2.90797
    R7        2.87356   0.00027  -0.00024   0.00125   0.00101   2.87456
    R8        2.08838  -0.00012  -0.00050   0.00045  -0.00005   2.08833
    R9        2.08585   0.00020  -0.00048   0.00132   0.00084   2.08669
   R10        2.08669  -0.00010  -0.00048   0.00049   0.00001   2.08670
   R11        2.08669  -0.00010  -0.00048   0.00049   0.00001   2.08670
   R12        2.08585   0.00020  -0.00048   0.00132   0.00084   2.08669
   R13        2.08838  -0.00012  -0.00050   0.00045  -0.00005   2.08833
   R14        2.26817  -0.00009  -0.00008   0.00005  -0.00003   2.26814
   R15        2.12631  -0.00008  -0.00044   0.00045   0.00001   2.12632
    A1        1.93699   0.00008  -0.00020   0.00081   0.00061   1.93760
    A2        1.92434   0.00014   0.00006   0.00071   0.00077   1.92511
    A3        1.93700   0.00008  -0.00020   0.00080   0.00060   1.93760
    A4        1.89406  -0.00012   0.00010  -0.00092  -0.00082   1.89324
    A5        1.87586  -0.00007   0.00015  -0.00057  -0.00042   1.87544
    A6        1.89406  -0.00012   0.00010  -0.00093  -0.00083   1.89323
    A7        1.93816   0.00005  -0.00010   0.00003  -0.00007   1.93809
    A8        1.93816   0.00005  -0.00010   0.00003  -0.00007   1.93809
    A9        1.92536  -0.00010   0.00003  -0.00024  -0.00021   1.92516
   A10        1.91503  -0.00017   0.00002  -0.00159  -0.00157   1.91346
   A11        1.87244   0.00009   0.00008   0.00090   0.00098   1.87341
   A12        1.87241   0.00009   0.00008   0.00092   0.00100   1.87341
   A13        1.94685  -0.00008  -0.00019  -0.00041  -0.00059   1.94626
   A14        1.91702   0.00041  -0.00000   0.00262   0.00262   1.91964
   A15        1.94061   0.00006  -0.00017   0.00076   0.00058   1.94119
   A16        1.88252  -0.00021   0.00017  -0.00182  -0.00165   1.88087
   A17        1.88866  -0.00001   0.00009  -0.00034  -0.00025   1.88841
   A18        1.88615  -0.00019   0.00012  -0.00094  -0.00082   1.88533
   A19        1.94062   0.00006  -0.00017   0.00075   0.00058   1.94120
   A20        1.91701   0.00041  -0.00000   0.00263   0.00263   1.91964
   A21        1.94685  -0.00008  -0.00019  -0.00041  -0.00059   1.94625
   A22        1.88613  -0.00019   0.00012  -0.00094  -0.00082   1.88531
   A23        1.88867  -0.00001   0.00009  -0.00035  -0.00025   1.88841
   A24        1.88254  -0.00021   0.00017  -0.00183  -0.00166   1.88088
   A25        2.19540  -0.00026   0.00011  -0.00133  -0.00122   2.19418
   A26        1.98947   0.00009  -0.00030   0.00081   0.00052   1.98998
   A27        2.09832   0.00017   0.00018   0.00052   0.00070   2.09902
    D1        1.03153   0.00007   0.00009   0.00070   0.00080   1.03232
    D2       -3.11570  -0.00008  -0.00002  -0.00129  -0.00131  -3.11701
    D3       -1.04211  -0.00001   0.00004  -0.00028  -0.00024  -1.04235
    D4       -1.06770   0.00008   0.00006   0.00086   0.00092  -1.06678
    D5        1.06825  -0.00008  -0.00006  -0.00113  -0.00119   1.06707
    D6       -3.14134   0.00000   0.00000  -0.00012  -0.00011  -3.14145
    D7        3.11625   0.00008   0.00002   0.00104   0.00106   3.11731
    D8       -1.03098  -0.00007  -0.00009  -0.00096  -0.00105  -1.03203
    D9        1.04262   0.00001  -0.00003   0.00006   0.00002   1.04264
   D10       -3.11149   0.00003  -0.00015   0.01001   0.00987  -3.10162
   D11        1.08538   0.00007  -0.00024   0.01083   0.01059   1.09597
   D12       -1.00149   0.00001  -0.00027   0.00981   0.00954  -0.99195
   D13        1.02238   0.00006   0.00003   0.01106   0.01109   1.03347
   D14       -1.06394   0.00010  -0.00006   0.01188   0.01182  -1.05212
   D15        3.13237   0.00004  -0.00009   0.01086   0.01077  -3.14005
   D16       -1.00628  -0.00000  -0.00012   0.01030   0.01018  -0.99610
   D17       -3.09260   0.00003  -0.00021   0.01112   0.01091  -3.08169
   D18        1.10371  -0.00003  -0.00024   0.01010   0.00986   1.11357
   D19        1.00212  -0.00001   0.00028  -0.01022  -0.00995   0.99218
   D20       -1.08473  -0.00007   0.00024  -0.01124  -0.01100  -1.09573
   D21        3.11213  -0.00003   0.00015  -0.01043  -0.01027   3.10185
   D22       -3.13174  -0.00004   0.00010  -0.01127  -0.01117   3.14027
   D23        1.06459  -0.00010   0.00006  -0.01229  -0.01223   1.05236
   D24       -1.02174  -0.00006  -0.00003  -0.01147  -0.01150  -1.03324
   D25       -1.10306   0.00002   0.00025  -0.01053  -0.01028  -1.11335
   D26        3.09327  -0.00004   0.00022  -0.01155  -0.01134   3.08193
   D27        1.00694   0.00000   0.00012  -0.01073  -0.01061   0.99633
   D28        0.00016  -0.00000  -0.00000  -0.00041  -0.00042  -0.00025
   D29       -3.14152   0.00000   0.00000   0.00037   0.00037  -3.14114
   D30       -2.11313  -0.00006   0.00005  -0.00086  -0.00081  -2.11394
   D31        1.02837  -0.00005   0.00005  -0.00007  -0.00002   1.02835
   D32        2.11344   0.00005  -0.00005   0.00005  -0.00000   2.11344
   D33       -1.02824   0.00006  -0.00005   0.00084   0.00079  -1.02745
         Item               Value     Threshold  Converged?
 Maximum Force            0.002239     0.000015     NO 
 RMS     Force            0.000384     0.000010     NO 
 Maximum Displacement     0.019040     0.000060     NO 
 RMS     Displacement     0.005968     0.000040     NO 
 GradGradGradGradGradGradGradGradGradGradGradGradGradGradGradGradGradGrad

                    Distance matrix (angstroms):
                    1          2          3          4          5
     1  C    0.000000
     2  C    1.528125   0.000000
     3  C    2.528237   1.538828   0.000000
     4  C    2.528242   1.538832   2.515404   0.000000
     5  C    2.502447   1.521154   2.465179   2.465179   0.000000
     6  O    2.790046   2.426150   3.430989   3.430811   1.200247
     7  H    1.102844   2.181796   2.781672   3.494333   2.761125
     8  H    1.104219   2.173784   2.787277   2.787417   3.465802
     9  H    1.102846   2.181800   3.494334   2.781548   2.761263
    10  H    3.497917   2.199188   1.105099   2.772966   2.699996
    11  H    2.798909   2.179206   1.104231   2.758136   3.436346
    12  H    2.770190   2.194882   1.104234   3.489115   2.751250
    13  H    2.770307   2.194894   3.489120   1.104235   2.751149
    14  H    2.798800   2.179207   2.758246   1.104231   3.436351
    15  H    3.497923   2.199188   2.772857   1.105098   2.700101
    16  H    3.514727   2.230089   2.756416   2.755992   1.125202
                    6          7          8          9         10
     6  O    0.000000
     7  H    2.753633   0.000000
     8  H    3.883480   1.790910   0.000000
     9  H    2.753706   1.778250   1.790907   0.000000
    10  H    3.795191   3.791070   3.810994   4.352527   0.000000
    11  H    4.382004   3.164818   2.603597   3.811972   1.784729
    12  H    3.435509   2.566512   3.121785   3.785653   1.789629
    13  H    3.435115   3.785667   3.122165   2.566489   3.794843
    14  H    4.381821   3.811958   2.603619   3.164451   3.117130
    15  H    3.795155   4.352523   3.811045   3.791042   2.571276
    16  H    2.016931   3.811592   4.371975   3.811482   2.515204
                   11         12         13         14         15
    11  H    0.000000
    12  H    1.786925   0.000000
    13  H    3.775352   4.355010   0.000000
    14  H    2.539668   3.775374   1.786917   0.000000
    15  H    3.116793   3.794810   1.789631   1.784733   0.000000
    16  H    3.764812   3.143141   3.142338   3.764563   2.514843
                   16
    16  H    0.000000
 Framework group  C1[X(C5H10O)]
 Deg. of freedom    42
                         Standard orientation:                         
 ---------------------------------------------------------------------
 Center     Atomic      Atomic             Coordinates (Angstroms)
 Number     Number       Type             X           Y           Z
 ---------------------------------------------------------------------
      1          6           0       -0.170029    1.544355   -0.000691
      2          6           0       -0.329464    0.024569    0.000040
      3          6           0       -1.076753   -0.452043    1.257970
      4          6           0       -1.076755   -0.453259   -1.257433
      5          6           0        1.034324   -0.649220    0.000362
      6          8           0        2.094170   -0.085909   -0.000155
      7          1           0        0.387464    1.883986    0.888194
      8          1           0       -1.160036    2.033421   -0.000778
      9          1           0        0.387205    1.883162   -0.890056
     10          1           0       -1.160662   -1.553582    1.286499
     11          1           0       -2.099463   -0.035810    1.269842
     12          1           0       -0.562671   -0.121416    2.177610
     13          1           0       -0.562556   -0.123718   -2.177399
     14          1           0       -2.099383   -0.036840   -1.269826
     15          1           0       -1.160868   -1.554811   -1.284776
     16          1           0        0.989670   -1.773536    0.000440
 ---------------------------------------------------------------------
 Rotational constants (GHZ):           4.4416170           2.7692861           2.7334792
   104 basis functions,   190 primitive gaussians,   110 cartesian basis functions
    24 alpha electrons       24 beta electrons
       nuclear repulsion energy       247.5733311657 Hartrees.
 NAtoms=   16 NActive=   16 NUniq=   16 SFac= 1.00D+00 NAtFMM=   60 NAOKFM=F Big=F
 Nuclear repulsion after empirical dispersion term =      247.5640533286 Hartrees.
   1 Symmetry operations used in ECPInt.
 ECPInt:  NShTT=    1596 NPrTT=    6436 LenC2=    1594 LenP2D=    5361.
 LDataN:  DoStor=T MaxTD1= 4 Len=   56
 Initial guess from the checkpoint file:  "22.chk"
 B after Tr=     0.000000    0.000000    0.000000
         Rot=    1.000000    0.000188   -0.000005   -0.000297 Ang=   0.04 deg.
     Accept linear search using points  1 and  2.
     Minimum is close to point  2 DX= -2.03D-05 DF=  0.00D+00 DXR=  2.03D-05 DFR=  0.00D+00 which will be used.
 SCF Done:  E(RwB97XD) =  -271.472687031     a.u. after    3 cycles
            Convg  =    0.1132D-09                    23 Fock formations.
              S**2 =  0.0000                  -V/T =  2.0103
   1 Symmetry operations used in ECPInt.
 ECPInt:  NShTT=    1596 NPrTT=    6436 LenC2=    1594 LenP2D=    5361.
 LDataN:  DoStor=T MaxTD1= 5 Len=  102
 Calling FoFJK, ICntrl=      2127 FMM=F ISym2X=0 I1Cent= 0 IOpClX= 0 NMat=1 NMatS=1 NMatT=0.

 GradGradGradGradGradGradGradGradGradGradGradGradGradGradGradGradGradGrad
 Using GEDIIS/GDIIS optimizer.
 FormGI is forming the generalized inverse of G from B-inverse, IUseBI=4.
 Internal  Forces:  Max     0.000241163 RMS     0.000073079
 Step number   3 out of a maximum of   85
 All quantities printed in internal units (Hartrees-Bohrs-Radians)
 Mixed Optimization -- En-DIIS/RFO-DIIS
 Swapping is turned off.
 Trust test= 1.04D+00 RLast= 4.72D-02 DXMaxT set to 3.69D-01
 ITU=  1  1  0
     Eigenvalues ---    0.00326   0.00330   0.00412   0.00602   0.00605
     Eigenvalues ---    0.04529   0.05316   0.05425   0.05432   0.05562
     Eigenvalues ---    0.05587   0.05599   0.05609   0.05917   0.14029
     Eigenvalues ---    0.15177   0.15222   0.16000   0.16000   0.16000
     Eigenvalues ---    0.16000   0.16000   0.16000   0.16000   0.16017
     Eigenvalues ---    0.16255   0.21938   0.28930   0.29123   0.29614
     Eigenvalues ---    0.32557   0.32775   0.35046   0.35049   0.35075
     Eigenvalues ---    0.35102   0.35109   0.35129   0.35141   0.35217
     Eigenvalues ---    0.35738   1.06176
 En-DIIS/RFO-DIIS/Sim-DIIS IScMMF=       -3 using points:     3    2
 RFO step:  Lambda=-3.00726624D-06.
 DidBck=F Rises=F RFO-DIIS coefs:    1.06721   -0.06721
 Iteration  1 RMS(Cart)=  0.00110543 RMS(Int)=  0.00000187
 Iteration  2 RMS(Cart)=  0.00000164 RMS(Int)=  0.00000110
 Iteration  3 RMS(Cart)=  0.00000000 RMS(Int)=  0.00000110
 Variable       Old X    -DE/DX   Delta X   Delta X   Delta X     New X
                                 (Linear)    (Quad)   (Total)
    R1        2.88774  -0.00002  -0.00049  -0.00003  -0.00052   2.88722
    R2        2.08407  -0.00007  -0.00001  -0.00017  -0.00018   2.08389
    R3        2.08667  -0.00005   0.00005  -0.00011  -0.00006   2.08661
    R4        2.08408  -0.00007  -0.00001  -0.00017  -0.00018   2.08389
    R5        2.90796  -0.00006  -0.00035  -0.00019  -0.00054   2.90743
    R6        2.90797  -0.00007  -0.00035  -0.00022  -0.00056   2.90741
    R7        2.87456   0.00024   0.00007   0.00083   0.00090   2.87546
    R8        2.08833  -0.00003  -0.00000  -0.00004  -0.00004   2.08829
    R9        2.08669  -0.00007   0.00006  -0.00019  -0.00013   2.08656
   R10        2.08670  -0.00007   0.00000  -0.00019  -0.00019   2.08651
   R11        2.08670  -0.00007   0.00000  -0.00019  -0.00019   2.08651
   R12        2.08669  -0.00007   0.00006  -0.00019  -0.00013   2.08656
   R13        2.08833  -0.00002  -0.00000  -0.00004  -0.00004   2.08829
   R14        2.26814  -0.00017  -0.00000  -0.00016  -0.00016   2.26798
   R15        2.12632  -0.00011   0.00000  -0.00033  -0.00033   2.12600
    A1        1.93760   0.00013   0.00004   0.00093   0.00097   1.93857
    A2        1.92511   0.00010   0.00005   0.00058   0.00063   1.92574
    A3        1.93760   0.00013   0.00004   0.00093   0.00097   1.93857
    A4        1.89324  -0.00013  -0.00006  -0.00093  -0.00098   1.89225
    A5        1.87544  -0.00013  -0.00003  -0.00069  -0.00072   1.87472
    A6        1.89323  -0.00013  -0.00006  -0.00092  -0.00098   1.89225
    A7        1.93809   0.00004  -0.00000   0.00079   0.00079   1.93888
    A8        1.93809   0.00005  -0.00000   0.00079   0.00079   1.93888
    A9        1.92516  -0.00002  -0.00001  -0.00035  -0.00036   1.92479
   A10        1.91346  -0.00002  -0.00011   0.00010  -0.00000   1.91345
   A11        1.87341  -0.00002   0.00007  -0.00068  -0.00061   1.87280
   A12        1.87341  -0.00003   0.00007  -0.00076  -0.00070   1.87271
   A13        1.94626   0.00010  -0.00004   0.00065   0.00061   1.94687
   A14        1.91964   0.00009   0.00018   0.00056   0.00073   1.92037
   A15        1.94119   0.00011   0.00004   0.00080   0.00084   1.94203
   A16        1.88087  -0.00012  -0.00011  -0.00095  -0.00106   1.87981
   A17        1.88841  -0.00011  -0.00002  -0.00062  -0.00063   1.88778
   A18        1.88533  -0.00010  -0.00006  -0.00055  -0.00061   1.88472
   A19        1.94120   0.00011   0.00004   0.00080   0.00083   1.94204
   A20        1.91964   0.00009   0.00018   0.00052   0.00070   1.92034
   A21        1.94625   0.00011  -0.00004   0.00067   0.00063   1.94688
   A22        1.88531  -0.00009  -0.00006  -0.00053  -0.00059   1.88472
   A23        1.88841  -0.00011  -0.00002  -0.00061  -0.00063   1.88779
   A24        1.88088  -0.00012  -0.00011  -0.00095  -0.00106   1.87982
   A25        2.19418  -0.00004  -0.00008  -0.00018  -0.00026   2.19391
   A26        1.98998   0.00001   0.00003   0.00003   0.00006   1.99004
   A27        2.09902   0.00003   0.00005   0.00015   0.00019   2.09922
    D1        1.03232  -0.00003   0.00005  -0.00085  -0.00080   1.03152
    D2       -3.11701   0.00001  -0.00009   0.00039   0.00030  -3.11672
    D3       -1.04235  -0.00001  -0.00002  -0.00029  -0.00030  -1.04265
    D4       -1.06678  -0.00002   0.00006  -0.00067  -0.00061  -1.06739
    D5        1.06707   0.00002  -0.00008   0.00056   0.00049   1.06755
    D6       -3.14145  -0.00000  -0.00001  -0.00011  -0.00011  -3.14157
    D7        3.11731  -0.00001   0.00007  -0.00050  -0.00043   3.11688
    D8       -1.03203   0.00003  -0.00007   0.00074   0.00067  -1.03136
    D9        1.04264   0.00001   0.00000   0.00007   0.00007   1.04271
   D10       -3.10162   0.00002   0.00066   0.00044   0.00110  -3.10052
   D11        1.09597   0.00004   0.00071   0.00084   0.00155   1.09752
   D12       -0.99195   0.00003   0.00064   0.00065   0.00129  -0.99066
   D13        1.03347  -0.00006   0.00075  -0.00118  -0.00043   1.03304
   D14       -1.05212  -0.00003   0.00079  -0.00078   0.00002  -1.05210
   D15       -3.14005  -0.00004   0.00072  -0.00096  -0.00024  -3.14028
   D16       -0.99610   0.00000   0.00068   0.00005   0.00073  -0.99537
   D17       -3.08169   0.00002   0.00073   0.00045   0.00118  -3.08051
   D18        1.11357   0.00001   0.00066   0.00026   0.00093   1.11450
   D19        0.99218  -0.00003  -0.00067  -0.00076  -0.00143   0.99075
   D20       -1.09573  -0.00004  -0.00074  -0.00095  -0.00169  -1.09742
   D21        3.10185  -0.00002  -0.00069  -0.00053  -0.00122   3.10063
   D22        3.14027   0.00004  -0.00075   0.00085   0.00010   3.14037
   D23        1.05236   0.00003  -0.00082   0.00067  -0.00016   1.05220
   D24       -1.03324   0.00005  -0.00077   0.00108   0.00031  -1.03293
   D25       -1.11335  -0.00001  -0.00069  -0.00032  -0.00101  -1.11436
   D26        3.08193  -0.00002  -0.00076  -0.00051  -0.00127   3.08066
   D27        0.99633  -0.00000  -0.00071  -0.00009  -0.00081   0.99552
   D28       -0.00025   0.00002  -0.00003   0.00297   0.00294   0.00269
   D29       -3.14114  -0.00002   0.00003  -0.00322  -0.00320   3.13885
   D30       -2.11394  -0.00001  -0.00005   0.00263   0.00257  -2.11137
   D31        1.02835  -0.00004  -0.00000  -0.00356  -0.00356   1.02479
   D32        2.11344   0.00004  -0.00000   0.00325   0.00325   2.11669
   D33       -1.02745   0.00001   0.00005  -0.00293  -0.00288  -1.03033
         Item               Value     Threshold  Converged?
 Maximum Force            0.000241     0.000015     NO 
 RMS     Force            0.000073     0.000010     NO 
 Maximum Displacement     0.004123     0.000060     NO 
 RMS     Displacement     0.001105     0.000040     NO 
 GradGradGradGradGradGradGradGradGradGradGradGradGradGradGradGradGradGrad

                    Distance matrix (angstroms):
                    1          2          3          4          5
     1  C    0.000000
     2  C    1.527849   0.000000
     3  C    2.528459   1.538543   0.000000
     4  C    2.528453   1.538533   2.514923   0.000000
     5  C    2.502291   1.521628   2.464774   2.464687   0.000000
     6  O    2.789572   2.426348   3.429493   3.431311   1.200161
     7  H    1.102748   2.182178   2.782557   3.494706   2.761714
     8  H    1.104186   2.173972   2.788524   2.788596   3.466066
     9  H    1.102749   2.182179   3.494715   2.782482   2.761741
    10  H    3.498196   2.199361   1.105075   2.772851   2.699511
    11  H    2.800655   2.179440   1.104162   2.758296   3.436391
    12  H    2.770771   2.195160   1.104134   3.488919   2.751726
    13  H    2.770810   2.195156   3.488924   1.104135   2.751561
    14  H    2.800572   2.179405   2.758309   1.104161   3.436314
    15  H    3.498197   2.199360   2.772810   1.105075   2.699487
    16  H    3.514441   2.230418   2.754273   2.756766   1.125030
                    6          7          8          9         10
     6  O    0.000000
     7  H    2.752921   0.000000
     8  H    3.883107   1.790170   0.000000
     9  H    2.754656   1.777625   1.790169   0.000000
    10  H    3.793611   3.791876   3.812484   4.353113   0.000000
    11  H    4.381381   3.166883   2.606730   3.813740   1.783964
    12  H    3.434248   2.567988   3.122754   3.786390   1.789120
    13  H    3.437367   3.786378   3.122932   2.567949   3.794911
    14  H    4.382785   3.813704   2.606721   3.166676   3.117045
    15  H    3.795360   4.353111   3.812516   3.791851   2.571609
    16  H    2.016818   3.811300   4.372295   3.812636   2.512775
                   11         12         13         14         15
    11  H    0.000000
    12  H    1.786395   0.000000
    13  H    3.775710   4.355386   0.000000
    14  H    2.540460   3.775685   1.786397   0.000000
    15  H    3.116926   3.794900   1.789124   1.783967   0.000000
    16  H    3.763020   3.140990   3.144720   3.764881   2.515632
                   16
    16  H    0.000000
 Framework group  C1[X(C5H10O)]
 Deg. of freedom    42
                         Standard orientation:                         
 ---------------------------------------------------------------------
 Center     Atomic      Atomic             Coordinates (Angstroms)
 Number     Number       Type             X           Y           Z
 ---------------------------------------------------------------------
      1          6           0       -0.168936    1.544551    0.004553
      2          6           0       -0.329887    0.025210    0.000033
      3          6           0       -1.075147   -0.456291    1.256957
      4          6           0       -1.078341   -0.448472   -1.257952
      5          6           0        1.033885   -0.649671   -0.003876
      6          8           0        2.093874   -0.086821   -0.000907
      7          1           0        0.389674    1.881431    0.893665
      8          1           0       -1.158107    2.035223    0.007420
      9          1           0        0.387270    1.886975   -0.883949
     10          1           0       -1.159060   -1.557891    1.282004
     11          1           0       -2.098183   -0.041157    1.272308
     12          1           0       -0.560663   -0.129303    2.177553
     13          1           0       -0.566155   -0.115841   -2.177809
     14          1           0       -2.101367   -0.033160   -1.268138
     15          1           0       -1.162426   -1.549888   -1.289590
     16          1           0        0.988577   -1.773788   -0.004497
 ---------------------------------------------------------------------
 Rotational constants (GHZ):           4.4411633           2.7699402           2.7336157
   104 basis functions,   190 primitive gaussians,   110 cartesian basis functions
    24 alpha electrons       24 beta electrons
       nuclear repulsion energy       247.5804469252 Hartrees.
 NAtoms=   16 NActive=   16 NUniq=   16 SFac= 1.00D+00 NAtFMM=   60 NAOKFM=F Big=F
 Nuclear repulsion after empirical dispersion term =      247.5711722902 Hartrees.
   1 Symmetry operations used in ECPInt.
 ECPInt:  NShTT=    1596 NPrTT=    6436 LenC2=    1594 LenP2D=    5361.
 LDataN:  DoStor=T MaxTD1= 4 Len=   56
 Initial guess from the checkpoint file:  "22.chk"
 B after Tr=    -0.000000    0.000000   -0.000000
         Rot=    0.999998   -0.001748   -0.000411    0.000202 Ang=  -0.21 deg.
     Minimum is close to point  2 DX=  7.72D-06 DF=  0.00D+00 DXR=  7.72D-06 DFR=  0.00D+00 which will be used.
 SCF Done:  E(RwB97XD) =  -271.472687372     a.u. after    3 cycles
            Convg  =    0.7346D-10                    23 Fock formations.
              S**2 =  0.0000                  -V/T =  2.0103
   1 Symmetry operations used in ECPInt.
 ECPInt:  NShTT=    1596 NPrTT=    6436 LenC2=    1594 LenP2D=    5361.
 LDataN:  DoStor=T MaxTD1= 5 Len=  102
 Calling FoFJK, ICntrl=      2127 FMM=F ISym2X=0 I1Cent= 0 IOpClX= 0 NMat=1 NMatS=1 NMatT=0.

 GradGradGradGradGradGradGradGradGradGradGradGradGradGradGradGradGradGrad
 Using GEDIIS/GDIIS optimizer.
 FormGI is forming the generalized inverse of G from B-inverse, IUseBI=4.
 Internal  Forces:  Max     0.000146184 RMS     0.000043280
 Step number   4 out of a maximum of   85
 All quantities printed in internal units (Hartrees-Bohrs-Radians)
 Mixed Optimization -- En-DIIS/RFO-DIIS
 Swapping is turned off.
 Trust test= 2.27D-01 RLast= 9.66D-03 DXMaxT set to 3.69D-01
 ITU=  0  1  1  0
     Eigenvalues ---    0.00292   0.00326   0.00412   0.00602   0.01543
     Eigenvalues ---    0.04432   0.05276   0.05414   0.05436   0.05574
     Eigenvalues ---    0.05578   0.05592   0.05602   0.05959   0.10344
     Eigenvalues ---    0.15112   0.15383   0.16000   0.16000   0.16000
     Eigenvalues ---    0.16000   0.16000   0.16000   0.16008   0.16058
     Eigenvalues ---    0.16276   0.21981   0.27652   0.29161   0.29516
     Eigenvalues ---    0.32556   0.32892   0.35046   0.35051   0.35075
     Eigenvalues ---    0.35101   0.35106   0.35127   0.35140   0.35167
     Eigenvalues ---    0.35577   1.05775
 En-DIIS/RFO-DIIS/Sim-DIIS IScMMF=       -3 using points:     4    3    2
 RFO step:  Lambda=-6.85818117D-06.
 DidBck=T Rises=F RFO-DIIS coefs:    0.07698    1.16766   -0.24465
 Iteration  1 RMS(Cart)=  0.00127553 RMS(Int)=  0.00000314
 Iteration  2 RMS(Cart)=  0.00000304 RMS(Int)=  0.00000124
 Iteration  3 RMS(Cart)=  0.00000000 RMS(Int)=  0.00000124
 Variable       Old X    -DE/DX   Delta X   Delta X   Delta X     New X
                                 (Linear)    (Quad)   (Total)
    R1        2.88722   0.00000  -0.00131   0.00055  -0.00076   2.88645
    R2        2.08389  -0.00000   0.00012  -0.00022  -0.00011   2.08379
    R3        2.08661   0.00000   0.00023  -0.00020   0.00003   2.08664
    R4        2.08389   0.00000   0.00012  -0.00022  -0.00010   2.08379
    R5        2.90743  -0.00001  -0.00077   0.00011  -0.00066   2.90677
    R6        2.90741   0.00004  -0.00074   0.00011  -0.00063   2.90678
    R7        2.87546   0.00011  -0.00058   0.00136   0.00078   2.87624
    R8        2.08829   0.00000   0.00003  -0.00003  -0.00000   2.08829
    R9        2.08656  -0.00001   0.00033  -0.00034  -0.00002   2.08655
   R10        2.08651  -0.00000   0.00018  -0.00027  -0.00010   2.08641
   R11        2.08651  -0.00000   0.00018  -0.00028  -0.00010   2.08641
   R12        2.08656  -0.00000   0.00033  -0.00034  -0.00001   2.08655
   R13        2.08829   0.00000   0.00003  -0.00003  -0.00000   2.08829
   R14        2.26798  -0.00005   0.00014  -0.00026  -0.00012   2.26785
   R15        2.12600  -0.00002   0.00030  -0.00051  -0.00021   2.12579
    A1        1.93857  -0.00000  -0.00075   0.00145   0.00070   1.93927
    A2        1.92574   0.00002  -0.00039   0.00090   0.00051   1.92625
    A3        1.93857  -0.00000  -0.00074   0.00144   0.00070   1.93927
    A4        1.89225  -0.00001   0.00071  -0.00145  -0.00074   1.89152
    A5        1.87472   0.00000   0.00056  -0.00108  -0.00052   1.87420
    A6        1.89225  -0.00001   0.00070  -0.00144  -0.00074   1.89151
    A7        1.93888   0.00002  -0.00075   0.00129   0.00055   1.93942
    A8        1.93888  -0.00002  -0.00075   0.00129   0.00055   1.93943
    A9        1.92479   0.00000   0.00029  -0.00056  -0.00028   1.92451
   A10        1.91345   0.00001  -0.00038   0.00032  -0.00005   1.91340
   A11        1.87280  -0.00004   0.00080  -0.00129  -0.00049   1.87231
   A12        1.87271   0.00003   0.00089  -0.00122  -0.00034   1.87238
   A13        1.94687   0.00001  -0.00071   0.00113   0.00041   1.94729
   A14        1.92037  -0.00001  -0.00003   0.00067   0.00063   1.92100
   A15        1.94203   0.00001  -0.00063   0.00127   0.00064   1.94267
   A16        1.87981  -0.00001   0.00057  -0.00142  -0.00084   1.87897
   A17        1.88778  -0.00001   0.00052  -0.00099  -0.00046   1.88732
   A18        1.88472  -0.00000   0.00036  -0.00083  -0.00047   1.88425
   A19        1.94204   0.00001  -0.00063   0.00126   0.00063   1.94266
   A20        1.92034   0.00003  -0.00000   0.00070   0.00069   1.92103
   A21        1.94688  -0.00000  -0.00073   0.00112   0.00039   1.94728
   A22        1.88472  -0.00002   0.00034  -0.00082  -0.00048   1.88424
   A23        1.88779  -0.00001   0.00052  -0.00099  -0.00047   1.88731
   A24        1.87982  -0.00002   0.00057  -0.00143  -0.00085   1.87896
   A25        2.19391   0.00002  -0.00005  -0.00016  -0.00022   2.19369
   A26        1.99004  -0.00002   0.00007  -0.00001   0.00006   1.99010
   A27        2.09922   0.00000  -0.00000   0.00019   0.00018   2.09939
    D1        1.03152  -0.00002   0.00093  -0.00155  -0.00062   1.03091
    D2       -3.11672  -0.00000  -0.00060   0.00068   0.00008  -3.11664
    D3       -1.04265   0.00002   0.00022  -0.00039  -0.00017  -1.04282
    D4       -1.06739  -0.00002   0.00079  -0.00127  -0.00048  -1.06788
    D5        1.06755  -0.00001  -0.00074   0.00095   0.00021   1.06777
    D6       -3.14157   0.00002   0.00008  -0.00012  -0.00004   3.14158
    D7        3.11688  -0.00002   0.00066  -0.00100  -0.00035   3.11653
    D8       -1.03136  -0.00001  -0.00087   0.00122   0.00035  -1.03101
    D9        1.04271   0.00002  -0.00006   0.00015   0.00010   1.04280
   D10       -3.10052  -0.00000   0.00140  -0.00027   0.00113  -3.09939
   D11        1.09752   0.00000   0.00116   0.00034   0.00150   1.09902
   D12       -0.99066   0.00000   0.00114   0.00013   0.00127  -0.98939
   D13        1.03304   0.00000   0.00311  -0.00301   0.00011   1.03314
   D14       -1.05210   0.00001   0.00287  -0.00240   0.00048  -1.05163
   D15       -3.14028   0.00001   0.00285  -0.00261   0.00024  -3.14004
   D16       -0.99537  -0.00002   0.00182  -0.00101   0.00080  -0.99456
   D17       -3.08051  -0.00001   0.00158  -0.00040   0.00117  -3.07934
   D18        1.11450  -0.00001   0.00156  -0.00062   0.00094   1.11544
   D19        0.99075   0.00000  -0.00111  -0.00034  -0.00145   0.98930
   D20       -1.09742  -0.00000  -0.00113  -0.00057  -0.00171  -1.09912
   D21        3.10063  -0.00000  -0.00138   0.00004  -0.00135   3.09928
   D22        3.14037   0.00002  -0.00282   0.00240  -0.00043   3.13994
   D23        1.05220   0.00001  -0.00285   0.00217  -0.00068   1.05152
   D24       -1.03293   0.00001  -0.00310   0.00277  -0.00032  -1.03326
   D25       -1.11436  -0.00001  -0.00158   0.00036  -0.00122  -1.11558
   D26        3.08066  -0.00001  -0.00160   0.00013  -0.00147   3.07919
   D27        0.99552  -0.00001  -0.00185   0.00074  -0.00111   0.99441
   D28        0.00269  -0.00013  -0.00281  -0.00154  -0.00436  -0.00167
   D29        3.13885   0.00014   0.00304   0.00153   0.00457  -3.13977
   D30       -2.11137  -0.00013  -0.00257  -0.00198  -0.00455  -2.11592
   D31        1.02479   0.00015   0.00328   0.00109   0.00437   1.02916
   D32        2.11669  -0.00014  -0.00300  -0.00106  -0.00406   2.11263
   D33       -1.03033   0.00014   0.00285   0.00201   0.00486  -1.02547
         Item               Value     Threshold  Converged?
 Maximum Force            0.000146     0.000015     NO 
 RMS     Force            0.000043     0.000010     NO 
 Maximum Displacement     0.005808     0.000060     NO 
 RMS     Displacement     0.001276     0.000040     NO 
 GradGradGradGradGradGradGradGradGradGradGradGradGradGradGradGradGradGrad

                    Distance matrix (angstroms):
                    1          2          3          4          5
     1  C    0.000000
     2  C    1.527445   0.000000
     3  C    2.528312   1.538195   0.000000
     4  C    2.528320   1.538201   2.514320   0.000000
     5  C    2.502056   1.522041   2.464381   2.464446   0.000000
     6  O    2.789141   2.426535   3.430592   3.429480   1.200097
     7  H    1.102692   2.182284   2.782887   3.494722   2.761970
     8  H    1.104201   2.174000   2.789213   2.789169   3.466229
     9  H    1.102693   2.182285   3.494714   2.782943   2.761961
    10  H    3.498089   2.199350   1.105074   2.772688   2.698874
    11  H    2.801922   2.179591   1.104153   2.758048   3.436430
    12  H    2.770800   2.195272   1.104082   3.488570   2.752104
    13  H    2.770764   2.195276   3.488568   1.104082   2.752249
    14  H    2.802002   2.179616   2.758022   1.104154   3.436488
    15  H    3.498089   2.199349   2.772732   1.105074   2.698875
    16  H    3.514109   2.230735   2.755920   2.754271   1.124918
                    6          7          8          9         10
     6  O    0.000000
     7  H    2.754275   0.000000
     8  H    3.882805   1.789659   0.000000
     9  H    2.753210   1.777195   1.789657   0.000000
    10  H    3.794285   3.792071   3.813431   4.353244   0.000000
    11  H    4.382795   3.168442   2.609053   3.815016   1.783406
    12  H    3.437293   2.568588   3.123067   3.786589   1.788777
    13  H    3.435406   3.786589   3.122926   2.568604   3.794978
    14  H    4.381946   3.815058   2.609085   3.168612   3.116753
    15  H    3.793186   4.353242   3.813420   3.792082   2.571961
    16  H    2.016767   3.812576   4.372501   3.811697   2.514378
                   11         12         13         14         15
    11  H    0.000000
    12  H    1.786040   0.000000
    13  H    3.775576   4.355499   0.000000
    14  H    2.540488   3.775590   1.786036   0.000000
    15  H    3.116888   3.794987   1.788775   1.783405   0.000000
    16  H    3.764066   3.144512   3.142076   3.762825   2.512463
                   16
    16  H    0.000000
 Framework group  C1[X(C5H10O)]
 Deg. of freedom    42
                         Standard orientation:                         
 ---------------------------------------------------------------------
 Center     Atomic      Atomic             Coordinates (Angstroms)
 Number     Number       Type             X           Y           Z
 ---------------------------------------------------------------------
      1          6           0       -0.168238    1.544497   -0.002956
      2          6           0       -0.330203    0.025666   -0.000024
      3          6           0       -1.077709   -0.449605    1.257511
      4          6           0       -1.075752   -0.454675   -1.256803
      5          6           0        1.033658   -0.649974    0.002460
      6          8           0        2.093699   -0.087353    0.000570
      7          1           0        0.388457    1.886280    0.885416
      8          1           0       -1.156830    2.036372   -0.004775
      9          1           0        0.389936    1.882692   -0.891775
     10          1           0       -1.161367   -1.551074    1.288464
     11          1           0       -2.101220   -0.035544    1.268979
     12          1           0       -0.565920   -0.117831    2.177834
     13          1           0       -0.562580   -0.126525   -2.177655
     14          1           0       -2.099285   -0.040766   -1.271504
     15          1           0       -1.159260   -1.556267   -1.283491
     16          1           0        0.987944   -1.773962    0.002820
 ---------------------------------------------------------------------
 Rotational constants (GHZ):           4.4416610           2.7704673           2.7338009
   104 basis functions,   190 primitive gaussians,   110 cartesian basis functions
    24 alpha electrons       24 beta electrons
       nuclear repulsion energy       247.5934611605 Hartrees.
 NAtoms=   16 NActive=   16 NUniq=   16 SFac= 1.00D+00 NAtFMM=   60 NAOKFM=F Big=F
 Nuclear repulsion after empirical dispersion term =      247.5841887445 Hartrees.
   1 Symmetry operations used in ECPInt.
 ECPInt:  NShTT=    1596 NPrTT=    6436 LenC2=    1594 LenP2D=    5361.
 LDataN:  DoStor=T MaxTD1= 4 Len=   56
 Initial guess from the checkpoint file:  "22.chk"
 B after Tr=    -0.000000   -0.000000   -0.000000
         Rot=    0.999997    0.002492    0.000698    0.000116 Ang=   0.30 deg.
     Minimum is close to point  2 DX=  9.92D-06 DF=  0.00D+00 DXR=  9.92D-06 DFR=  0.00D+00 which will be used.
 SCF Done:  E(RwB97XD) =  -271.472687429     a.u. after    3 cycles
            Convg  =    0.1499D-09                    23 Fock formations.
              S**2 =  0.0000                  -V/T =  2.0103
   1 Symmetry operations used in ECPInt.
 ECPInt:  NShTT=    1596 NPrTT=    6436 LenC2=    1594 LenP2D=    5361.
 LDataN:  DoStor=T MaxTD1= 5 Len=  102
 Calling FoFJK, ICntrl=      2127 FMM=F ISym2X=0 I1Cent= 0 IOpClX= 0 NMat=1 NMatS=1 NMatT=0.

 GradGradGradGradGradGradGradGradGradGradGradGradGradGradGradGradGradGrad
 Using GEDIIS/GDIIS optimizer.
 FormGI is forming the generalized inverse of G from B-inverse, IUseBI=4.
 Internal  Forces:  Max     0.000157116 RMS     0.000053959
 Step number   5 out of a maximum of   85
 All quantities printed in internal units (Hartrees-Bohrs-Radians)
 Mixed Optimization -- En-DIIS/RFO-DIIS
 Swapping is turned off.
 Trust test= 2.15D-02 RLast= 1.23D-02 DXMaxT set to 1.85D-01
 ITU= -1  0  1  1  0
     Eigenvalues ---    0.00302   0.00326   0.00412   0.00602   0.04157
     Eigenvalues ---    0.04385   0.05399   0.05415   0.05426   0.05569
     Eigenvalues ---    0.05586   0.05596   0.05686   0.05985   0.10534
     Eigenvalues ---    0.15079   0.15420   0.15943   0.16000   0.16000
     Eigenvalues ---    0.16000   0.16000   0.16000   0.16009   0.16077
     Eigenvalues ---    0.16519   0.21672   0.24750   0.29181   0.29534
     Eigenvalues ---    0.30482   0.32609   0.35025   0.35046   0.35075
     Eigenvalues ---    0.35087   0.35103   0.35118   0.35131   0.35141
     Eigenvalues ---    0.35948   1.05733
 En-DIIS/RFO-DIIS/Sim-DIIS IScMMF=       -3 using points:     5    4    3    2
 RFO step:  Lambda=-2.46293690D-06.
 DidBck=T Rises=F RFO-DIIS coefs:    0.46673    0.34135    0.13191    0.06000
 Iteration  1 RMS(Cart)=  0.00090871 RMS(Int)=  0.00000085
 Iteration  2 RMS(Cart)=  0.00000076 RMS(Int)=  0.00000047
 Variable       Old X    -DE/DX   Delta X   Delta X   Delta X     New X
                                 (Linear)    (Quad)   (Total)
    R1        2.88645   0.00014   0.00095  -0.00035   0.00059   2.88705
    R2        2.08379   0.00005   0.00010   0.00001   0.00011   2.08390
    R3        2.08664   0.00001  -0.00004   0.00005   0.00000   2.08664
    R4        2.08379   0.00004   0.00010   0.00001   0.00011   2.08390
    R5        2.90677   0.00016   0.00076  -0.00019   0.00057   2.90734
    R6        2.90678   0.00012   0.00075  -0.00019   0.00056   2.90734
    R7        2.87624  -0.00002  -0.00065   0.00033  -0.00032   2.87592
    R8        2.08829   0.00001   0.00001   0.00000   0.00001   2.08830
    R9        2.08655   0.00002  -0.00002   0.00005   0.00003   2.08658
   R10        2.08641   0.00004   0.00009   0.00001   0.00010   2.08651
   R11        2.08641   0.00004   0.00009   0.00001   0.00010   2.08651
   R12        2.08655   0.00002  -0.00002   0.00005   0.00003   2.08658
   R13        2.08829   0.00001   0.00001   0.00000   0.00001   2.08830
   R14        2.26785   0.00003   0.00010  -0.00004   0.00006   2.26792
   R15        2.12579   0.00004   0.00017  -0.00003   0.00014   2.12593
    A1        1.93927  -0.00009  -0.00060  -0.00008  -0.00067   1.93859
    A2        1.92625  -0.00003  -0.00044   0.00014  -0.00029   1.92595
    A3        1.93927  -0.00009  -0.00059  -0.00008  -0.00067   1.93859
    A4        1.89152   0.00007   0.00063  -0.00002   0.00061   1.89212
    A5        1.87420   0.00009   0.00044   0.00006   0.00050   1.87470
    A6        1.89151   0.00007   0.00063  -0.00002   0.00061   1.89212
    A7        1.93942  -0.00004  -0.00044  -0.00005  -0.00049   1.93893
    A8        1.93943  -0.00002  -0.00044  -0.00005  -0.00049   1.93894
    A9        1.92451   0.00002   0.00023  -0.00003   0.00020   1.92471
   A10        1.91340   0.00004   0.00012   0.00006   0.00018   1.91358
   A11        1.87231   0.00003   0.00032   0.00005   0.00037   1.87268
   A12        1.87238  -0.00002   0.00025   0.00005   0.00030   1.87268
   A13        1.94729  -0.00006  -0.00030  -0.00009  -0.00039   1.94690
   A14        1.92100  -0.00005  -0.00064   0.00018  -0.00046   1.92054
   A15        1.94267  -0.00006  -0.00054   0.00002  -0.00051   1.94216
   A16        1.87897   0.00007   0.00075  -0.00006   0.00069   1.87966
   A17        1.88732   0.00006   0.00038  -0.00002   0.00037   1.88768
   A18        1.88425   0.00005   0.00042  -0.00004   0.00038   1.88463
   A19        1.94266  -0.00006  -0.00053   0.00002  -0.00051   1.94216
   A20        1.92103  -0.00007  -0.00066   0.00018  -0.00048   1.92054
   A21        1.94728  -0.00005  -0.00029  -0.00008  -0.00038   1.94690
   A22        1.88424   0.00006   0.00042  -0.00004   0.00038   1.88462
   A23        1.88731   0.00005   0.00039  -0.00002   0.00037   1.88768
   A24        1.87896   0.00007   0.00076  -0.00007   0.00069   1.87966
   A25        2.19369   0.00007   0.00024   0.00006   0.00031   2.19400
   A26        1.99010  -0.00005  -0.00007  -0.00013  -0.00020   1.98990
   A27        2.09939  -0.00002  -0.00017   0.00007  -0.00010   2.09929
    D1        1.03091   0.00001   0.00043  -0.00001   0.00042   1.03133
    D2       -3.11664   0.00001  -0.00002  -0.00002  -0.00004  -3.11668
    D3       -1.04282  -0.00001   0.00016  -0.00001   0.00015  -1.04267
    D4       -1.06788   0.00001   0.00032  -0.00003   0.00029  -1.06758
    D5        1.06777   0.00001  -0.00014  -0.00003  -0.00017   1.06760
    D6        3.14158  -0.00001   0.00005  -0.00003   0.00002  -3.14158
    D7        3.11653  -0.00000   0.00020  -0.00004   0.00016   3.11669
    D8       -1.03101   0.00000  -0.00025  -0.00005  -0.00030  -1.03131
    D9        1.04280  -0.00002  -0.00007  -0.00004  -0.00011   1.04269
   D10       -3.09939  -0.00001  -0.00141  -0.00006  -0.00146  -3.10085
   D11        1.09902  -0.00003  -0.00173  -0.00004  -0.00177   1.09725
   D12       -0.98939  -0.00002  -0.00150  -0.00012  -0.00161  -0.99101
   D13        1.03314   0.00002  -0.00064   0.00001  -0.00063   1.03252
   D14       -1.05163   0.00000  -0.00097   0.00003  -0.00094  -1.05256
   D15       -3.14004   0.00001  -0.00073  -0.00005  -0.00078  -3.14082
   D16       -0.99456   0.00001  -0.00118  -0.00010  -0.00128  -0.99584
   D17       -3.07934  -0.00001  -0.00151  -0.00008  -0.00159  -3.08092
   D18        1.11544  -0.00000  -0.00127  -0.00016  -0.00143   1.11400
   D19        0.98930   0.00002   0.00164   0.00008   0.00172   0.99102
   D20       -1.09912   0.00003   0.00189  -0.00001   0.00189  -1.09724
   D21        3.09928   0.00002   0.00157   0.00001   0.00158   3.10087
   D22        3.13994  -0.00002   0.00088   0.00001   0.00089   3.14083
   D23        1.05152  -0.00002   0.00113  -0.00007   0.00105   1.05257
   D24       -1.03326  -0.00003   0.00080  -0.00005   0.00075  -1.03251
   D25       -1.11558   0.00002   0.00146   0.00012   0.00158  -1.11400
   D26        3.07919   0.00002   0.00171   0.00003   0.00174   3.08093
   D27        0.99441   0.00001   0.00139   0.00006   0.00144   0.99585
   D28       -0.00167   0.00008   0.00178  -0.00002   0.00177   0.00010
   D29       -3.13977  -0.00009  -0.00184  -0.00002  -0.00187   3.14155
   D30       -2.11592   0.00011   0.00198   0.00004   0.00202  -2.11390
   D31        1.02916  -0.00007  -0.00165   0.00004  -0.00161   1.02755
   D32        2.11263   0.00006   0.00154  -0.00007   0.00147   2.11410
   D33       -1.02547  -0.00012  -0.00209  -0.00008  -0.00216  -1.02764
         Item               Value     Threshold  Converged?
 Maximum Force            0.000157     0.000015     NO 
 RMS     Force            0.000054     0.000010     NO 
 Maximum Displacement     0.002976     0.000060     NO 
 RMS     Displacement     0.000909     0.000040     NO 
 GradGradGradGradGradGradGradGradGradGradGradGradGradGradGradGradGradGrad

                    Distance matrix (angstroms):
                    1          2          3          4          5
     1  C    0.000000
     2  C    1.527760   0.000000
     3  C    2.528394   1.538497   0.000000
     4  C    2.528396   1.538496   2.514967   0.000000
     5  C    2.502346   1.521872   2.464820   2.464822   0.000000
     6  O    2.789734   2.426596   3.430450   3.430523   1.200130
     7  H    1.102753   2.182121   2.782444   3.494658   2.761729
[...]
   zy         0.259573D-02      0.384647D-03      0.427978D-03
   zz         0.506382D+02      0.750381D+01      0.834912D+01

 ----------------------------------------------------------------------

 Dipole orientation:
     6          0.83175260          2.83177077         -0.32140745
     6          0.07378085          0.25126403          0.72851622
     6          2.21322785         -0.89727092          2.32746066
     6         -2.34689133          0.44219907          2.32753813
     6         -0.46438295         -1.58077438         -1.42200787
     8         -0.32394095         -1.10271525         -3.63449845
     1          2.53954324          2.68616025         -1.50669367
     1          1.22277255          4.16283429          1.23722671
     1         -0.68353947          3.63290627         -1.50662001
     1          1.71013579         -2.79855070          3.02961091
     1          2.59421464          0.31097983          3.98538069
     1          3.97884492         -1.05661914          1.22713417
     1         -3.91824913          1.26302080          1.22726487
     1         -2.01387643          1.66455469          3.98544866
     1         -2.95191570         -1.42913406          3.02970520
     1         -1.03554167         -3.52514549         -0.77950654

 Electric dipole moment (dipole orientation):
 (Debye = 10**-18 statcoulomb cm , SI units = C m)
                  (au)            (Debye)         (10**-30 SI)
   Tot        0.103617D+01      0.263367D+01      0.878499D+01
   x          0.000000D+00      0.000000D+00      0.000000D+00
   y          0.000000D+00      0.000000D+00      0.000000D+00
   z          0.103617D+01      0.263367D+01      0.878499D+01

 Dipole polarizability, Alpha (dipole orientation).
 (esu units = cm**3 , SI units = C**2 m**2 J**-1)
 Alpha(0;0):
               (au)            (10**-24 esu)      (10**-40 SI)
   iso        0.548819D+02      0.813265D+01      0.904880D+01
   aniso      0.749585D+01      0.111077D+01      0.123590D+01
   xx         0.510020D+02      0.755771D+01      0.840909D+01
   yx         0.123832D+01      0.183501D+00      0.204172D+00
   yy         0.548538D+02      0.812850D+01      0.904417D+01
   zx        -0.401820D+00     -0.595435D-01     -0.662511D-01
   zy        -0.136790D+01     -0.202702D+00     -0.225537D+00
   zz         0.587898D+02      0.871175D+01      0.969313D+01

 ----------------------------------------------------------------------
 1\1\GINC-C385\Freq\RwB97XD\def2SVPP\C5H10O1\PETERCHAO1\06-Feb-2023\0\\
 #T Geom=AllCheck Guess=TCheck SCRF=Check GenChk RwB97XD/def2SVPP Freq\
 \Monomer\\0,1\C,0.2776589764,1.5463142524,0.0007339123\C,0.4089529274,
 0.0241301688,0.0000175211\C,1.1461215389,-0.4674398831,-1.2577660107\C
 ,1.146198127,-0.4686190675,1.2572937402\C,-0.9679820073,-0.624015555,-
 0.0002484431\O,-2.0167560196,-0.040606764,0.0000283193\H,-0.2730563017
 ,1.8971783984,-0.8879022358\H,1.2761273086,2.0177969504,0.0009182009\H
 ,-0.272990939,1.8963476907,0.8897384488\H,1.2089311423,-1.5703607054,-
 1.2863977878\H,2.1769709584,-0.0720359837,-1.270839415\H,0.6390019944,
 -0.1276688312,-2.1778167974\H,0.6391301616,-0.1297195746,2.1776944934\
 H,2.177045088,-0.0732193105,1.2706805163\H,1.2090178833,-1.5715658327,
 1.2848818958\H,-0.9444939358,-1.7487677729,-0.0007570295\\Version=ES64
 L-G16RevB.01\State=1-A\HF=-271.4726886\RMSD=2.004e-10\RMSF=2.328e-06\Z
 eroPoint=0.141381\Thermal=0.1488182\Dipole=0.9940364,-0.2924605,-0.000
 1505\DipoleDeriv=0.0337797,0.0267452,0.0000097,0.0292974,0.014003,0.00
 00162,0.0000098,0.0000174,-0.0198543,-0.2456456,-0.0368752,-0.0000056,
 -0.1284945,0.0034267,-0.0000385,-0.0000421,-0.0000408,0.096341,0.01258
 25,0.0012144,-0.0040279,-0.044726,0.014974,0.003963,-0.0387473,-0.0024
 767,0.0372654,0.0125879,0.0012113,0.00403,-0.0447599,0.0149748,-0.0039
 804,0.0387021,0.0024557,0.0372613,1.247007,-0.128195,-0.000084,0.04589
 91,0.8459831,0.0003433,-0.0000025,0.0003485,0.0796371,-1.0417186,0.167
 1797,0.0000898,0.201992,-0.5735312,-0.0001447,0.000103,-0.0001434,-0.2
 630749,0.0422419,0.0471214,-0.072385,0.0125263,0.0187113,0.0234134,-0.
 0713508,0.0646559,-0.0511645,-0.1039851,-0.1017204,-0.000041,-0.045269
 9,0.0038881,-0.0000338,-0.0000145,-0.0000318,0.0789307,0.0422503,0.047
 0485,0.0724238,0.0124579,0.0187921,-0.0233496,0.0713574,-0.0645953,-0.
 0512591,0.0766116,-0.0007829,0.017959,0.0318163,-0.1381312,-0.0383681,
 0.0128186,0.0176584,0.0449482,-0.1005831,-0.0509426,0.0328085,-0.07157
 19,0.0491973,-0.0086913,-0.0044703,-0.021068,0.0512771,0.0259482,0.037
 2113,-0.0801006,0.0358009,0.0565136,0.0562465,-0.0307332,0.0262742,-0.
 0875956,0.0259541,0.0371342,0.0801297,0.035769,0.0565915,-0.0561124,0.
 0307609,-0.0261407,-0.0876811,-0.1005839,-0.0509114,-0.032848,-0.07157
 69,0.0491685,0.0086931,0.0044133,0.0210691,0.0513068,0.0766092,-0.0007
 66,-0.0179617,0.0318318,-0.1381504,0.0381935,-0.0127908,-0.0178309,0.0
 449693,-0.0030562,0.0053275,0.0000033,-0.0309915,-0.2964112,-0.0001501
 ,-0.0000137,-0.0001518,0.0386924\Polar=57.7331433,-2.1658141,56.274260
 6,-0.0011085,0.0025957,50.6382239\Quadrupole=-3.4909087,1.7566515,1.73
 42573,0.6517192,0.0003754,-0.000007\PG=C01 [X(C5H10O1)]\NImag=0\\0.594
 30441,0.00751750,0.49297381,0.00000404,-0.00004896,0.59688364,-0.08360
 738,0.01148677,0.00000523,0.49949378,0.01050706,-0.20100997,-0.0000565
 2,-0.00022943,0.54643544,0.00000479,-0.00005646,-0.08108911,0.00000084
 ,0.00003657,0.46606811,-0.00197442,0.00338694,0.00279917,-0.10235050,0
 .01623401,0.05353284,0.55951200,0.01909248,-0.01556787,-0.02993939,0.0
 1061612,-0.09190750,-0.02271975,0.01554202,0.57520214,0.00156854,-0.00
 506331,-0.00203354,0.03883834,-0.02923704,-0.14755384,0.04600228,-0.03
 249139,0.51328229,-0.00197475,0.00338987,-0.00279601,-0.10235640,0.016
 28571,-0.05352041,0.00877933,-0.00428808,0.01369712,0.55950666,0.01909
 582,-0.01560054,0.02992539,0.01065431,-0.09195678,0.02277184,-0.004275
 67,0.00296621,-0.00775207,0.01558731,0.57514161,-0.00155060,0.00505032
 ,-0.00200031,-0.03883184,0.02928836,-0.14750051,-0.01370374,0.00778782
 ,-0.03474946,-0.04598968,0.03254805,0.51334972,0.00186424,-0.01020252,
 -0.00000456,-0.13983621,-0.05042479,-0.00002213,-0.02253416,0.00179290
 ,0.01323961,-0.02253658,0.00180447,-0.01323635,0.90771901,-0.03631446,
 -0.02381175,-0.00001018,-0.05391053,-0.12718025,-0.00001865,0.01127574
 ,0.00651486,0.00203448,0.01130422,0.00652764,-0.00202683,-0.23628439,0
 .70000625,-0.00001702,-0.00001113,0.00037541,-0.00002353,-0.00001857,-
 0.08386964,0.03054651,0.01164995,-0.00221434,-0.03053495,-0.01164201,-
 0.00222464,-0.00011601,0.00021736,0.22472897,0.00147509,0.00578698,0.0
 0000263,-0.05335634,0.02104012,0.00001073,-0.00395469,-0.00435546,-0.0
 0522710,-0.00395452,-0.00436036,0.00522309,-0.66864091,0.31283549,0.00
 014912,0.73677737,-0.00041831,-0.00078416,0.00000085,0.00155976,0.0193
 4418,-0.00000246,-0.00249338,0.00037867,0.00130504,-0.00249754,0.00037
 761,-0.00130319,0.32011441,-0.29148140,-0.00010620,-0.36039013,0.29122
 487,-0.00000022,0.00000077,-0.00231761,0.00000213,-0.00000273,0.024321
 76,-0.00440421,-0.00243801,-0.00142532,0.00440194,0.00243993,-0.001424
 62,0.00015217,-0.00010605,-0.06533016,-0.00017220,0.00012627,0.0217771
 1,-0.11661185,0.04230321,-0.11110697,-0.00184597,0.00060380,-0.0009343
 7,-0.00003487,-0.00027208,-0.00050592,0.00015661,0.00077653,0.00042904
 ,0.00019393,-0.00081066,0.00083782,-0.00035579,-0.00042158,-0.00000643
 ,0.11978389,0.04094473,-0.07390565,0.06595468,0.01627658,-0.00892716,0
 .02692719,0.00002771,0.00119591,0.00143813,-0.00053503,-0.00671602,-0.
 00119175,0.00214186,-0.00014653,0.00090555,-0.00127130,0.00069950,-0.0
 0036164,-0.04632469,0.08103189,-0.11029076,0.06858072,-0.22778903,0.00
 205287,-0.00067751,0.00027908,0.00060467,-0.00067406,0.00092720,0.0003
 2447,0.00055125,0.00065001,-0.00209195,0.00085160,-0.00000318,0.000645
 60,-0.00165272,0.00047551,0.12018705,-0.07330786,0.23960694,-0.2699948
 5,-0.10245242,-0.00003992,0.00314548,0.00307159,0.00000126,0.00069776,
 0.00048514,-0.00000140,0.00069779,0.00048513,0.00000183,-0.00059233,0.
 00206604,0.00000096,0.00046188,-0.00144207,-0.00000066,-0.01112556,-0.
 00583280,0.00221618,0.28683638,-0.10082038,-0.09372369,-0.00001683,-0.
 03114943,-0.01467634,-0.00000512,-0.00112858,0.00132015,0.00072735,-0.
 00112930,0.00132049,-0.00072608,0.00372932,-0.00703422,-0.00000351,0.0
 0005775,0.00187140,0.00000070,0.00991839,0.00433199,-0.00140986,0.1101
 5112,0.10313290,-0.00003910,-0.00001676,-0.04988671,-0.00001471,-0.000
 00625,-0.00146663,-0.00073769,-0.00032386,0.00004456,0.00073660,0.0003
 2501,0.00004412,0.00000169,-0.00000353,0.00036565,0.00000002,0.0000006
 8,0.00036014,-0.02260328,-0.01249429,0.00229809,0.00004273,0.00002285,
 0.04576065,-0.11659537,0.04219407,0.11113784,-0.00184610,0.00060289,0.
 00093509,0.00015660,0.00077694,-0.00042827,-0.00003486,-0.00027250,0.0
 0050571,0.00019409,-0.00080998,-0.00083863,-0.00035571,-0.00042126,0.0
 0000615,0.00914628,-0.00612782,-0.01356771,-0.01112408,0.00989735,0.02
 261356,0.11976584,0.04083658,-0.07377997,-0.06581353,0.01627652,-0.008
 90266,-0.02693694,-0.00053467,-0.00671663,0.00118484,0.00002820,0.0011
 9664,-0.00143787,0.00213984,-0.00014485,-0.00090572,-0.00127062,0.0006
 9762,0.00036181,-0.00613992,0.00292604,0.00804881,-0.00582981,0.004318
 99,0.01249659,-0.04620681,0.08089493,0.11032048,-0.06843965,-0.2279304
 3,-0.00203747,0.00066896,0.00025464,-0.00032495,-0.00055818,0.00065064
 ,-0.00060457,0.00067435,0.00092649,0.00209386,-0.00085165,-0.00000485,
 -0.00064678,0.00165284,0.00047742,0.01356011,-0.00802958,-0.01716249,-
 0.00222062,0.00141100,0.00230956,-0.12022115,0.07316274,0.23976099,-0.
 00168688,0.00027392,0.00290513,-0.00160616,0.01578298,-0.00156422,-0.0
 4937327,0.01299160,0.00009660,0.00019995,-0.00035786,-0.00078770,-0.00
 023208,0.00310632,-0.00028225,0.00039345,-0.00096407,0.00025150,0.0001
 0510,-0.00035941,0.00007520,0.00021552,0.00024234,0.00006642,0.0002811
 2,0.00103899,0.00029138,0.04846069,0.00142416,0.00054246,-0.00281928,0
 .00104042,-0.00899624,0.00040665,0.01348217,-0.31353174,-0.00383265,-0
 .00024268,0.00054953,0.00091944,-0.00197182,-0.00090607,0.00035702,0.0
 0048369,0.00046709,0.00000131,-0.00013196,0.00024437,0.00010644,-0.000
 05200,0.00030649,0.00015918,-0.00000444,-0.00073557,-0.00004770,-0.016
 00832,0.33570226,0.00288157,-0.00052426,-0.00461086,-0.00056763,-0.026
 36483,0.00051565,-0.00053109,-0.00275505,-0.04958068,0.00006604,-0.001
 32491,0.00135076,-0.00033424,-0.00141263,0.00078688,-0.00017738,0.0005
 4316,-0.00021808,0.00019291,-0.00006168,0.00015187,-0.00008099,0.00023
 314,-0.00006182,0.00033682,-0.00167804,0.00018351,-0.00290729,0.006181
 17,0.05041229,0.00035379,-0.00069793,-0.00066947,-0.01548030,-0.006261
 25,0.00129171,-0.28141085,-0.09196297,-0.00087178,0.00137498,0.0002180
 6,-0.00140225,0.00109402,0.00309051,0.00274694,-0.00127934,-0.00027070
 ,-0.00033646,-0.00009656,-0.00002480,0.00005483,0.00020357,0.00077343,
 0.00022325,0.00033379,0.00007237,-0.00003191,0.00437444,0.00213601,-0.
 00004166,0.30035446,0.00093583,0.00092385,0.00018058,0.01181375,0.0034
 0417,-0.00215363,-0.09202222,-0.08306277,0.00172401,-0.00021332,-0.000
 08400,0.00064368,-0.00101430,-0.00157382,-0.00162816,0.00106567,0.0003
 1773,0.00041425,0.00005630,-0.00006380,0.00005100,-0.00017941,-0.00018
 800,-0.00033635,-0.00014840,0.00010814,0.00015235,-0.02961861,-0.00854
 982,-0.00015644,0.09831207,0.08430679,-0.00026611,0.00119808,0.0007749
 8,0.02731147,0.01073598,-0.00368378,-0.00187814,0.00090534,-0.04611252
 ,0.00121273,0.00060684,0.00188333,-0.00059270,-0.00371884,-0.00528114,
 0.00251135,0.00026280,0.00137820,-0.00010206,-0.00012220,-0.00005590,-
 0.00027810,-0.00049130,0.00011866,-0.00020130,0.00025938,-0.00001136,-
 0.00020898,0.00015748,-0.00091609,-0.00274003,0.00133029,0.04973775,0.
 00057330,-0.00071097,-0.00001259,0.00754324,-0.00585906,0.01415858,-0.
 10882210,0.03943540,-0.10520169,-0.00156717,0.00111499,0.00253606,0.00
 118746,-0.00079107,0.00099911,0.00027881,0.00021507,-0.00030915,0.0000
 6081,0.00010876,-0.00018050,-0.00008026,0.00010259,-0.00014238,-0.0000
 1146,-0.00021236,0.00001350,-0.00069416,-0.00065373,0.00074940,-0.0106
 5504,0.01088209,-0.02354508,0.11135236,-0.00080869,0.00074959,-0.00092
 157,-0.00599332,0.00220295,-0.00838682,0.03929345,-0.07655804,0.070458
 99,0.00112751,-0.00044661,-0.00170937,0.00012660,0.00019093,0.00069510
 ,-0.00029203,-0.00004140,-0.00009287,0.00040165,-0.00018799,-0.0000849
 0,-0.00007043,-0.00004521,-0.00002164,-0.00004494,0.00004408,0.0001910
 8,0.01493468,-0.00638531,0.02598436,-0.00508318,0.00401661,-0.01120434
 ,-0.04368623,0.07562514,-0.00080881,0.00118654,0.00089074,-0.01156807,
 0.00892852,-0.01924923,-0.10375334,0.06896710,-0.23105578,0.00407933,-
 0.00233648,-0.00406309,-0.00263685,0.00030550,-0.00079849,0.00114299,-
 0.00052958,0.00037945,0.00041177,-0.00088069,0.00020477,0.00004620,-0.
 00006789,-0.00004839,0.00018364,0.00010224,0.00037259,0.00184707,-0.00
 116534,0.00255947,0.00161449,-0.00088026,0.00185777,0.10995528,-0.0741
 6862,0.24992011,0.00057334,-0.00071106,0.00001196,0.00754327,-0.005846
 21,-0.01416581,-0.00156759,0.00111754,-0.00253516,-0.10881033,0.039331
 85,0.10523193,0.00118751,-0.00079010,-0.00099987,0.00027877,0.00021478
 ,0.00030932,-0.00001147,-0.00021235,-0.00001367,-0.00008025,0.00010246
 ,0.00014247,0.00006079,0.00010863,0.00018062,-0.00018562,0.00003543,0.
 00005554,0.00025657,0.00018317,-0.00025774,0.00081951,-0.00012084,-0.0
 0084875,0.11134005,-0.00080942,0.00074984,0.00092147,-0.00600372,0.002
 20335,0.00840723,0.00113142,-0.00045039,0.00171266,0.03919120,-0.07642
 609,-0.07031453,0.00012406,0.00019193,-0.00069414,-0.00029093,-0.00004
 201,0.00009246,-0.00004477,0.00004435,-0.00019139,-0.00007037,-0.00004
 530,0.00002165,0.00040203,-0.00018890,0.00008450,-0.00002789,0.0003074
 8,0.00025922,0.00022855,-0.00009960,-0.00015874,-0.00012160,0.00064633
 ,0.00054267,-0.04357786,0.07548468,0.00080806,-0.00118662,0.00089042,0
 .01156096,-0.00890789,-0.01924950,-0.00407842,0.00233982,-0.00405888,0
 .10378352,-0.06882268,-0.23119916,0.00263679,-0.00030446,-0.00079943,-
 0.00114324,0.00052914,0.00037998,-0.00018366,-0.00010252,0.00037232,-0
 .00004628,0.00006788,-0.00004830,-0.00041138,0.00088031,0.00020570,-0.
 00008402,-0.00002195,0.00024557,-0.00012109,0.00011041,0.00036496,0.00
 084850,-0.00054078,-0.00136697,-0.10998867,0.07400578,0.25007252,0.000
 35386,-0.00069863,0.00066884,-0.01548199,-0.00626082,-0.00129686,0.001
 37498,0.00021672,0.00140249,-0.28140919,-0.09196536,0.00079860,0.00109
 393,0.00309330,-0.00274443,-0.00127954,-0.00027103,0.00033634,0.000333
 80,0.00007232,0.00003196,0.00020357,0.00077366,-0.00022255,-0.00009656
 ,-0.00002474,-0.00005485,-0.00003735,0.00005931,-0.00005286,0.00050047
 ,-0.00025869,-0.00070956,0.00025659,0.00022845,0.00012131,-0.01065385,
 -0.00508112,-0.00161854,0.30035321,0.00093556,0.00092514,-0.00018049,0
 .01183949,0.00341233,0.00215963,-0.00021222,-0.00008286,-0.00064551,-0
 .09202563,-0.08306175,-0.00175352,-0.00101479,-0.00157886,0.00163171,0
 .00106803,0.00031840,-0.00041530,-0.00014859,0.00010853,-0.00015223,-0
 .00017965,-0.00018877,0.00033608,0.00005620,-0.00006386,-0.00005102,-0
 .00016585,-0.00008715,0.00002289,-0.00025938,0.00019388,-0.00026336,0.
 00018293,-0.00009964,-0.00011086,0.01085983,0.00400525,0.00088163,0.09
 831106,0.08431084,0.00026700,-0.00119789,0.00077364,-0.02729943,-0.010
 72922,-0.00368998,-0.00121291,-0.00060870,0.00188215,0.00180497,-0.000
 93480,-0.04611527,0.00059129,0.00372212,-0.00527599,-0.00251024,-0.000
 26379,0.00137760,0.00020114,-0.00025927,-0.00001177,0.00027793,0.00049
 097,0.00011942,0.00010212,0.00012220,-0.00005583,0.00004585,-0.0000573
 5,-0.00006579,0.00070926,0.00026406,-0.00054374,0.00025792,0.00015830,
 0.00036497,0.02355601,0.01120683,0.00186787,0.00281826,-0.00130333,0.0
 4973499,-0.00168722,0.00027665,-0.00290499,-0.00160611,0.01578310,0.00
 157919,0.00020002,-0.00035851,0.00078744,-0.04937343,0.01299391,-0.000
 08440,-0.00023202,0.00310616,0.00028522,0.00039346,-0.00096389,-0.0002
 5241,0.00028107,0.00103935,-0.00029042,0.00021551,0.00024239,-0.000066
 22,0.00010508,-0.00035934,-0.00007554,0.00034691,-0.00016677,0.0000002
 0,-0.00003735,-0.00016582,-0.00004601,-0.00018563,-0.00002798,0.000084
 02,-0.00069444,0.01493496,-0.00183279,0.00437468,-0.02961868,0.0001807
 4,0.04846120,0.00142706,0.00053933,0.00282404,0.00103984,-0.00902066,-
 0.00041569,-0.00024269,0.00054917,-0.00092020,0.01348398,-0.31353767,0
 .00358302,-0.00197214,-0.00090707,-0.00035853,0.00048349,0.00046764,-0
 .00000070,-0.00000414,-0.00073720,0.00004684,-0.00005209,0.00030685,-0
 .00015883,-0.00013179,0.00024442,-0.00010635,-0.00016674,0.00041767,0.
 00048973,0.00005926,-0.00008719,0.00005733,0.00003549,0.00030770,0.000
 02200,-0.00065290,-0.00636178,0.00115695,0.00213606,-0.00855000,-0.000
 16479,-0.01601363,0.33571357,-0.00288044,0.00052906,-0.00460736,0.0005
 6852,0.02635502,0.00053991,-0.00006619,0.00132419,0.00135110,0.0005437
 6,0.00250538,-0.04957466,0.00033249,0.00141081,0.00078779,0.00017779,-
 0.00054245,-0.00021856,-0.00033682,0.00167711,0.00018516,0.00008093,-0
 .00023281,-0.00006218,-0.00019303,0.00006178,0.00015185,-0.00000043,-0
 .00048873,-0.00063116,0.00005292,-0.00002290,-0.00006576,-0.00005547,-
 0.00025915,0.00024535,-0.00074961,-0.02599365,0.00253619,0.00004337,0.
 00015095,-0.00091613,0.00289233,-0.00591121,0.05040057,-0.00536531,-0.
 00114239,-0.00000033,0.00164770,-0.02502970,-0.00001124,0.00130176,-0.
 00082976,-0.00086110,0.00130192,-0.00083063,0.00086029,-0.05992990,-0.
 02016659,-0.00000899,-0.00688201,0.04844994,0.00002220,0.00002056,0.00
 007689,0.00024215,0.00031986,-0.00176313,-0.00000083,0.00002055,0.0000
 7713,-0.00024208,-0.00056167,0.00057053,0.00041068,0.00011335,0.000371
 89,-0.00020974,-0.00005626,0.00001531,0.00012973,-0.00005626,0.0000154
 3,-0.00012973,0.00011339,0.00037168,0.00021010,-0.00056175,0.00057092,
 -0.00041012,0.06857404,-0.00354553,0.00077959,-0.00000025,0.00468286,-
 0.01442484,-0.00001360,0.00053596,-0.00024931,-0.00064332,0.00053358,-
 0.00025026,0.00064244,-0.02908872,-0.25866679,-0.00008871,0.02940958,-
 0.02381573,-0.00002019,0.00023851,0.00010176,-0.00008613,-0.00009797,-
 0.00100773,-0.00000053,0.00023846,0.00010158,0.00008631,-0.00070211,0.
 00065456,0.00056416,-0.00033005,0.00043783,0.00044526,-0.00004229,-0.0
 0001913,0.00008516,-0.00004238,-0.00001915,-0.00008501,-0.00033050,0.0
 0043853,-0.00044533,-0.00070192,0.00065524,-0.00056339,-0.00075751,0.2
 9528385,-0.00000142,-0.00000045,0.00167614,0.00000232,-0.00001284,0.01
 537307,-0.00279479,-0.00046582,0.00064643,0.00279513,0.00046493,0.0006
 4728,-0.00001310,-0.00008904,-0.06124284,0.00001363,-0.00002039,0.0200
 0716,-0.00004032,-0.00009117,-0.00012858,-0.00000005,-0.00000049,0.000
 15316,0.00004053,0.00009141,-0.00012842,0.00025574,0.00014432,-0.00012
 151,-0.00047876,0.00030712,0.00055463,-0.00007147,-0.00009777,-0.00021
 329,0.00007145,0.00009797,-0.00021327,0.00047848,-0.00030726,0.0005538
 6,-0.00025637,-0.00014363,-0.00012211,-0.00000100,0.00012312,0.0225582
 9\\0.00000067,-0.00000162,-0.00000010,-0.00000698,0.00000072,-0.000000
 05,0.00000059,-0.00000006,-0.00000026,0.00000054,-0.00000018,0.0000001
 5,0.00001197,-0.00000419,0.00000053,-0.00000511,0.00000385,-0.00000026
 ,-0.00000013,0.00000064,0.00000006,-0.00000007,0.00000031,0.,-0.000000
 09,0.00000069,0.00000002,0.00000004,-0.00000031,-0.00000028,-0.0000002
 9,-0.00000014,0.00000023,0.00000009,-0.00000034,-0.00000022,0.00000011
 ,-0.00000034,0.00000026,-0.00000032,-0.00000008,-0.00000021,0.00000004
 ,-0.00000027,0.00000025,-0.00000105,0.00000133,-0.00000013\\\@


 TO BEHOLD HARMS OF OUR OWN HANDS DOING,
 WHERE NONE BESIDE US WROUGHT,
 CAUSES SHARP RUING...

                                         SOPHOCLES
 File lengths (MBytes):  RWF=     26 Int=      0 D2E=      0 Chk=      2 Scr=      1
 Normal termination of Gaussian 16 at Mon Feb  6 10:19:06 2023.
real 236.99
user 843.70
sys 8.16
