You are running Q-Chem version: 5.3.2

#
# job setting
#
local host:  c163.cluster
current dir: /scratch/user/peterchao1/peterchao1/6959658_1675470061000000297275921
input file:  qchem_test.inp
output file: 
nprocs     : 0
nthreads   : 8
#
# qchem installation setting
#
QC:          /sw/restricted/qchem/sw/5.3.2
QCAUX:       /sw/restricted/qchem/sw/5.3.2/qcaux
QCPROG:      /sw/restricted/qchem/sw/5.3.2/exe/qcprog.exe_s
QCPROG_S:    /sw/restricted/qchem/sw/5.3.2/exe/qcprog.exe_s
PARALLEL:    -DSERIAL
QCMPI:       seq
#
# qchem directory setting
#
qcrun:       qchem17052
QCSCRATCH:   /scratch/user/peterchao1/peterchao1/6959658_1675470061000000297275921
QCLOCALSCR:  
QCTMPDIR:    /scratch/user/peterchao1/peterchao1/6959658_1675470061000000297275921
QCFILEPREF:  /scratch/user/peterchao1/peterchao1/6959658_1675470061000000297275921/qchem17052
QCSAVEDIR:   
workdirs:    /scratch/user/peterchao1/peterchao1/6959658_1675470061000000297275921/qchem17052
workdir0:    /scratch/user/peterchao1/peterchao1/6959658_1675470061000000297275921/qchem17052
partmpdirs =  
#
# parallel setting
#
QCRSH:           ssh
QCMPI:           seq
QCMPIRUN:        
QCMACHINEFILE:   /scratch/user/peterchao1/peterchao1/6959658_1675470061000000297275921/qchem17052/hostfile

#
# env setting
#
exported envs:   QC QCAUX QCSCRATCH QCRUNNAME QCFILEPREF QCPROG QCPROG_S GUIFILE

Running Job 1 of 1 qchem_test.inp
qchem qchem_test.inp_17052.0 /scratch/user/peterchao1/peterchao1/6959658_1675470061000000297275921/qchem17052/ 0
/sw/restricted/qchem/sw/5.3.2/exe/qcprog.exe_s qchem_test.inp_17052.0 /scratch/user/peterchao1/peterchao1/6959658_1675470061000000297275921/qchem17052/
                  Welcome to Q-Chem
     A Quantum Leap Into The Future Of Chemistry


 Q-Chem 5.3, Q-Chem, Inc., Pleasanton, CA (2020)

 License issued to: MRG Daniel Tabor and Mike Hall, Texas A&M University

 Yihan Shao,  Zhengting Gan,  E. Epifanovsky,  A. T. B. Gilbert,  M. Wormit,  
 J. Kussmann,  A. W. Lange,  A. Behn,  Jia Deng,  Xintian Feng,  D. Ghosh,  
 M. Goldey,  P. R. Horn,  L. D. Jacobson,  I. Kaliman,  T. Kus,  A. Landau,  
 Jie Liu,  E. I. Proynov,  R. M. Richard,  R. P. Steele,  E. J. Sundstrom,  
 H. L. Woodcock III,  P. M. Zimmerman,  D. Zuev,  B. Alam,  B. Albrecht,  
 A. Aldossary,  E. Alguire,  S. A. Baeppler,  D. Barton,  Z. Benda,  
 Y. A. Bernard,  E. J. Berquist,  K. B. Bravaya,  H. Burton,  K. Carter-Fenk,  
 D. Casanova,  Chun-Min Chang,  Yunqing Chen,  A. Chien,  K. D. Closser,  
 M. P. Coons,  S. Coriani,  S. Dasgupta,  A. L. Dempwolff,  M. Diedenhofen,  
 Hainam Do,  R. G. Edgar,  Po-Tung Fang,  S. Faraji,  S. Fatehi,  
 Qingguo Feng,  J. Fosso-Tande,  J. Gayvert,  Qinghui Ge,  A. Ghysels,  
 G. Gidofalvi,  J. Gomes,  J. Gonthier,  S. Gulania,  A. Gunina,  D. Hait,  
 M. W. D. Hanson-Heine,  S. Hammes-Schiffer,  P. H. P. Harbach,  
 A. W. Hauser,  M. F. Herbst,  J. E. Herr,  E. G. Hohenstein,  Z. C. Holden,  
 S. Houck,  Kerwin Hui,  B. C. Huynh,  M. Ivanov,  T.-C. Jagau,  Hyunjun Ji,  
 B. Kaduk,  K. Khistyaev,  Jaehoon Kim,  P. Klunzinger,  K. Koh,  
 D. Kosenkov,  L. Koulias,  T. Kowalczyk,  C. M. Krauter,  A. Kunitsa,  
 Ka Un Lao,  A. Laurent,  K. V. Lawler,  Joonho Lee,  D. Lefrancois,  
 S. Lehtola,  D. S. Levine,  Yi-Pei Li,  You-Sheng Lin,  Fenglai Liu,  
 Kuan-Yu Liu,  E. Livshits,  M. Loipersberger,  A. Luenser,  A. Manjanath,  
 P. Manohar,  E. Mansoor,  S. F. Manzer,  Shan-Ping Mao,  Yuezhi Mao,  
 N. Mardirossian,  A. V. Marenich,  T. Markovich,  L. A. Martinez-Martinez,  
 S. A. Maurer,  N. J. Mayhall,  S. C. McKenzie,  J.-M. Mewes,  P. Morgante,  
 A. F. Morrison,  J. W. Mullinax,  K. Nanda,  T. S. Nguyen-Beck,  
 R. Olivares-Amaya,  K. J. Oosterbaan,  J. A. Parkhill,  S. K. Paul,  
 F. Pavosevic,  Zheng Pei,  T. M. Perrine,  F. Plasser,  P. Pokhilko,  
 S. Prager,  A. Prociuk,  E. Ramos,  B. Rana,  D. R. Rehn,  F. Rob,  
 E. Rossomme,  M. Scheurer,  M. Schneider,  N. Sergueev,  S. M. Sharada,  
 S. Sharma,  W. Skomorowski,  D. W. Small,  T. Stauch,  C. J. Stein,  
 T. Stein,  Yu-Chuan Su,  S. P. Veccham,  Zhen Tao,  A. J. W. Thom,  
 A. Tkatchenko,  T. Tsuchimochi,  N. M. Tubman,  L. Vogt,  M. L. Vidal,  
 O. Vydrov,  M. A. Watson,  J. Wenzel,  M. de Wergifosse,  T. A. Wesolowski,  
 A. White,  J. Witte,  A. Yamada,  Jun Yang,  K. Yao,  S. Yeganeh,  
 S. R. Yost,  Zhi-Qiang You,  A. Zech,  Igor Ying Zhang,  Xing Zhang,  
 Yan Zhao,  Ying Zhu,  B. R. Brooks,  G. K. L. Chan,  C. J. Cramer,  
 M. S. Gordon,  W. J. Hehre,  A. Klamt,  M. W. Schmidt,  C. D. Sherrill,  
 D. G. Truhlar,  A. Aspuru-Guzik,  R. Baer,  A. T. Bell,  N. A. Besley,  
 Jeng-Da Chai,  A. E. DePrince, III,  R. A. DiStasio Jr.,  A. Dreuw,  
 B. D. Dunietz,  T. R. Furlani,  Chao-Ping Hsu,  Yousung Jung,  Jing Kong,  
 D. S. Lambrecht,  WanZhen Liang,  C. Ochsenfeld,  V. A. Rassolov,  
 L. V. Slipchenko,  J. E. Subotnik,  T. Van Voorhis,  J. M. Herbert,  
 A. I. Krylov,  P. M. W. Gill,  M. Head-Gordon

 Contributors to earlier versions of Q-Chem not listed above: 
 R. D. Adamson,  B. Austin,  J. Baker,  G. J. O. Beran,  K. Brandhorst,  
 S. T. Brown,  E. F. C. Byrd,  A. K. Chakraborty,  C.-L. Cheng,  
 Siu Hung Chien,  D. M. Chipman,  D. L. Crittenden,  H. Dachsel,  
 R. J. Doerksen,  A. D. Dutoi,  L. Fusti-Molnar,  W. A. Goddard III,  
 A. Golubeva-Zadorozhnaya,  S. R. Gwaltney,  G. Hawkins,  A. Heyden,  
 S. Hirata,  G. Kedziora,  F. J. Keil,  C. Kelley,  Jihan Kim,  R. A. King,  
 R. Z. Khaliullin,  P. P. Korambath,  W. Kurlancheek,  A. M. Lee,  M. S. Lee,  
 S. V. Levchenko,  Ching Yeh Lin,  D. Liotard,  R. C. Lochan,  I. Lotan,  
 P. E. Maslen,  N. Nair,  D. P. O'Neill,  D. Neuhauser,  E. Neuscamman,  
 C. M. Oana,  R. Olson,  B. Peters,  R. Peverati,  P. A. Pieniazek,  
 Y. M. Rhee,  J. Ritchie,  M. A. Rohrdanz,  E. Rosta,  N. J. Russ,  
 H. F. Schaefer III,  N. E. Schultz,  N. Shenvi,  A. C. Simmonett,  A. Sodt,  
 D. Stuck,  K. S. Thanthiriwatte,  V. Vanovschi,  Tao Wang,  A. Warshel,  
 C. F. Williams,  Q. Wu,  X. Xu,  W. Zhang

 Please cite Q-Chem as follows:
 Y. Shao et al., Mol. Phys. 113, 184-215 (2015)
 DOI: 10.1080/00268976.2014.952696

 Q-Chem 5.3.2 for Intel X86 EM64T Linux

 Parts of Q-Chem use Armadillo 9.800.1 (Horizon Scraper).
 http://arma.sourceforge.net/

 Q-Chem begins on Fri Feb  3 18:21:17 2023  

Host: 
0

     Scratch files written to /scratch/user/peterchao1/peterchao1/6959658_1675470061000000297275921/qchem17052//
 Dec820 |scratch|qcdevops|jenkins|workspace|build_RNUM -1
Processing $rem in /sw/restricted/qchem/sw/5.3.2/config/preferences:
Processing $rem in /home/peterchao1/.qchemrc:

 Q-Chem warning in module libgen/rem_setup.C, line 2945:

 Neither GIA nor STOLL is specified by user. Use STOLL as the default


Checking the input file for inconsistencies... 	...done.

--------------------------------------------------------------
User input:
--------------------------------------------------------------
$molecule
0 1
--
0 1
C       -1.813675    0.535129    0.543188
C       -1.813413   -0.535258   -0.543153
H       -1.806188    0.084626    1.550948
H       -2.707410    1.179254    0.473359
H       -0.926930    1.187552    0.463502
H       -2.707544   -1.178926   -0.474188
H       -0.927082   -1.188133   -0.462592
H       -1.804686   -0.084757   -1.550902
--
0 1
C        1.813295    0.543524   -0.534922
C        1.813787   -0.543398    0.534883
H        0.927207    0.462923   -1.188144
H        2.707660    0.475364   -1.178350
H        1.803942    1.551016   -0.083856
H        1.807048   -1.550916    0.083828
H        0.926776   -0.464597    1.187054
H        2.707249   -0.473386    1.179367
$end

$rem
JOBTYPE           eda
EDA2              2
METHOD            wB97x-D
BASIS             def2-SV(P)
SCF_CONVERGENCE   8
THRESH            14
SYMMETRY          false
DISP_FREE_X       wB97X-D
DISP_FREE_C       none
EDA_BSSE          true
$end
--------------------------------------------------------------
 ----------------------------------------------------------------
             Standard Nuclear Orientation (Angstroms)
    I     Atom           X                Y                Z
 ----------------------------------------------------------------
    1      C       1.8136752275    -0.5349115371     0.5434018374
    2      C       1.8134131058     0.5350410318    -0.5433670425
    3      H       1.8061881933    -0.0840056468     1.5509816349
    4      H       2.7074102924    -1.1790643138     0.4738303695
    5      H       0.9269302931    -1.1873664357     0.4639767088
    6      H       2.7075440410     1.1787366453    -0.4746594126
    7      H       0.9270820402     1.1879480995    -0.4630670739
    8      H       1.8046861400     0.0841371443    -1.5509358406
    9      C      -1.8132947842    -0.5437379607    -0.5347046775
   10      C      -1.8137868825     0.5436116865     0.5346656591
   11      H      -0.9272068000    -0.4633980509    -1.1879588619
   12      H      -2.7076597986    -0.4758353155    -1.1781598677
   13      H      -1.8039416762    -1.5510495320    -0.0832358938
   14      H      -1.8070479904     1.5509492639     0.0832078648
   15      H      -0.9267758669     0.4650715371     1.1868681032
   16      H      -2.7072488679     0.4738572815     1.1791776105
 ----------------------------------------------------------------
 Molecular Point Group                 C1    NOp =  1
 Largest Abelian Subgroup              C1    NOp =  1
 Nuclear Repulsion Energy =         128.91862787 hartrees
 There are       18 alpha and       18 beta electrons
 Requested basis set is def2-SV(P)
 There are 48 shells and 80 basis functions

 Total QAlloc Memory Limit   7500 MB
 Mega-Array Size       188 MB
 MEM_STATIC part       192 MB
 A cutoff of  1.0D-14 yielded   1160 shell pairs
 There are      3256 function pairs (      3598 Cartesian)
 Smallest overlap matrix eigenvalue = 4.60E-03

 Scale SEOQF with 1.000000e-01/1.000000e-01/1.000000e-01

 Standard Electronic Orientation quadrupole field applied
 Nucleus-field energy     =     0.0000000038 hartrees

 -----------------------------------------------------------------------
  General SCF calculation program by
  Eric Jon Sundstrom, Paul Horn, Yuezhi Mao, Dmitri Zuev, Alec White,
  David Stuck, Shaama M.S., Shane Yost, Joonho Lee, David Small,
  Daniel Levine, Susi Lehtola, Hugh Burton, Evgeny Epifanovsky,
  Bang C. Huynh
 -----------------------------------------------------------------------
================================================================
                 ALMO-EDA with the EDA2 driver                  
================================================================
 The second-generation ALMO-EDA (for DFT):                      
 P. R. Horn, Y. Mao and M. Head-Gordon, PCCP, 18, 23067 (2016)  
 Decomposition of the frozen energy:                            
 P. R. Horn, Y. Mao and M. Head-Gordon, JCP, 144, 114107 (2016) 
Using eda2 option set 2
Option set summary: Frozen orbital wavefunction, initial wavefunction decomposition, and traditional AO-based POL.
--------------------------------
Printing EDA Options
--------------------------------
eda_child_super_basis      0
fragmo_guess_mode          0
child_mp                   0
child_mp_orders            0
cls_elec                   1
cls_disp                   0
scfmi_mode                 1
scfmi_occs                 0
scfmi_virts                0
frz_relax                  0
frz_relax_method           0
dc_pen_start               0
dc_pen_conv                0
dc_pen_increment           0
dc_pen_steps               0
dc_pen_thresh_factor       0
dc_pen_pre_newton_thresh   0
frz_ortho_decomp           1
frz_ortho_decomp_conv      6
plot_mo_ortho_frz          0
frgm_method                2
scfmi_freeze_ss            0
separate_rehyb             0
plot_diff_den              0
eda_nocv                   0
eda_vct_relax              1
disp_free_x                -110
disp_free_c                0
eda_bsse                   1
eda_pct_a                  0
eda_covp                   0
--------------------------------
Attempting to make child job directory: /scratch/user/peterchao1/peterchao1/6959658_1675470061000000297275921/qchem17052//Frg1/
Attempting to make child job directory: /scratch/user/peterchao1/peterchao1/6959658_1675470061000000297275921/qchem17052//Frg2/
Creating input file /scratch/user/peterchao1/peterchao1/6959658_1675470061000000297275921/qchem17052/Frg1.input
using default PutDataFrgm: nothing
calling putenv with: QCSCRATCH=/scratch/user/peterchao1/peterchao1/6959658_1675470061000000297275921/qchem17052/ 
Spawning Job For Fragment 0
Done Job For Fragment 0
calling putenv with: QCSCRATCH=/scratch/user/peterchao1/peterchao1/6959658_1675470061000000297275921 
calling putenv with: QCTHREADS=8 
Creating input file /scratch/user/peterchao1/peterchao1/6959658_1675470061000000297275921/qchem17052/Frg2.input
using default PutDataFrgm: nothing
calling putenv with: QCSCRATCH=/scratch/user/peterchao1/peterchao1/6959658_1675470061000000297275921/qchem17052/ 
Spawning Job For Fragment 1
Done Job For Fragment 1
calling putenv with: QCSCRATCH=/scratch/user/peterchao1/peterchao1/6959658_1675470061000000297275921 
calling putenv with: QCTHREADS=8 
Doing General SCFMI
 Exchange:     0.2220 Hartree-Fock + 1.0000 wB97X-D + LR-HF
 Correlation:  1.0000 wB97X-D
 Using SG-2 standard quadrature grid
 Dispersion:   Grimme D
performing fock build before subrot guess so that all methods have access
Printing subrot_rss_gen Method Specification:
Occupied Subspace Method is 0
Virtual Subspace Method is 0
Energy of the unrelaxed supersystem initial determinant -159.464172837758
write pseudocanon occs and virts to disk
write pseudocanon orbital energies to disk
Tolerance of ortho_decomp_scf: 1.00e-06
GDM subspace size: 20
Beginning the Orthogonal Decomposition of the Initial Supersystem Wavefunction
    1    -159.4539771873      3.40e-02     ortho_decomp Preconditoned Steepest Descent
    2    -159.4544675615      5.68e-04     ortho_decomp BFGS Step
    3    -159.4544682978      4.51e-05     ortho_decomp BFGS Step
    4    -159.4544683012      1.97e-06     ortho_decomp BFGS Step
    5    -159.4544683012      4.92e-08     ortho_decomp 00000 Convergence criterion met
 Exchange:     0.2220 Hartree-Fock + 1.0000 wB97X-D + LR-HF
 Correlation:  1.0000 wB97X-D
 Using SG-2 standard quadrature grid
 Dispersion:   Grimme D
 Long-range K will be added via erf
 Coulomb attenuation parameter = 0.2 bohr**(-1)
 Exchange:     0.2220 Hartree-Fock + 1.0000 wB97X-D + LR-HF
 Correlation:  1.0000 wB97X-D
 Using SG-2 standard quadrature grid
 Dispersion:   Grimme D
 Long-range K will be added via erf
 Coulomb attenuation parameter = 0.2 bohr**(-1)
 Exchange:     0.2220 Hartree-Fock + 1.0000 wB97X-D + LR-HF
 Correlation:  1.0000 wB97X-D
 Using SG-2 standard quadrature grid
 Dispersion:   Grimme D
 Long-range K will be added via erf
 Coulomb attenuation parameter = 0.2 bohr**(-1)
Doing General SCFMI
 Exchange:     0.2220 Hartree-Fock + 1.0000 wB97X-D + LR-HF
 Correlation:  1.0000 wB97X-D
 Using SG-2 standard quadrature grid
 Dispersion:   Grimme D
performing fock build at end of subrot_r(subrot) constructor so that all methods have access
<S^2> of initial wavefunction before polarization iterations 0.0000000000
Beginning iterations for the determination of the polarized wavefunction
Energy prior to optimization (guess energy) = -159.464172837758
Begin Timing: Total SCF Calculation
begin iterations for algorithm: DIIS         
the SCF tolerance is set to 1.00e-08
    1    -159.4641728378      1.18e-04     00000 
    2    -159.4642083774      3.36e-05     00000 
    3    -159.4642101964      1.97e-05     00000 
    4    -159.4642109060      2.47e-06     00000 
    5    -159.4642109219      4.92e-07     00000 
    6    -159.4642109230      8.39e-08     00000 
    7    -159.4642109230      1.30e-08     00000 
    8    -159.4642109230      1.60e-09     00000 Convergence criterion met
write pseudocanon occs and virts to disk
write pseudocanon orbital energies to disk
Timing for Total SCF: 5.00s (wall), 22.96s (cpu)
<S^2> of polarized wavefunction after polarization iterations 0.0000000000
relaxing scfmi constraint to allow all rotations in the entire AO span
Doing General SCFMI
 Exchange:     0.2220 Hartree-Fock + 1.0000 wB97X-D + LR-HF
 Correlation:  1.0000 wB97X-D
 Using SG-2 standard quadrature grid
 Dispersion:   Grimme D
performing fock build at end of subrot_r(subrot) constructor so that all methods have access
<S^2> of polarized wavefunction before ct-allowed iterations 0.0000000000
Beginning iterations for the determination of the CT-Allowed wavefunction
Energy prior to optimization (guess energy) = -159.464210922995
Begin Timing: Total SCF Calculation
begin iterations for algorithm: DIIS         
the SCF tolerance is set to 1.00e-08
    1    -159.4642109230      4.75e-04     00000 
    2    -159.4653414565      6.90e-05     00000 
    3    -159.4653846183      8.96e-06     00000 
    4    -159.4653854422      1.98e-06     00000 
    5    -159.4653854594      7.60e-07     00000 
    6    -159.4653854618      1.96e-07     00000 
    7    -159.4653854620      1.86e-08     00000 
    8    -159.4653854620      1.72e-09     00000 Convergence criterion met
write pseudocanon occs and virts to disk
write pseudocanon orbital energies to disk
Timing for Total SCF: 6.00s (wall), 23.47s (cpu)
<S^2> of ct_allowed wavefunction after ct-allowed iterations 0.0000000000
Attempting to make child job directory: /scratch/user/peterchao1/peterchao1/6959658_1675470061000000297275921/qchem17052//FrgBSSE1/
Attempting to make child job directory: /scratch/user/peterchao1/peterchao1/6959658_1675470061000000297275921/qchem17052//FrgBSSE2/
Creating input file /scratch/user/peterchao1/peterchao1/6959658_1675470061000000297275921/qchem17052/FrgBSSE1.input
calling putenv with: QCSCRATCH=/scratch/user/peterchao1/peterchao1/6959658_1675470061000000297275921/qchem17052/ 
Spawning Job For Fragment 0
Done Job For Fragment 0
calling putenv with: QCSCRATCH=/scratch/user/peterchao1/peterchao1/6959658_1675470061000000297275921 
calling putenv with: QCTHREADS=8 
Creating input file /scratch/user/peterchao1/peterchao1/6959658_1675470061000000297275921/qchem17052/FrgBSSE2.input
calling putenv with: QCSCRATCH=/scratch/user/peterchao1/peterchao1/6959658_1675470061000000297275921/qchem17052/ 
Spawning Job For Fragment 1
Done Job For Fragment 1
calling putenv with: QCSCRATCH=/scratch/user/peterchao1/peterchao1/6959658_1675470061000000297275921 
calling putenv with: QCTHREADS=8 
====================================================================
   Evaluating the BSSE with fragment SCF in the supersystem basis
   Fragment contributions (kJ/mol) 
   Frgm 1: 0.8369
   Frgm 2: 0.8371
   BSSE (kJ/mol) = 1.6740
====================================================================

================================
        Results of EDA2         
================================
Basic EDA Quantities
--------------------
Fragment Energies (Ha):
1  -79.7311983002
2  -79.7311987941
--------------------
  E_prp (kJ/mol) = -0.0000
  E_frz (kJ/mol) = -4.6623
  E_pol (kJ/mol) = -0.1000
  E_vct (kJ/mol) = -1.4098 (CP-corrected)
  E_int (kJ/mol) = -6.1720 (CP-corrected)
--------------------


Decomposition of frozen interaction energy
--------------------
  --------------------
  Orthogonal Frozen Decomposition:
  --------------------
     E_elec   (ELEC)   (kJ/mol) = -8.7878
     E_pauli  (PAULI)  (kJ/mol) = 13.6592
     E_disp   (DISP)   (kJ/mol) = -9.5336
  --------------------
  Classical Frozen Decomposition:
  --------------------
     E_cls_elec  (CLS ELEC)  (kJ/mol) = -2.6512
     E_mod_pauli (MOD PAULI) (kJ/mol) = 7.5226 (FRZ - CLS ELEC - DISP)
     E_disp      (DISP)      (kJ/mol) = -9.5336
  --------------------
--------------------

Simplified EDA Summary (kJ/mol)
--------------------
 PREPARATION      -0.0000
 FROZEN           -4.6623 (ELEC + PAULI + DISP)
[ELEC + PAULI = 4.8714, DISP = -9.5336]
 POLARIZATION    -0.1000
 CHARGE TRANSFER -1.4098     (counterpoise-corrected)
 TOTAL           -6.1720     (PRP + FRZ + POL + CT)
--------------------
 
 --------------------------------------------------------------
 
                    Orbital Energies (a.u.)
 --------------------------------------------------------------
 
 Alpha MOs
 -- Occupied --
-10.2803 -10.2803 -10.2802 -10.2802  -0.8456  -0.8391  -0.7000  -0.7000
 -0.5337  -0.5203  -0.5203  -0.5060  -0.4527  -0.4510  -0.4250  -0.4225
 -0.4225  -0.4209
 -- Virtual --
  0.1293   0.1703   0.1773   0.1773   0.2080   0.2160   0.2160   0.2360
  0.2476   0.2551   0.2551   0.2585   0.3168   0.3168   0.4833   0.5119
  0.5162   0.5162   0.5216   0.5819   0.6444   0.6680   0.6681   0.7044
  0.7212   0.7212   0.7671   0.7845   0.7937   0.8026   0.8026   0.8149
  0.8149   0.8312   0.8455   0.8632   0.8878   0.8879   0.9075   0.9225
  1.1139   1.1140   1.5950   1.5952   1.5952   1.5984   1.9712   1.9750
  2.0269   2.0391   2.0423   2.0423   2.2504   2.2516   2.2516   2.2982
  2.3511   2.3534   2.3535   2.3548   2.6386   2.6386
 --------------------------------------------------------------
 
          Ground-State Mulliken Net Atomic Charges

     Atom                 Charge (a.u.)
  ----------------------------------------
      1 C                    -0.368887
      2 C                    -0.368889
      3 H                     0.121237
      4 H                     0.120886
      5 H                     0.126752
      6 H                     0.120885
      7 H                     0.126746
      8 H                     0.121259
      9 C                    -0.368897
     10 C                    -0.368887
     11 H                     0.126747
     12 H                     0.120889
     13 H                     0.121269
     14 H                     0.121237
     15 H                     0.126765
     16 H                     0.120887
  ----------------------------------------
  Sum of atomic charges =     0.000000

 -----------------------------------------------------------------
                    Cartesian Multipole Moments
 -----------------------------------------------------------------
    Charge (ESU x 10^10)
                 0.0000
    Dipole Moment (Debye)
         X      -0.0001      Y      -0.0000      Z      -0.0000
       Tot       0.0001
    Quadrupole Moments (Debye-Ang)
        XX     -29.4947     XY       0.0003     YY     -30.1904
        XZ       0.0001     YZ       0.0001     ZZ     -30.1895
    Octopole Moments (Debye-Ang^2)
       XXX      -0.0005    XXY      -0.0006    XYY       0.0749
       YYY      -0.0001    XXZ      -0.0010    XYZ       1.2509
       YYZ       0.0001    XZZ      -0.0753    YZZ      -0.0000
       ZZZ      -0.0001
    Hexadecapole Moments (Debye-Ang^3)
      XXXX    -639.1538   XXXY       0.0075   XXYY    -128.0897
      XYYY      -0.0057   YYYY    -118.6834   XXXZ       0.0009
      XXYZ       0.0010   XYYZ       0.0011   YYYZ      -1.2842
      XXZZ    -128.0766   XYZZ       0.0032   YYZZ     -41.7738
      XZZZ      -0.0009   YZZZ       1.2833   ZZZZ    -118.6133
 -----------------------------------------------------------------
Archival summary:
1\1\c163.cluster\SP\ProcedureUnspecified\BasisUnspecified\412\petercha\FriFeb318:22:262023FriFeb318:22:262023\0\\#,ProcedureUnspecified,BasisUnspecified,\\0,1\C\H,1,1.10379\H,1,1.10387,2,107.515\H,1,1.1039,2,107.557,3,115.552,0\C,1,1.52508,2,111.306,3,-122.24,0\H,5,1.10378,1,111.305,2,-60.891,0\H,5,1.10387,1,111.383,2,179.136,0\H,5,1.1039,1,111.337,2,59.1068,0\H,6,2.58488,5,100.328,1,69.9955,0\C,9,1.10377,6,117.189,5,-129.999,0\H,10,1.10387,9,107.516,6,-131.923,0\H,10,1.1039,9,107.558,6,112.524,0\C,10,1.52508,9,111.302,6,-9.68446,0\H,13,1.10378,10,111.303,9,60.8961,0\H,13,1.10387,10,111.384,9,-179.129,0\H,13,1.1039,10,111.337,9,-59.1006,0\\\@

 Total job time:  69.80s(wall), 105.21s(cpu) 
 Fri Feb  3 18:22:26 2023

        *************************************************************
        *                                                           *
        *  Thank you very much for using Q-Chem.  Have a nice day.  *
        *                                                           *
        *************************************************************


remove work dirs /scratch/user/peterchao1/peterchao1/6959658_1675470061000000297275921/qchem17052.0 -- /scratch/user/peterchao1/peterchao1/6959658_1675470061000000297275921/qchem17052.-1
rm -rf /scratch/user/peterchao1/peterchao1/6959658_1675470061000000297275921/qchem17052
real 85.64
user 195.04
sys 35.63
