 Entering Gaussian System, Link 0=g16
 Input=gaussian_test.inp
 Output=gaussian_test.log
 Initial command:
 /sw/restricted/lms/sw/Gaussian/g16_B01/g16/l1.exe "/scratch/user/peterchao1/peterchao1/7003910_1675700107000000752042381/Gau-55663.inp" -scrdir="/scratch/user/peterchao1/peterchao1/7003910_1675700107000000752042381/"
 Entering Link 1 = /sw/restricted/lms/sw/Gaussian/g16_B01/g16/l1.exe PID=     55664.
  
 Copyright (c) 1988-2017, Gaussian, Inc.  All Rights Reserved.
  
 This is part of the Gaussian(R) 16 program.  It is based on
 the Gaussian(R) 09 system (copyright 2009, Gaussian, Inc.),
 the Gaussian(R) 03 system (copyright 2003, Gaussian, Inc.),
 the Gaussian(R) 98 system (copyright 1998, Gaussian, Inc.),
 the Gaussian(R) 94 system (copyright 1995, Gaussian, Inc.),
 the Gaussian 92(TM) system (copyright 1992, Gaussian, Inc.),
 the Gaussian 90(TM) system (copyright 1990, Gaussian, Inc.),
 the Gaussian 88(TM) system (copyright 1988, Gaussian, Inc.),
 the Gaussian 86(TM) system (copyright 1986, Carnegie Mellon
 University), and the Gaussian 82(TM) system (copyright 1983,
 Carnegie Mellon University). Gaussian is a federally registered
 trademark of Gaussian, Inc.
  
 This software contains proprietary and confidential information,
 including trade secrets, belonging to Gaussian, Inc.
  
 This software is provided under written license and may be
 used, copied, transmitted, or stored only in accord with that
 written license.
  
 The following legend is applicable only to US Government
 contracts under FAR:
  
                    RESTRICTED RIGHTS LEGEND
  
 Use, reproduction and disclosure by the US Government is
 subject to restrictions as set forth in subparagraphs (a)
 and (c) of the Commercial Computer Software - Restricted
 Rights clause in FAR 52.227-19.
  
 Gaussian, Inc.
 340 Quinnipiac St., Bldg. 40, Wallingford CT 06492
  
  
 ---------------------------------------------------------------
 Warning -- This program may not be used in any manner that
 competes with the business of Gaussian, Inc. or will provide
 assistance to any competitor of Gaussian, Inc.  The licensee
 of this program is prohibited from giving any competitor of
 Gaussian, Inc. access to this program.  By using this program,
 the user acknowledges that Gaussian, Inc. is engaged in the
 business of creating and licensing software in the field of
 computational chemistry and represents and warrants to the
 licensee that it is not a competitor of Gaussian, Inc. and that
 it will not use this program in any manner prohibited above.
 ---------------------------------------------------------------
  

 Cite this work as:
 Gaussian 16, Revision B.01,
 M. J. Frisch, G. W. Trucks, H. B. Schlegel, G. E. Scuseria, 
 M. A. Robb, J. R. Cheeseman, G. Scalmani, V. Barone, 
 G. A. Petersson, H. Nakatsuji, X. Li, M. Caricato, A. V. Marenich, 
 J. Bloino, B. G. Janesko, R. Gomperts, B. Mennucci, H. P. Hratchian, 
 J. V. Ortiz, A. F. Izmaylov, J. L. Sonnenberg, D. Williams-Young, 
 F. Ding, F. Lipparini, F. Egidi, J. Goings, B. Peng, A. Petrone, 
 T. Henderson, D. Ranasinghe, V. G. Zakrzewski, J. Gao, N. Rega, 
 G. Zheng, W. Liang, M. Hada, M. Ehara, K. Toyota, R. Fukuda, 
 J. Hasegawa, M. Ishida, T. Nakajima, Y. Honda, O. Kitao, H. Nakai, 
 T. Vreven, K. Throssell, J. A. Montgomery, Jr., J. E. Peralta, 
 F. Ogliaro, M. J. Bearpark, J. J. Heyd, E. N. Brothers, K. N. Kudin, 
 V. N. Staroverov, T. A. Keith, R. Kobayashi, J. Normand, 
 K. Raghavachari, A. P. Rendell, J. C. Burant, S. S. Iyengar, 
 J. Tomasi, M. Cossi, J. M. Millam, M. Klene, C. Adamo, R. Cammi, 
 J. W. Ochterski, R. L. Martin, K. Morokuma, O. Farkas, 
 J. B. Foresman, and D. J. Fox, Gaussian, Inc., Wallingford CT, 2016.
 
 ******************************************
 Gaussian 16:  ES64L-G16RevB.01 20-Dec-2017
                 6-Feb-2023 
 ******************************************
 %nprocshared=4
 Will use up to    4 processors via shared memory.
 %mem=8000mb
 %chk=34.chk
 %nprocshared=4
 Will use up to    4 processors via shared memory.
 %mem=8000mb
 ----------------------------------------------------------------------
 #T wB97XD/def2svpp opt=tight freq int(grid=ultrafine) scf=(verytight,q
 c) Volume=tight
 ----------------------------------------------------------------------
 -------
 Monomer
 -------
 Symbolic Z-matrix:
 Charge =  0 Multiplicity = 1
 C                    -2.83625  -0.56586   0.00809 
 C                    -1.36127  -0.84662  -0.27051 
 C                    -0.39183   0.32864  -0.00776 
 C                    -0.58828   1.37711  -1.11153 
 C                    -0.74159   0.99236   1.33099 
 C                     1.09     -0.18943   0.0051 
 C                     1.36918  -1.14636  -1.16311 
 C                     2.09134   0.96918  -0.11196 
 C                     1.41002  -0.94038   1.30559 
 H                    -3.01716  -0.39586   1.06568 
 H                    -3.42803  -1.42672  -0.29803 
 H                    -3.19427   0.29694  -0.54767 
 H                    -1.26862  -1.1435   -1.31615 
 H                    -1.06986  -1.7001    0.3435 
 H                    -1.64332   1.61909  -1.21106 
 H                    -0.23867   1.01379  -2.07433 
 H                    -0.06208   2.29717  -0.87443 
 H                    -1.67459   1.5424    1.23972 
 H                     0.02687   1.70044   1.62922 
 H                    -0.85559   0.25455   2.12012 
 H                     1.06712  -0.71599  -2.11411 
 H                     0.85681  -2.09514  -1.03277 
 H                     2.43709  -1.34978  -1.21566 
 H                     1.89301   1.74976   0.61749 
 H                     2.07235   1.40842  -1.10514 
 H                     3.09782   0.59618   0.06804 
 H                     0.67543  -1.71295   1.51651 
 H                     1.45146  -0.26178   2.15262 
 H                     2.38172  -1.42235   1.21632 
 

 GradGradGradGradGradGradGradGradGradGradGradGradGradGradGradGradGradGrad
 Initialization pass.
                           ----------------------------
                           !    Initial Parameters    !
                           ! (Angstroms and Degrees)  !
 --------------------------                            --------------------------
 ! Name  Definition              Value          Derivative Info.                !
 --------------------------------------------------------------------------------
 ! R1    R(1,2)                  1.5271         estimate D2E/DX2                !
 ! R2    R(1,10)                 1.0863         estimate D2E/DX2                !
 ! R3    R(1,11)                 1.0886         estimate D2E/DX2                !
 ! R4    R(1,12)                 1.087          estimate D2E/DX2                !
 ! R5    R(2,3)                  1.546          estimate D2E/DX2                !
 ! R6    R(2,13)                 1.0909         estimate D2E/DX2                !
 ! R7    R(2,14)                 1.091          estimate D2E/DX2                !
 ! R8    R(3,4)                  1.535          estimate D2E/DX2                !
 ! R9    R(3,5)                  1.5346         estimate D2E/DX2                !
 ! R10   R(3,6)                  1.5698         estimate D2E/DX2                !
 ! R11   R(4,15)                 1.087          estimate D2E/DX2                !
 ! R12   R(4,16)                 1.0868         estimate D2E/DX2                !
 ! R13   R(4,17)                 1.0861         estimate D2E/DX2                !
 ! R14   R(5,18)                 1.0869         estimate D2E/DX2                !
 ! R15   R(5,19)                 1.0867         estimate D2E/DX2                !
 ! R16   R(5,20)                 1.0863         estimate D2E/DX2                !
 ! R17   R(6,7)                  1.5357         estimate D2E/DX2                !
 ! R18   R(6,8)                  1.5358         estimate D2E/DX2                !
 ! R19   R(6,9)                  1.5355         estimate D2E/DX2                !
 ! R20   R(7,21)                 1.0867         estimate D2E/DX2                !
 ! R21   R(7,22)                 1.0861         estimate D2E/DX2                !
 ! R22   R(7,23)                 1.0884         estimate D2E/DX2                !
 ! R23   R(8,24)                 1.0866         estimate D2E/DX2                !
 ! R24   R(8,25)                 1.0861         estimate D2E/DX2                !
 ! R25   R(8,26)                 1.0884         estimate D2E/DX2                !
 ! R26   R(9,27)                 1.0867         estimate D2E/DX2                !
 ! R27   R(9,28)                 1.0861         estimate D2E/DX2                !
 ! R28   R(9,29)                 1.0883         estimate D2E/DX2                !
 ! A1    A(2,1,10)             111.5453         estimate D2E/DX2                !
 ! A2    A(2,1,11)             109.1706         estimate D2E/DX2                !
 ! A3    A(2,1,12)             111.7648         estimate D2E/DX2                !
 ! A4    A(10,1,11)            107.878          estimate D2E/DX2                !
 ! A5    A(10,1,12)            108.5843         estimate D2E/DX2                !
 ! A6    A(11,1,12)            107.751          estimate D2E/DX2                !
 ! A7    A(1,2,3)              115.7788         estimate D2E/DX2                !
 ! A8    A(1,2,13)             107.8746         estimate D2E/DX2                !
 ! A9    A(1,2,14)             107.4055         estimate D2E/DX2                !
 ! A10   A(3,2,13)             108.4528         estimate D2E/DX2                !
 ! A11   A(3,2,14)             109.3623         estimate D2E/DX2                !
 ! A12   A(13,2,14)            107.6894         estimate D2E/DX2                !
 ! A13   A(2,3,4)              108.4688         estimate D2E/DX2                !
 ! A14   A(2,3,5)              109.5195         estimate D2E/DX2                !
 ! A15   A(2,3,6)              110.0249         estimate D2E/DX2                !
 ! A16   A(4,3,5)              107.6202         estimate D2E/DX2                !
 ! A17   A(4,3,6)              110.6168         estimate D2E/DX2                !
 ! A18   A(5,3,6)              110.5311         estimate D2E/DX2                !
 ! A19   A(3,4,15)             110.0059         estimate D2E/DX2                !
 ! A20   A(3,4,16)             111.5622         estimate D2E/DX2                !
 ! A21   A(3,4,17)             111.0784         estimate D2E/DX2                !
 ! A22   A(15,4,16)            107.7894         estimate D2E/DX2                !
 ! A23   A(15,4,17)            107.5564         estimate D2E/DX2                !
 ! A24   A(16,4,17)            108.7066         estimate D2E/DX2                !
 ! A25   A(3,5,18)             109.9529         estimate D2E/DX2                !
 ! A26   A(3,5,19)             111.1038         estimate D2E/DX2                !
 ! A27   A(3,5,20)             111.3384         estimate D2E/DX2                !
 ! A28   A(18,5,19)            107.4779         estimate D2E/DX2                !
 ! A29   A(18,5,20)            108.3381         estimate D2E/DX2                !
 ! A30   A(19,5,20)            108.5062         estimate D2E/DX2                !
 ! A31   A(3,6,7)              111.7781         estimate D2E/DX2                !
 ! A32   A(3,6,8)              111.4602         estimate D2E/DX2                !
 ! A33   A(3,6,9)              111.4124         estimate D2E/DX2                !
 ! A34   A(7,6,8)              107.0716         estimate D2E/DX2                !
 ! A35   A(7,6,9)              107.5571         estimate D2E/DX2                !
 ! A36   A(8,6,9)              107.3144         estimate D2E/DX2                !
 ! A37   A(6,7,21)             111.6177         estimate D2E/DX2                !
 ! A38   A(6,7,22)             111.5479         estimate D2E/DX2                !
 ! A39   A(6,7,23)             109.3643         estimate D2E/DX2                !
 ! A40   A(21,7,22)            108.6532         estimate D2E/DX2                !
 ! A41   A(21,7,23)            107.7286         estimate D2E/DX2                !
 ! A42   A(22,7,23)            107.7815         estimate D2E/DX2                !
 ! A43   A(6,8,24)             111.8238         estimate D2E/DX2                !
 ! A44   A(6,8,25)             111.3074         estimate D2E/DX2                !
 ! A45   A(6,8,26)             109.3776         estimate D2E/DX2                !
 ! A46   A(24,8,25)            108.6718         estimate D2E/DX2                !
 ! A47   A(24,8,26)            107.6959         estimate D2E/DX2                !
 ! A48   A(25,8,26)            107.8179         estimate D2E/DX2                !
 ! A49   A(6,9,27)             111.789          estimate D2E/DX2                !
 ! A50   A(6,9,28)             111.2792         estimate D2E/DX2                !
 ! A51   A(6,9,29)             109.4627         estimate D2E/DX2                !
 ! A52   A(27,9,28)            108.5786         estimate D2E/DX2                !
 ! A53   A(27,9,29)            107.735          estimate D2E/DX2                !
 ! A54   A(28,9,29)            107.854          estimate D2E/DX2                !
 ! D1    D(10,1,2,3)           -66.0723         estimate D2E/DX2                !
 ! D2    D(10,1,2,13)          172.2535         estimate D2E/DX2                !
 ! D3    D(10,1,2,14)           56.4245         estimate D2E/DX2                !
 ! D4    D(11,1,2,3)           174.8041         estimate D2E/DX2                !
 ! D5    D(11,1,2,13)           53.1299         estimate D2E/DX2                !
 ! D6    D(11,1,2,14)          -62.6991         estimate D2E/DX2                !
 ! D7    D(12,1,2,3)            55.7023         estimate D2E/DX2                !
 ! D8    D(12,1,2,13)          -65.9719         estimate D2E/DX2                !
 ! D9    D(12,1,2,14)          178.199          estimate D2E/DX2                !
 ! D10   D(1,2,3,4)            -72.5742         estimate D2E/DX2                !
 ! D11   D(1,2,3,5)             44.6198         estimate D2E/DX2                !
 ! D12   D(1,2,3,6)            166.3046         estimate D2E/DX2                !
 ! D13   D(13,2,3,4)            48.7907         estimate D2E/DX2                !
 ! D14   D(13,2,3,5)           165.9847         estimate D2E/DX2                !
 ! D15   D(13,2,3,6)           -72.3305         estimate D2E/DX2                !
 ! D16   D(14,2,3,4)           165.9709         estimate D2E/DX2                !
 ! D17   D(14,2,3,5)           -76.8352         estimate D2E/DX2                !
 ! D18   D(14,2,3,6)            44.8497         estimate D2E/DX2                !
 ! D19   D(2,3,4,15)            50.7969         estimate D2E/DX2                !
 ! D20   D(2,3,4,16)           -68.7726         estimate D2E/DX2                !
 ! D21   D(2,3,4,17)           169.768          estimate D2E/DX2                !
 ! D22   D(5,3,4,15)           -67.6074         estimate D2E/DX2                !
 ! D23   D(5,3,4,16)           172.8231         estimate D2E/DX2                !
 ! D24   D(5,3,4,17)            51.3637         estimate D2E/DX2                !
 ! D25   D(6,3,4,15)           171.5524         estimate D2E/DX2                !
 ! D26   D(6,3,4,16)            51.983          estimate D2E/DX2                !
 ! D27   D(6,3,4,17)           -69.4765         estimate D2E/DX2                !
 ! D28   D(2,3,5,18)           -71.4488         estimate D2E/DX2                !
 ! D29   D(2,3,5,19)           169.6958         estimate D2E/DX2                !
 ! D30   D(2,3,5,20)            48.6289         estimate D2E/DX2                !
 ! D31   D(4,3,5,18)            46.2771         estimate D2E/DX2                !
 ! D32   D(4,3,5,19)           -72.5783         estimate D2E/DX2                !
 ! D33   D(4,3,5,20)           166.3548         estimate D2E/DX2                !
 ! D34   D(6,3,5,18)           167.1711         estimate D2E/DX2                !
 ! D35   D(6,3,5,19)            48.3157         estimate D2E/DX2                !
 ! D36   D(6,3,5,20)           -72.7512         estimate D2E/DX2                !
 ! D37   D(2,3,6,7)             45.0847         estimate D2E/DX2                !
 ! D38   D(2,3,6,8)            164.869          estimate D2E/DX2                !
 ! D39   D(2,3,6,9)            -75.2864         estimate D2E/DX2                !
 ! D40   D(4,3,6,7)            -74.7406         estimate D2E/DX2                !
 ! D41   D(4,3,6,8)             45.0437         estimate D2E/DX2                !
 ! D42   D(4,3,6,9)            164.8883         estimate D2E/DX2                !
 ! D43   D(5,3,6,7)            166.1652         estimate D2E/DX2                !
 ! D44   D(5,3,6,8)            -74.0505         estimate D2E/DX2                !
 ! D45   D(5,3,6,9)             45.7941         estimate D2E/DX2                !
 ! D46   D(3,6,7,21)            51.5406         estimate D2E/DX2                !
 ! D47   D(3,6,7,22)           -70.22           estimate D2E/DX2                !
 ! D48   D(3,6,7,23)           170.6491         estimate D2E/DX2                !
 ! D49   D(8,6,7,21)           -70.7915         estimate D2E/DX2                !
 ! D50   D(8,6,7,22)           167.4478         estimate D2E/DX2                !
 ! D51   D(8,6,7,23)            48.317          estimate D2E/DX2                !
 ! D52   D(9,6,7,21)           174.1396         estimate D2E/DX2                !
 ! D53   D(9,6,7,22)            52.3789         estimate D2E/DX2                !
 ! D54   D(9,6,7,23)           -66.7519         estimate D2E/DX2                !
 ! D55   D(3,6,8,24)            51.3274         estimate D2E/DX2                !
 ! D56   D(3,6,8,25)           -70.4321         estimate D2E/DX2                !
 ! D57   D(3,6,8,26)           170.5326         estimate D2E/DX2                !
 ! D58   D(7,6,8,24)           173.8579         estimate D2E/DX2                !
 ! D59   D(7,6,8,25)            52.0983         estimate D2E/DX2                !
 ! D60   D(7,6,8,26)           -66.9369         estimate D2E/DX2                !
 ! D61   D(9,6,8,24)           -70.9108         estimate D2E/DX2                !
 ! D62   D(9,6,8,25)           167.3296         estimate D2E/DX2                !
 ! D63   D(9,6,8,26)            48.2944         estimate D2E/DX2                !
 ! D64   D(3,6,9,27)            51.5645         estimate D2E/DX2                !
 ! D65   D(3,6,9,28)           -70.0305         estimate D2E/DX2                !
 ! D66   D(3,6,9,29)           170.8525         estimate D2E/DX2                !
 ! D67   D(7,6,9,27)           -71.2599         estimate D2E/DX2                !
 ! D68   D(7,6,9,28)           167.1452         estimate D2E/DX2                !
 ! D69   D(7,6,9,29)            48.0281         estimate D2E/DX2                !
 ! D70   D(8,6,9,27)           173.8324         estimate D2E/DX2                !
 ! D71   D(8,6,9,28)            52.2375         estimate D2E/DX2                !
 ! D72   D(8,6,9,29)           -66.8796         estimate D2E/DX2                !
 --------------------------------------------------------------------------------
 Number of steps in this run=    164 maximum allowed number of steps=    174.
 GradGradGradGradGradGradGradGradGradGradGradGradGradGradGradGradGradGrad

                    Distance matrix (angstroms):
                    1          2          3          4          5
     1  C    0.000000
     2  C    1.527086   0.000000
     3  C    2.602992   1.545996   0.000000
     4  C    3.175222   2.499961   1.534984   0.000000
     5  C    2.926728   2.516084   1.534637   2.477383   0.000000
     6  C    3.944249   2.552761   1.569831   2.552941   2.551335
     7  C    4.403896   2.888243   2.571301   3.194083   3.905120
     8  C    5.162551   3.904211   2.566574   2.888931   3.179329
     9  C    4.455844   3.189506   2.565532   3.899538   2.892321
    10  H    1.086334   2.174983   2.927378   3.712561   2.678768
    11  H    1.088568   2.146797   3.519095   4.072759   3.965174
    12  H    1.086956   2.178168   2.854151   2.876783   3.166804
    13  H    2.131840   1.090913   2.155889   2.618818   3.441954
    14  H    2.125820   1.091032   2.167693   3.437764   2.886563
    15  H    2.771897   2.654037   2.163194   1.087000   2.769102
    16  H    3.685000   2.824036   2.182572   1.086840   3.442328
    17  H    4.083112   3.454862   2.175998   1.086104   2.651061
    18  H    2.703907   2.843654   2.162148   2.595330   1.086907
    19  H    3.995201   3.467482   2.176429   2.827482   1.086664
    20  H    3.009446   2.680189   2.179092   3.431492   1.086319
    21  H    4.445504   3.051720   2.767032   2.850708   4.249537
    22  H    4.130464   2.657014   2.912810   3.761780   4.204155
    23  H    5.469938   3.946400   3.504130   4.074267   4.698411
    24  H    5.300886   4.256776   2.762432   3.047158   2.832641
    25  H    5.406612   4.191854   2.905577   2.660825   3.745145
    26  H    6.047076   4.698919   3.500713   3.948235   4.061165
    27  H    3.990364   2.844665   2.762341   4.248763   3.059581
    28  H    4.803741   3.758334   2.900613   4.183437   2.656580
    29  H    5.424074   4.068430   3.500987   4.698587   3.949561
                    6          7          8          9         10
     6  C    0.000000
     7  C    1.535694   0.000000
     8  C    1.535834   2.470209   0.000000
     9  C    1.535454   2.477615   2.473879   0.000000
    10  H    4.246903   4.977019   5.417288   4.466988   0.000000
    11  H    4.694177   4.882639   6.019835   5.120040   1.758171
    12  H    4.347072   4.825652   5.345977   5.115173   1.764720
    13  H    2.866887   2.642239   4.147637   3.753655   3.047865
    14  H    2.657370   2.919832   4.162418   2.766334   2.452459
    15  H    3.495825   4.089636   3.946911   4.712458   3.336315
    16  H    2.745387   2.842844   3.046616   4.238026   4.423441
    17  H    2.878201   3.740284   2.642377   4.171485   4.443978
    18  H    3.488043   4.718844   4.042012   3.960216   2.364241
    19  H    2.709167   4.207504   2.797941   2.998618   3.738742
    20  H    2.907873   4.206151   3.765273   2.687800   2.491443
    21  H    2.183766   1.086677   2.810240   3.444170   5.186024
    22  H    2.182499   1.086146   3.429589   2.665990   4.722148
    23  H    2.156697   1.088386   2.591389   2.753038   5.988604
    24  H    2.186397   3.439829   1.086615   2.818446   5.377211
    25  H    2.179634   2.650415   1.086144   3.430336   5.819886
    26  H    2.156970   2.745972   1.088359   2.596392   6.274749
    27  H    2.185713   2.825365   3.442465   1.086728   3.946287
    28  H    2.178925   3.432674   2.655752   1.086118   4.600874
    29  H    2.157704   2.600589   2.751011   1.088336   5.497664
                   11         12         13         14         15
    11  H    0.000000
    12  H    1.757253   0.000000
    13  H    2.404126   2.524588   0.000000
    14  H    2.459115   3.048843   1.761747   0.000000
    15  H    3.646331   2.143272   2.789865   3.709785   0.000000
    16  H    4.391283   3.402963   2.507902   3.728542   1.756321
    17  H    5.052640   3.730726   3.672752   4.298505   1.753121
    18  H    3.775557   2.656193   3.729791   3.417994   2.452175
    19  H    5.042787   4.133332   4.294358   3.797306   3.295959
    20  H    3.910440   3.548007   3.732710   2.650084   3.685003
    21  H    4.899958   4.651787   2.505028   3.402204   3.689785
    22  H    4.398458   4.729541   2.345924   2.400466   4.480838
    23  H    5.936970   5.905094   3.712812   3.853886   5.046184
    24  H    6.264316   5.417448   4.701689   4.555793   3.983251
    25  H    6.240483   5.411422   4.209389   4.651342   3.723146
    26  H    6.841991   6.329223   4.899829   4.766380   5.016058
    27  H    4.495868   4.824421   3.482469   2.102893   4.890674
    28  H    5.583204   5.402459   4.495403   3.420341   4.942638
    29  H    6.003868   6.095840   4.451534   3.571046   5.598521
                   16         17         18         19         20
    16  H    0.000000
    17  H    1.765791   0.000000
    18  H    3.650236   2.763960   0.000000
    19  H    3.776017   2.575317   1.752617   0.000000
    20  H    4.307029   3.710698   1.761939   1.763606   0.000000
    21  H    2.167670   3.448336   4.885222   4.575337   4.750519
    22  H    3.456935   4.490195   4.980349   4.709715   4.288834
    23  H    3.671991   4.434251   5.594597   4.817295   4.954095
    24  H    3.511639   2.519494   3.627390   2.123326   3.471078
    25  H    2.536904   2.323556   4.422206   3.427244   4.506283
    26  H    3.987019   3.710335   5.004405   3.617650   4.467349
    27  H    4.600531   4.726688   4.024483   3.476277   2.565032
    28  H    4.727658   4.242884   3.722992   2.480666   2.364349
    29  H    4.861031   4.917135   5.024334   3.932885   3.756198
                   21         22         23         24         25
    21  H    0.000000
    22  H    1.765102   0.000000
    23  H    1.756631   1.756794   0.000000
    24  H    3.771425   4.310499   3.641928   0.000000
    25  H    2.557661   3.709146   2.784410   1.765257   0.000000
    26  H    3.256889   3.671129   2.423061   1.756192   1.757177
    27  H    3.785337   2.584153   3.271106   3.779040   4.308995
    28  H    4.308012   3.723109   3.674300   2.568640   3.713231
    29  H    3.649503   2.799362   2.433688   3.264927   3.673984
                   26         27         28         29
    26  H    0.000000
    27  H    3.646666   0.000000
    28  H    2.791428   1.764295   0.000000
    29  H    2.430191   1.756703   1.757541   0.000000
 Framework group  C1[X(C9H20)]
 Deg. of freedom    81
                         Standard orientation:                         
 ---------------------------------------------------------------------
 Center     Atomic      Atomic             Coordinates (Angstroms)
 Number     Number       Type             X           Y           Z
 ---------------------------------------------------------------------
      1          6           0       -2.832733   -0.568656   -0.001080
      2          6           0       -1.357187   -0.847289   -0.278784
      3          6           0       -0.388634    0.326832   -0.007774
      4          6           0       -0.583633    1.381443   -1.105930
      5          6           0       -0.740889    0.982851    1.334115
      6          6           0        1.093366   -0.190751    0.004650
      7          6           0        1.374875   -1.140958   -1.168472
      8          6           0        2.094466    0.968878   -0.104182
      9          6           0        1.411493   -0.948911    1.301418
     10          1           0       -3.015486   -0.404698    1.057145
     11          1           0       -3.423670   -1.427986   -0.313049
     12          1           0       -3.190151    0.297134   -0.552562
     13          1           0       -1.262667   -1.138223   -1.325930
     14          1           0       -1.066479   -1.704111    0.330885
     15          1           0       -1.638596    1.623589   -1.205866
     16          1           0       -0.232268    1.023705   -2.070185
     17          1           0       -0.058184    2.300351   -0.862754
     18          1           0       -1.673948    1.533046    1.244382
     19          1           0        0.026799    1.689516    1.637629
     20          1           0       -0.855932    0.240551    2.118874
     21          1           0        1.074240   -0.705337   -2.117535
     22          1           0        0.862643   -2.090657   -1.044362
     23          1           0        2.442952   -1.343686   -1.220380
     24          1           0        1.894613    1.745254    0.629325
     25          1           0        2.076973    1.413713   -1.094901
     26          1           0        3.100783    0.595244    0.075394
     27          1           0        0.676844   -1.722934    1.506737
     28          1           0        1.451260   -0.275097    2.152326
     29          1           0        2.383528   -1.430011    1.211051
 ---------------------------------------------------------------------
 Rotational constants (GHZ):           2.1570089           1.1797480           1.1401612
   166 basis functions,   305 primitive gaussians,   175 cartesian basis functions
    37 alpha electrons       37 beta electrons
       nuclear repulsion energy       528.5646510908 Hartrees.
 NAtoms=   29 NActive=   29 NUniq=   29 SFac= 1.00D+00 NAtFMM=   60 NAOKFM=F Big=F
 Nuclear repulsion after empirical dispersion term =      528.5377013077 Hartrees.
   1 Symmetry operations used in ECPInt.
 ECPInt:  NShTT=    4465 NPrTT=   17943 LenC2=    4453 LenP2D=   14297.
 LDataN:  DoStor=T MaxTD1= 4 Len=   56
 ExpMin= 1.22D-01 ExpMax= 1.24D+03 ExpMxC= 1.86D+02 IAcc=3 IRadAn=         5 AccDes= 0.00D+00
 Harris functional with IExCor= 4639 and IRadAn=       5 diagonalized for initial guess.
 HarFok:  IExCor= 4639 AccDes= 0.00D+00 IRadAn=         5 IDoV= 1 UseB2=F ITyADJ=14
 ICtDFT=  3500011 ScaDFX=  1.000000  1.000000  1.000000  1.000000
 FoFCou: FMM=F IPFlag=           0 FMFlag=      100000 FMFlg1=           0
         NFxFlg=           0 DoJE=T BraDBF=F KetDBF=T FulRan=T
         wScrn=  0.000000 ICntrl=       500 IOpCl=  0 I1Cent=   200000004 NGrid=           0
         NMat0=    1 NMatS0=      1 NMatT0=    0 NMatD0=    1 NMtDS0=    0 NMtDT0=    0
 Petite list used in FoFCou.
     Minimum is close to point  3 DX=  2.24D-02 DF= -1.01D-04 DXR=  3.60D-02 DFR=  1.29D-03 which will be used.
     Minimum is close to point  3 DX=  3.63D-02 DF= -1.00D-05 DXR=  3.88D-02 DFR=  1.50D-03 which will be used.
     Accept linear search using points  1 and  2.
     Accept linear search using points  1 and  2.
     Minimum is close to point  2 DX= -9.07D-05 DF= -5.68D-14 DXR=  9.07D-05 DFR=  1.35D-08 which will be used.
 SCF Done:  E(RwB97XD) =  -354.618706191     a.u. after    6 cycles
            Convg  =    0.4461D-06                    22 Fock formations.
              S**2 =  0.0000                  -V/T =  2.0109

 **********************************************************************

            Population analysis using the SCF Density.

 **********************************************************************

 Orbital symmetries:
       Occupied  (A) (A) (A) (A) (A) (A) (A) (A) (A) (A) (A) (A)
                 (A) (A) (A) (A) (A) (A) (A) (A) (A) (A) (A) (A)
                 (A) (A) (A) (A) (A) (A) (A) (A) (A) (A) (A) (A)
                 (A)
       Virtual   (A) (A) (A) (A) (A) (A) (A) (A) (A) (A) (A) (A)
                 (A) (A) (A) (A) (A) (A) (A) (A) (A) (A) (A) (A)
                 (A) (A) (A) (A) (A) (A) (A) (A) (A) (A) (A) (A)
                 (A) (A) (A) (A) (A) (A) (A) (A) (A) (A) (A) (A)
                 (A) (A) (A) (A) (A) (A) (A) (A) (A) (A) (A) (A)
                 (A) (A) (A) (A) (A) (A) (A) (A) (A) (A) (A) (A)
                 (A) (A) (A) (A) (A) (A) (A) (A) (A) (A) (A) (A)
                 (A) (A) (A) (A) (A) (A) (A) (A) (A) (A) (A) (A)
                 (A) (A) (A) (A) (A) (A) (A) (A) (A) (A) (A) (A)
                 (A) (A) (A) (A) (A) (A) (A) (A) (A) (A) (A) (A)
                 (A) (A) (A) (A) (A) (A) (A) (A) (A)
 The electronic state is 1-A.
 Alpha  occ. eigenvalues --  -10.29959 -10.29898 -10.27801 -10.27206 -10.26893
 Alpha  occ. eigenvalues --  -10.26890 -10.26882 -10.26866 -10.26859  -0.93607
 Alpha  occ. eigenvalues --   -0.87031  -0.81906  -0.78607  -0.77193  -0.75615
 Alpha  occ. eigenvalues --   -0.72033  -0.66094  -0.58883  -0.56896  -0.54698
 Alpha  occ. eigenvalues --   -0.53632  -0.52381  -0.51910  -0.48883  -0.48626
 Alpha  occ. eigenvalues --   -0.47101  -0.45877  -0.45348  -0.44707  -0.44500
 Alpha  occ. eigenvalues --   -0.43879  -0.43091  -0.41862  -0.41394  -0.37895
 Alpha  occ. eigenvalues --   -0.37429  -0.37240
 Alpha virt. eigenvalues --    0.12732   0.15929   0.17005   0.17690   0.18461
 Alpha virt. eigenvalues --    0.18697   0.19214   0.20433   0.21295   0.22208
 Alpha virt. eigenvalues --    0.22596   0.23874   0.24296   0.24914   0.25319
 Alpha virt. eigenvalues --    0.26078   0.27060   0.27404   0.29050   0.29512
 Alpha virt. eigenvalues --    0.30070   0.30883   0.31473   0.32815   0.33287
 Alpha virt. eigenvalues --    0.36593   0.37080   0.38199   0.49263   0.50255
 Alpha virt. eigenvalues --    0.51015   0.51737   0.51933   0.53706   0.54140
 Alpha virt. eigenvalues --    0.57418   0.62362   0.64949   0.66815   0.67782
 Alpha virt. eigenvalues --    0.69035   0.70343   0.71229   0.73146   0.75139
 Alpha virt. eigenvalues --    0.75808   0.77238   0.77677   0.78137   0.78578
 Alpha virt. eigenvalues --    0.78731   0.79936   0.80347   0.80701   0.81556
 Alpha virt. eigenvalues --    0.82167   0.82521   0.82993   0.83297   0.83617
 Alpha virt. eigenvalues --    0.84321   0.84623   0.85265   0.86015   0.86784
 Alpha virt. eigenvalues --    0.86979   0.87972   0.89320   0.90057   0.90228
 Alpha virt. eigenvalues --    0.95223   0.95361   0.97272   1.03397   1.04327
 Alpha virt. eigenvalues --    1.08624   1.10926   1.16589   1.19468   1.21277
 Alpha virt. eigenvalues --    1.25148   1.28985   1.39376   1.40894   1.45022
 Alpha virt. eigenvalues --    1.46313   1.61751   1.65537   1.77168   1.78274
 Alpha virt. eigenvalues --    1.82731   1.87499   1.92404   1.94901   1.95978
 Alpha virt. eigenvalues --    1.97373   1.97973   2.01956   2.03605   2.04819
 Alpha virt. eigenvalues --    2.11097   2.11586   2.14254   2.15848   2.16410
 Alpha virt. eigenvalues --    2.17586   2.19599   2.21490   2.24513   2.27467
 Alpha virt. eigenvalues --    2.28440   2.29183   2.29400   2.31637   2.32943
 Alpha virt. eigenvalues --    2.35645   2.36255   2.38729   2.46508   2.48246
 Alpha virt. eigenvalues --    2.50384   2.61111   2.62012   2.69797   2.82950
 Alpha virt. eigenvalues --    2.83672   2.85277   2.88668   2.89217
          Condensed to atoms (all electrons):
 Mulliken charges:
               1
     1  C   -0.293888
     2  C   -0.187684
     3  C   -0.213317
     4  C   -0.261234
     5  C   -0.265524
     6  C   -0.236505
     7  C   -0.250859
     8  C   -0.253439
     9  C   -0.254275
    10  H    0.115066
    11  H    0.114413
    12  H    0.113517
    13  H    0.099393
    14  H    0.100031
    15  H    0.110825
    16  H    0.110193
    17  H    0.113802
    18  H    0.116092
    19  H    0.112079
    20  H    0.115577
    21  H    0.110012
    22  H    0.114266
    23  H    0.107151
    24  H    0.111065
    25  H    0.113438
    26  H    0.107264
    27  H    0.112648
    28  H    0.112461
    29  H    0.107430
 Sum of Mulliken charges =   0.00000
 Mulliken charges with hydrogens summed into heavy atoms:
               1
     1  C    0.049109
     2  C    0.011741
     3  C   -0.213317
     4  C    0.073587
     5  C    0.078224
     6  C   -0.236505
     7  C    0.080570
     8  C    0.078328
     9  C    0.078264
 Electronic spatial extent (au):  <R**2>=           1386.0105
 Charge=              0.0000 electrons
 Dipole moment (field-independent basis, Debye):
    X=             -0.0366    Y=             -0.0450    Z=              0.0032  Tot=              0.0581
 Evaluate density.
 Using the total density.
 Monte-Carlo method of calculating molar volume:
 based on  0.001 e/bohr**3 density envelope.
 Number of points per bohr**3 =  100 CutOff= 1.00D-04
 Using the SCF density.
 There are      1918 points.  Will hold      1918 in memory.
 LenV=  1048203417 MDV=  1048576000.
 Box volume = 7055.996 fraction occupied=0.196
 Integrated density= 5.6129370930156554D+01 error=-1.7870629069843446D+01
 Molar volume = 1379.561 bohr**3/mol (123.111 cm**3/mol)
 Recommended a0 for SCRF calculation =  4.52 angstrom (  8.55 bohr)
   1 Symmetry operations used in ECPInt.
 ECPInt:  NShTT=    4465 NPrTT=   17943 LenC2=    4453 LenP2D=   14297.
 LDataN:  DoStor=T MaxTD1= 5 Len=  102
 Calling FoFJK, ICntrl=      2127 FMM=F ISym2X=0 I1Cent= 0 IOpClX= 0 NMat=1 NMatS=1 NMatT=0.

 GradGradGradGradGradGradGradGradGradGradGradGradGradGradGradGradGradGrad
 FormGI is forming the generalized inverse of G from B-inverse, IUseBI=4.
 Internal  Forces:  Max     0.011478506 RMS     0.004175234
 Step number   1 out of a maximum of  164
 All quantities printed in internal units (Hartrees-Bohrs-Radians)
 Mixed Optimization -- RFO/linear search
 Second derivative matrix not updated -- first step.
 ITU=  0
     Eigenvalues ---    0.00230   0.00230   0.00292   0.00294   0.00297
     Eigenvalues ---    0.00303   0.00308   0.00408   0.03266   0.04374
     Eigenvalues ---    0.04432   0.04526   0.04653   0.04765   0.05129
     Eigenvalues ---    0.05349   0.05349   0.05361   0.05395   0.05417
     Eigenvalues ---    0.05427   0.05590   0.05607   0.05613   0.05644
     Eigenvalues ---    0.05651   0.05651   0.05740   0.08781   0.12523
     Eigenvalues ---    0.14257   0.14341   0.14415   0.14533   0.16000
     Eigenvalues ---    0.16000   0.16000   0.16000   0.16000   0.16000
     Eigenvalues ---    0.16000   0.16000   0.16000   0.16000   0.16000
     Eigenvalues ---    0.16000   0.16000   0.16000   0.16000   0.16000
     Eigenvalues ---    0.16000   0.16000   0.22025   0.26032   0.27994
     Eigenvalues ---    0.28891   0.28904   0.28925   0.28968   0.28999
     Eigenvalues ---    0.29694   0.34694   0.34707   0.34979   0.35000
     Eigenvalues ---    0.35003   0.35006   0.35162   0.35167   0.35173
     Eigenvalues ---    0.35180   0.35194   0.35199   0.35201   0.35207
     Eigenvalues ---    0.35240   0.35241   0.35262   0.35262   0.35265
     Eigenvalues ---    0.35267
 Linear search not attempted -- first point.
 Iteration  1 RMS(Cart)=  0.02483479 RMS(Int)=  0.00011656
 Iteration  2 RMS(Cart)=  0.00013421 RMS(Int)=  0.00002476
 Iteration  3 RMS(Cart)=  0.00000002 RMS(Int)=  0.00002476
 Variable       Old X    -DE/DX   Delta X   Delta X   Delta X     New X
                                 (Linear)    (Quad)   (Total)
    R1        2.88577   0.00436   0.00000   0.01428   0.01428   2.90006
    R2        2.05287   0.01080   0.00000   0.02997   0.02997   2.08285
    R3        2.05709   0.01010   0.00000   0.02822   0.02822   2.08532
    R4        2.05405   0.01108   0.00000   0.03080   0.03080   2.08485
    R5        2.92151   0.00572   0.00000   0.01987   0.01987   2.94137
    R6        2.06153   0.00846   0.00000   0.02383   0.02383   2.08535
    R7        2.06175   0.00872   0.00000   0.02456   0.02456   2.08632
    R8        2.90070   0.00512   0.00000   0.01721   0.01721   2.91791
    R9        2.90004   0.00535   0.00000   0.01794   0.01794   2.91798
   R10        2.96655   0.00876   0.00000   0.03262   0.03262   2.99917
   R11        2.05413   0.01075   0.00000   0.02990   0.02990   2.08403
   R12        2.05383   0.01129   0.00000   0.03137   0.03137   2.08520
   R13        2.05244   0.01103   0.00000   0.03058   0.03058   2.08302
   R14        2.05396   0.01079   0.00000   0.02998   0.02998   2.08394
   R15        2.05350   0.01102   0.00000   0.03061   0.03061   2.08410
   R16        2.05285   0.01135   0.00000   0.03147   0.03147   2.08432
   R17        2.90204   0.00491   0.00000   0.01652   0.01652   2.91856
   R18        2.90231   0.00502   0.00000   0.01691   0.01691   2.91921
   R19        2.90159   0.00501   0.00000   0.01685   0.01685   2.91844
   R20        2.05352   0.01148   0.00000   0.03188   0.03188   2.08540
   R21        2.05252   0.01103   0.00000   0.03058   0.03058   2.08309
   R22        2.05675   0.01067   0.00000   0.02980   0.02980   2.08655
   R23        2.05341   0.01142   0.00000   0.03171   0.03171   2.08511
   R24        2.05252   0.01119   0.00000   0.03101   0.03101   2.08353
   R25        2.05670   0.01067   0.00000   0.02980   0.02980   2.08650
   R26        2.05362   0.01134   0.00000   0.03149   0.03149   2.08511
   R27        2.05246   0.01127   0.00000   0.03125   0.03125   2.08371
   R28        2.05666   0.01068   0.00000   0.02982   0.02982   2.08648
    A1        1.94683   0.00137   0.00000   0.00774   0.00771   1.95454
    A2        1.90539   0.00173   0.00000   0.01067   0.01061   1.91600
    A3        1.95066   0.00151   0.00000   0.00903   0.00899   1.95965
    A4        1.88283  -0.00161   0.00000  -0.00970  -0.00974   1.87309
    A5        1.89515  -0.00167   0.00000  -0.01061  -0.01063   1.88452
    A6        1.88061  -0.00155   0.00000  -0.00840  -0.00846   1.87215
    A7        2.02072   0.00281   0.00000   0.01776   0.01765   2.03838
    A8        1.88277  -0.00037   0.00000   0.00285   0.00279   1.88556
    A9        1.87458  -0.00048   0.00000   0.00187   0.00182   1.87640
   A10        1.89286  -0.00070   0.00000  -0.00130  -0.00141   1.89144
   A11        1.90873  -0.00064   0.00000  -0.00103  -0.00113   1.90760
   A12        1.87953  -0.00085   0.00000  -0.02323  -0.02324   1.85629
   A13        1.89314   0.00001   0.00000  -0.00036  -0.00036   1.89277
   A14        1.91148   0.00005   0.00000   0.00087   0.00087   1.91235
   A15        1.92030  -0.00009   0.00000  -0.00107  -0.00107   1.91923
   A16        1.87833   0.00001   0.00000   0.00060   0.00060   1.87893
   A17        1.93063  -0.00005   0.00000  -0.00084  -0.00084   1.92979
   A18        1.92913   0.00007   0.00000   0.00082   0.00083   1.92996
   A19        1.91997   0.00157   0.00000   0.00967   0.00963   1.92959
   A20        1.94713   0.00124   0.00000   0.00754   0.00751   1.95463
   A21        1.93868   0.00162   0.00000   0.00911   0.00908   1.94776
   A22        1.88128  -0.00133   0.00000  -0.00691  -0.00695   1.87433
   A23        1.87721  -0.00168   0.00000  -0.01034  -0.01038   1.86684
   A24        1.89729  -0.00164   0.00000  -0.01038  -0.01040   1.88688
   A25        1.91904   0.00179   0.00000   0.01054   0.01049   1.92953
   A26        1.93913   0.00123   0.00000   0.00763   0.00759   1.94671
   A27        1.94322   0.00197   0.00000   0.01155   0.01150   1.95472
   A28        1.87584  -0.00150   0.00000  -0.00861  -0.00865   1.86719
   A29        1.89086  -0.00204   0.00000  -0.01272  -0.01277   1.87809
   A30        1.89379  -0.00169   0.00000  -0.00983  -0.00987   1.88392
   A31        1.95090  -0.00034   0.00000  -0.00359  -0.00359   1.94731
   A32        1.94535   0.00008   0.00000   0.00056   0.00056   1.94591
   A33        1.94451   0.00002   0.00000  -0.00064  -0.00064   1.94388
   A34        1.86875   0.00018   0.00000   0.00202   0.00202   1.87078
   A35        1.87723   0.00013   0.00000   0.00086   0.00086   1.87808
   A36        1.87299  -0.00006   0.00000   0.00106   0.00106   1.87405
   A37        1.94810   0.00142   0.00000   0.00857   0.00853   1.95663
   A38        1.94688   0.00159   0.00000   0.00938   0.00934   1.95622
   A39        1.90877   0.00090   0.00000   0.00530   0.00527   1.91404
   A40        1.89636  -0.00165   0.00000  -0.00972  -0.00976   1.88660
   A41        1.88022  -0.00116   0.00000  -0.00669  -0.00671   1.87351
   A42        1.88114  -0.00130   0.00000  -0.00800  -0.00802   1.87312
   A43        1.95169   0.00141   0.00000   0.00857   0.00854   1.96023
   A44        1.94268   0.00170   0.00000   0.01008   0.01005   1.95273
   A45        1.90900   0.00096   0.00000   0.00557   0.00554   1.91454
   A46        1.89668  -0.00168   0.00000  -0.00976  -0.00980   1.88688
   A47        1.87965  -0.00119   0.00000  -0.00698  -0.00701   1.87264
   A48        1.88178  -0.00140   0.00000  -0.00872  -0.00874   1.87303
   A49        1.95109   0.00142   0.00000   0.00871   0.00867   1.95976
   A50        1.94219   0.00168   0.00000   0.01001   0.00997   1.95216
   A51        1.91048   0.00094   0.00000   0.00536   0.00534   1.91582
   A52        1.89505  -0.00165   0.00000  -0.00939  -0.00944   1.88562
   A53        1.88033  -0.00121   0.00000  -0.00714  -0.00716   1.87317
   A54        1.88241  -0.00140   0.00000  -0.00879  -0.00882   1.87359
    D1       -1.15318  -0.00000   0.00000  -0.00195  -0.00194  -1.15512
    D2        3.00639  -0.00071   0.00000  -0.01446  -0.01448   2.99191
    D3        0.98479   0.00070   0.00000   0.01023   0.01026   0.99505
    D4        3.05091   0.00002   0.00000  -0.00159  -0.00158   3.04933
    D5        0.92729  -0.00069   0.00000  -0.01410  -0.01412   0.91317
    D6       -1.09431   0.00073   0.00000   0.01058   0.01061  -1.08369
    D7        0.97219  -0.00011   0.00000  -0.00368  -0.00369   0.96850
    D8       -1.15143  -0.00082   0.00000  -0.01619  -0.01623  -1.16766
    D9        3.11016   0.00060   0.00000   0.00849   0.00851   3.11867
   D10       -1.26666  -0.00001   0.00000   0.00377   0.00377  -1.26288
   D11        0.77876   0.00003   0.00000   0.00477   0.00477   0.78353
   D12        2.90256   0.00009   0.00000   0.00568   0.00568   2.90824
   D13        0.85156   0.00089   0.00000   0.01866   0.01865   0.87021
   D14        2.89698   0.00094   0.00000   0.01966   0.01965   2.91663
   D15       -1.26240   0.00100   0.00000   0.02056   0.02056  -1.24185
   D16        2.89674  -0.00087   0.00000  -0.01045  -0.01045   2.88629
   D17       -1.34103  -0.00083   0.00000  -0.00945  -0.00945  -1.35048
   D18        0.78277  -0.00077   0.00000  -0.00855  -0.00854   0.77423
   D19        0.88657   0.00016   0.00000   0.00364   0.00364   0.89021
   D20       -1.20031  -0.00001   0.00000   0.00105   0.00104  -1.19927
   D21        2.96301   0.00010   0.00000   0.00273   0.00273   2.96574
   D22       -1.17997   0.00009   0.00000   0.00247   0.00247  -1.17750
   D23        3.01633  -0.00008   0.00000  -0.00012  -0.00013   3.01620
   D24        0.89647   0.00003   0.00000   0.00156   0.00156   0.89803
   D25        2.99415   0.00003   0.00000   0.00158   0.00158   2.99573
   D26        0.90727  -0.00014   0.00000  -0.00101  -0.00102   0.90626
   D27       -1.21259  -0.00003   0.00000   0.00067   0.00067  -1.21192
   D28       -1.24702   0.00011   0.00000   0.00829   0.00829  -1.23873
   D29        2.96175   0.00006   0.00000   0.00745   0.00745   2.96920
   D30        0.84873   0.00002   0.00000   0.00679   0.00679   0.85553
   D31        0.80769   0.00015   0.00000   0.00868   0.00867   0.81636
   D32       -1.26673   0.00010   0.00000   0.00783   0.00783  -1.25890
   D33        2.90344   0.00006   0.00000   0.00718   0.00718   2.91062
   D34        2.91769   0.00014   0.00000   0.00852   0.00852   2.92620
   D35        0.84327   0.00009   0.00000   0.00767   0.00767   0.85094
   D36       -1.26975   0.00005   0.00000   0.00702   0.00702  -1.26273
   D37        0.78688  -0.00007   0.00000  -0.00040  -0.00040   0.78648
   D38        2.87751  -0.00001   0.00000   0.00012   0.00012   2.87762
   D39       -1.31399  -0.00001   0.00000   0.00141   0.00141  -1.31258
   D40       -1.30447   0.00001   0.00000   0.00127   0.00127  -1.30320
   D41        0.78616   0.00007   0.00000   0.00178   0.00178   0.78794
   D42        2.87784   0.00006   0.00000   0.00308   0.00308   2.88092
   D43        2.90013  -0.00002   0.00000   0.00053   0.00053   2.90066
   D44       -1.29243   0.00004   0.00000   0.00104   0.00104  -1.29138
   D45        0.79926   0.00004   0.00000   0.00234   0.00234   0.80160
   D46        0.89955   0.00009   0.00000   0.00538   0.00538   0.90494
   D47       -1.22557   0.00007   0.00000   0.00517   0.00516  -1.22041
   D48        2.97839   0.00012   0.00000   0.00584   0.00584   2.98423
   D49       -1.23554   0.00007   0.00000   0.00555   0.00555  -1.22999
   D50        2.92252   0.00005   0.00000   0.00534   0.00533   2.92785
   D51        0.84329   0.00010   0.00000   0.00601   0.00601   0.84930
   D52        3.03931  -0.00002   0.00000   0.00290   0.00290   3.04221
   D53        0.91418  -0.00003   0.00000   0.00269   0.00269   0.91687
   D54       -1.16504   0.00001   0.00000   0.00336   0.00336  -1.16168
   D55        0.89583   0.00015   0.00000   0.00609   0.00610   0.90193
   D56       -1.22927   0.00011   0.00000   0.00542   0.00542  -1.22386
   D57        2.97636   0.00018   0.00000   0.00641   0.00641   2.98277
   D58        3.03439  -0.00009   0.00000   0.00333   0.00333   3.03773
   D59        0.90929  -0.00013   0.00000   0.00266   0.00265   0.91194
   D60       -1.16827  -0.00007   0.00000   0.00365   0.00365  -1.16462
   D61       -1.23763   0.00012   0.00000   0.00583   0.00584  -1.23179
   D62        2.92045   0.00008   0.00000   0.00516   0.00516   2.92561
   D63        0.84290   0.00014   0.00000   0.00615   0.00615   0.84905
   D64        0.89997  -0.00004   0.00000   0.00487   0.00487   0.90484
   D65       -1.22226  -0.00011   0.00000   0.00373   0.00372  -1.21854
   D66        2.98194  -0.00003   0.00000   0.00496   0.00496   2.98690
   D67       -1.24372   0.00028   0.00000   0.00916   0.00917  -1.23455
   D68        2.91723   0.00021   0.00000   0.00802   0.00802   2.92525
   D69        0.83825   0.00029   0.00000   0.00926   0.00926   0.84751
   D70        3.03395   0.00003   0.00000   0.00587   0.00587   3.03982
   D71        0.91172  -0.00004   0.00000   0.00473   0.00472   0.91644
   D72       -1.16727   0.00004   0.00000   0.00597   0.00597  -1.16130
         Item               Value     Threshold  Converged?
 Maximum Force            0.011479     0.000015     NO 
 RMS     Force            0.004175     0.000010     NO 
 Maximum Displacement     0.091047     0.000060     NO 
 RMS     Displacement     0.024861     0.000040     NO 
 GradGradGradGradGradGradGradGradGradGradGradGradGradGradGradGradGradGrad

                    Distance matrix (angstroms):
                    1          2          3          4          5
     1  C    0.000000
     2  C    1.534645   0.000000
     3  C    2.632706   1.556508   0.000000
     4  C    3.208759   2.515554   1.544091   0.000000
     5  C    2.969359   2.533206   1.544130   2.492940   0.000000
     6  C    3.982816   2.574577   1.587095   2.573917   2.574097
     7  C    4.430009   2.907130   2.589714   3.214170   3.932262
     8  C    5.212632   3.933552   2.588767   2.913896   3.205784
     9  C    4.495595   3.213108   2.586638   3.927496   2.918342
    10  H    1.102195   2.199214   2.974004   3.761577   2.734757
    11  H    1.103503   2.172319   3.562617   4.120004   4.022079
    12  H    1.103256   2.203661   2.900310   2.923184   3.221701
    13  H    2.149764   1.103521   2.173295   2.643970   3.471031
    14  H    2.143253   1.104031   2.185727   3.463066   2.913175
    15  H    2.813651   2.683811   2.190053   1.102821   2.797326
    16  H    3.722832   2.851640   2.208593   1.103438   3.476021
    17  H    4.137997   3.489361   2.202788   1.102285   2.680180
    18  H    2.751597   2.871457   2.190007   2.628326   1.102772
    19  H    4.053670   3.502916   2.202507   2.852068   1.102861
    20  H    3.064560   2.715335   2.208336   3.467513   1.102975
    21  H    4.479467   3.081808   2.797780   2.874986   4.289854
    22  H    4.148685   2.675938   2.941173   3.790555   4.242663
    23  H    5.512131   3.980847   3.540977   4.113058   4.743634
    24  H    5.370052   4.301957   2.798421   3.085669   2.865746
    25  H    5.466259   4.234385   2.938947   2.688288   3.780502
    26  H    6.111944   4.744177   3.540455   3.988217   4.106305
    27  H    4.029215   2.873569   2.796476   4.290926   3.097736
    28  H    4.855889   3.792609   2.933469   4.225714   2.685886
    29  H    5.478466   4.109849   3.539753   4.742861   3.990875
                    6          7          8          9         10
     6  C    0.000000
     7  C    1.544435   0.000000
     8  C    1.544781   2.486291   0.000000
     9  C    1.544371   2.492645   2.489239   0.000000
    10  H    4.306134   5.026054   5.488285   4.525810   0.000000
    11  H    4.742089   4.914423   6.079404   5.167709   1.776722
    12  H    4.405573   4.871485   5.415415   5.175642   1.783967
    13  H    2.880368   2.642012   4.171302   3.768172   3.083134
    14  H    2.675053   2.931652   4.189594   2.781869   2.485421
    15  H    3.536261   4.127140   3.988242   4.759902   3.387599
    16  H    2.775679   2.865440   3.077867   4.276826   4.480852
    17  H    2.911329   3.772875   2.671934   4.213423   4.514870
    18  H    3.530903   4.764911   4.089651   4.001823   2.413577
    19  H    2.744927   4.250065   2.830141   3.038556   3.809364
    20  H    2.942415   4.247909   3.800586   2.716521   2.553885
    21  H    2.210407   1.103546   2.837735   3.478089   5.244510
    22  H    2.209185   1.102326   3.464323   2.695618   4.764503
    23  H    2.179966   1.104153   2.619319   2.776641   6.054842
    24  H    2.213167   3.474448   1.103395   2.844962   5.463782
    25  H    2.207170   2.682095   1.102556   3.465035   5.900365
    26  H    2.180621   2.770930   1.104128   2.623679   6.362318
    27  H    2.212465   2.849975   3.476657   1.103394   4.000738
    28  H    2.206474   3.467433   2.687319   1.102652   4.667055
    29  H    2.181194   2.628689   2.773730   1.104117   5.570898
                   11         12         13         14         15
    11  H    0.000000
    12  H    1.776964   0.000000
    13  H    2.430731   2.562765   0.000000
    14  H    2.486353   3.085705   1.767168   0.000000
    15  H    3.702465   2.188540   2.834302   3.753003   0.000000
    16  H    4.439119   3.450624   2.534911   3.763066   1.777986
    17  H    5.120536   3.795344   3.713750   4.342723   1.772152
    18  H    3.837568   2.712436   3.776869   3.456235   2.488064
    19  H    5.115805   4.202506   4.339134   3.841389   3.329993
    20  H    3.979025   3.614699   3.778205   2.689367   3.734499
    21  H    4.938410   4.701084   2.514585   3.429946   3.727754
    22  H    4.416636   4.767925   2.336223   2.408658   4.524586
    23  H    5.981159   5.968672   3.725559   3.877248   5.101569
    24  H    6.344945   5.504529   4.747014   4.600495   4.035816
    25  H    6.310534   5.486431   4.246698   4.695149   3.763121
    26  H    6.914367   6.413948   4.933737   4.806744   5.073013
    27  H    4.539293   4.885527   3.501425   2.117182   4.951183
    28  H    5.644109   5.475616   4.527918   3.446956   5.001636
    29  H    6.063966   6.172182   4.479736   3.601140   5.662529
                   16         17         18         19         20
    16  H    0.000000
    17  H    1.785717   0.000000
    18  H    3.700431   2.808225   0.000000
    19  H    3.818783   2.603678   1.772809   0.000000
    20  H    4.361805   3.757909   1.780026   1.783886   0.000000
    21  H    2.184418   3.481964   4.943519   4.629311   4.809463
    22  H    3.486538   4.536257   5.033511   4.767745   4.341174
    23  H    3.709782   4.483737   5.659458   4.876942   5.009828
    24  H    3.559350   2.557378   3.679467   2.151849   3.508175
    25  H    2.566104   2.344473   4.477194   3.463646   4.556288
    26  H    4.029385   3.753292   5.069381   3.667742   4.518806
    27  H    4.653354   4.786117   4.074237   3.530870   2.602612
    28  H    4.784247   4.297588   3.764984   2.520290   2.383068
    29  H    4.913907   4.972276   5.082104   3.984732   3.798052
                   21         22         23         24         25
    21  H    0.000000
    22  H    1.785651   0.000000
    23  H    1.778608   1.777373   0.000000
    24  H    3.818230   4.363956   3.686658   0.000000
    25  H    2.591267   3.757931   2.826297   1.785900   0.000000
    26  H    3.290755   3.715112   2.449771   1.777900   1.777483
    27  H    3.829874   2.613269   3.301341   3.825779   4.362809
    28  H    4.361958   3.770223   3.718504   2.601561   3.762270
    29  H    3.694421   2.841749   2.459816   3.295910   3.716474
                   26         27         28         29
    26  H    0.000000
    27  H    3.690380   0.000000
    28  H    2.834011   1.785157   0.000000
    29  H    2.454250   1.778237   1.777914   0.000000
 Framework group  C1[X(C9H20)]
 Deg. of freedom    81
                         Standard orientation:                         
 ---------------------------------------------------------------------
 Center     Atomic      Atomic             Coordinates (Angstroms)
 Number     Number       Type             X           Y           Z
 ---------------------------------------------------------------------
      1          6           0       -2.859863   -0.579603    0.001663
      2          6           0       -1.371974   -0.845859   -0.263727
      3          6           0       -0.391366    0.335586   -0.008162
      4          6           0       -0.585177    1.382164   -1.126790
      5          6           0       -0.738888    1.015064    1.334178
      6          6           0        1.104339   -0.195016    0.005947
      7          6           0        1.373469   -1.166007   -1.164534
      8          6           0        2.117367    0.964344   -0.120570
      9          6           0        1.423204   -0.944990    1.317794
     10          1           0       -3.063065   -0.401781    1.070270
     11          1           0       -3.456483   -1.455863   -0.304820
     12          1           0       -3.237196    0.288121   -0.565656
     13          1           0       -1.264299   -1.166216   -1.314221
     14          1           0       -1.073129   -1.708793    0.356692
     15          1           0       -1.651880    1.640341   -1.234967
     16          1           0       -0.234810    1.011038   -2.105097
     17          1           0       -0.048658    2.318817   -0.903495
     18          1           0       -1.686777    1.572602    1.251930
     19          1           0        0.036332    1.740091    1.633628
     20          1           0       -0.852517    0.282457    2.150835
     21          1           0        1.073193   -0.738198   -2.136454
     22          1           0        0.847356   -2.126097   -1.035871
     23          1           0        2.453508   -1.388130   -1.222252
     24          1           0        1.932242    1.764680    0.616094
     25          1           0        2.102915    1.414714   -1.126845
     26          1           0        3.139636    0.586143    0.055578
     27          1           0        0.681103   -1.730196    1.541880
     28          1           0        1.467618   -0.260740    2.181316
     29          1           0        2.408256   -1.437090    1.236660
 ---------------------------------------------------------------------
 Rotational constants (GHZ):           2.1180917           1.1592965           1.1192425
   166 basis functions,   305 primitive gaussians,   175 cartesian basis functions
    37 alpha electrons       37 beta electrons
       nuclear repulsion energy       523.5914397101 Hartrees.
 NAtoms=   29 NActive=   29 NUniq=   29 SFac= 1.00D+00 NAtFMM=   60 NAOKFM=F Big=F
 Nuclear repulsion after empirical dispersion term =      523.5646781985 Hartrees.
   1 Symmetry operations used in ECPInt.
 ECPInt:  NShTT=    4465 NPrTT=   17943 LenC2=    4452 LenP2D=   14259.
 LDataN:  DoStor=T MaxTD1= 4 Len=   56
 Initial guess from the checkpoint file:  "34.chk"
 B after Tr=    -0.000000   -0.000000    0.000000
         Rot=    0.999982    0.005836   -0.000803    0.001372 Ang=   0.69 deg.
 ExpMin= 1.22D-01 ExpMax= 1.24D+03 ExpMxC= 1.86D+02 IAcc=3 IRadAn=         5 AccDes= 0.00D+00
 Harris functional with IExCor= 4639 and IRadAn=       5 diagonalized for initial guess.
 HarFok:  IExCor= 4639 AccDes= 0.00D+00 IRadAn=         5 IDoV= 1 UseB2=F ITyADJ=14
 ICtDFT=  3500011 ScaDFX=  1.000000  1.000000  1.000000  1.000000
 FoFCou: FMM=F IPFlag=           0 FMFlag=      100000 FMFlg1=           0
         NFxFlg=           0 DoJE=T BraDBF=F KetDBF=T FulRan=T
         wScrn=  0.000000 ICntrl=       500 IOpCl=  0 I1Cent=   200000004 NGrid=           0
         NMat0=    1 NMatS0=      1 NMatT0=    0 NMatD0=    1 NMtDS0=    0 NMtDT0=    0
 Petite list used in FoFCou.
     Accept linear search using points  3 and  4.
     Accept linear search using points  1 and  2.
     Minimum is close to point  2 DX= -2.54D-04 DF= -3.18D-12 DXR=  2.54D-04 DFR=  6.43D-08 which will be used.
 SCF Done:  E(RwB97XD) =  -354.622630031     a.u. after    5 cycles
            Convg  =    0.3147D-09                    28 Fock formations.
              S**2 =  0.0000                  -V/T =  2.0125
   1 Symmetry operations used in ECPInt.
 ECPInt:  NShTT=    4465 NPrTT=   17943 LenC2=    4452 LenP2D=   14259.
 LDataN:  DoStor=T MaxTD1= 5 Len=  102
 Calling FoFJK, ICntrl=      2127 FMM=F ISym2X=0 I1Cent= 0 IOpClX= 0 NMat=1 NMatS=1 NMatT=0.

 GradGradGradGradGradGradGradGradGradGradGradGradGradGradGradGradGradGrad
 Using GEDIIS/GDIIS optimizer.
 FormGI is forming the generalized inverse of G from B-inverse, IUseBI=4.
 Internal  Forces:  Max     0.002633112 RMS     0.000531294
 Step number   2 out of a maximum of  164
 All quantities printed in internal units (Hartrees-Bohrs-Radians)
 Mixed Optimization -- En-DIIS/RFO-DIIS
 Trust test= 9.44D-01 RLast= 1.70D-01 DXMaxT set to 5.05D-01
 ITU=  1  0
 Use linear search instead of GDIIS.
     Eigenvalues ---    0.00230   0.00230   0.00292   0.00294   0.00297
     Eigenvalues ---    0.00303   0.00308   0.00408   0.03132   0.04400
     Eigenvalues ---    0.04431   0.04525   0.04660   0.04730   0.05123
     Eigenvalues ---    0.05253   0.05258   0.05265   0.05309   0.05322
     Eigenvalues ---    0.05329   0.05509   0.05510   0.05557   0.05571
     Eigenvalues ---    0.05577   0.05579   0.05638   0.08997   0.12674
     Eigenvalues ---    0.14252   0.14348   0.14412   0.14528   0.15843
     Eigenvalues ---    0.16000   0.16000   0.16000   0.16000   0.16000
     Eigenvalues ---    0.16000   0.16000   0.16000   0.16000   0.16000
     Eigenvalues ---    0.16000   0.16000   0.16000   0.16000   0.16000
     Eigenvalues ---    0.16000   0.16013   0.22057   0.26113   0.28081
     Eigenvalues ---    0.28892   0.28914   0.28948   0.28985   0.29250
     Eigenvalues ---    0.29600   0.34697   0.34721   0.34977   0.35001
     Eigenvalues ---    0.35004   0.35043   0.35153   0.35164   0.35169
     Eigenvalues ---    0.35184   0.35195   0.35198   0.35205   0.35225
     Eigenvalues ---    0.35236   0.35247   0.35261   0.35264   0.35266
     Eigenvalues ---    0.36483
 Quartic linear search produced a step of -0.01607.
 Iteration  1 RMS(Cart)=  0.01453260 RMS(Int)=  0.00010065
 Iteration  2 RMS(Cart)=  0.00011719 RMS(Int)=  0.00000268
 Iteration  3 RMS(Cart)=  0.00000001 RMS(Int)=  0.00000268
 Variable       Old X    -DE/DX   Delta X   Delta X   Delta X     New X
                                 (Linear)    (Quad)   (Total)
    R1        2.90006  -0.00263  -0.00023  -0.00817  -0.00840   2.89166
    R2        2.08285   0.00040  -0.00048   0.00226   0.00178   2.08463
    R3        2.08532   0.00002  -0.00045   0.00112   0.00067   2.08599
    R4        2.08485   0.00030  -0.00049   0.00202   0.00152   2.08638
    R5        2.94137  -0.00236  -0.00032  -0.00754  -0.00786   2.93351
    R6        2.08535   0.00019  -0.00038   0.00144   0.00105   2.08641
    R7        2.08632   0.00025  -0.00039   0.00165   0.00125   2.08757
    R8        2.91791  -0.00200  -0.00028  -0.00615  -0.00642   2.91149
    R9        2.91798  -0.00233  -0.00029  -0.00721  -0.00750   2.91048
   R10        2.99917  -0.00088  -0.00052  -0.00210  -0.00262   2.99655
   R11        2.08403   0.00030  -0.00048   0.00198   0.00150   2.08553
   R12        2.08520   0.00015  -0.00050   0.00161   0.00111   2.08631
   R13        2.08302   0.00028  -0.00049   0.00194   0.00145   2.08447
   R14        2.08394   0.00036  -0.00048   0.00216   0.00168   2.08562
   R15        2.08410   0.00028  -0.00049   0.00196   0.00147   2.08558
   R16        2.08432   0.00025  -0.00051   0.00189   0.00139   2.08571
   R17        2.91856  -0.00173  -0.00027  -0.00525  -0.00552   2.91304
   R18        2.91921  -0.00214  -0.00027  -0.00663  -0.00690   2.91231
   R19        2.91844  -0.00194  -0.00027  -0.00594  -0.00621   2.91223
   R20        2.08540   0.00011  -0.00051   0.00154   0.00102   2.08642
   R21        2.08309   0.00009  -0.00049   0.00142   0.00093   2.08403
   R22        2.08655   0.00022  -0.00048   0.00176   0.00128   2.08783
   R23        2.08511   0.00017  -0.00051   0.00168   0.00117   2.08628
   R24        2.08353   0.00018  -0.00050   0.00169   0.00119   2.08472
   R25        2.08650   0.00020  -0.00048   0.00170   0.00123   2.08773
   R26        2.08511   0.00012  -0.00051   0.00154   0.00103   2.08614
   R27        2.08371   0.00019  -0.00050   0.00171   0.00121   2.08492
   R28        2.08648   0.00022  -0.00048   0.00175   0.00127   2.08775
    A1        1.95454   0.00007  -0.00012   0.00037   0.00025   1.95479
    A2        1.91600   0.00005  -0.00017   0.00135   0.00118   1.91718
    A3        1.95965   0.00025  -0.00014   0.00159   0.00145   1.96110
    A4        1.87309  -0.00000   0.00016   0.00016   0.00032   1.87341
    A5        1.88452  -0.00030   0.00017  -0.00341  -0.00323   1.88129
    A6        1.87215  -0.00009   0.00014  -0.00020  -0.00007   1.87208
    A7        2.03838  -0.00184  -0.00028  -0.00717  -0.00745   2.03093
    A8        1.88556   0.00064  -0.00004   0.00399   0.00395   1.88951
    A9        1.87640   0.00065  -0.00003   0.00261   0.00258   1.87897
   A10        1.89144   0.00064   0.00002   0.00369   0.00372   1.89516
   A11        1.90760   0.00053   0.00002   0.00162   0.00164   1.90925
   A12        1.85629  -0.00054   0.00037  -0.00472  -0.00436   1.85194
   A13        1.89277   0.00000   0.00001   0.00103   0.00103   1.89380
   A14        1.91235  -0.00044  -0.00001  -0.00478  -0.00480   1.90755
   A15        1.91923   0.00046   0.00002   0.00439   0.00441   1.92363
   A16        1.87893   0.00025  -0.00001   0.00039   0.00039   1.87931
   A17        1.92979  -0.00017   0.00001   0.00064   0.00065   1.93043
   A18        1.92996  -0.00012  -0.00001  -0.00178  -0.00179   1.92817
   A19        1.92959  -0.00002  -0.00015   0.00036   0.00020   1.92979
   A20        1.95463   0.00021  -0.00012   0.00153   0.00141   1.95604
   A21        1.94776   0.00022  -0.00015   0.00161   0.00147   1.94923
   A22        1.87433  -0.00008   0.00011  -0.00064  -0.00053   1.87380
   A23        1.86684  -0.00010   0.00017  -0.00099  -0.00082   1.86601
   A24        1.88688  -0.00025   0.00017  -0.00211  -0.00194   1.88494
   A25        1.92953  -0.00002  -0.00017   0.00012  -0.00005   1.92948
   A26        1.94671   0.00020  -0.00012   0.00209   0.00197   1.94868
   A27        1.95472   0.00014  -0.00018   0.00084   0.00065   1.95537
   A28        1.86719   0.00001   0.00014   0.00066   0.00080   1.86799
   A29        1.87809  -0.00018   0.00021  -0.00275  -0.00255   1.87555
   A30        1.88392  -0.00016   0.00016  -0.00116  -0.00100   1.88292
   A31        1.94731   0.00028   0.00006   0.00247   0.00253   1.94983
   A32        1.94591  -0.00040  -0.00001  -0.00507  -0.00508   1.94082
   A33        1.94388  -0.00015   0.00001  -0.00215  -0.00214   1.94173
   A34        1.87078   0.00005  -0.00003   0.00160   0.00157   1.87235
   A35        1.87808  -0.00001  -0.00001   0.00245   0.00243   1.88052
   A36        1.87405   0.00024  -0.00002   0.00102   0.00099   1.87504
   A37        1.95663   0.00015  -0.00014   0.00137   0.00123   1.95786
   A38        1.95622   0.00024  -0.00015   0.00184   0.00169   1.95791
   A39        1.91404   0.00011  -0.00008   0.00076   0.00068   1.91472
   A40        1.88660  -0.00020   0.00016  -0.00145  -0.00129   1.88531
   A41        1.87351  -0.00013   0.00011  -0.00108  -0.00098   1.87253
   A42        1.87312  -0.00020   0.00013  -0.00171  -0.00158   1.87154
   A43        1.96023   0.00004  -0.00014   0.00036   0.00022   1.96045
   A44        1.95273   0.00015  -0.00016   0.00111   0.00095   1.95368
   A45        1.91454   0.00011  -0.00009   0.00125   0.00116   1.91571
   A46        1.88688  -0.00017   0.00016  -0.00201  -0.00186   1.88503
   A47        1.87264  -0.00005   0.00011  -0.00023  -0.00011   1.87252
   A48        1.87303  -0.00010   0.00014  -0.00061  -0.00047   1.87256
   A49        1.95976   0.00019  -0.00014   0.00149   0.00135   1.96111
   A50        1.95216   0.00008  -0.00016   0.00063   0.00047   1.95263
   A51        1.91582   0.00013  -0.00009   0.00128   0.00119   1.91702
   A52        1.88562  -0.00020   0.00015  -0.00206  -0.00190   1.88371
   A53        1.87317  -0.00012   0.00012  -0.00060  -0.00048   1.87269
   A54        1.87359  -0.00011   0.00014  -0.00094  -0.00080   1.87279
    D1       -1.15512   0.00014   0.00003   0.00672   0.00675  -1.14837
    D2        2.99191   0.00008   0.00023   0.00369   0.00393   2.99584
    D3        0.99505   0.00006  -0.00016   0.00590   0.00574   1.00078
    D4        3.04933   0.00007   0.00003   0.00538   0.00541   3.05473
    D5        0.91317   0.00001   0.00023   0.00235   0.00258   0.91576
    D6       -1.08369  -0.00001  -0.00017   0.00457   0.00439  -1.07930
    D7        0.96850  -0.00002   0.00006   0.00371   0.00377   0.97227
    D8       -1.16766  -0.00008   0.00026   0.00068   0.00095  -1.16671
    D9        3.11867  -0.00010  -0.00014   0.00289   0.00276   3.12142
   D10       -1.26288  -0.00002  -0.00006   0.00383   0.00378  -1.25911
   D11        0.78353   0.00004  -0.00008   0.00222   0.00215   0.78569
   D12        2.90824  -0.00010  -0.00009  -0.00026  -0.00036   2.90788
   D13        0.87021   0.00003  -0.00030   0.00700   0.00670   0.87691
   D14        2.91663   0.00009  -0.00032   0.00539   0.00508   2.92171
   D15       -1.24185  -0.00004  -0.00033   0.00290   0.00257  -1.23928
   D16        2.88629   0.00003   0.00017   0.00427   0.00444   2.89073
   D17       -1.35048   0.00009   0.00015   0.00267   0.00282  -1.34766
   D18        0.77423  -0.00005   0.00014   0.00018   0.00031   0.77454
   D19        0.89021  -0.00026  -0.00006   0.00180   0.00175   0.89196
   D20       -1.19927  -0.00028  -0.00002   0.00136   0.00134  -1.19792
   D21        2.96574  -0.00026  -0.00004   0.00184   0.00180   2.96754
   D22       -1.17750   0.00012  -0.00004   0.00670   0.00666  -1.17084
   D23        3.01620   0.00010   0.00000   0.00625   0.00626   3.02246
   D24        0.89803   0.00012  -0.00003   0.00674   0.00671   0.90474
   D25        2.99573   0.00021  -0.00003   0.00825   0.00822   3.00396
   D26        0.90626   0.00019   0.00002   0.00781   0.00782   0.91408
   D27       -1.21192   0.00021  -0.00001   0.00829   0.00828  -1.20364
   D28       -1.23873   0.00028  -0.00013   0.02772   0.02759  -1.21114
   D29        2.96920   0.00015  -0.00012   0.02546   0.02534   2.99454
   D30        0.85553   0.00012  -0.00011   0.02487   0.02477   0.88030
   D31        0.81636   0.00019  -0.00014   0.02656   0.02642   0.84278
   D32       -1.25890   0.00006  -0.00013   0.02430   0.02417  -1.23473
   D33        2.91062   0.00003  -0.00012   0.02371   0.02360   2.93422
   D34        2.92620   0.00007  -0.00014   0.02652   0.02638   2.95259
   D35        0.85094  -0.00006  -0.00012   0.02426   0.02414   0.87508
   D36       -1.26273  -0.00009  -0.00011   0.02368   0.02356  -1.23916
   D37        0.78648   0.00017   0.00001  -0.00704  -0.00703   0.77945
   D38        2.87762   0.00016  -0.00000  -0.00677  -0.00677   2.87085
   D39       -1.31258   0.00010  -0.00002  -0.01037  -0.01039  -1.32297
   D40       -1.30320  -0.00002  -0.00002  -0.01153  -0.01155  -1.31475
   D41        0.78794  -0.00003  -0.00003  -0.01126  -0.01130   0.77664
   D42        2.88092  -0.00010  -0.00005  -0.01486  -0.01491   2.86601
   D43        2.90066  -0.00015  -0.00001  -0.01129  -0.01130   2.88936
   D44       -1.29138  -0.00016  -0.00002  -0.01102  -0.01105  -1.30243
   D45        0.80160  -0.00022  -0.00004  -0.01462  -0.01466   0.78694
   D46        0.90494  -0.00006  -0.00009   0.00533   0.00525   0.91018
   D47       -1.22041  -0.00008  -0.00008   0.00488   0.00480  -1.21561
   D48        2.98423  -0.00006  -0.00009   0.00535   0.00526   2.98948
   D49       -1.22999   0.00022  -0.00009   0.00903   0.00894  -1.22105
   D50        2.92785   0.00020  -0.00009   0.00858   0.00849   2.93634
   D51        0.84930   0.00022  -0.00010   0.00905   0.00895   0.85825
   D52        3.04221  -0.00008  -0.00005   0.00585   0.00581   3.04802
   D53        0.91687  -0.00010  -0.00004   0.00540   0.00536   0.92223
   D54       -1.16168  -0.00008  -0.00005   0.00587   0.00582  -1.15586
   D55        0.90193  -0.00014  -0.00010   0.01064   0.01054   0.91247
   D56       -1.22386  -0.00005  -0.00009   0.01219   0.01210  -1.21176
   D57        2.98277  -0.00010  -0.00010   0.01142   0.01132   2.99409
   D58        3.03773   0.00001  -0.00005   0.01164   0.01158   3.04931
   D59        0.91194   0.00009  -0.00004   0.01318   0.01314   0.92508
   D60       -1.16462   0.00005  -0.00006   0.01242   0.01236  -1.15226
   D61       -1.23179   0.00013  -0.00009   0.01576   0.01567  -1.21612
   D62        2.92561   0.00022  -0.00008   0.01731   0.01722   2.94284
   D63        0.84905   0.00018  -0.00010   0.01654   0.01645   0.86549
   D64        0.90484   0.00024  -0.00008   0.01981   0.01973   0.92457
   D65       -1.21854   0.00030  -0.00006   0.02095   0.02089  -1.19765
   D66        2.98690   0.00030  -0.00008   0.02088   0.02080   3.00770
   D67       -1.23455  -0.00001  -0.00015   0.01645   0.01631  -1.21825
   D68        2.92525   0.00005  -0.00013   0.01759   0.01746   2.94271
   D69        0.84751   0.00005  -0.00015   0.01752   0.01737   0.86488
   D70        3.03982  -0.00019  -0.00009   0.01288   0.01278   3.05260
   D71        0.91644  -0.00012  -0.00008   0.01401   0.01393   0.93037
   D72       -1.16130  -0.00013  -0.00010   0.01394   0.01384  -1.14746
         Item               Value     Threshold  Converged?
 Maximum Force            0.002633     0.000015     NO 
 RMS     Force            0.000531     0.000010     NO 
 Maximum Displacement     0.073626     0.000060     NO 
 RMS     Displacement     0.014532     0.000040     NO 
 GradGradGradGradGradGradGradGradGradGradGradGradGradGradGradGradGradGrad

                    Distance matrix (angstroms):
                    1          2          3          4          5
     1  C    0.000000
     2  C    1.530199   0.000000
     3  C    2.619341   1.552347   0.000000
     4  C    3.192031   2.510349   1.540692   0.000000
     5  C    2.947360   2.522279   1.540160   2.487342   0.000000
     6  C    3.973755   2.574004   1.585708   2.570568   2.568114
     7  C    4.426628   2.907738   2.588381   3.219559   3.923892
     8  C    5.191837   3.924238   2.580133   2.898094   3.199839
     9  C    4.490228   3.216359   2.580900   3.917455   2.901295
    10  H    1.103138   2.196174   2.957350   3.739248   2.704481
    11  H    1.103857   2.169544   3.552530   4.108290   3.999786
    12  H    1.104063   2.201365   2.888647   2.904896   3.204932
    13  H    2.149249   1.104079   2.172844   2.646104   3.464212
    14  H    2.141804   1.104692   2.183776   3.459656   2.902398
    15  H    2.797093   2.680788   2.187799   1.103613   2.789532
    16  H    3.708505   2.847923   2.207034   1.104025   3.471829
    17  H    4.122298   3.485417   2.201415   1.103052   2.679882
    18  H    2.705487   2.846938   2.187142   2.634779   1.103662
    19  H    4.028798   3.496472   2.200998   2.836725   1.103639
    20  H    3.066078   2.714935   2.205845   3.465154   1.103709
    21  H    4.478990   3.083745   2.800768   2.887973   4.288554
    22  H    4.149881   2.678367   2.939679   3.796034   4.231773
    23  H    5.509088   3.982085   3.540513   4.119673   4.735791
    24  H    5.349358   4.294642   2.793242   3.072568   2.863572
    25  H    5.436387   4.218303   2.924725   2.664434   3.769281
    26  H    6.097816   4.739934   3.535275   3.972897   4.105082
    27  H    4.039092   2.886445   2.800016   4.291142   3.091500
    28  H    4.831968   3.782555   2.918025   4.204204   2.655649
    29  H    5.482953   4.122756   3.537273   4.735873   3.972629
                    6          7          8          9         10
     6  C    0.000000
     7  C    1.541514   0.000000
     8  C    1.541127   2.482438   0.000000
     9  C    1.541085   2.489849   2.484551   0.000000
    10  H    4.293394   5.019264   5.463496   4.515710   0.000000
    11  H    4.738430   4.918100   6.064706   5.169015   1.777975
    12  H    4.395932   4.869042   5.390856   5.168204   1.783281
    13  H    2.882520   2.647226   4.164379   3.774537   3.083654
    14  H    2.677699   2.930605   4.187153   2.792300   2.486753
    15  H    3.534341   4.135589   3.972731   4.750931   3.364026
    16  H    2.777394   2.878349   3.066198   4.275147   4.463161
    17  H    2.905677   3.775132   2.652527   4.197811   4.491510
    18  H    3.528767   4.759621   4.094261   3.983376   2.349591
    19  H    2.750621   4.252790   2.834493   3.036600   3.775638
    20  H    2.925504   4.228140   3.783104   2.683865   2.552600
    21  H    2.209108   1.104088   2.831395   3.476050   5.241455
    22  H    2.208177   1.102820   3.462070   2.698042   4.763262
    23  H    2.178404   1.104831   2.621328   2.772655   6.047590
    24  H    2.210558   3.471556   1.104014   2.833510   5.436759
    25  H    2.205096   2.685966   1.103189   3.462778   5.866727
    26  H    2.178748   2.762683   1.104777   2.628263   6.345995
    27  H    2.210930   2.841163   3.473386   1.103940   4.009198
    28  H    2.204387   3.466570   2.690339   1.103293   4.635637
    29  H    2.179683   2.635923   2.764018   1.104789   5.568634
                   11         12         13         14         15
    11  H    0.000000
    12  H    1.777854   0.000000
    13  H    2.432617   2.563709   0.000000
    14  H    2.484401   3.085850   1.765257   0.000000
    15  H    3.689899   2.168465   2.840149   3.750606   0.000000
    16  H    4.430742   3.432384   2.537039   3.762384   1.778754
    17  H    5.109159   3.778175   3.716201   4.340249   1.772866
    18  H    3.788536   2.678340   3.760752   3.427977   2.487251
    19  H    5.092976   4.174406   4.336086   3.841939   3.306963
    20  H    3.976472   3.623193   3.777747   2.683199   3.737024
    21  H    4.944142   4.702007   2.519498   3.428942   3.744689
    22  H    4.424835   4.770742   2.343096   2.406966   4.533860
    23  H    5.985902   5.966400   3.731487   3.876942   5.110937
    24  H    6.329072   5.480682   4.743104   4.598985   4.020931
    25  H    6.287663   5.450469   4.233844   4.687611   3.738730
    26  H    6.906911   6.394502   4.929121   4.811000   5.058548
    27  H    4.552846   4.894845   3.512899   2.134570   4.954530
    28  H    5.626069   5.449217   4.523293   3.445685   4.976588
    29  H    6.079222   6.172674   4.498533   3.622687   5.657947
                   16         17         18         19         20
    16  H    0.000000
    17  H    1.785556   0.000000
    18  H    3.704672   2.830236   0.000000
    19  H    3.809241   2.587961   1.774675   0.000000
    20  H    4.359472   3.755933   1.779677   1.784461   0.000000
    21  H    2.203502   3.492206   4.948387   4.634540   4.799690
    22  H    3.499305   4.538967   5.019684   4.769582   4.320664
    23  H    3.725022   4.486824   5.656605   4.882171   4.986022
    24  H    3.550955   2.539653   3.691232   2.156703   3.493227
    25  H    2.545379   2.316841   4.477518   3.458488   4.537387
    26  H    4.015892   3.732434   5.076903   3.679462   4.504878
    27  H    4.658544   4.782230   4.060503   3.539204   2.583307
    28  H    4.773556   4.271982   3.732960   2.507805   2.333674
    29  H    4.918189   4.954407   5.064167   3.976923   3.763031
                   21         22         23         24         25
    21  H    0.000000
    22  H    1.785653   0.000000
    23  H    1.778951   1.777281   0.000000
    24  H    3.816992   4.361581   3.686614   0.000000
    25  H    2.589730   3.760718   2.842346   1.785710   0.000000
    26  H    3.275657   3.712271   2.443800   1.778846   1.778206
    27  H    3.825279   2.606472   3.286966   3.820671   4.360638
    28  H    4.360608   3.771084   3.722100   2.593601   3.763318
    29  H    3.699743   2.860410   2.462866   3.273914   3.715616
                   26         27         28         29
    26  H    0.000000
    27  H    3.692166   0.000000
[...]
 .00401043,0.00004689,0.32448264,0.00010602,0.00029734,0.00018120,-0.00
 091316,-0.00009477,-0.00019171,-0.00076826,-0.00215575,-0.00347600,0.0
 0001980,0.00024296,-0.00025198,0.00125715,-0.00031563,0.00034022,0.020
 38617,-0.00595598,-0.00078414,0.04990502,-0.05750048,-0.00083437,0.001
 58869,0.00004424,-0.00004374,-0.00031560,-0.00001385,0.00106759,-0.000
 10574,0.00000342,0.00003395,0.00006503,-0.00000149,-0.00000701,-0.0000
 9475,0.00002879,-0.00000932,-0.00004880,-0.00006435,0.00053395,0.00012
 737,0.00012531,-0.00035514,0.00001768,-0.00008726,0.00003839,-0.000091
 59,0.00019101,-0.00004680,0.00005834,-0.00009020,-0.00008486,0.0001401
 9,-0.00017004,-0.00042077,-0.00004078,-0.00001312,0.00002891,-0.000013
 83,0.00003080,-0.00007771,0.01240029,-0.00276778,-0.00163249,-0.027010
 44,0.00760073,0.00038730,-0.05560321,0.06052075,0.00004518,0.00007844,
 0.00018216,-0.00049255,-0.00042506,-0.00050311,-0.00061749,-0.00202398
 ,-0.00399736,-0.00005513,0.00020176,-0.00031540,0.00136690,-0.00055623
 ,0.00046605,0.02432428,-0.00515967,-0.00199048,0.00915790,-0.00051739,
 -0.04780706,0.00094361,0.00050793,0.00080857,0.00158777,-0.00051984,0.
 00082684,-0.00007267,0.00000087,0.00002055,0.00004266,0.00000423,-0.00
 000292,0.00000280,-0.00001384,-0.00001856,0.00006114,0.00017120,0.0003
 1393,-0.00008759,-0.00000120,0.00009285,0.00003161,-0.00004333,0.00014
 510,0.00001501,-0.00021295,0.00031417,-0.00003781,0.00003309,0.0001244
 5,0.00019563,-0.00024608,-0.00041690,-0.00005060,0.00000291,0.00003702
 ,-0.00000472,0.00006248,0.00000076,-0.02745141,0.00386584,0.00293584,0
 .00407497,-0.00114434,-0.00101502,-0.01141832,0.00561121,0.05056377,0.
 00004472,0.00010478,0.00002659,0.00019144,-0.00007811,0.00009118,0.000
 53367,0.00011227,-0.00053269,-0.00013867,-0.00000911,-0.00031095,-0.00
 157546,-0.00047911,0.00043030,0.00486595,-0.01434108,-0.01579365,-0.00
 290094,-0.00319681,0.00097830,-0.05620415,0.03440361,0.03291508,0.0001
 5248,0.00088966,-0.00060287,-0.00002674,-0.00001030,0.00001507,0.00004
 262,0.00001630,0.00000426,-0.00002977,0.00000041,-0.00000955,0.0000900
 7,0.00006152,0.00007510,0.00004411,0.00006561,-0.00005426,0.00007952,0
 .00013797,0.00007444,-0.00000075,-0.00004206,0.00015840,-0.00050870,0.
 00017686,-0.00049915,0.00016877,0.00008741,0.00000422,-0.00207171,-0.0
 0001027,0.00147474,0.00010066,0.00009537,-0.00004405,-0.00003795,0.000
 15030,0.00010519,0.00044221,-0.00105616,-0.00097181,0.00034883,-0.0001
 7469,0.00002295,0.05991112,0.00005092,0.00005163,0.00000673,0.00002564
 ,0.00007235,0.00009427,0.00102195,-0.00006876,-0.00042447,-0.00016612,
 0.00022184,0.00026805,-0.00005108,-0.00030835,-0.00039226,0.00631776,-
 0.01486923,-0.01609643,-0.00367158,-0.00394909,0.00160806,0.03350722,-
 0.18383690,-0.12845414,0.00035916,0.00051168,-0.00141048,-0.00006702,-
 0.00000377,0.00005374,-0.00000423,0.00001414,0.00002513,-0.00003505,0.
 00000924,-0.00001122,0.00012081,0.00004253,0.00012461,0.00005506,0.000
 02936,-0.00007640,-0.00004878,0.00003736,-0.00002835,0.00014457,0.0000
 1265,0.00012923,0.00005203,0.00010916,-0.00007115,0.00022647,0.0002650
 2,0.00015311,0.00018165,0.00096841,0.00048749,0.00016811,0.00012135,0.
 00002891,-0.00008927,0.00008662,-0.00018212,-0.00003079,-0.00089507,-0
 .00143373,-0.00017868,0.00031506,0.00036819,-0.03503155,0.19640860,0.0
 0000964,-0.00001455,-0.00001397,-0.00018096,0.00016653,-0.00005798,0.0
 0050551,-0.00093395,-0.00004928,-0.00001420,-0.00066934,-0.00032958,0.
 00069187,0.00010020,-0.00049736,-0.00197563,0.00255840,0.00097604,-0.0
 0036728,-0.00021521,0.00091839,0.03209374,-0.12896183,-0.17330068,-0.0
 0034800,0.00056730,0.00090571,-0.00003260,-0.00000337,0.00002228,-0.00
 001492,0.00001590,0.00001274,-0.00003979,0.00000988,-0.00001341,0.0000
 4022,0.00000263,0.00004116,0.00004891,0.00008575,-0.00002644,0.0000629
 3,0.00027135,0.00012414,0.00005803,0.00011122,0.00026155,-0.00029005,0
 .00039899,-0.00030965,-0.00004275,0.00006944,0.00006655,0.00158947,0.0
 0038155,-0.00002259,0.00024386,0.00015725,0.00001897,0.00017704,0.0002
 3501,0.00025940,0.00011865,-0.00019805,0.00020039,0.00001490,0.0002669
 9,-0.00003670,-0.03730066,0.14120243,0.18212669,0.00002755,0.00005145,
 0.00000818,0.00005044,-0.00003495,-0.00018198,0.00099620,-0.00001929,0
 .00073095,-0.00214849,0.00040992,0.00022422,-0.00014269,0.00017275,0.0
 0002602,0.00168018,-0.00757842,0.01982525,0.00073015,0.00083323,0.0006
 3504,-0.04811629,0.00356751,-0.00850842,-0.00271970,-0.00261598,-0.000
 16799,0.00000772,-0.00000241,-0.00001840,0.00001823,0.00001498,-0.0000
 1312,-0.00004989,0.00001735,-0.00000894,-0.00001590,-0.00003754,-0.000
 02223,0.00009599,0.00013556,-0.00001603,0.00011759,-0.00004128,-0.0000
 6770,-0.00055746,-0.00004933,-0.00044723,-0.00222553,0.00072139,-0.000
 03339,-0.00008037,-0.00001296,0.00003498,-0.00000028,-0.00015153,-0.00
 003785,0.00001258,-0.00001726,-0.00011325,0.00008423,-0.00013557,-0.00
 042148,-0.00015924,0.00023405,0.00008009,-0.00010157,0.00009618,-0.000
 24344,-0.00066054,-0.00303633,0.00566717,0.05142066,0.00001200,0.00000
 291,-0.00005956,0.00008604,-0.00004889,0.00010705,0.00071788,-0.000109
 21,-0.00010200,0.00079569,0.00040911,0.00029269,0.00005146,-0.00024597
 ,-0.00026976,0.00307276,-0.00990945,0.02127219,0.00036619,0.00086595,0
 .00134993,0.00286525,-0.09414190,0.10001607,-0.00447268,-0.00392116,-0
 .00028270,0.00001478,-0.00000617,-0.00000170,-0.00001546,0.00000529,0.
 00000015,-0.00003309,0.00002137,-0.00000478,-0.00003772,0.00000072,-0.
 00006389,0.00006971,0.00006403,0.00001755,0.00012859,0.00004390,-0.000
 19932,-0.00015849,-0.00003636,-0.00030624,0.00098403,0.00004922,-0.000
 12894,0.00004832,0.00011708,0.00001009,0.00003006,0.00017776,0.0000715
 5,0.00009828,0.00001657,-0.00006952,-0.00042180,-0.00032005,-0.0006577
 3,0.00012652,0.00037027,-0.00015395,0.00021723,-0.00015657,0.00006576,
 -0.00167301,0.01132937,-0.02089770,-0.00217030,0.10032202,-0.00001065,
 0.00006510,0.00001645,0.00012416,-0.00015408,0.00003519,-0.00032385,0.
 00067662,-0.00038963,-0.00135584,0.00089215,0.00025085,0.00004364,-0.0
 0027080,-0.00007271,-0.00031733,-0.00042843,-0.00165817,-0.00017579,-0
 .00117081,0.00091419,-0.00626140,0.10107064,-0.27317580,0.00111157,0.0
 0051502,0.00072306,-0.00001368,-0.00001255,0.00001781,0.00002725,-0.00
 000818,0.00001347,0.00006099,-0.00003334,0.00001140,0.00001467,0.00004
 404,0.00003355,-0.00006064,-0.00012124,0.00002676,-0.00041102,-0.00052
 372,0.00017233,-0.00021293,0.00015081,0.00002943,-0.00039166,-0.000660
 49,-0.00028486,0.00016817,0.00005004,-0.00000157,-0.00004086,0.0002674
 6,0.00010112,-0.00000370,0.00001331,0.00008307,-0.00013004,0.00020131,
 0.00037552,0.00007468,-0.00003223,0.00018510,0.00006051,0.00021824,-0.
 00001374,-0.00157318,0.00964388,-0.01577838,0.00942956,-0.11060556,0.2
 9001888,-0.00014199,-0.00055020,-0.00020153,-0.00096660,0.00104037,0.0
 0029826,-0.00089627,-0.00415092,-0.00010665,0.00027397,-0.00036794,0.0
 0044647,0.00012778,-0.00018100,-0.00038919,-0.02030131,0.00817445,-0.0
 0248623,0.00021020,0.00115531,0.00059428,-0.27473094,0.08622509,-0.037
 41403,0.00063652,0.00147730,-0.00071472,0.00001424,0.00002276,0.000024
 90,-0.00020961,-0.00000016,0.00003019,0.00003518,0.00002764,-0.0000006
 3,-0.00001625,-0.00004287,-0.00010128,0.00002795,-0.00012555,0.0001034
 7,-0.00002868,0.00003627,-0.00005558,0.00003367,-0.00001908,-0.0000773
 4,0.00005219,-0.00009416,0.00003725,-0.00004161,0.00005583,0.00010238,
 0.00013844,0.00001827,-0.00010834,-0.00008871,-0.00006285,0.00008990,0
 .00007544,0.00002624,0.00013486,0.00042777,-0.00012055,0.00008911,0.00
 059941,-0.00058465,-0.00054106,-0.00309136,0.00040484,-0.00083299,0.00
 115594,-0.00080162,0.00048289,0.29584214,-0.00012889,-0.00035406,-0.00
 014284,-0.00133979,0.00074949,0.00022418,-0.00195392,-0.00418165,0.000
 01928,0.00041147,-0.00087630,0.00012216,-0.00002958,-0.00017788,-0.000
 27280,-0.02338881,0.00706010,-0.00354819,-0.00116136,0.00096891,0.0004
 2729,0.08857310,-0.07981782,0.01391475,-0.00139771,0.00087155,-0.00021
 293,-0.00001197,0.00000399,0.00002253,-0.00014867,0.00002645,0.0000263
 9,-0.00003453,0.00002593,-0.00001950,0.00003834,0.00000986,-0.00003858
 ,0.00004628,0.00007684,0.00001027,0.00013838,0.00026924,-0.00003452,-0
 .00003775,-0.00000859,-0.00003750,0.00016904,0.00057376,0.00010850,0.0
 0000313,0.00008995,0.00008718,0.00000397,0.00017483,0.00030465,0.00006
 998,0.00008934,0.00000718,0.00004690,-0.00008925,-0.00000949,0.0001808
 6,0.00018271,0.00017571,0.00012990,-0.00043759,-0.00035263,0.01952130,
 -0.00686679,0.00539829,0.01077491,-0.00452355,0.00013498,-0.09082409,0
 .08652991,0.00002147,0.00005897,0.00004213,0.00016082,-0.00010259,0.00
 009316,0.00044860,0.00063591,-0.00037342,-0.00053357,0.00024308,0.0001
 2827,-0.00001711,-0.00001743,0.00006223,0.00315962,-0.00057536,-0.0009
 2373,-0.00101466,0.00017166,-0.00029139,-0.03789210,0.01373698,-0.0547
 3258,0.00136964,0.00032066,0.00014338,-0.00001958,-0.00001121,0.000015
 81,0.00002461,-0.00000856,0.00001965,0.00002728,-0.00001512,0.00000330
 ,0.00001235,0.00005871,0.00000563,-0.00000226,-0.00003879,0.00001062,-
 0.00016651,-0.00018621,0.00009272,0.00022437,0.00014930,0.00021942,-0.
 00012224,-0.00030471,-0.00029309,0.00004721,0.00005081,0.00000431,-0.0
 0008307,0.00014659,0.00029375,0.00013510,0.00009542,0.00004133,-0.0000
 8160,-0.00002258,0.00004697,0.00022365,0.00000209,-0.00005766,-0.00011
 176,-0.00070466,-0.00010341,0.02107176,-0.00678611,0.00442243,-0.02718
 165,0.00928058,-0.00209326,0.04009550,-0.01630765,0.05331913,0.0000817
 6,0.00001305,0.00006196,-0.00109207,0.00025478,-0.00110161,-0.00027552
 ,0.00012895,0.00038618,0.00022770,-0.00011553,-0.00004729,0.00006015,0
 .00021274,0.00022000,0.00568745,0.00599681,-0.00111195,-0.00010047,-0.
 00010230,0.00035023,-0.00007005,0.00067723,-0.00069558,-0.16837852,-0.
 12968697,0.03380791,-0.00003148,-0.00000610,0.00001048,0.00004436,0.00
 000973,0.00000077,-0.00002146,0.00002276,0.00000130,-0.00003570,0.0000
 7930,-0.00000101,-0.00147577,0.00032138,-0.00152594,0.00004148,-0.0000
 6765,0.00006902,-0.00002043,0.00000020,0.00001621,-0.00000667,-0.00000
 977,0.00003344,0.00003173,-0.00007583,0.00002104,-0.00004098,0.0000694
 1,-0.00008487,-0.00016586,0.00037196,0.00001749,0.00004042,0.00017226,
 0.00010473,0.00015925,0.00003531,0.00035650,0.00002633,-0.00010487,-0.
 00006658,-0.00007052,-0.00007516,-0.00003998,0.00053509,0.00012806,-0.
 00013884,0.00051386,0.00007209,-0.00011727,0.17986993,0.00014283,0.000
 26674,-0.00012127,0.00005362,-0.00063575,-0.00001191,-0.00127773,-0.00
 015948,0.00012321,0.00016123,0.00006515,-0.00010559,-0.00023589,-0.000
 46869,0.00026627,-0.00997252,-0.01165280,0.00096700,0.00057914,0.00031
 048,-0.00078883,0.00148422,-0.00082955,0.00411726,-0.12867542,-0.18641
 200,0.03479402,0.00003371,-0.00003578,0.00000697,0.00002385,-0.0000227
 1,-0.00000888,-0.00017191,0.00007215,-0.00002386,-0.00021216,0.0002461
 2,-0.00028816,0.00004507,0.00125389,-0.00022363,0.00007119,-0.00004281
 ,0.00002088,-0.00005059,0.00001511,-0.00011773,-0.00005011,0.00015125,
 -0.00001773,0.00013832,0.00023338,-0.00020457,0.00005345,0.00033724,0.
 00009674,0.00033973,-0.00033388,-0.00045900,0.00010445,0.00004885,0.00
 008249,-0.00010426,0.00045080,0.00014968,0.00007578,0.00003598,-0.0000
 5648,0.00011184,0.00029517,-0.00017510,-0.00089109,-0.00081429,0.00030
 772,0.00004860,0.00021995,-0.00018323,0.14069191,0.19744702,-0.0000701
 0,-0.00035152,0.00023696,-0.00055444,0.00081309,-0.00062489,0.00045461
 ,-0.00017414,0.00085900,0.00010487,-0.00021147,-0.00004449,-0.00049411
 ,-0.00030676,0.00023115,0.01983875,0.01755765,-0.00283899,0.00069923,0
 .00103183,0.00139505,-0.00148013,0.00211188,-0.00499302,0.03319111,0.0
 3431283,-0.05827115,0.00003713,0.00000415,-0.00004280,-0.00002381,0.00
 001810,0.00000109,0.00017435,-0.00005071,-0.00001812,0.00004277,-0.000
 06780,0.00009253,-0.00141906,-0.00047591,-0.00028903,-0.00004832,-0.00
 002646,0.00002666,0.00004342,0.00003822,0.00002369,0.00003850,-0.00014
 936,0.00002335,0.00002523,0.00009727,-0.00003579,0.00009197,-0.0000373
 8,-0.00003539,0.00005595,0.00007545,-0.00000689,-0.00026806,-0.0002257
 8,0.00018206,-0.00014645,-0.00062164,-0.00044809,-0.00011052,0.0000398
 5,-0.00003340,-0.00007171,0.00028463,0.00006701,0.00091291,0.00158204,
 0.00000257,-0.00016946,-0.00027457,-0.00011331,-0.03436913,-0.04050619
 ,0.05968956,0.00005035,0.00010113,-0.00011817,-0.00028589,-0.00029109,
 0.00006846,0.00034880,-0.00082186,-0.00036883,0.00001700,0.00017788,0.
 00016688,-0.00099591,0.00067069,-0.00057202,-0.00110866,-0.00521867,-0
 .00465291,-0.00007990,0.00053455,-0.00042603,0.00021511,-0.00009330,0.
 00081169,-0.04788595,-0.00434261,-0.00463596,-0.00005886,-0.00002188,0
 .00004716,0.00000372,0.00001400,0.00002456,-0.00006811,0.00002892,0.00
 000853,-0.00000393,0.00010797,0.00000056,0.00012043,0.00022981,-0.0001
 6679,-0.00001347,-0.00001800,0.00000541,0.00000813,-0.00004073,0.00012
 669,0.00001931,0.00000513,-0.00003324,0.00005441,-0.00013896,0.0001637
 1,-0.00025398,0.00051596,-0.00009049,-0.00194919,0.00051698,0.00000263
 ,0.00055907,-0.00006593,-0.00023194,-0.00009606,0.00023248,0.00008749,
 0.00035176,-0.00010566,-0.00029569,0.00030867,-0.00001650,0.00013805,-
 0.00021745,0.00000938,-0.00008576,-0.00015469,0.00024818,0.00013040,0.
 00050457,-0.01238623,-0.01784095,0.04773548,0.00002803,0.00009238,-0.0
 0012430,-0.00007455,-0.00029052,0.00009723,-0.00012439,0.00035409,-0.0
 0059201,-0.00022054,0.00004656,0.00006601,0.00199489,-0.00013711,-0.00
 008617,-0.00070679,0.01058953,0.01279354,0.00067645,-0.00120742,0.0025
 2695,0.00000420,0.00128382,0.00083160,-0.00544814,-0.15436738,-0.13255
 748,-0.00002687,0.00000332,0.00002550,-0.00000311,-0.00000472,0.000007
 87,-0.00006502,0.00001960,0.00001173,-0.00004554,0.00002564,-0.0000323
 2,0.00008100,0.00018548,-0.00012390,-0.00002433,0.00003471,-0.00006381
 ,-0.00001653,0.00000633,0.00001270,0.00001781,0.00000457,-0.00001382,0
 .00000621,-0.00018720,0.00043830,0.00048874,-0.00056076,-0.00001372,0.
 00039984,-0.00065158,0.00027428,-0.00011100,0.00072802,0.00077419,0.00
 021424,0.00016045,0.00017749,-0.00011556,-0.00008077,0.00009889,0.0001
 4700,-0.00016140,-0.00001299,0.00010833,0.00019529,-0.00011438,-0.0000
 0920,0.00000577,-0.00020621,0.00207902,-0.01192090,-0.01651371,0.00258
 962,0.16342803,0.00001451,0.00000271,-0.00000453,0.00004300,0.00011952
 ,0.00003452,0.00095704,-0.00065319,-0.00026580,0.00000566,-0.00000300,
 0.00009991,0.00045366,-0.00051617,0.00014190,0.00099541,-0.01790599,-0
 .01936005,-0.00201716,0.00425547,-0.00455334,-0.00042643,-0.00145178,0
 .00100765,-0.00546196,-0.13042753,-0.21206820,-0.00006919,-0.00000311,
 0.00004403,-0.00001598,0.00001431,0.00001822,-0.00002552,0.00000314,-0
 .00001264,0.00010816,0.00007150,0.00010976,0.00005041,0.00001896,-0.00
 003261,-0.00006461,0.00007495,0.00000738,0.00004246,-0.00008533,0.0001
 4452,0.00000909,0.00006961,-0.00001007,0.00024784,-0.00003583,0.000485
 19,0.00001874,0.00051776,0.00003828,0.00005342,-0.00039142,0.00053185,
 0.00037306,-0.00106085,-0.00156125,-0.00006706,0.00010030,0.00031007,0
 .00007085,0.00010098,0.00027200,0.00020575,0.00092165,0.00003244,-0.00
 011392,0.00001556,0.00041352,0.00019296,0.00003187,-0.00012358,-0.0003
 0751,0.00526355,0.00627451,0.00505741,0.14084258,0.22879800,0.00002630
 ,-0.00003273,-0.00007679,0.00025521,0.00013465,0.00010405,0.00089442,0
 .00041765,-0.00131426,-0.00043990,-0.00008098,0.00020993,0.00005401,-0
 .00032132,-0.00004799,-0.00727796,0.00196411,0.00100481,0.00048021,-0.
 00017722,0.00107176,0.00051051,-0.00090939,0.00049360,-0.26387976,0.10
 292526,0.01905731,0.00002567,-0.00000435,0.00000790,-0.00005780,-0.000
 02459,0.00000169,-0.00003644,0.00003820,-0.00000838,-0.00010240,0.0000
 7461,-0.00018516,0.00016784,0.00027770,0.00009778,0.00002012,0.0001524
 6,-0.00016413,0.00001937,-0.00001231,-0.00012837,0.00002775,0.00008636
 ,-0.00001387,0.00000667,0.00008390,-0.00002739,0.00004844,0.00009764,0
 .00001263,0.00011379,0.00003824,-0.00022569,0.00035227,-0.00020794,0.0
 0009960,-0.00030015,-0.00003946,-0.00013501,0.00045209,-0.00019193,-0.
 00043735,-0.00000755,-0.00013405,0.00001981,0.00026284,-0.00003805,-0.
 00009094,0.00050333,0.00002927,0.00019099,-0.01603855,0.00986897,0.001
 35545,0.00287524,-0.00184384,-0.00033010,0.28104442,0.00007882,0.00015
 936,-0.00002029,-0.00011766,-0.00033376,-0.00004329,-0.00084752,-0.001
 49911,0.00229616,0.00104713,0.00002552,-0.00007374,0.00011849,0.000095
 71,0.00045237,0.01404433,-0.00729359,-0.00174615,-0.00028696,0.0006132
 2,-0.00138565,0.00146181,-0.00003224,-0.00039743,0.10205432,-0.0972144
 4,-0.00974116,-0.00001213,-0.00002622,0.00000537,0.00004429,0.00000895
 ,0.00000130,-0.00008245,0.00001389,-0.00001368,-0.00004175,0.00014068,
 -0.00005910,0.00009340,0.00035347,-0.00002217,0.00003653,-0.00024167,0
 .00027976,-0.00003848,0.00003195,0.00006409,-0.00001856,-0.00001881,-0
 .00005206,0.00008221,-0.00002626,0.00008976,-0.00006232,0.00024832,-0.
 00007406,-0.00008800,-0.00016734,-0.00001465,-0.00022512,-0.00015242,-
 0.00013452,-0.00017608,-0.00000569,0.00009541,-0.00027795,0.00046922,0
 .00020022,0.00002004,0.00005783,0.00008297,-0.00034335,0.00024270,-0.0
 0011549,-0.00077813,-0.00059510,0.00051969,-0.02109277,0.01187937,0.00
 202642,0.01757873,-0.00759383,0.00010979,-0.11217089,0.10086029,-0.000
 01472,-0.00011086,-0.00003388,0.00019005,0.00040583,0.00001902,0.00056
 230,0.00243356,-0.00478761,-0.00172091,0.00026055,0.00027665,0.0009646
 4,-0.00019265,-0.00061486,-0.02555452,0.01193327,0.00051041,-0.0016802
 0,0.00076353,0.00058744,-0.00098047,-0.00073653,0.00042523,0.02099608,
 -0.01073046,-0.04836306,-0.00003496,-0.00000478,0.00002026,-0.00004566
 ,0.00000368,0.00002310,0.00003850,0.00000924,-0.00000036,-0.00003155,0
 .00001290,-0.00001786,0.00004131,-0.00012596,0.00006920,-0.00015375,0.
 00044376,-0.00038492,0.00002200,-0.00006648,0.00002934,0.00005168,0.00
 003385,0.00001593,0.00002399,-0.00011017,0.00036464,-0.00000643,0.0002
 4645,-0.00003417,-0.00016754,-0.00047069,0.00040433,0.00015352,-0.0000
 4049,0.00041506,-0.00001549,-0.00019678,0.00004040,0.00046413,0.000071
 92,-0.00085000,0.00011120,-0.00003326,-0.00001985,0.00002263,-0.000277
 85,0.00004385,0.00047659,0.00023599,0.00014120,0.00415029,-0.00290363,
 -0.00130985,0.02267915,-0.00852405,-0.00077167,-0.02054188,0.00767012,
 0.05380205\\0.00000061,-0.00000110,-0.00000064,0.00000006,-0.00000036,
 -0.00000033,-0.00000010,0.00000014,0.00000012,-0.00000033,-0.00000014,
 0.00000009,-0.00000060,-0.00000034,-0.00000022,0.00000035,0.00000021,0
 .00000021,0.00000070,0.00000062,-0.00000004,-0.00000060,0.00000068,0.0
 0000067,0.,0.00000057,0.00000020,-0.00000017,-0.00000111,-0.00000066,0
 .00000045,-0.00000116,-0.00000078,-0.00000004,-0.00000104,-0.00000061,
 0.00000069,-0.00000039,-0.00000030,0.00000051,-0.00000036,-0.00000039,
 -0.00000024,-0.00000044,-0.00000018,0.00000008,0.00000011,0.00000002,-
 0.00000056,0.00000004,0.00000018,-0.00000069,-0.00000069,-0.00000020,-
 0.00000089,-0.00000013,0.00000008,-0.00000050,-0.00000046,-0.00000013,
 0.00000076,0.00000044,0.00000010,0.00000094,0.00000040,-0.00000006,0.0
 0000061,0.00000088,0.00000033,-0.00000076,0.00000066,0.00000056,-0.000
 00026,0.00000082,0.00000048,-0.00000022,0.00000102,0.00000069,0.000000
 30,0.00000010,0.,-0.00000036,0.00000030,0.00000040,0.00000027,0.000000
 73,0.00000039\\\@


      TO SUSPECT YOUR OWN MORTALITY IS TO KNOW THE BEGINNING OF TERROR.
      TO LEARN IRREFUTABLY THAT YOU ARE MORTAL IS TO KNOW THE END
      OF TERROR.

                                                  -- JESSICA
                                                     CHILDREN OF DUNE
                                                     BY FRANK HERBERT
 Job cpu time:       0 days  0 hours 17 minutes 35.8 seconds.
 Elapsed time:       0 days  0 hours  4 minutes 25.3 seconds.
 File lengths (MBytes):  RWF=     99 Int=      0 D2E=      0 Chk=      4 Scr=      1
 Normal termination of Gaussian 16 at Mon Feb  6 10:30:19 2023.
real 907.77
user 3487.23
sys 14.30
