 Entering Gaussian System, Link 0=g16
 Input=gaussian_test.inp
 Output=gaussian_test.log
 Initial command:
 /sw/restricted/lms/sw/Gaussian/g16_B01/g16/l1.exe "/scratch/user/peterchao1/peterchao1/6215031_1662005188000000893564070/Gau-111505.inp" -scrdir="/scratch/user/peterchao1/peterchao1/6215031_1662005188000000893564070/"
 Entering Link 1 = /sw/restricted/lms/sw/Gaussian/g16_B01/g16/l1.exe PID=    111506.
  
 Copyright (c) 1988-2017, Gaussian, Inc.  All Rights Reserved.
  
 This is part of the Gaussian(R) 16 program.  It is based on
 the Gaussian(R) 09 system (copyright 2009, Gaussian, Inc.),
 the Gaussian(R) 03 system (copyright 2003, Gaussian, Inc.),
 the Gaussian(R) 98 system (copyright 1998, Gaussian, Inc.),
 the Gaussian(R) 94 system (copyright 1995, Gaussian, Inc.),
 the Gaussian 92(TM) system (copyright 1992, Gaussian, Inc.),
 the Gaussian 90(TM) system (copyright 1990, Gaussian, Inc.),
 the Gaussian 88(TM) system (copyright 1988, Gaussian, Inc.),
 the Gaussian 86(TM) system (copyright 1986, Carnegie Mellon
 University), and the Gaussian 82(TM) system (copyright 1983,
 Carnegie Mellon University). Gaussian is a federally registered
 trademark of Gaussian, Inc.
  
 This software contains proprietary and confidential information,
 including trade secrets, belonging to Gaussian, Inc.
  
 This software is provided under written license and may be
 used, copied, transmitted, or stored only in accord with that
 written license.
  
 The following legend is applicable only to US Government
 contracts under FAR:
  
                    RESTRICTED RIGHTS LEGEND
  
 Use, reproduction and disclosure by the US Government is
 subject to restrictions as set forth in subparagraphs (a)
 and (c) of the Commercial Computer Software - Restricted
 Rights clause in FAR 52.227-19.
  
 Gaussian, Inc.
 340 Quinnipiac St., Bldg. 40, Wallingford CT 06492
  
  
 ---------------------------------------------------------------
 Warning -- This program may not be used in any manner that
 competes with the business of Gaussian, Inc. or will provide
 assistance to any competitor of Gaussian, Inc.  The licensee
 of this program is prohibited from giving any competitor of
 Gaussian, Inc. access to this program.  By using this program,
 the user acknowledges that Gaussian, Inc. is engaged in the
 business of creating and licensing software in the field of
 computational chemistry and represents and warrants to the
 licensee that it is not a competitor of Gaussian, Inc. and that
 it will not use this program in any manner prohibited above.
 ---------------------------------------------------------------
  

 Cite this work as:
 Gaussian 16, Revision B.01,
 M. J. Frisch, G. W. Trucks, H. B. Schlegel, G. E. Scuseria, 
 M. A. Robb, J. R. Cheeseman, G. Scalmani, V. Barone, 
 G. A. Petersson, H. Nakatsuji, X. Li, M. Caricato, A. V. Marenich, 
 J. Bloino, B. G. Janesko, R. Gomperts, B. Mennucci, H. P. Hratchian, 
 J. V. Ortiz, A. F. Izmaylov, J. L. Sonnenberg, D. Williams-Young, 
 F. Ding, F. Lipparini, F. Egidi, J. Goings, B. Peng, A. Petrone, 
 T. Henderson, D. Ranasinghe, V. G. Zakrzewski, J. Gao, N. Rega, 
 G. Zheng, W. Liang, M. Hada, M. Ehara, K. Toyota, R. Fukuda, 
 J. Hasegawa, M. Ishida, T. Nakajima, Y. Honda, O. Kitao, H. Nakai, 
 T. Vreven, K. Throssell, J. A. Montgomery, Jr., J. E. Peralta, 
 F. Ogliaro, M. J. Bearpark, J. J. Heyd, E. N. Brothers, K. N. Kudin, 
 V. N. Staroverov, T. A. Keith, R. Kobayashi, J. Normand, 
 K. Raghavachari, A. P. Rendell, J. C. Burant, S. S. Iyengar, 
 J. Tomasi, M. Cossi, J. M. Millam, M. Klene, C. Adamo, R. Cammi, 
 J. W. Ochterski, R. L. Martin, K. Morokuma, O. Farkas, 
 J. B. Foresman, and D. J. Fox, Gaussian, Inc., Wallingford CT, 2016.
 
 ******************************************
 Gaussian 16:  ES64L-G16RevB.01 20-Dec-2017
                31-Aug-2022 
 ******************************************
 %nprocshared=4
 Will use up to    4 processors via shared memory.
 %mem=8000mb
 ----------------------------------------------------------------------
 #T wB97XD/def2svpp opt=tight freq int(grid=ultrafine) scf=(verytight,q
 c)
 ----------------------------------------------------------------------
 -----
 dimer
 -----
 Symbolic Z-matrix:
 Charge =  0 Multiplicity = 1
 O                     5.29791   0.8003   -0.33991 
 C                     4.15512   0.63434  -1.14433 
 C                     3.08419  -0.27922  -0.51131 
 C                     1.89813  -0.39342  -1.48754 
 O                     0.90585  -1.29364  -1.06905 
 C                     3.65499  -1.7008   -0.28393 
 O                     4.8112   -1.74537   0.51463 
 C                     2.63716   0.2886    0.84977 
 O                     3.65258   0.44742   1.74845 
 Cl                    1.79535   1.89338   0.59014 
 H                     5.67668  -0.08249  -0.18678 
 H                     4.43251   0.22543  -2.125 
 H                     3.74138   1.63508  -1.29393 
 H                     2.26323  -0.77807  -2.44365 
 H                     1.47401   0.60375  -1.65456 
 H                     0.51435  -0.96915  -0.22976 
 H                     3.94698  -2.11942  -1.25079 
 H                     2.86432  -2.33472   0.13673 
 H                     4.58689  -1.41793   1.3983 
 H                     1.87548  -0.33996   1.32229 
 H                     4.39141   0.91301   1.29939 
 O                    -0.58261  -0.31636   0.96924 
 C                    -1.7711   -1.05069   1.15264 
 C                    -2.91829  -0.73601   0.16758 
 C                    -2.60815  -1.1455   -1.29151 
 O                    -1.58534  -0.40171  -1.90818 
 C                    -4.14836  -1.54936   0.63997 
 O                    -4.68081  -1.09146   1.85142 
 C                    -3.19753   0.77413   0.25429 
 O                    -2.1888    1.55589  -0.22509 
 Cl                   -4.75746   1.15262  -0.63091 
 H                    -0.80263   0.62423   0.85755 
 H                    -2.15602  -0.89179   2.16876 
 H                    -1.48942  -2.10243   1.05174 
 H                    -3.50843  -0.96921  -1.88932 
 H                    -2.38539  -2.21743  -1.31616 
 H                    -0.71606  -0.80484  -1.71424 
 H                    -3.83692  -2.58235   0.81662 
 H                    -4.90826  -1.54854  -0.14832 
 H                    -5.22683  -0.31599   1.67613 
 H                    -3.39289   1.07966   1.28809 
 H                    -1.89089   1.17706  -1.08422 
 
 Add virtual bond connecting atoms O22        and H16        Dist= 3.31D+00.
 Add virtual bond connecting atoms H37        and O5         Dist= 3.43D+00.

 GradGradGradGradGradGradGradGradGradGradGradGradGradGradGradGradGradGrad
 Initialization pass.
                           ----------------------------
                           !    Initial Parameters    !
                           ! (Angstroms and Degrees)  !
 --------------------------                            --------------------------
 ! Name  Definition              Value          Derivative Info.                !
 --------------------------------------------------------------------------------
 ! R1    R(1,2)                  1.4073         estimate D2E/DX2                !
 ! R2    R(1,11)                 0.9727         estimate D2E/DX2                !
 ! R3    R(2,3)                  1.5434         estimate D2E/DX2                !
 ! R4    R(2,12)                 1.0981         estimate D2E/DX2                !
 ! R5    R(2,13)                 1.0932         estimate D2E/DX2                !
 ! R6    R(3,4)                  1.5404         estimate D2E/DX2                !
 ! R7    R(3,6)                  1.5487         estimate D2E/DX2                !
 ! R8    R(3,8)                  1.541          estimate D2E/DX2                !
 ! R9    R(4,5)                  1.4036         estimate D2E/DX2                !
 ! R10   R(4,14)                 1.0933         estimate D2E/DX2                !
 ! R11   R(4,15)                 1.0964         estimate D2E/DX2                !
 ! R12   R(5,16)                 0.9813         estimate D2E/DX2                !
 ! R13   R(5,37)                 1.8127         estimate D2E/DX2                !
 ! R14   R(6,7)                  1.4059         estimate D2E/DX2                !
 ! R15   R(6,17)                 1.0933         estimate D2E/DX2                !
 ! R16   R(6,18)                 1.0972         estimate D2E/DX2                !
 ! R17   R(7,19)                 0.9687         estimate D2E/DX2                !
 ! R18   R(8,9)                  1.3653         estimate D2E/DX2                !
 ! R19   R(8,10)                 1.8307         estimate D2E/DX2                !
 ! R20   R(8,20)                 1.0948         estimate D2E/DX2                !
 ! R21   R(9,21)                 0.982          estimate D2E/DX2                !
 ! R22   R(16,22)                1.7513         estimate D2E/DX2                !
 ! R23   R(22,23)                1.409          estimate D2E/DX2                !
 ! R24   R(22,32)                0.9724         estimate D2E/DX2                !
 ! R25   R(23,24)                1.5445         estimate D2E/DX2                !
 ! R26   R(23,33)                1.0981         estimate D2E/DX2                !
 ! R27   R(23,34)                1.0935         estimate D2E/DX2                !
 ! R28   R(24,25)                1.5469         estimate D2E/DX2                !
 ! R29   R(24,27)                1.5485         estimate D2E/DX2                !
 ! R30   R(24,29)                1.5382         estimate D2E/DX2                !
 ! R31   R(25,26)                1.407          estimate D2E/DX2                !
 ! R32   R(25,35)                1.095          estimate D2E/DX2                !
 ! R33   R(25,36)                1.0951         estimate D2E/DX2                !
 ! R34   R(26,37)                0.9776         estimate D2E/DX2                !
 ! R35   R(27,28)                1.4003         estimate D2E/DX2                !
 ! R36   R(27,38)                1.0933         estimate D2E/DX2                !
 ! R37   R(27,39)                1.0949         estimate D2E/DX2                !
 ! R38   R(28,40)                0.9645         estimate D2E/DX2                !
 ! R39   R(29,30)                1.3633         estimate D2E/DX2                !
 ! R40   R(29,31)                1.8331         estimate D2E/DX2                !
 ! R41   R(29,41)                1.0956         estimate D2E/DX2                !
 ! R42   R(30,42)                0.9851         estimate D2E/DX2                !
 ! A1    A(2,1,11)             107.4061         estimate D2E/DX2                !
 ! A2    A(1,2,3)              113.5032         estimate D2E/DX2                !
 ! A3    A(1,2,12)             110.4416         estimate D2E/DX2                !
 ! A4    A(1,2,13)             106.117          estimate D2E/DX2                !
 ! A5    A(3,2,12)             108.7313         estimate D2E/DX2                !
 ! A6    A(3,2,13)             109.5948         estimate D2E/DX2                !
 ! A7    A(12,2,13)            108.3169         estimate D2E/DX2                !
 ! A8    A(2,3,4)              108.5549         estimate D2E/DX2                !
 ! A9    A(2,3,6)              110.3533         estimate D2E/DX2                !
 ! A10   A(2,3,8)              110.2075         estimate D2E/DX2                !
 ! A11   A(4,3,6)              107.986          estimate D2E/DX2                !
 ! A12   A(4,3,8)              111.3278         estimate D2E/DX2                !
 ! A13   A(6,3,8)              108.3891         estimate D2E/DX2                !
 ! A14   A(3,4,5)              113.7609         estimate D2E/DX2                !
 ! A15   A(3,4,14)             108.8546         estimate D2E/DX2                !
 ! A16   A(3,4,15)             109.0848         estimate D2E/DX2                !
 ! A17   A(5,4,14)             105.7332         estimate D2E/DX2                !
 ! A18   A(5,4,15)             110.8095         estimate D2E/DX2                !
 ! A19   A(14,4,15)            108.4165         estimate D2E/DX2                !
 ! A20   A(4,5,16)             108.9632         estimate D2E/DX2                !
 ! A21   A(4,5,37)             110.6999         estimate D2E/DX2                !
 ! A22   A(16,5,37)             81.8524         estimate D2E/DX2                !
 ! A23   A(3,6,7)              114.5576         estimate D2E/DX2                !
 ! A24   A(3,6,17)             108.6671         estimate D2E/DX2                !
 ! A25   A(3,6,18)             108.7249         estimate D2E/DX2                !
 ! A26   A(7,6,17)             105.6961         estimate D2E/DX2                !
 ! A27   A(7,6,18)             110.8878         estimate D2E/DX2                !
 ! A28   A(17,6,18)            108.0758         estimate D2E/DX2                !
 ! A29   A(6,7,19)             108.4817         estimate D2E/DX2                !
 ! A30   A(3,8,9)              114.1102         estimate D2E/DX2                !
 ! A31   A(3,8,10)             109.3376         estimate D2E/DX2                !
 ! A32   A(3,8,20)             111.8072         estimate D2E/DX2                !
 ! A33   A(9,8,10)             109.4744         estimate D2E/DX2                !
 ! A34   A(9,8,20)             107.4661         estimate D2E/DX2                !
 ! A35   A(10,8,20)            104.1572         estimate D2E/DX2                !
 ! A36   A(8,9,21)             108.2841         estimate D2E/DX2                !
 ! A37   A(5,16,22)            163.4756         estimate D2E/DX2                !
 ! A38   A(16,22,23)           115.0358         estimate D2E/DX2                !
 ! A39   A(16,22,32)           115.0644         estimate D2E/DX2                !
 ! A40   A(23,22,32)           109.1598         estimate D2E/DX2                !
 ! A41   A(22,23,24)           115.9321         estimate D2E/DX2                !
 ! A42   A(22,23,33)           109.9185         estimate D2E/DX2                !
 ! A43   A(22,23,34)           105.7813         estimate D2E/DX2                !
 ! A44   A(24,23,33)           107.4775         estimate D2E/DX2                !
 ! A45   A(24,23,34)           109.1748         estimate D2E/DX2                !
 ! A46   A(33,23,34)           108.3525         estimate D2E/DX2                !
 ! A47   A(23,24,25)           113.5002         estimate D2E/DX2                !
 ! A48   A(23,24,27)           106.7648         estimate D2E/DX2                !
 ! A49   A(23,24,29)           107.3923         estimate D2E/DX2                !
 ! A50   A(25,24,27)           107.9375         estimate D2E/DX2                !
 ! A51   A(25,24,29)           110.455          estimate D2E/DX2                !
 ! A52   A(27,24,29)           110.7486         estimate D2E/DX2                !
 ! A53   A(24,25,26)           114.7852         estimate D2E/DX2                !
 ! A54   A(24,25,35)           107.9091         estimate D2E/DX2                !
 ! A55   A(24,25,36)           108.7314         estimate D2E/DX2                !
 ! A56   A(26,25,35)           105.8602         estimate D2E/DX2                !
 ! A57   A(26,25,36)           111.0827         estimate D2E/DX2                !
 ! A58   A(35,25,36)           108.2134         estimate D2E/DX2                !
 ! A59   A(25,26,37)           109.9647         estimate D2E/DX2                !
 ! A60   A(24,27,28)           113.218          estimate D2E/DX2                !
 ! A61   A(24,27,38)           108.6202         estimate D2E/DX2                !
 ! A62   A(24,27,39)           109.3471         estimate D2E/DX2                !
 ! A63   A(28,27,38)           106.1112         estimate D2E/DX2                !
 ! A64   A(28,27,39)           111.0213         estimate D2E/DX2                !
 ! A65   A(38,27,39)           108.3448         estimate D2E/DX2                !
 ! A66   A(27,28,40)           108.7207         estimate D2E/DX2                !
 ! A67   A(24,29,30)           114.1317         estimate D2E/DX2                !
 ! A68   A(24,29,31)           109.2676         estimate D2E/DX2                !
 ! A69   A(24,29,41)           111.0613         estimate D2E/DX2                !
 ! A70   A(30,29,31)           109.9657         estimate D2E/DX2                !
 ! A71   A(30,29,41)           107.6883         estimate D2E/DX2                !
 ! A72   A(31,29,41)           104.2617         estimate D2E/DX2                !
 ! A73   A(29,30,42)           108.0549         estimate D2E/DX2                !
 ! A74   L(5,37,26,22,-1)      169.2784         estimate D2E/DX2                !
 ! A75   L(5,37,26,22,-2)      173.9524         estimate D2E/DX2                !
 ! D1    D(11,1,2,3)            58.9874         estimate D2E/DX2                !
 ! D2    D(11,1,2,12)          -63.4112         estimate D2E/DX2                !
 ! D3    D(11,1,2,13)          179.407          estimate D2E/DX2                !
 ! D4    D(1,2,3,4)           -179.4004         estimate D2E/DX2                !
 ! D5    D(1,2,3,6)            -61.2411         estimate D2E/DX2                !
 ! D6    D(1,2,3,8)             58.4347         estimate D2E/DX2                !
 ! D7    D(12,2,3,4)           -56.06           estimate D2E/DX2                !
 ! D8    D(12,2,3,6)            62.0994         estimate D2E/DX2                !
 ! D9    D(12,2,3,8)          -178.2248         estimate D2E/DX2                !
 ! D10   D(13,2,3,4)            62.1666         estimate D2E/DX2                !
 ! D11   D(13,2,3,6)          -179.6741         estimate D2E/DX2                !
 ! D12   D(13,2,3,8)           -59.9983         estimate D2E/DX2                !
 ! D13   D(2,3,4,5)            174.8861         estimate D2E/DX2                !
 ! D14   D(2,3,4,14)            57.2789         estimate D2E/DX2                !
 ! D15   D(2,3,4,15)           -60.8464         estimate D2E/DX2                !
 ! D16   D(6,3,4,5)             55.2361         estimate D2E/DX2                !
 ! D17   D(6,3,4,14)           -62.3711         estimate D2E/DX2                !
 ! D18   D(6,3,4,15)           179.5036         estimate D2E/DX2                !
 ! D19   D(8,3,4,5)            -63.6336         estimate D2E/DX2                !
 ! D20   D(8,3,4,14)           178.7592         estimate D2E/DX2                !
 ! D21   D(8,3,4,15)            60.6339         estimate D2E/DX2                !
 ! D22   D(2,3,6,7)             57.0787         estimate D2E/DX2                !
 ! D23   D(2,3,6,17)           -60.8473         estimate D2E/DX2                !
 ! D24   D(2,3,6,18)          -178.2553         estimate D2E/DX2                !
 ! D25   D(4,3,6,7)            175.5863         estimate D2E/DX2                !
 ! D26   D(4,3,6,17)            57.6604         estimate D2E/DX2                !
 ! D27   D(4,3,6,18)           -59.7476         estimate D2E/DX2                !
 ! D28   D(8,3,6,7)            -63.6902         estimate D2E/DX2                !
 ! D29   D(8,3,6,17)           178.3838         estimate D2E/DX2                !
 ! D30   D(8,3,6,18)            60.9758         estimate D2E/DX2                !
 ! D31   D(2,3,8,9)            -57.8316         estimate D2E/DX2                !
 ! D32   D(2,3,8,10)            65.1344         estimate D2E/DX2                !
 ! D33   D(2,3,8,20)           179.9437         estimate D2E/DX2                !
 ! D34   D(4,3,8,9)           -178.3442         estimate D2E/DX2                !
 ! D35   D(4,3,8,10)           -55.3781         estimate D2E/DX2                !
 ! D36   D(4,3,8,20)            59.4312         estimate D2E/DX2                !
 ! D37   D(6,3,8,9)             63.0275         estimate D2E/DX2                !
 ! D38   D(6,3,8,10)          -174.0064         estimate D2E/DX2                !
 ! D39   D(6,3,8,20)           -59.1971         estimate D2E/DX2                !
 ! D40   D(3,4,5,16)            63.1982         estimate D2E/DX2                !
 ! D41   D(3,4,5,37)           151.4584         estimate D2E/DX2                !
 ! D42   D(14,4,5,16)         -177.4045         estimate D2E/DX2                !
 ! D43   D(14,4,5,37)          -89.1443         estimate D2E/DX2                !
 ! D44   D(15,4,5,16)          -60.1342         estimate D2E/DX2                !
 ! D45   D(15,4,5,37)           28.126          estimate D2E/DX2                !
 ! D46   D(4,5,16,22)          110.9835         estimate D2E/DX2                !
 ! D47   D(37,5,16,22)           1.8134         estimate D2E/DX2                !
 ! D48   D(4,5,26,25)         -168.9673         estimate D2E/DX2                !
 ! D49   D(16,5,26,25)         -62.8683         estimate D2E/DX2                !
 ! D50   D(3,6,7,19)            62.8653         estimate D2E/DX2                !
 ! D51   D(17,6,7,19)         -177.5349         estimate D2E/DX2                !
 ! D52   D(18,6,7,19)          -60.6497         estimate D2E/DX2                !
 ! D53   D(3,8,9,21)            48.3825         estimate D2E/DX2                !
 ! D54   D(10,8,9,21)          -74.5091         estimate D2E/DX2                !
 ! D55   D(20,8,9,21)          172.9571         estimate D2E/DX2                !
 ! D56   D(5,16,22,23)          59.6536         estimate D2E/DX2                !
 ! D57   D(5,16,22,32)         -68.5409         estimate D2E/DX2                !
 ! D58   D(16,22,23,24)        -84.3281         estimate D2E/DX2                !
 ! D59   D(16,22,23,33)        153.5713         estimate D2E/DX2                !
 ! D60   D(16,22,23,34)         36.8004         estimate D2E/DX2                !
 ! D61   D(32,22,23,24)         46.764          estimate D2E/DX2                !
 ! D62   D(32,22,23,33)        -75.3367         estimate D2E/DX2                !
 ! D63   D(32,22,23,34)        167.8924         estimate D2E/DX2                !
 ! D64   D(22,23,24,25)         66.5418         estimate D2E/DX2                !
 ! D65   D(22,23,24,27)       -174.6598         estimate D2E/DX2                !
 ! D66   D(22,23,24,29)        -55.8384         estimate D2E/DX2                !
 ! D67   D(33,23,24,25)       -170.0726         estimate D2E/DX2                !
 ! D68   D(33,23,24,27)        -51.2743         estimate D2E/DX2                !
 ! D69   D(33,23,24,29)         67.5472         estimate D2E/DX2                !
 ! D70   D(34,23,24,25)        -52.7512         estimate D2E/DX2                !
 ! D71   D(34,23,24,27)         66.0472         estimate D2E/DX2                !
 ! D72   D(34,23,24,29)       -175.1313         estimate D2E/DX2                !
 ! D73   D(23,24,25,26)        -67.4068         estimate D2E/DX2                !
 ! D74   D(23,24,25,35)        174.8461         estimate D2E/DX2                !
 ! D75   D(23,24,25,36)         57.6892         estimate D2E/DX2                !
 ! D76   D(27,24,25,26)        174.4708         estimate D2E/DX2                !
 ! D77   D(27,24,25,35)         56.7236         estimate D2E/DX2                !
 ! D78   D(27,24,25,36)        -60.4332         estimate D2E/DX2                !
 ! D79   D(29,24,25,26)         53.2613         estimate D2E/DX2                !
 ! D80   D(29,24,25,35)        -64.4859         estimate D2E/DX2                !
 ! D81   D(29,24,25,36)        178.3573         estimate D2E/DX2                !
 ! D82   D(23,24,27,28)         68.9233         estimate D2E/DX2                !
 ! D83   D(23,24,27,38)        -48.6686         estimate D2E/DX2                !
 ! D84   D(23,24,27,39)       -166.7224         estimate D2E/DX2                !
 ! D85   D(25,24,27,28)       -168.716          estimate D2E/DX2                !
 ! D86   D(25,24,27,38)         73.6921         estimate D2E/DX2                !
 ! D87   D(25,24,27,39)        -44.3617         estimate D2E/DX2                !
 ! D88   D(29,24,27,28)        -47.6894         estimate D2E/DX2                !
 ! D89   D(29,24,27,38)       -165.2813         estimate D2E/DX2                !
 ! D90   D(29,24,27,39)         76.665          estimate D2E/DX2                !
 ! D91   D(23,24,29,30)         67.6836         estimate D2E/DX2                !
 ! D92   D(23,24,29,31)       -168.7464         estimate D2E/DX2                !
 ! D93   D(23,24,29,41)        -54.2735         estimate D2E/DX2                !
 ! D94   D(25,24,29,30)        -56.5667         estimate D2E/DX2                !
 ! D95   D(25,24,29,31)         67.0033         estimate D2E/DX2                !
 ! D96   D(25,24,29,41)       -178.5238         estimate D2E/DX2                !
 ! D97   D(27,24,29,30)       -176.0918         estimate D2E/DX2                !
 ! D98   D(27,24,29,31)        -52.5218         estimate D2E/DX2                !
 ! D99   D(27,24,29,41)         61.9511         estimate D2E/DX2                !
 ! D100  D(24,25,26,37)         87.1235         estimate D2E/DX2                !
 ! D101  D(35,25,26,37)       -153.9755         estimate D2E/DX2                !
 ! D102  D(36,25,26,37)        -36.7324         estimate D2E/DX2                !
 ! D103  D(24,27,28,40)         79.7697         estimate D2E/DX2                !
 ! D104  D(38,27,28,40)       -161.1822         estimate D2E/DX2                !
 ! D105  D(39,27,28,40)        -43.6685         estimate D2E/DX2                !
 ! D106  D(24,29,30,42)         45.4829         estimate D2E/DX2                !
 ! D107  D(31,29,30,42)        -77.7095         estimate D2E/DX2                !
 ! D108  D(41,29,30,42)        169.2756         estimate D2E/DX2                !
 --------------------------------------------------------------------------------
 Number of steps in this run=    235 maximum allowed number of steps=    252.
 GradGradGradGradGradGradGradGradGradGradGradGradGradGradGradGradGradGrad

                    Distance matrix (angstroms):
                    1          2          3          4          5
     1  O    0.000000
     2  C    1.407343   0.000000
     3  C    2.468868   1.543434   0.000000
     4  C    3.781608   2.503615   1.540390   0.000000
     5  O    4.920006   3.778959   2.466838   1.403622   0.000000
     6  C    2.992969   2.538365   1.548675   2.498890   2.887889
     7  O    2.729022   2.974155   2.486906   3.784498   4.238376
     8  C    2.959182   2.529854   1.541041   2.544470   3.030313
     9  O    2.681953   2.942049   2.440820   3.775808   4.302804
    10  Cl   3.785206   3.187807   2.755818   3.091404   3.701521
    11  H    0.972743   1.935429   2.620120   4.008255   5.000611
    12  H    2.065425   1.098122   2.162548   2.685591   3.982450
    13  H    2.007444   1.093183   2.170008   2.747699   4.082670
    14  H    4.015754   2.694879   2.157949   1.093343   1.999453
    15  H    4.048359   2.729403   2.163181   1.096412   2.065365
    16  H    5.101529   4.082015   2.675701   1.956609   0.981310
    17  H    3.343580   2.763669   2.162769   2.689411   3.156484
    18  H    3.997238   3.481749   2.166419   2.709319   2.524544
    19  H    2.906452   3.295936   2.683538   4.075182   4.433202
    20  H    3.971920   3.497176   2.196995   2.810431   2.751038
    21  H    1.876631   2.470881   2.531574   3.961080   4.756880
    22  O    6.127103   5.274194   3.954602   3.492243   2.706513
    23  C    7.458209   6.575374   5.190166   4.567913   3.487268
    24  C    8.373993   7.323391   6.057996   5.104374   4.057614
    25  C    8.197411   6.995093   5.810501   4.572812   3.524152
    26  O    7.161252   5.883009   4.875532   3.508788   2.775924
    27  C    9.783306   8.769264   7.432931   6.513253   5.341455
    28  O   10.390171   9.488235   8.157055   7.410692   6.307203
    29  C    8.516244   7.485802   6.415279   5.510257   4.781705
    30  O    7.525622   6.476079   5.590529   4.700700   4.290571
    31  Cl  10.065748   8.942386   7.972199   6.886283   6.184600
    32  H    6.219450   5.346675   4.218698   3.718756   3.210752
    33  H    8.044727   7.289448   5.917584   5.482057   4.474360
    34  H    7.512016   6.646309   5.165765   4.565534   3.299875
    35  H    9.115020   7.864886   6.770355   5.451962   4.501559
    36  H    8.312214   7.137252   5.858392   4.658853   3.427347
    37  H    6.374417   5.111210   4.020604   2.656062   1.812682
    38  H    9.809437   8.835446   7.414148   6.556777   5.264063
    39  H   10.474721   9.375602   8.100757   7.032408   5.892082
    40  H   10.774074   9.842716   8.594144   7.796139   6.789813
    41  H    8.846384   7.942762   6.858355   6.153776   5.446820
    42  H    7.237044   6.070616   5.215400   4.121374   3.731805
                    6          7          8          9         10
     6  C    0.000000
     7  O    1.405890   0.000000
     8  C    2.505790   2.995965   0.000000
     9  O    2.957273   2.770026   1.365257   0.000000
    10  Cl   4.140100   4.726688   1.830676   2.623316   0.000000
    11  H    2.591456   2.001553   3.232775   2.850074   4.424075
    12  H    2.775686   3.315888   3.475129   3.957423   4.136266
    13  H    3.486498   3.980309   2.761838   3.267186   2.720935
    14  H    2.729976   4.022340   3.481983   4.583208   4.069331
    15  H    3.456332   4.621754   2.779196   4.043652   2.608664
    16  H    3.225188   4.429398   2.693266   3.970959   3.241500
    17  H    1.093303   2.000874   3.453485   3.958637   4.911330
    18  H    1.097249   2.068934   2.727977   3.310488   4.384649
    19  H    1.943803   0.968709   2.648507   2.115442   4.405750
    20  H    2.756538   3.353499   1.094773   1.989891   2.351654
    21  H    3.143443   2.803396   1.915574   0.981982   2.864212
    22  O    4.630805   5.598389   3.278294   4.373491   3.268239
    23  C    5.650562   6.649540   4.617170   5.658242   4.658706
    24  C    6.659023   7.802835   5.690189   6.861196   5.413931
    25  C    6.367921   7.659553   5.844232   7.139716   5.671530
    26  O    5.637983   6.970739   5.090419   6.444207   4.789376
    27  C    7.859304   8.962577   7.033164   8.128377   6.868958
    28  O    8.626501   9.607960   7.514030   8.474918   7.241601
    29  C    7.305613   8.399731   5.885067   7.018784   5.127807
    30  O    6.690242   7.774671   5.104043   6.264606   4.080679
    31  Cl   8.889972  10.063291   7.590740   8.768546   6.706634
    32  H    5.155491   6.103088   3.456137   4.546854   2.903750
    33  H    6.359083   7.211578   5.109562   5.975782   5.085517
    34  H    5.330122   6.333543   4.773520   5.781636   5.193194
    35  H    7.377470   8.694695   6.844929   8.156001   6.517074
    36  H    6.149674   7.440801   6.016434   7.276700   6.165334
    37  H    4.685572   6.033499   4.360492   5.713444   4.347157
    38  H    7.623447   8.693773   7.082176   8.132680   7.197635
    39  H    8.565673   9.744034   7.829733   8.992756   7.571695
    40  H    9.200333  10.205597   7.930368   8.912459   7.441212
    41  H    7.737879   8.711265   6.097495   7.088748   5.297841
    42  H    6.299146   7.484309   5.003288   6.267887   4.111561
                   11         12         13         14         15
    11  H    0.000000
    12  H    2.323680   0.000000
    13  H    2.814468   1.776361   0.000000
    14  H    4.150775   2.411286   3.054514   0.000000
    15  H    4.504195   3.019461   2.516875   1.776216   0.000000
    16  H    5.238103   4.513416   4.281145   2.827788   2.329169
    17  H    2.876298   2.549180   3.760377   2.461128   3.700579
    18  H    3.617539   3.758853   4.309910   3.072912   3.711642
    19  H    2.341696   3.890773   4.157389   4.535345   4.805954
    20  H    4.097895   4.329191   3.771867   3.811115   3.148562
    21  H    2.202645   3.492982   2.769343   4.625928   4.163258
    22  O    6.369449   5.917709   5.256134   4.467636   3.458414
    23  C    7.628959   7.131355   6.602010   5.411420   4.598731
    24  C    8.627061   7.759796   7.218671   5.802445   4.940386
    25  C    8.425490   7.221148   6.931676   5.019238   4.455974
    26  O    7.470083   6.054323   5.735831   3.903831   3.230310
    27  C    9.968281   9.188369   8.725166   7.156256   6.442960
    28  O   10.604245  10.029890   9.394708   8.171016   7.283370
    29  C    8.926370   8.011220   7.161476   6.285551   5.049365
    30  O    8.034400   7.015803   6.026250   5.494538   4.045509
    31  Cl  10.516369   9.356678   8.538298   7.503575   6.338793
    32  H    6.600879   6.038322   5.128227   4.718458   3.390315
    33  H    8.219169   7.943121   7.290715   6.388812   5.480099
    34  H    7.547655   7.111946   6.843416   5.296602   4.840388
    35  H    9.383564   8.033754   7.726353   5.801371   5.230107
    36  H    8.416084   7.287349   7.237373   4.995260   4.792547
    37  H    6.612271   5.266682   5.098886   3.067400   2.604630
    38  H    9.887606   9.215211   8.925901   7.148184   6.668127
    39  H   10.686059   9.711034   9.287848   7.569176   6.901775
    40  H   11.063973  10.394443   9.646586   8.560784   7.539273
    41  H    9.261913   8.579962   7.607438   7.026287   5.707225
    42  H    7.723987   6.478746   5.654747   4.788244   3.460710
                   16         17         18         19         20
    16  H    0.000000
    17  H    3.761458   0.000000
    18  H    2.742527   1.773047   0.000000
    19  H    4.408808   2.814113   2.323642   0.000000
    20  H    2.158111   3.752114   2.522391   2.918828   0.000000
    21  H    4.573012   3.987049   3.772468   2.341211   2.810755
    22  O    1.751303   5.356935   4.080221   5.302956   2.483432
    23  C    2.672263   6.294057   4.916096   6.373330   3.719073
    24  C    3.463412   7.145450   5.999615   7.635928   4.946761
    25  C    3.302788   6.627208   5.779450   7.686216   5.252031
    26  O    2.747323   5.830035   5.264759   7.075449   4.734666
    27  C    4.778481   8.332729   7.074439   8.769087   6.181815
    28  O    5.597853   9.226004   7.836765   9.284516   6.620401
    29  C    4.129336   7.853788   6.813578   8.167690   5.302574
    30  O    3.699039   7.225496   6.387629   7.575553   4.744155
    31  Cl   5.696911   9.319751   8.416789   9.901630   7.073801
    32  H    2.335711   5.876352   4.766707   5.788763   2.884081
    33  H    3.590226   7.102600   5.604908   6.807148   4.156199
    34  H    2.634697   5.903924   4.454913   6.124555   3.808155
    35  H    4.351657   7.570595   6.825064   8.748948   6.300552
    36  H    3.338702   6.333463   5.448310   7.524637   5.351761
    37  H    1.935094   4.866918   4.311121   6.179410   4.019049
    38  H    4.757188   8.067063   6.740191   8.523779   6.157561
    39  H    5.454083   8.941847   7.817440   9.621176   7.045747
    40  H    6.084418   9.796833   8.480078   9.879299   7.111157
    41  H    4.665622   8.399626   7.220549   8.362239   5.456393
    42  H    3.334889   6.706358   6.036166   7.406651   4.719974
                   21         22         23         24         25
    21  H    0.000000
    22  O    5.134322   0.000000
    23  C    6.469484   1.409037   0.000000
    24  C    7.578387   2.504824   1.544476   0.000000
    25  C    7.742356   3.146627   2.585253   1.546869   0.000000
    26  O    6.909309   3.048321   3.134374   2.489426   1.406996
    27  C    8.912110   3.787245   2.482506   1.548470   2.503189
    28  O    9.307409   4.263128   2.992715   2.463365   3.765218
    29  C    7.661827   2.922006   2.484287   1.538189   2.534142
    30  O    6.785020   2.740725   2.977729   2.437040   2.934391
    31  Cl   9.353354   4.706134   4.117516   2.754464   3.215169
    32  H    5.220793   0.972412   1.957130   2.608126   3.318180
    33  H    6.847035   2.060475   1.098130   2.147100   3.498892
    34  H    6.613495   2.004779   1.093475   2.165756   2.767325
    35  H    8.724571   4.142219   3.504069   2.152550   1.094974
    36  H    7.909850   3.476651   2.798862   2.163343   1.095107
    37  H    6.174079   2.730836   3.064730   2.897542   1.968435
    38  H    8.952989   3.968440   2.593550   2.161969   2.831716
    39  H    9.728257   4.634484   3.432510   2.172554   2.599970
    40  H    9.703755   4.697703   3.571531   2.789537   4.043819
    41  H    7.786095   3.154076   2.680841   2.185740   3.495926
    42  H    6.724475   2.856318   3.159231   2.506467   2.439618
                   26         27         28         29         30
    26  O    0.000000
    27  C    3.791989   0.000000
    28  O    4.918561   1.400282   0.000000
    29  C    2.942453   2.539961   2.869033   0.000000
    30  O    2.651253   3.772370   4.186944   1.363271   0.000000
    31  Cl   3.756283   3.047434   3.347201   1.833085   2.631599
    32  H    3.051956   3.995710   4.355646   2.474258   1.990370
    33  H    4.145747   2.595959   2.552481   2.743207   3.423841
    34  H    3.415076   2.746887   3.441879   3.439208   3.937350
    35  H    2.005164   2.672711   3.922060   2.780460   3.299579
    36  H    2.070604   2.716765   4.070667   3.474958   3.932817
    37  H    0.977638   4.228148   5.339972   3.539204   3.155879
    38  H    4.153227   1.093286   2.001432   3.462801   4.574552
    39  H    3.931170   1.094923   2.063883   2.912642   4.127818
    40  H    5.110284   1.938540   0.964479   2.707028   4.043288
    41  H    3.959518   2.811142   2.586474   1.095556   1.991568
    42  H    1.806869   3.937301   4.641964   1.913449   0.985071
                   31         32         33         34         35
    31  Cl   0.000000
    32  H    4.258563   0.000000
    33  H    4.334191   2.418513   0.000000
    34  H    4.909862   2.818516   1.777002   0.000000
    35  H    2.765109   4.172014   4.278201   3.743053   0.000000
    36  H    4.177746   3.912181   3.735583   2.534350   1.774207
    37  H    4.619322   2.943439   4.142302   3.151577   2.802677
    38  H    4.110084   4.414831   2.740753   2.407565   3.167371
    39  H    2.748079   4.752779   3.657187   3.665436   2.307863
    40  H    2.774808   4.596475   3.162924   4.189207   4.011485
    41  H    2.355824   2.665001   2.488377   3.715473   3.782475
    42  H    2.902293   2.293553   3.864225   3.934274   2.805549
                   36         37         38         39         40
    36  H    0.000000
    37  H    2.222729   0.000000
    38  H    2.605540   4.393690   0.000000
    39  H    2.859397   4.536487   1.774161   0.000000
    40  H    4.543464   5.663971   2.794106   2.224701   0.000000
    41  H    4.320644   4.441926   3.718841   3.356643   2.337033
    42  H    3.438153   2.388528   4.640408   4.172451   4.580087
                   41         42
    41  H    0.000000
    42  H    2.809507   0.000000
 Framework group  C1[X(C10H22Cl2O8)]
 Deg. of freedom   120
                         Standard orientation:                         
 ---------------------------------------------------------------------
 Center     Atomic      Atomic             Coordinates (Angstroms)
 Number     Number       Type             X           Y           Z
 ---------------------------------------------------------------------
      1          8           0       -5.277491    0.824781    0.284240
      2          6           0       -4.140173    0.670155    1.098620
      3          6           0       -3.059855   -0.242434    0.480330
      4          6           0       -1.880859   -0.343881    1.466474
      5          8           0       -0.880921   -1.242033    1.061997
      6          6           0       -3.621824   -1.668404    0.258529
      7          8           0       -4.771568   -1.724326   -0.548619
      8          6           0       -2.605081    0.318105   -0.881207
      9          8           0       -3.614263    0.465568   -1.788804
     10         17           0       -1.773258    1.928847   -0.626349
     11          1           0       -5.650688   -0.060938    0.134393
     12          1           0       -4.423140    0.266718    2.079966
     13          1           0       -3.732559    1.673973    1.244390
     14          1           0       -2.251467   -0.723670    2.422408
     15          1           0       -1.462986    0.656536    1.629772
     16          1           0       -0.484520   -0.921454    0.223508
     17          1           0       -3.919245   -2.081722    1.226010
     18          1           0       -2.824791   -2.301281   -0.151546
     19          1           0       -4.542025   -1.401948   -1.432802
     20          1           0       -1.836652   -0.309922   -1.343404
     21          1           0       -4.358851    0.930573   -1.348749
     22          8           0        0.618479   -0.271569   -0.971525
     23          6           0        1.811977   -1.001205   -1.140578
     24          6           0        2.949903   -0.673929   -0.148902
     25          6           0        2.630471   -1.074770    1.310582
     26          8           0        1.599240   -0.331813    1.914084
     27          6           0        4.187612   -1.484393   -0.606049
     28          8           0        4.727190   -1.032307   -1.816531
     29          6           0        3.222342    0.836947   -0.244057
     30          8           0        2.206059    1.616984    0.222013
     31         17           0        4.773450    1.229411    0.650502
     32          1           0        0.832967    0.670864   -0.864747
     33          1           0        2.203980   -0.847478   -2.154773
     34          1           0        1.534721   -2.053612   -1.034473
     35          1           0        3.525202   -0.889804    1.914082
     36          1           0        2.412830   -2.147600    1.341031
     37          1           0        0.733497   -0.740631    1.716265
     38          1           0        3.882669   -2.520139   -0.777844
     39          1           0        4.941359   -1.474272    0.188067
     40          1           0        5.267984   -0.252906   -1.642473
     41          1           0        3.424209    1.136225   -1.278429
     42          1           0        1.903361    1.242673    1.081448
 ---------------------------------------------------------------------
 Rotational constants (GHZ):           0.5960156           0.1203135           0.1172289
   332 basis functions,   612 primitive gaussians,   352 cartesian basis functions
    90 alpha electrons       90 beta electrons
       nuclear repulsion energy      2181.9610892312 Hartrees.
 NAtoms=   42 NActive=   42 NUniq=   42 SFac= 1.00D+00 NAtFMM=   60 NAOKFM=F Big=F
 Nuclear repulsion after empirical dispersion term =     2181.9216336649 Hartrees.
   1 Symmetry operations used in ECPInt.
 ECPInt:  NShTT=   14196 NPrTT=   58316 LenC2=   12611 LenP2D=   34928.
 LDataN:  DoStor=T MaxTD1= 4 Len=   56
 ExpMin= 1.22D-01 ExpMax= 1.04D+04 ExpMxC= 1.57D+03 IAcc=3 IRadAn=         5 AccDes= 0.00D+00
 Harris functional with IExCor= 4639 and IRadAn=       5 diagonalized for initial guess.
 HarFok:  IExCor= 4639 AccDes= 0.00D+00 IRadAn=         5 IDoV= 1 UseB2=F ITyADJ=14
 ICtDFT=  3500011 ScaDFX=  1.000000  1.000000  1.000000  1.000000
 FoFCou: FMM=F IPFlag=           0 FMFlag=      100000 FMFlg1=           0
         NFxFlg=           0 DoJE=T BraDBF=F KetDBF=T FulRan=T
         wScrn=  0.000000 ICntrl=       500 IOpCl=  0 I1Cent=   200000004 NGrid=           0
         NMat0=    1 NMatS0=      1 NMatT0=    0 NMatD0=    1 NMtDS0=    0 NMtDT0=    0
 Petite list used in FoFCou.
     Accept linear search using points  1 and  2.
     Accept linear search using points  2 and  3.
     Accept linear search using points  1 and  2.
     Minimum is close to point  2 DX= -3.98D-05 DF=  0.00D+00 DXR=  3.98D-05 DFR=  0.00D+00 which will be used.
 SCF Done:  E(RwB97XD) =  -1915.08939216     a.u. after    8 cycles
            Convg  =    0.5808D-09                    37 Fock formations.
              S**2 =  0.0000                  -V/T =  2.0051

 **********************************************************************

            Population analysis using the SCF Density.

 **********************************************************************

 Orbital symmetries:
       Occupied  (A) (A) (A) (A) (A) (A) (A) (A) (A) (A) (A) (A)
                 (A) (A) (A) (A) (A) (A) (A) (A) (A) (A) (A) (A)
                 (A) (A) (A) (A) (A) (A) (A) (A) (A) (A) (A) (A)
                 (A) (A) (A) (A) (A) (A) (A) (A) (A) (A) (A) (A)
                 (A) (A) (A) (A) (A) (A) (A) (A) (A) (A) (A) (A)
                 (A) (A) (A) (A) (A) (A) (A) (A) (A) (A) (A) (A)
                 (A) (A) (A) (A) (A) (A) (A) (A) (A) (A) (A) (A)
                 (A) (A) (A) (A) (A) (A)
       Virtual   (A) (A) (A) (A) (A) (A) (A) (A) (A) (A) (A) (A)
                 (A) (A) (A) (A) (A) (A) (A) (A) (A) (A) (A) (A)
                 (A) (A) (A) (A) (A) (A) (A) (A) (A) (A) (A) (A)
                 (A) (A) (A) (A) (A) (A) (A) (A) (A) (A) (A) (A)
                 (A) (A) (A) (A) (A) (A) (A) (A) (A) (A) (A) (A)
                 (A) (A) (A) (A) (A) (A) (A) (A) (A) (A) (A) (A)
                 (A) (A) (A) (A) (A) (A) (A) (A) (A) (A) (A) (A)
                 (A) (A) (A) (A) (A) (A) (A) (A) (A) (A) (A) (A)
                 (A) (A) (A) (A) (A) (A) (A) (A) (A) (A) (A) (A)
                 (A) (A) (A) (A) (A) (A) (A) (A) (A) (A) (A) (A)
                 (A) (A) (A) (A) (A) (A) (A) (A) (A) (A) (A) (A)
                 (A) (A) (A) (A) (A) (A) (A) (A) (A) (A) (A) (A)
                 (A) (A) (A) (A) (A) (A) (A) (A) (A) (A) (A) (A)
                 (A) (A) (A) (A) (A) (A) (A) (A) (A) (A) (A) (A)
                 (A) (A) (A) (A) (A) (A) (A) (A) (A) (A) (A) (A)
                 (A) (A) (A) (A) (A) (A) (A) (A) (A) (A) (A) (A)
                 (A) (A) (A) (A) (A) (A) (A) (A) (A) (A) (A) (A)
                 (A) (A) (A) (A) (A) (A) (A) (A) (A) (A) (A) (A)
                 (A) (A) (A) (A) (A) (A) (A) (A) (A) (A) (A) (A)
                 (A) (A) (A) (A) (A) (A) (A) (A) (A) (A) (A) (A)
                 (A) (A)
 The electronic state is 1-A.
 Alpha  occ. eigenvalues -- -101.66849-101.66613 -19.28698 -19.28674 -19.28514
 Alpha  occ. eigenvalues --  -19.27595 -19.27313 -19.27268 -19.27027 -19.26912
 Alpha  occ. eigenvalues --  -10.41888 -10.41521 -10.36238 -10.35912 -10.35840
 Alpha  occ. eigenvalues --  -10.35816 -10.35727 -10.35680 -10.33370 -10.33292
 Alpha  occ. eigenvalues --   -9.57681  -9.57433  -7.32984  -7.32735  -7.32140
 Alpha  occ. eigenvalues --   -7.32095  -7.31887  -7.31853  -1.17653  -1.17347
 Alpha  occ. eigenvalues --   -1.14926  -1.13974  -1.13776  -1.13571  -1.12776
 Alpha  occ. eigenvalues --   -1.12656  -0.95381  -0.95241  -0.90786  -0.90389
 Alpha  occ. eigenvalues --   -0.79784  -0.79330  -0.78199  -0.77993  -0.77377
 Alpha  occ. eigenvalues --   -0.77214  -0.70446  -0.70362  -0.65414  -0.65008
 Alpha  occ. eigenvalues --   -0.64506  -0.63744  -0.63049  -0.61752  -0.59525
 Alpha  occ. eigenvalues --   -0.58536  -0.57825  -0.57438  -0.57149  -0.56277
 Alpha  occ. eigenvalues --   -0.54992  -0.54757  -0.53909  -0.53531  -0.52517
 Alpha  occ. eigenvalues --   -0.52278  -0.51347  -0.51075  -0.50817  -0.50117
 Alpha  occ. eigenvalues --   -0.48219  -0.47681  -0.45989  -0.45731  -0.45240
 Alpha  occ. eigenvalues --   -0.44198  -0.43379  -0.42851  -0.40963  -0.40712
 Alpha  occ. eigenvalues --   -0.40085  -0.39380  -0.38954  -0.38487  -0.37833
 Alpha  occ. eigenvalues --   -0.37754  -0.36888  -0.36587  -0.36220  -0.36010
 Alpha virt. eigenvalues --    0.09974   0.10601   0.12297   0.12815   0.13407
 Alpha virt. eigenvalues --    0.13604   0.14204   0.16122   0.16623   0.17316
 Alpha virt. eigenvalues --    0.17723   0.18161   0.19054   0.19659   0.19942
 Alpha virt. eigenvalues --    0.20819   0.21591   0.21818   0.22236   0.22711
 Alpha virt. eigenvalues --    0.23600   0.23820   0.24458   0.24858   0.25773
 Alpha virt. eigenvalues --    0.25980   0.28034   0.29070   0.29552   0.30039
 Alpha virt. eigenvalues --    0.30228   0.31081   0.32294   0.32674   0.33305
 Alpha virt. eigenvalues --    0.33816   0.34275   0.35967   0.38072   0.38493
 Alpha virt. eigenvalues --    0.48056   0.48769   0.49785   0.51053   0.52194
 Alpha virt. eigenvalues --    0.52632   0.54829   0.55452   0.56803   0.57243
 Alpha virt. eigenvalues --    0.57873   0.59741   0.60100   0.60860   0.61583
 Alpha virt. eigenvalues --    0.62422   0.63280   0.64013   0.64840   0.65627
 Alpha virt. eigenvalues --    0.65714   0.66618   0.67386   0.67777   0.68038
 Alpha virt. eigenvalues --    0.68286   0.69734   0.70748   0.70963   0.71255
 Alpha virt. eigenvalues --    0.72158   0.73215   0.74110   0.74390   0.74864
 Alpha virt. eigenvalues --    0.75440   0.76123   0.76685   0.76814   0.77098
 Alpha virt. eigenvalues --    0.77739   0.78576   0.79071   0.79479   0.79829
 Alpha virt. eigenvalues --    0.80279   0.81558   0.81862   0.82334   0.82753
 Alpha virt. eigenvalues --    0.83413   0.83803   0.84974   0.86385   0.86579
 Alpha virt. eigenvalues --    0.86963   0.87487   0.89134   0.89785   0.91218
 Alpha virt. eigenvalues --    0.91939   0.92357   0.94531   0.96690   0.99760
 Alpha virt. eigenvalues --    1.00364   1.01697   1.03135   1.04572   1.05869
 Alpha virt. eigenvalues --    1.07491   1.08659   1.09999   1.11063   1.13535
 Alpha virt. eigenvalues --    1.14196   1.15635   1.16009   1.17132   1.17858
 Alpha virt. eigenvalues --    1.19449   1.20514   1.21364   1.21596   1.22757
 Alpha virt. eigenvalues --    1.22869   1.25494   1.26485   1.26882   1.28365
 Alpha virt. eigenvalues --    1.28536   1.29978   1.32381   1.34489   1.35757
 Alpha virt. eigenvalues --    1.37694   1.38640   1.40876   1.42712   1.44276
 Alpha virt. eigenvalues --    1.46292   1.47519   1.48909   1.50098   1.51618
 Alpha virt. eigenvalues --    1.54014   1.56210   1.57789   1.60506   1.63799
 Alpha virt. eigenvalues --    1.65157   1.66928   1.67253   1.71605   1.73406
 Alpha virt. eigenvalues --    1.74417   1.77114   1.78014   1.79779   1.81188
 Alpha virt. eigenvalues --    1.82026   1.83608   1.86249   1.88128   1.88728
 Alpha virt. eigenvalues --    1.89351   1.89841   1.90559   1.98956   2.00878
 Alpha virt. eigenvalues --    2.01972   2.03552   2.05323   2.05589   2.06370
 Alpha virt. eigenvalues --    2.07133   2.07704   2.12792   2.13979   2.15661
 Alpha virt. eigenvalues --    2.16502   2.17678   2.18171   2.18942   2.20927
 Alpha virt. eigenvalues --    2.21205   2.22207   2.23709   2.24709   2.25145
 Alpha virt. eigenvalues --    2.28901   2.29558   2.48677   2.49202   2.50604
 Alpha virt. eigenvalues --    2.51794   2.59829   2.59948   2.64602   2.65320
 Alpha virt. eigenvalues --    2.66355   2.69199   2.69314   2.70553   2.71694
 Alpha virt. eigenvalues --    2.72150   2.72756   2.74007   2.74341   2.76023
 Alpha virt. eigenvalues --    2.87920   2.88764   2.89618   2.89810   2.91155
 Alpha virt. eigenvalues --    2.91506   2.93996   2.94766   3.00662   3.00826
 Alpha virt. eigenvalues --    3.01515   3.03565   3.05020   3.06108   3.07064
 Alpha virt. eigenvalues --    3.08215   3.08729   3.09409   3.09794   3.09919
 Alpha virt. eigenvalues --    3.11861   3.12265   3.13709   3.15443   3.44559
 Alpha virt. eigenvalues --    3.45086   3.45937   3.46500   3.47593   3.49689
 Alpha virt. eigenvalues --    3.52140   3.53330
          Condensed to atoms (all electrons):
 Mulliken charges:
               1
     1  O   -0.512496
     2  C    0.079247
     3  C   -0.387307
     4  C    0.079224
     5  O   -0.541980
     6  C    0.086967
     7  O   -0.509176
     8  C    0.101982
     9  O   -0.448410
    10  Cl  -0.157774
    11  H    0.336277
    12  H    0.106404
    13  H    0.125649
    14  H    0.108323
    15  H    0.117978
    16  H    0.362068
    17  H    0.112311
    18  H    0.115059
    19  H    0.331976
    20  H    0.149804
    21  H    0.342139
    22  O   -0.528871
    23  C    0.077371
    24  C   -0.356686
    25  C    0.066684
    26  O   -0.535007
    27  C    0.070775
    28  O   -0.483411
    29  C    0.090315
    30  O   -0.446568
    31  Cl  -0.165385
    32  H    0.344890
    33  H    0.129764
    34  H    0.113423
    35  H    0.121886
    36  H    0.112737
    37  H    0.342103
    38  H    0.108856
    39  H    0.118812
    40  H    0.325663
    41  H    0.141979
    42  H    0.352407
 Sum of Mulliken charges =   0.00000
 Mulliken charges with hydrogens summed into heavy atoms:
               1
     1  O   -0.176219
     2  C    0.311299
     3  C   -0.387307
     4  C    0.305525
     5  O   -0.179912
     6  C    0.314336
     7  O   -0.177200
     8  C    0.251786
     9  O   -0.106271
    10  Cl  -0.157774
    22  O   -0.183981
    23  C    0.320558
    24  C   -0.356686
    25  C    0.301307
    26  O   -0.192904
    27  C    0.298443
    28  O   -0.157748
    29  C    0.232294
    30  O   -0.094161
    31  Cl  -0.165385
 Electronic spatial extent (au):  <R**2>=           9200.3786
 Charge=              0.0000 electrons
 Dipole moment (field-independent basis, Debye):
    X=              0.2984    Y=             -2.5771    Z=              0.7807  Tot=              2.7092
   1 Symmetry operations used in ECPInt.
 ECPInt:  NShTT=   14196 NPrTT=   58316 LenC2=   12611 LenP2D=   34928.
 LDataN:  DoStor=T MaxTD1= 5 Len=  102
 Calling FoFJK, ICntrl=      2127 FMM=F ISym2X=0 I1Cent= 0 IOpClX= 0 NMat=1 NMatS=1 NMatT=0.

 GradGradGradGradGradGradGradGradGradGradGradGradGradGradGradGradGradGrad
 FormGI is forming the generalized inverse of G from B-inverse, IUseBI=4.
 Internal  Forces:  Max     0.007989170 RMS     0.002340703
 Step number   1 out of a maximum of  235
 All quantities printed in internal units (Hartrees-Bohrs-Radians)
 Mixed Optimization -- RFO/linear search
 Second derivative matrix not updated -- first step.
 ITU=  0
     Eigenvalues ---    0.00230   0.00230   0.00230   0.00230   0.00232
     Eigenvalues ---    0.00261   0.00332   0.00506   0.00824   0.01595
     Eigenvalues ---    0.01614   0.01644   0.01673   0.01688   0.01733
     Eigenvalues ---    0.02151   0.02178   0.03281   0.03829   0.04166
     Eigenvalues ---    0.04252   0.04468   0.04505   0.04579   0.04701
     Eigenvalues ---    0.04726   0.04737   0.04833   0.04962   0.05105
     Eigenvalues ---    0.05289   0.05368   0.05375   0.05551   0.05597
     Eigenvalues ---    0.05785   0.05840   0.05845   0.06051   0.06253
     Eigenvalues ---    0.06262   0.06447   0.06827   0.08154   0.08638
     Eigenvalues ---    0.09828   0.09887   0.10135   0.11763   0.11789
     Eigenvalues ---    0.11869   0.11877   0.12710   0.12830   0.12867
     Eigenvalues ---    0.13055   0.13459   0.13874   0.14040   0.14045
     Eigenvalues ---    0.14115   0.14122   0.14476   0.14648   0.15489
     Eigenvalues ---    0.16000   0.16000   0.16000   0.16000   0.16000
     Eigenvalues ---    0.16584   0.19296   0.20230   0.20274   0.22039
     Eigenvalues ---    0.22094   0.22097   0.22109   0.23277   0.23314
     Eigenvalues ---    0.23675   0.23842   0.27349   0.27659   0.27764
     Eigenvalues ---    0.27782   0.28217   0.28427   0.28484   0.28680
     Eigenvalues ---    0.33890   0.33891   0.33988   0.34082   0.34178
     Eigenvalues ---    0.34229   0.34244   0.34250   0.34267   0.34414
     Eigenvalues ---    0.34429   0.34434   0.34436   0.34447   0.42085
     Eigenvalues ---    0.44261   0.44425   0.44658   0.45026   0.45574
     Eigenvalues ---    0.49487   0.50412   0.50501   0.51002   0.51899
     Eigenvalues ---    0.52292   0.52820   0.52887   0.53642   0.54521
 Linear search not attempted -- first point.
 Iteration  1 RMS(Cart)=  0.06735709 RMS(Int)=  0.00200167
 Iteration  2 RMS(Cart)=  0.00285586 RMS(Int)=  0.00008835
 Iteration  3 RMS(Cart)=  0.00000315 RMS(Int)=  0.00008830
 Iteration  4 RMS(Cart)=  0.00000000 RMS(Int)=  0.00008830
 Variable       Old X    -DE/DX   Delta X   Delta X   Delta X     New X
                                 (Linear)    (Quad)   (Total)
    R1        2.65949   0.00391   0.00000   0.00864   0.00864   2.66814
    R2        1.83822   0.00242   0.00000   0.00451   0.00451   1.84272
    R3        2.91667  -0.00012   0.00000  -0.00041  -0.00041   2.91625
    R4        2.07515   0.00675   0.00000   0.01948   0.01948   2.09463
    R5        2.06582   0.00531   0.00000   0.01507   0.01507   2.08089
    R6        2.91092  -0.00014   0.00000  -0.00047  -0.00047   2.91044
    R7        2.92657   0.00056   0.00000   0.00198   0.00198   2.92855
    R8        2.91214   0.00626   0.00000   0.02144   0.02144   2.93358
    R9        2.65246   0.00528   0.00000   0.01152   0.01152   2.66398
   R10        2.06612   0.00628   0.00000   0.01783   0.01783   2.08395
   R11        2.07192   0.00563   0.00000   0.01616   0.01616   2.08808
   R12        1.85441   0.00216   0.00000   0.00431   0.00436   1.85876
   R13        3.42547  -0.00127   0.00000  -0.01212  -0.01208   3.41339
   R14        2.65675   0.00416   0.00000   0.00916   0.00916   2.66591
   R15        2.06604   0.00625   0.00000   0.01776   0.01776   2.08380
   R16        2.07350   0.00543   0.00000   0.01561   0.01561   2.08911
   R17        1.83059   0.00223   0.00000   0.00410   0.00410   1.83469
   R18        2.57996   0.00462   0.00000   0.00877   0.00877   2.58873
   R19        3.45948   0.00791   0.00000   0.03214   0.03214   3.49161
   R20        2.06882   0.00295   0.00000   0.00841   0.00841   2.07723
   R21        1.85568   0.00097   0.00000   0.00188   0.00188   1.85756
   R22        3.30948  -0.00312   0.00000  -0.04237  -0.04234   3.26714
   R23        2.66269   0.00468   0.00000   0.01073   0.01071   2.67341
   R24        1.83759   0.00306   0.00000   0.00570   0.00570   1.84330
   R25        2.91864   0.00084   0.00000   0.00117   0.00112   2.91976
   R26        2.07517   0.00515   0.00000   0.01486   0.01486   2.09002
   R27        2.06637   0.00646   0.00000   0.01836   0.01836   2.08472
   R28        2.92316  -0.00063   0.00000  -0.00283  -0.00289   2.92027
   R29        2.92618  -0.00066   0.00000  -0.00232  -0.00232   2.92387
   R30        2.90676   0.00359   0.00000   0.01218   0.01218   2.91893
   R31        2.65884   0.00270   0.00000   0.00534   0.00534   2.66417
   R32        2.06920   0.00481   0.00000   0.01373   0.01373   2.08293
   R33        2.06945   0.00799   0.00000   0.02282   0.02282   2.09227
   R34        1.84747   0.00280   0.00000   0.00620   0.00623   1.85369
   R35        2.64615   0.00234   0.00000   0.00504   0.00504   2.65119
   R36        2.06601   0.00671   0.00000   0.01906   0.01906   2.08507
   R37        2.06911   0.00633   0.00000   0.01806   0.01806   2.08716
   R38        1.82260   0.00362   0.00000   0.00655   0.00655   1.82915
   R39        2.57621   0.00466   0.00000   0.00878   0.00878   2.58499
   R40        3.46403   0.00712   0.00000   0.02911   0.02911   3.49314
   R41        2.07030   0.00227   0.00000   0.00649   0.00649   2.07679
   R42        1.86151   0.00181   0.00000   0.00354   0.00354   1.86506
    A1        1.87459  -0.00019   0.00000  -0.00115  -0.00115   1.87344
    A2        1.98101  -0.00363   0.00000  -0.01493  -0.01491   1.96609
    A3        1.92757   0.00211   0.00000   0.01399   0.01400   1.94157
    A4        1.85209   0.00066   0.00000   0.00066   0.00067   1.85276
    A5        1.89772   0.00043   0.00000   0.00136   0.00139   1.89911
    A6        1.91279   0.00162   0.00000   0.00727   0.00727   1.92006
    A7        1.89049  -0.00111   0.00000  -0.00827  -0.00828   1.88221
    A8        1.89464  -0.00106   0.00000  -0.00636  -0.00657   1.88807
    A9        1.92603  -0.00035   0.00000  -0.01348  -0.01351   1.91252
   A10        1.92348   0.00075   0.00000   0.00861   0.00852   1.93200
   A11        1.88471   0.00008   0.00000  -0.00353  -0.00359   1.88113
   A12        1.94304   0.00161   0.00000   0.02172   0.02173   1.96476
   A13        1.89175  -0.00104   0.00000  -0.00739  -0.00735   1.88439
   A14        1.98550  -0.00044   0.00000   0.00076   0.00076   1.98626
   A15        1.89987  -0.00061   0.00000  -0.00565  -0.00568   1.89419
   A16        1.90389   0.00024   0.00000  -0.00008  -0.00010   1.90378
   A17        1.84539   0.00123   0.00000   0.01198   0.01198   1.85738
   A18        1.93399   0.00040   0.00000   0.00511   0.00511   1.93910
   A19        1.89222  -0.00086   0.00000  -0.01292  -0.01296   1.87927
   A20        1.90177   0.00158   0.00000   0.01695   0.01693   1.91870
   A21        1.93208  -0.00085   0.00000  -0.01220  -0.01229   1.91978
   A22        1.42859   0.00022   0.00000   0.01150   0.01163   1.44022
   A23        1.99941  -0.00121   0.00000  -0.00270  -0.00279   1.99662
   A24        1.89660  -0.00026   0.00000  -0.00847  -0.00849   1.88811
   A25        1.89761   0.00103   0.00000   0.01045   0.01036   1.90797
   A26        1.84475   0.00026   0.00000  -0.00426  -0.00430   1.84045
   A27        1.93536   0.00122   0.00000   0.01691   0.01682   1.95218
   A28        1.88628  -0.00113   0.00000  -0.01400  -0.01395   1.87233
   A29        1.89336  -0.00087   0.00000  -0.00519  -0.00519   1.88817
   A30        1.99160  -0.00582   0.00000  -0.01952  -0.01980   1.97180
   A31        1.90830   0.00643   0.00000   0.03944   0.03941   1.94771
   A32        1.95140   0.00077   0.00000  -0.00525  -0.00553   1.94587
   A33        1.91069   0.00118   0.00000   0.01837   0.01830   1.92899
   A34        1.87564   0.00093   0.00000  -0.01324  -0.01356   1.86208
   A35        1.81789  -0.00333   0.00000  -0.02007  -0.01995   1.79794
   A36        1.88991  -0.00232   0.00000  -0.01383  -0.01383   1.87609
   A37        2.85319   0.00062   0.00000   0.00447   0.00441   2.85759
   A38        2.00775   0.00060   0.00000   0.00587   0.00577   2.01352
   A39        2.00825  -0.00266   0.00000  -0.02025  -0.02033   1.98792
   A40        1.90520   0.00284   0.00000   0.02242   0.02250   1.92769
   A41        2.02340  -0.00088   0.00000  -0.00449  -0.00461   2.01879
   A42        1.91844   0.00037   0.00000   0.00578   0.00580   1.92424
   A43        1.84623   0.00078   0.00000   0.00560   0.00561   1.85184
   A44        1.87584   0.00090   0.00000   0.01022   0.01029   1.88613
   A45        1.90546  -0.00032   0.00000  -0.00678  -0.00679   1.89867
   A46        1.89111  -0.00092   0.00000  -0.01157  -0.01156   1.87954
   A47        1.98095   0.00054   0.00000  -0.00452  -0.00466   1.97630
   A48        1.86340  -0.00004   0.00000  -0.00163  -0.00160   1.86180
   A49        1.87435  -0.00111   0.00000  -0.00782  -0.00774   1.86661
   A50        1.88386  -0.00117   0.00000  -0.00741  -0.00745   1.87641
   A51        1.92780   0.00061   0.00000   0.00907   0.00910   1.93690
   A52        1.93293   0.00120   0.00000   0.01264   0.01260   1.94553
   A53        2.00338  -0.00053   0.00000  -0.00274  -0.00287   2.00051
   A54        1.88337   0.00019   0.00000   0.00116   0.00125   1.88462
   A55        1.89772   0.00083   0.00000   0.00565   0.00562   1.90335
   A56        1.84761   0.00039   0.00000   0.00701   0.00705   1.85466
   A57        1.93876   0.00002   0.00000  -0.00100  -0.00095   1.93781
   A58        1.88868  -0.00096   0.00000  -0.01081  -0.01081   1.87787
   A59        1.91925   0.00169   0.00000   0.00822   0.00822   1.92746
   A60        1.97603   0.00105   0.00000   0.00763   0.00761   1.98363
   A61        1.89578  -0.00062   0.00000  -0.00397  -0.00402   1.89176
   A62        1.90847  -0.00012   0.00000  -0.00196  -0.00199   1.90647
   A63        1.85199   0.00062   0.00000   0.00981   0.00980   1.86179
   A64        1.93769  -0.00020   0.00000   0.00185   0.00185   1.93954
   A65        1.89097  -0.00082   0.00000  -0.01430  -0.01434   1.87664
   A66        1.89753  -0.00078   0.00000  -0.00462  -0.00462   1.89291
   A67        1.99197  -0.00684   0.00000  -0.02311  -0.02349   1.96848
   A68        1.90708   0.00547   0.00000   0.03596   0.03596   1.94304
   A69        1.93839   0.00068   0.00000  -0.00931  -0.00970   1.92868
   A70        1.91926   0.00292   0.00000   0.02885   0.02882   1.94809
   A71        1.87952   0.00114   0.00000  -0.01396  -0.01445   1.86506
   A72        1.81971  -0.00305   0.00000  -0.01831  -0.01807   1.80164
   A73        1.88591  -0.00092   0.00000  -0.00550  -0.00550   1.88042
   A74        2.95447  -0.00161   0.00000  -0.01873  -0.01892   2.93555
   A75        3.03604   0.00091   0.00000   0.03689   0.03678   3.07283
    D1        1.02952  -0.00131   0.00000  -0.04411  -0.04415   0.98538
    D2       -1.10673  -0.00085   0.00000  -0.04568  -0.04564  -1.15238
    D3        3.13124  -0.00100   0.00000  -0.04347  -0.04346   3.08778
    D4       -3.13113  -0.00020   0.00000  -0.06263  -0.06269   3.08937
    D5       -1.06886  -0.00094   0.00000  -0.07853  -0.07850  -1.14735
    D6        1.01988  -0.00198   0.00000  -0.09079  -0.09080   0.92908
    D7       -0.97843   0.00033   0.00000  -0.05389  -0.05394  -1.03237
    D8        1.08384  -0.00041   0.00000  -0.06980  -0.06975   1.01409
    D9       -3.11061  -0.00145   0.00000  -0.08206  -0.08205   3.09053
   D10        1.08501   0.00017   0.00000  -0.05889  -0.05894   1.02607
   D11       -3.13590  -0.00057   0.00000  -0.07480  -0.07475   3.07253
   D12       -1.04717  -0.00160   0.00000  -0.08706  -0.08705  -1.13422
   D13        3.05234  -0.00042   0.00000   0.00410   0.00412   3.05645
   D14        0.99970  -0.00127   0.00000  -0.00757  -0.00754   0.99217
   D15       -1.06197  -0.00003   0.00000   0.01126   0.01127  -1.05070
   D16        0.96405   0.00056   0.00000   0.02583   0.02583   0.98988
   D17       -1.08858  -0.00030   0.00000   0.01416   0.01418  -1.07440
   D18        3.13293   0.00095   0.00000   0.03300   0.03299  -3.11727
   D19       -1.11062   0.00083   0.00000   0.02435   0.02432  -1.08629
   D20        3.11994  -0.00003   0.00000   0.01268   0.01267   3.13260
   D21        1.05826   0.00122   0.00000   0.03151   0.03148   1.08974
   D22        0.99621  -0.00094   0.00000  -0.07968  -0.07965   0.91656
   D23       -1.06199  -0.00032   0.00000  -0.06671  -0.06669  -1.12868
   D24       -3.11114   0.00060   0.00000  -0.05109  -0.05103   3.12101
   D25        3.06456  -0.00237   0.00000  -0.09718  -0.09718   2.96738
   D26        1.00636  -0.00176   0.00000  -0.08420  -0.08423   0.92214
   D27       -1.04279  -0.00084   0.00000  -0.06859  -0.06857  -1.11136
   D28       -1.11160  -0.00099   0.00000  -0.07739  -0.07743  -1.18903
   D29        3.11339  -0.00037   0.00000  -0.06442  -0.06447   3.04891
   D30        1.06423   0.00055   0.00000  -0.04881  -0.04882   1.01541
   D31       -1.00935  -0.00187   0.00000  -0.06838  -0.06826  -1.07761
   D32        1.13681   0.00044   0.00000  -0.02824  -0.02812   1.10869
   D33        3.14061   0.00070   0.00000  -0.03193  -0.03193   3.10868
   D34       -3.11269  -0.00209   0.00000  -0.08042  -0.08047   3.09003
   D35       -0.96653   0.00022   0.00000  -0.04028  -0.04033  -1.00686
   D36        1.03727   0.00047   0.00000  -0.04397  -0.04414   0.99313
   D37        1.10004  -0.00250   0.00000  -0.08433  -0.08428   1.01576
   D38       -3.03698  -0.00019   0.00000  -0.04419  -0.04414  -3.08113
   D39       -1.03318   0.00007   0.00000  -0.04788  -0.04795  -1.08114
   D40        1.10302  -0.00016   0.00000  -0.00872  -0.00867   1.09434
   D41        2.64345   0.00038   0.00000   0.00633   0.00627   2.64972
   D42       -3.09629  -0.00035   0.00000  -0.00731  -0.00725  -3.10354
   D43       -1.55586   0.00020   0.00000   0.00774   0.00769  -1.54817
   D44       -1.04954  -0.00046   0.00000  -0.01315  -0.01310  -1.06264
   D45        0.49089   0.00008   0.00000   0.00190   0.00185   0.49274
   D46        1.93703  -0.00125   0.00000  -0.00705  -0.00691   1.93012
   D47        0.03165  -0.00037   0.00000   0.00279   0.00275   0.03440
   D48       -2.94903  -0.00123   0.00000  -0.01609  -0.01616  -2.96519
   D49       -1.09726   0.00036   0.00000   0.00295   0.00293  -1.09432
   D50        1.09721   0.00022   0.00000  -0.00918  -0.00915   1.08805
   D51       -3.09857  -0.00064   0.00000  -0.02422  -0.02419  -3.12276
   D52       -1.05854  -0.00121   0.00000  -0.03464  -0.03470  -1.09323
   D53        0.84443   0.00131   0.00000  -0.01292  -0.01307   0.83137
   D54       -1.30043  -0.00384   0.00000  -0.06454  -0.06459  -1.36502
   D55        3.01867  -0.00101   0.00000  -0.04326  -0.04307   2.97560
   D56        1.04115   0.00037   0.00000   0.00862   0.00858   1.04974
   D57       -1.19626  -0.00180   0.00000  -0.01038  -0.01021  -1.20648
   D58       -1.47180   0.00048   0.00000   0.01151   0.01159  -1.46021
   D59        2.68032  -0.00036   0.00000  -0.00344  -0.00341   2.67691
   D60        0.64229   0.00010   0.00000   0.00420   0.00419   0.64648
   D61        0.81618  -0.00012   0.00000   0.00886   0.00897   0.82515
   D62       -1.31487  -0.00096   0.00000  -0.00608  -0.00604  -1.32091
   D63        2.93027  -0.00050   0.00000   0.00155   0.00157   2.93185
   D64        1.16137   0.00022   0.00000   0.00046   0.00045   1.16182
   D65       -3.04839  -0.00094   0.00000  -0.01242  -0.01246  -3.06085
   D66       -0.97456  -0.00012   0.00000  -0.00254  -0.00258  -0.97714
   D67       -2.96833   0.00079   0.00000   0.01298   0.01301  -2.95532
   D68       -0.89490  -0.00036   0.00000   0.00011   0.00011  -0.89480
   D69        1.17892   0.00045   0.00000   0.00998   0.00998   1.18890
   D70       -0.92068   0.00003   0.00000   0.00130   0.00133  -0.91936
   D71        1.15274  -0.00112   0.00000  -0.01157  -0.01158   1.14116
   D72       -3.05662  -0.00031   0.00000  -0.00170  -0.00170  -3.05832
   D73       -1.17647  -0.00051   0.00000  -0.03187  -0.03183  -1.20830
   D74        3.05164  -0.00081   0.00000  -0.03983  -0.03981   3.01182
   D75        1.00687  -0.00022   0.00000  -0.03070  -0.03070   0.97616
   D76        3.04509  -0.00001   0.00000  -0.02220  -0.02220   3.02289
   D77        0.99001  -0.00031   0.00000  -0.03015  -0.03019   0.95983
   D78       -1.05476   0.00028   0.00000  -0.02102  -0.02107  -1.07583
   D79        0.92958  -0.00112   0.00000  -0.03850  -0.03847   0.89112
   D80       -1.12549  -0.00142   0.00000  -0.04646  -0.04645  -1.17194
   D81        3.11292  -0.00083   0.00000  -0.03732  -0.03734   3.07558
   D82        1.20294   0.00032   0.00000   0.03974   0.03979   1.24273
   D83       -0.84943  -0.00067   0.00000   0.02553   0.02560  -0.82383
   D84       -2.90985   0.00073   0.00000   0.04614   0.04618  -2.86368
   D85       -2.94465   0.00029   0.00000   0.02926   0.02922  -2.91543
   D86        1.28617  -0.00070   0.00000   0.01505   0.01504   1.30120
   D87       -0.77426   0.00070   0.00000   0.03566   0.03561  -0.73864
   D88       -0.83234   0.00103   0.00000   0.04334   0.04331  -0.78902
   D89       -2.88470   0.00003   0.00000   0.02913   0.02913  -2.85558
   D90        1.33806   0.00144   0.00000   0.04974   0.04970   1.38776
   D91        1.18130  -0.00251   0.00000  -0.08907  -0.08902   1.09228
   D92       -2.94518   0.00061   0.00000  -0.04017  -0.04017  -2.98535
   D93       -0.94725   0.00048   0.00000  -0.04657  -0.04677  -0.99402
   D94       -0.98728  -0.00283   0.00000  -0.08401  -0.08381  -1.07109
   D95        1.16943   0.00029   0.00000  -0.03512  -0.03497   1.13446
   D96       -3.11583   0.00016   0.00000  -0.04151  -0.04156   3.12580
   D97       -3.07338  -0.00255   0.00000  -0.08876  -0.08871   3.12109
   D98       -0.91668   0.00058   0.00000  -0.03986  -0.03987  -0.95654
   D99        1.08125   0.00045   0.00000  -0.04626  -0.04646   1.03479
   D100       1.52059   0.00031   0.00000   0.01830   0.01815   1.53874
   D101      -2.68738   0.00050   0.00000   0.02295   0.02287  -2.66451
   D102      -0.64110  -0.00040   0.00000   0.01363   0.01357  -0.62753
   D103       1.39224   0.00070   0.00000   0.02482   0.02479   1.41704
   D104      -2.81316   0.00094   0.00000   0.03068   0.03072  -2.78244
   D105      -0.76216   0.00022   0.00000   0.02031   0.02029  -0.74187
   D106       0.79383   0.00076   0.00000  -0.02744  -0.02761   0.76622
   D107      -1.35629  -0.00371   0.00000  -0.08023  -0.08034  -1.43662
   D108       2.95442  -0.00218   0.00000  -0.06575  -0.06548   2.88893
         Item               Value     Threshold  Converged?
 Maximum Force            0.007989     0.000015     NO 
 RMS     Force            0.002341     0.000010     NO 
 Maximum Displacement     0.281243     0.000060     NO 
 RMS     Displacement     0.067564     0.000040     NO 
 GradGradGradGradGradGradGradGradGradGradGradGradGradGradGradGradGradGrad

                    Distance matrix (angstroms):
                    1          2          3          4          5
     1  O    0.000000
     2  C    1.411917   0.000000
     3  C    2.460312   1.543215   0.000000
     4  C    3.773436   2.497304   1.540140   0.000000
     5  O    4.918764   3.780584   2.472241   1.409719   0.000000
     6  C    3.009789   2.527059   1.549722   2.496275   2.901864
     7  O    2.702768   2.917445   2.489569   3.779839   4.276905
     8  C    2.913343   2.546505   1.552384   2.572436   3.051753
     9  O    2.655760   2.980062   2.438590   3.790652   4.296645
    10  Cl   3.717684   3.246589   2.816954   3.214799   3.807782
    11  H    0.975128   1.940381   2.589428   4.002932   4.994105
    12  H    2.087160   1.108429   2.170998   2.708717   4.005648
    13  H    2.017737   1.101159   2.181079   2.721242   4.069370
    14  H    4.021574   2.681933   2.160469   1.102777   2.020475
    15  H    4.021911   2.719554   2.169218   1.104964   2.080838
    16  H    5.098198   4.097034   2.691966   1.974914   0.983616
    17  H    3.435326   2.778620   2.164247   2.642147   3.109188
    18  H    3.997767   3.486135   2.181134   2.752120   2.584557
    19  H    2.782652   3.209095   2.678567   4.091243   4.509187
    20  H    3.946855   3.511977   2.206456   2.821969   2.754637
    21  H    1.814348   2.495893   2.504923   3.964884   4.741441
    22  O    6.096796   5.279768   3.955271   3.493004   2.687283
    23  C    7.440601   6.588081   5.200778   4.578010   3.480268
    24  C    8.346141   7.323739   6.058794   5.104081   4.042003
    25  C    8.170430   6.985302   5.802626   4.565493   3.502338
    26  O    7.143983   5.881822   4.880207   3.513304   2.772352
    27  C    9.758584   8.768970   7.433738   6.510810   5.324851
    28  O   10.394481   9.520988   8.191559   7.434905   6.317538
    29  C    8.461562   7.472184   6.401282   5.497494   4.755493
    30  O    7.394250   6.403407   5.504647   4.642322   4.215743
    31  Cl   9.975923   8.889053   7.936687   6.849105   6.157060
    32  H    6.152954   5.326693   4.194147   3.699880   3.179704
    33  H    8.028093   7.310452   5.933812   5.499145   4.473577
    34  H    7.517946   6.671486   5.190436   4.588136   3.307380
    35  H    9.105126   7.871787   6.777148   5.458514   4.489692
    36  H    8.272406   7.106880   5.829851   4.633530   3.388671
    37  H    6.346270   5.091774   4.012552   2.644132   1.806290
    38  H    9.783316   8.829855   7.408835   6.552855   5.247286
    39  H   10.440817   9.361288   8.087896   7.013016   5.856531
    40  H   10.797090   9.893665   8.646133   7.830920   6.806987
    41  H    8.833777   7.975769   6.886293   6.178316   5.450330
    42  H    7.020693   5.905517   5.030267   3.968351   3.564013
                    6          7          8          9         10
     6  C    0.000000
     7  O    1.410738   0.000000
     8  C    2.509143   3.039182   0.000000
     9  O    2.895575   2.746170   1.369895   0.000000
    10  Cl   4.186549   4.769518   1.847682   2.658062   0.000000
    11  H    2.590198   1.916551   3.120254   2.682346   4.314284
    12  H    2.733128   3.182056   3.500284   3.969313   4.246468
    13  H    3.488166   3.962912   2.828965   3.403159   2.832415
    14  H    2.718260   3.979525   3.511160   4.589295   4.202064
    15  H    3.462347   4.624180   2.827728   4.104448   2.766546
    16  H    3.251084   4.501530   2.724683   3.981915   3.340807
    17  H    1.102701   2.008719   3.462436   3.930941   4.971165
    18  H    1.105511   2.091245   2.716101   3.199871   4.431867
    19  H    1.946190   0.970876   2.687461   2.050233   4.423198
    20  H    2.778687   3.452098   1.099221   1.987409   2.353074
    21  H    3.032544   2.670532   1.911109   0.982977   2.925889
    22  O    4.641181   5.681501   3.302071   4.403352   3.336372
    23  C    5.672795   6.749534   4.646857   5.682881   4.729814
    24  C    6.670069   7.877978   5.717914   6.892489   5.503787
    25  C    6.363319   7.698397   5.867005   7.155823   5.788406
    26  O    5.647620   7.007448   5.128471   6.483808   4.929262
    27  C    7.871329   9.047927   7.059564   8.151877   6.949430
    28  O    8.679278   9.749226   7.574478   8.545552   7.325552
    29  C    7.303725   8.457742   5.899545   7.061230   5.193171
    30  O    6.610459   7.733091   5.025511   6.218992   4.070521
    31  Cl   8.880935  10.105636   7.590823   8.801318   6.744688
    32  H    5.143769   6.155343   3.456087   4.576614   2.946379
    33  H    6.386868   7.328158   5.139729   6.005791   5.135203
    34  H    5.364172   6.446442   4.814343   5.796201   5.281185
    35  H    7.379886   8.736186   6.887194   8.195980   6.664077
    36  H    6.120429   7.454951   6.016022   7.251817   6.264788
    37  H    4.688463   6.061571   4.387291   5.732665   4.471616
    38  H    7.627845   8.772307   7.094685   8.125030   7.266587
    39  H    8.556511   9.801668   7.853660   9.016564   7.669800
    40  H    9.266686  10.360633   8.019933   9.026609   7.559218
    41  H    7.775411   8.822028   6.153089   7.179589   5.383358
    42  H    6.120821   7.332200   4.826458   6.119143   4.038074
                   11         12         13         14         15
    11  H    0.000000
    12  H    2.362161   0.000000
    13  H    2.826139   1.785813   0.000000
    14  H    4.180469   2.419890   3.005888   0.000000
    15  H    4.484157   3.051847   2.476397   1.782401   0.000000
    16  H    5.212632   4.549290   4.295032   2.856435   2.362636
    17  H    3.003834   2.524325   3.756953   2.394943   3.663758
    18  H    3.582585   3.751123   4.331310   3.119796   3.763334
    19  H    2.100458   3.747119   4.127793   4.515333   4.828631
    20  H    4.011988   4.350004   3.821475   3.829255   3.178231
    21  H    1.956132   3.481367   2.926004   4.613938   4.222312
    22  O    6.298330   5.944128   5.278589   4.477916   3.483775
    23  C    7.573862   7.163357   6.625493   5.430685   4.630233
    24  C    8.574696   7.787625   7.217588   5.811799   4.957368
    25  C    8.388376   7.240796   6.908579   5.020872   4.466000
    26  O    7.453086   6.089602   5.710366   3.917899   3.242907
    27  C    9.916723   9.210334   8.724583   7.161384   6.457998
    28  O   10.574972  10.082712   9.431192   8.201025   7.320464
    29  C    8.846569   8.034661   7.147826   6.285017   5.049809
    30  O    7.876789   6.999571   5.961346   5.466272   4.010170
    31  Cl  10.419767   9.344449   8.463074   7.475749   6.294459
    32  H    6.496736   6.049396   5.124875   4.712632   3.392637
    33  H    8.154481   7.981636   7.331572   6.415090   5.520325
    34  H    7.517770   7.147768   6.877619   5.325143   4.885077
    35  H    9.365468   8.070978   7.718785   5.812887   5.256741
    36  H    8.365895   7.278568   7.196270   4.977498   4.790048
    37  H    6.586811   5.278255   5.053367   3.064353   2.596565
    38  H    9.832931   9.227471   8.922274   7.153359   6.684606
    39  H   10.629938   9.717464   9.270369   7.551631   6.903002
    40  H   11.053977  10.464941   9.701162   8.596138   7.587387
    41  H    9.212740   8.644906   7.651172   7.059890   5.748826
    42  H    7.488978   6.378768   5.492874   4.680485   3.331333
                   16         17         18         19         20
    16  H    0.000000
    17  H    3.732253   0.000000
    18  H    2.796417   1.778255   0.000000
    19  H    4.523396   2.823263   2.355869   0.000000
    20  H    2.167647   3.757407   2.524623   3.050129   0.000000
    21  H    4.580721   3.924227   3.631671   2.127673   2.803425
    22  O    1.728898   5.316893   4.100232   5.439378   2.485668
    23  C    2.661976   6.256862   4.951226   6.535410   3.730280
[...]
 .00003831,-0.00000154,0.00003451,-0.00000977,0.00000404,0.00002966,-0.
 00002677,-0.00000137,-0.00000388,0.00000333,0.00000161,0.00000235,-0.0
 0000050,-0.00000281,-0.00000168,-0.00000191,0.00000209,0.00000462,-0.0
 0000116,-0.00000336,-0.00000441,-0.00000658,0.00000651,-0.00005788,0.0
 0005403,0.00006735,0.00000375,-0.00000091,-0.00000316,-0.00000096,0.00
 000184,0.00000368,-0.00000487,0.00000777,0.00000158,-0.00000729,0.0000
 0040,-0.00000057,-0.00001078,0.00000208,0.00000765,0.00030343,-0.00003
 082,-0.00007135,-0.00107494,-0.00061208,0.00022755,-0.00327959,0.00633
 727,0.00029035,-0.00033933,0.00077992,0.00008345,0.00004053,-0.0005598
 6,0.00001331,-0.02020412,0.06892882,-0.06834424,0.01657375,-0.03600854
 ,0.00177545,0.00057729,-0.00010925,-0.00065473,0.00054344,0.00061651,-
 0.00011869,0.00026117,0.00072914,0.00016351,-0.00013295,0.00002510,-0.
 00010984,0.00019714,-0.00009878,0.00001865,0.00003618,-0.00020223,0.00
 032873,0.00006411,0.00008540,0.00011931,0.00055382,-0.00021549,-0.0002
 8261,0.00004095,0.00007638,0.00004467,0.00827143,-0.05731873,0.0729370
 4,-0.00004154,-0.00001018,0.00002139,0.00002205,0.00002089,-0.00000437
 ,-0.00001539,-0.00002241,-0.00000158,0.00007108,0.00007217,-0.00003189
 ,-0.00007732,0.00001621,0.00040326,0.00003866,-0.00000740,0.00001139,-
 0.00004056,0.00001195,-0.00000576,0.00013304,0.00002401,-0.00002119,-0
 .00012010,-0.00002458,-0.00000584,-0.00008898,-0.00000898,0.00001582,0
 .00002035,0.00000176,-0.00000892,-0.00000921,0.00000119,0.00000939,0.0
 0000367,0.00000131,-0.00000774,-0.00002949,-0.00000556,0.00001969,-0.0
 0001031,-0.00001697,-0.00001699,0.00038469,-0.00018220,-0.00050796,-0.
 00000769,0.00000250,0.00000623,0.00000236,-0.00001335,-0.00000023,0.00
 001907,-0.00001443,0.00000117,0.00007616,-0.00004109,0.00002769,0.0000
 3287,0.00000716,-0.00002677,-0.00277631,-0.00038599,-0.00103054,-0.001
 63948,-0.00338558,0.00345882,-0.01908127,0.00092152,-0.01787348,-0.001
 28927,-0.00038549,-0.00240590,0.00114925,0.00014976,0.00042911,-0.1722
 2396,0.00274999,-0.13230126,0.01375264,0.00178363,0.02022588,-0.002049
 73,0.00168948,-0.00092075,0.00056838,-0.00046495,0.00040920,0.00140215
 ,0.00162462,0.00027834,0.00006337,0.00050962,-0.00005436,0.00018519,0.
 00003177,0.00004068,0.00014008,-0.00003158,0.00021664,0.00010864,-0.00
 023630,0.00159099,0.00001899,0.00011321,0.00004953,-0.00014378,0.00018
 668,-0.00022636,-0.00278987,-0.00069165,-0.00367160,0.18190324,-0.0000
 0158,-0.00000226,0.00000226,-0.00000050,0.00000523,0.00000086,-0.00000
 002,-0.00000993,-0.00000032,0.00000901,0.00002130,-0.00000542,-0.00000
 769,0.00000123,0.00008136,0.00000147,-0.00000047,0.00000256,-0.0000012
 8,0.00000031,-0.00000088,0.00000789,0.00002576,-0.00000987,-0.00001159
 ,-0.00000915,0.00000337,-0.00000454,-0.00001235,0.00000406,0.00000087,
 0.00000062,-0.00000045,-0.00000119,-0.00000035,0.00000089,0.00000020,-
 0.00000028,-0.00000103,-0.00000390,-0.00000194,0.00000261,-0.00000250,
 -0.00000406,-0.00000299,0.00008230,-0.00005072,-0.00010601,-0.00000016
 ,0.00000064,-0.00000013,0.00000053,-0.00000196,0.00000029,0.00000084,-
 0.00000161,0.00000056,0.00002428,-0.00001456,0.00000846,0.00000125,0.0
 0000162,-0.00000370,-0.00135181,0.00034709,-0.00069151,-0.00026221,-0.
 00233586,0.00200190,-0.01394052,0.00049270,-0.01116472,0.00012957,0.00
 080378,-0.00114605,0.00035534,-0.00037264,0.00005275,0.00613464,-0.054
 97458,0.00660526,-0.00641489,-0.00059102,-0.01869240,-0.00186952,0.001
 54472,-0.00133377,0.00084590,-0.00021449,0.00033348,0.00085619,-0.0033
 5235,0.00152489,0.00013406,0.00027616,0.00001650,0.00003428,-0.0001242
 4,-0.00007905,-0.00021981,0.00038748,0.00003597,0.00000979,0.00042525,
 0.00054437,0.00012212,-0.00009548,0.00020980,-0.00000194,0.00005117,-0
 .00009127,0.01975182,0.00289506,0.02170104,-0.00297135,0.05341621,0.00
 000044,0.00000044,0.00000780,-0.00000149,-0.00000058,-0.00000317,-0.00
 000084,0.00000068,0.00000003,-0.00000937,-0.00000594,-0.00000223,0.000
 01645,-0.00000372,0.00000592,-0.00000096,0.00000083,-0.00000256,0.0000
 0134,0.00000033,0.00000580,0.00000492,-0.00000900,-0.00000762,-0.00000
 092,0.00000434,0.00001033,-0.00000165,0.00000428,0.00000542,0.00000140
 ,0.00000030,-0.00000223,-0.00000087,0.00000099,0.00000174,0.00000032,-
 0.00000019,-0.00000112,0.00000003,0.00000121,0.00000083,-0.00000010,0.
 00000025,-0.00000119,-0.00000450,0.00000252,0.00000426,-0.00000139,0.0
 0000023,0.00000165,-0.00000065,-0.00000042,-0.00000124,0.00000183,-0.0
 0000054,-0.00000388,-0.00000624,0.00000310,-0.00000451,0.00000478,-0.0
 0000090,-0.00000549,0.00073632,-0.00009037,0.00042850,0.00076084,0.000
 81018,-0.00075429,0.00471464,0.00086208,0.00645002,0.00256795,0.000670
 10,0.00023594,-0.00003612,-0.00033012,0.00021490,-0.12739937,0.0007268
 6,-0.18776500,-0.00942820,-0.00925858,-0.03408307,-0.00056616,-0.00049
 369,-0.00038850,0.00004085,0.00010664,0.00005285,0.00059086,0.00239217
 ,-0.00020422,-0.00007500,-0.00004830,-0.00007807,0.00028128,0.00013818
 ,0.00014005,0.00009045,-0.00003024,0.00000989,0.00044883,0.00036591,-0
 .00019014,-0.00022594,-0.00016751,0.00000190,0.00001748,0.00004438,-0.
 00004709,-0.00436471,0.00029813,-0.00220430,0.13228544,0.00149718,0.21
 770002,0.00009936,0.00001777,-0.00000443,-0.00006243,-0.00002828,0.000
 01080,0.00003452,-0.00000379,0.00000056,-0.00017676,-0.00007992,0.0000
 5448,0.00035913,-0.00002570,-0.00009846,-0.00007031,0.00003542,-0.0000
 3267,0.00009206,-0.00003251,0.00003976,-0.00018037,0.00007857,-0.00005
 831,0.00016813,0.00000340,0.00006583,0.00011578,-0.00006052,0.00000593
 ,-0.00003872,0.00000110,0.00000935,0.00000696,-0.00000214,-0.00000722,
 -0.00000714,-0.00000675,0.00000781,0.00002215,-0.00000140,-0.00001745,
 -0.00000267,-0.00000089,0.00000846,-0.00024364,0.00009822,0.00013621,0
 .00000368,-0.00000309,-0.00000438,-0.00000289,0.00001327,-0.00000628,-
 0.00002803,0.00002741,-0.00001423,-0.00003186,0.00000983,-0.00002021,-
 0.00005208,-0.00001080,0.00001577,0.00045122,-0.00008488,0.00007609,-0
 .00058677,-0.00009037,-0.00027216,-0.00116008,0.00167300,-0.00035485,0
 .00010740,-0.00012991,0.00049041,0.00045312,-0.00026049,-0.00036206,-0
 .01065145,0.01422326,-0.00492800,-0.16386863,0.21472626,-0.05433927,-0
 .00138370,-0.00074437,0.00343450,0.00086538,0.00013772,-0.00157449,-0.
 00064652,0.00009146,-0.00079957,-0.00029875,0.00004800,-0.00012562,-0.
 00008518,0.00021328,0.00011227,0.00005457,-0.00014807,0.00000625,0.000
 00501,0.00008974,-0.00003513,0.00003969,-0.00014080,-0.00018228,-0.000
 25987,0.00010197,-0.00001423,0.00079769,-0.00155281,0.00124325,0.00235
 636,-0.00142052,-0.00057511,0.17557367,0.00000407,-0.00001326,-0.00000
 327,-0.00000303,0.00001048,-0.00000326,-0.00000099,-0.00002881,0.00001
 194,0.00004341,0.00006525,-0.00002224,-0.00008432,-0.00003562,0.000030
 13,0.00000710,0.00001773,-0.00001007,-0.00000132,-0.00002207,0.0000009
 0,-0.00005960,0.00010736,-0.00001938,0.00003776,-0.00003513,0.00001308
 ,0.00003546,-0.00007106,0.00000089,-0.00000201,0.00000913,-0.00000107,
 0.00000172,-0.00000118,-0.00000226,-0.00000183,-0.00000351,0.00000250,
 -0.00000183,-0.00000555,0.00000073,-0.00000370,-0.00001087,0.00000685,
 0.00004675,0.00000011,-0.00003454,0.00000334,-0.00000301,-0.00000208,-
 0.00000174,-0.00000258,0.00000456,-0.00000335,0.00001580,-0.00000061,0
 .00001479,-0.00001191,0.00000451,-0.00001166,0.00000992,0.00000680,-0.
 00049250,-0.00031216,0.00000918,0.00001587,-0.00039103,0.00005142,-0.0
 0102792,0.00102472,0.00116863,0.00004204,-0.00065993,-0.00028533,-0.00
 048052,-0.00036360,0.00033475,0.01093910,-0.01758253,0.00384066,0.2171
 0953,-0.29697118,0.08270063,-0.00309749,0.00120805,0.00085327,0.001325
 56,-0.00039470,-0.00055417,0.00124993,-0.00071984,-0.00023989,-0.00017
 355,0.00027033,-0.00009638,0.00030882,0.00016755,0.00018053,0.00003575
 ,-0.00003923,0.00005195,0.00002132,0.00013301,-0.00007485,0.00007770,-
 0.00002876,-0.00007397,0.00002915,-0.00004830,0.00003356,0.00201185,-0
 .00048073,-0.00442103,-0.00090931,0.00135722,0.00222309,-0.22555725,0.
 31370168,-0.00005574,-0.00000923,-0.00001606,0.00003943,0.00001367,0.0
 0000209,-0.00001604,0.00000576,-0.00000138,0.00010228,0.00003404,-0.00
 001976,-0.00020695,0.00002773,0.00001648,0.00003943,-0.00002179,0.0000
 2014,-0.00005248,0.00001794,-0.00003238,0.00008682,-0.00002947,0.00004
 876,-0.00008451,-0.00000872,-0.00005902,-0.00005669,0.00002662,-0.0000
 1668,0.00001819,-0.00000183,-0.00000027,-0.00000129,-0.00000128,-0.000
 00027,0.00000316,0.00000474,-0.00000061,-0.00000914,-0.00000203,0.0000
 0611,0.00000493,0.00000540,-0.00000103,0.00012153,-0.00006022,-0.00004
 530,0.00000023,-0.00000008,-0.00000003,0.00000190,-0.00000527,0.000004
 31,0.00001211,-0.00001258,0.00001451,0.00001738,-0.00000205,0.00001579
 ,0.00001875,0.00000826,0.00000542,-0.00032893,0.00012237,-0.00004235,-
 0.00012638,-0.00000105,0.00000681,0.00048812,-0.00088572,-0.00148098,0
 .00026995,-0.00000504,0.00019092,-0.00021408,0.00031296,-0.00008947,0.
 02583409,-0.03427188,0.00427190,-0.08812517,0.12493920,-0.08251211,0.0
 0441068,0.00023512,0.00175664,-0.00134458,-0.00011426,-0.00022833,-0.0
 0237596,-0.00067572,0.00020222,0.00019465,-0.00006209,0.00021036,0.000
 12214,0.00017141,0.00016140,-0.00013375,0.00009843,-0.00011528,-0.0000
 6624,-0.00011023,-0.00016491,-0.00011632,0.00013507,0.00008042,0.00015
 675,-0.00007064,0.00002165,0.00293143,-0.00263773,-0.00455691,-0.00010
 158,-0.00127974,0.00040074,0.05860537,-0.08590245,0.08215188,-0.000037
 16,-0.00001138,-0.00001599,0.00002806,0.00001106,-0.00000744,-0.000009
 27,0.00000967,0.00001167,0.00011209,-0.00000542,-0.00002172,-0.0002060
 1,0.00002612,-0.00012075,0.00002210,-0.00001907,0.00000243,-0.00003553
 ,0.00000842,-0.00002399,0.00000734,0.00001197,0.00003546,-0.00002080,-
 0.00001195,-0.00004099,-0.00000021,-0.00000395,-0.00003368,0.00000977,
 0.00000135,-0.00000069,0.00000195,-0.00000037,-0.00000233,0.00000234,0
 .00000272,0.00000244,-0.00000917,0.00000772,-0.00000005,0.00002129,0.0
 0001824,-0.00000224,0.00002843,-0.00003025,0.00015032,0.00000339,-0.00
 000293,-0.00000118,0.00000112,-0.00000212,0.00000522,0.00000263,-0.000
 00113,0.00001014,-0.00000115,0.00000415,0.00001092,0.00000185,0.000008
 56,0.00001191,-0.00009132,0.00006497,-0.00055797,0.00029711,0.00017026
 ,0.00128626,0.00165072,0.00346322,0.00400328,0.00007473,0.00052848,-0.
 00044229,-0.00015220,0.00111635,0.00038900,-0.00007060,-0.00039254,-0.
 00067460,-0.00050284,0.00006908,0.00029435,-0.05036005,0.01350188,0.04
 538292,-0.01800279,0.00446702,0.03547168,-0.01088942,-0.00055392,-0.02
 666771,-0.00004776,-0.00015861,0.00088567,0.00004865,0.00027733,-0.000
 32361,0.00007575,-0.00009953,-0.00012360,0.00000583,0.00023398,0.00016
 315,0.00017485,0.00017559,0.00029058,0.00034803,-0.00010952,0.00002885
 ,0.00006230,0.00013305,0.00019589,0.00003636,0.00013708,0.00019473,-0.
 00171339,-0.00117864,-0.00040997,0.08009486,0.00001447,0.00000495,0.00
 000454,-0.00000715,-0.00000596,0.00000764,0.00001017,0.00000902,-0.000
 00516,-0.00006113,-0.00007144,0.00004094,0.00015793,0.00006582,0.00011
 773,-0.00001328,0.00000362,-0.00000917,0.00001522,-0.00000187,0.000012
 02,0.00000180,0.00001448,-0.00003008,0.00000519,-0.00000206,0.00001718
 ,-0.00000520,-0.00001456,0.00000499,-0.00000447,-0.00000006,-0.0000004
 6,-0.00000114,-0.00000078,0.00000094,0.00000010,0.00000036,0.00000051,
 -0.00000419,0.00000200,-0.00000128,0.00000545,0.00000786,-0.00000717,0
 .00002494,-0.00006755,-0.00016735,-0.00000312,-0.00000083,0.00000214,-
 0.00000115,0.00000131,-0.00000514,-0.00000063,0.00000283,-0.00000548,0
 .00000721,-0.00000487,-0.00000225,-0.00000151,-0.00000032,-0.00000375,
 0.00012459,0.00009601,0.00051456,-0.00034934,0.00092560,-0.00206876,0.
 00569445,-0.00892150,-0.02857731,-0.00054559,-0.00680141,0.00306794,0.
 00068386,0.00195324,0.00066578,0.00206196,-0.00059377,-0.00231242,-0.0
 0030425,0.00199793,0.00130885,0.01695795,-0.08083237,-0.08942519,-0.01
 078146,0.00852288,0.02417439,0.00607518,0.00267439,0.01170376,0.000241
 73,-0.00005852,-0.00015224,0.00060906,-0.00052676,0.00117515,-0.000369
 10,0.00018866,0.00020717,-0.00006743,0.00006285,0.00001049,0.00044064,
 -0.00063505,-0.00197433,-0.00031829,0.00002151,-0.00010508,-0.00009749
 ,0.00007907,0.00015289,-0.00013977,-0.00003908,0.00028203,-0.00159546,
 -0.00044886,0.00027135,-0.01563271,0.08475179,0.00000630,0.00000233,0.
 00001505,-0.00000742,-0.00000078,-0.00000159,-0.00000191,-0.00000526,-
 0.00000502,-0.00003041,0.00001719,-0.00000321,0.00005699,-0.00001266,0
 .00011977,-0.00000131,0.00000622,0.00000230,0.00000583,-0.00000138,0.0
 0001014,0.00003100,-0.00001987,-0.00001330,-0.00001860,0.00000553,0.00
 001562,-0.00001527,0.00001082,0.00001613,0.00000109,0.00000034,-0.0000
 0271,-0.00000312,0.00000163,0.00000372,0.00000013,-0.00000119,-0.00000
 378,-0.00000284,-0.00000188,0.00000420,-0.00000901,-0.00001113,-0.0000
 0424,0.00004645,-0.00000917,-0.00013244,-0.00000313,0.00000265,0.00000
 189,-0.00000066,-0.00000129,-0.00000196,0.00000329,-0.00000289,-0.0000
 0490,0.00000897,-0.00000601,-0.00000105,0.00000856,-0.00000312,-0.0000
 1260,0.00017214,-0.00005786,0.00017381,-0.00039738,0.00069578,0.000899
 21,-0.00016229,-0.00115889,0.00051241,0.00021431,0.00028888,0.00076466
 ,0.00003705,-0.00039069,-0.00030460,0.00071606,-0.00081761,-0.00115152
 ,0.00154771,0.00260235,0.00027045,0.05705441,-0.08300256,-0.29355720,0
 .00915905,-0.00072605,-0.00793235,-0.00808510,-0.00015894,-0.01060273,
 0.00026529,0.00002821,-0.00044143,0.00014938,0.00004471,0.00020413,-0.
 00013163,0.00002039,0.00017422,-0.00003688,0.00012263,0.00006680,-0.00
 001312,0.00000101,0.00010102,-0.00015439,0.00006274,-0.00003574,-0.000
 11926,0.00000121,0.00004552,0.00005995,-0.00001088,0.00005463,-0.00079
 611,0.00002090,-0.00010510,-0.06045451,0.08040384,0.30894615,0.0003398
 1,0.00004843,0.00007789,-0.00025941,-0.00006436,0.00002783,0.00005750,
 -0.00032086,-0.00003026,-0.00055800,0.00084225,-0.00016721,0.00036399,
 -0.00066203,0.00040147,-0.00012740,0.00026000,-0.00006241,0.00030243,-
 0.00018046,0.00019233,-0.00042981,0.00039585,-0.00033795,0.00044149,-0
 .00004710,0.00036483,0.00050468,-0.00015681,0.00029680,-0.00010278,0.0
 0001645,0.00001358,0.00000513,-0.00000573,-0.00000190,-0.00003909,-0.0
 0005103,0.00000784,0.00013608,-0.00015569,0.00000499,-0.00037883,-0.00
 040103,0.00020143,-0.00015349,0.00062855,-0.00088321,-0.00000097,0.000
 00613,-0.00000541,-0.00001070,0.00000375,-0.00001119,-0.00005329,0.000
 08595,-0.00007698,0.00004484,-0.00004519,-0.00005607,-0.00011503,-0.00
 004122,-0.00003316,-0.00198980,-0.00015830,0.00142643,0.00185463,0.001
 03659,-0.00004755,0.00033005,-0.00093147,-0.00040223,0.00417311,-0.003
 51907,-0.00327038,-0.01346819,-0.00380467,-0.00025944,-0.00031010,0.00
 075516,0.00014430,-0.00028539,0.00010491,-0.00000200,-0.02366713,0.008
 82838,0.03750528,-0.07333960,0.02694019,0.08112245,0.00186047,0.000433
 35,0.00046505,0.00158103,-0.00097261,-0.00329312,-0.00022577,-0.000087
 48,0.00012860,-0.00029601,0.00003685,-0.00013017,-0.00069751,-0.000457
 40,-0.00008399,-0.00100739,-0.00035383,0.00066737,0.00046365,0.0044407
 9,0.00224348,0.00020495,0.00027443,-0.00015538,-0.00005439,-0.00015192
 ,-0.00006159,-0.00005468,-0.00026849,0.00034652,-0.00096185,-0.0028280
 2,0.00090041,0.10592276,-0.00024967,-0.00019569,-0.00008637,0.00011155
 ,0.00023060,-0.00015149,-0.00016713,-0.00036143,0.00022573,0.00173111,
 0.00145259,-0.00073534,-0.00422549,-0.00000619,-0.00114063,0.00025611,
 -0.00001766,-0.00002550,-0.00028105,-0.00006519,-0.00016468,-0.0004953
 5,0.00111641,0.00015014,0.00024940,-0.00038765,-0.00004998,0.00028786,
 -0.00077702,-0.00006984,0.00006925,0.00005884,-0.00001247,0.00002616,-
 0.00001132,-0.00002026,-0.00000641,-0.00001622,0.00002038,-0.00006425,
 -0.00009113,0.00006678,0.00012282,0.00005191,0.00007563,0.00082760,-0.
 00021818,0.00137653,0.00004942,-0.00003987,-0.00001669,0.00001052,-0.0
 0006930,0.00008725,0.00000353,0.00006545,0.00006450,0.00011273,-0.0001
 1377,0.00009376,-0.00006309,0.00010762,0.00009360,0.00050415,-0.001339
 36,-0.00155141,-0.00017632,-0.00100811,0.00094967,0.00070583,0.0013745
 4,0.00193214,-0.01280206,-0.01053957,0.00449022,0.00043945,0.00779884,
 0.00282122,-0.00131544,-0.00030733,0.00033977,0.00089423,-0.00137169,-
 0.00138696,-0.00235000,0.01683520,0.02455053,0.04573059,-0.11833398,-0
 .15649568,-0.00369679,-0.00061761,-0.00218389,-0.00077904,0.00250391,0
 .00118522,-0.00018978,0.00010854,-0.00056051,0.00017086,-0.00016130,0.
 00015102,0.00111951,0.00043105,-0.00017441,0.00126393,0.00139003,-0.00
 122914,0.00738488,-0.00140376,0.00069264,0.00007713,-0.00015973,0.0001
 3573,0.00002965,0.00015584,0.00000367,0.00039103,0.00058704,-0.0002589
 8,-0.00623424,-0.00235855,0.00206076,-0.02947319,0.10570316,-0.0001290
 5,-0.00005740,-0.00021157,0.00011385,0.00004773,-0.00001063,-0.0000571
 4,0.00000956,0.00012685,0.00061389,0.00011669,-0.00016604,-0.00193434,
 0.00012125,-0.00224716,0.00006650,-0.00009012,-0.00006157,-0.00012696,
 0.00000922,-0.00015524,-0.00072640,0.00077926,0.00016618,0.00046993,-0
 .00022157,-0.00009341,0.00065633,-0.00041347,-0.00005607,0.00000090,0.
 00000126,0.00003024,0.00005481,-0.00002724,-0.00005296,-0.00000750,0.0
 0000879,0.00006551,0.00009429,-0.00006571,-0.00005063,0.00011380,0.000
 15669,0.00032883,-0.00108115,0.00071781,0.00225095,0.00005340,-0.00004
 922,-0.00002481,0.00000541,0.00000879,0.00004108,-0.00004345,0.0000559
 7,0.00006694,-0.00012249,0.00002047,-0.00001315,-0.00014888,0.00005571
 ,0.00017806,0.00104282,-0.00308267,0.00104752,0.00142559,0.00171636,-0
 .00127272,-0.00253585,-0.00039643,0.00050874,-0.00843513,-0.00107343,0
 .00693134,0.00048828,0.00593705,-0.00893613,0.00082377,-0.00146587,-0.
 00074585,0.00007623,-0.00021958,-0.00031149,0.02024980,0.00110688,-0.0
 1403677,0.10580714,-0.13306376,-0.28059821,-0.00459420,-0.00005675,-0.
 00157666,-0.00338473,0.00204328,-0.00520654,-0.00026683,-0.00000141,-0
 .00014609,-0.00000484,-0.00046782,0.00025905,0.00064216,0.00006227,-0.
 00041802,0.00172371,0.00122513,-0.00167468,0.00560636,0.00141310,0.002
 25156,-0.00042502,-0.00049913,0.00026277,-0.00033555,-0.00001022,0.000
 01669,0.00029941,0.00019542,-0.00010030,0.00109844,0.00070579,0.001915
 63,-0.11716731,0.12474733,0.30171877\\-0.00000035,0.00000108,-0.000001
 07,-0.00000057,-0.00000070,-0.00000049,0.,0.00000020,-0.00000130,0.000
 00007,0.00000019,-0.00000030,0.00000095,-0.00000029,0.00000161,-0.0000
 0044,0.00000011,-0.00000013,0.00000010,0.00000001,-0.00000104,0.000001
 42,-0.00000103,0.00000022,-0.00000134,0.00000024,-0.00000079,-0.000000
 50,0.00000094,-0.00000045,0.00000007,-0.00000064,-0.00000047,-0.000000
 31,0.00000039,-0.00000032,-0.00000008,-0.00000049,-0.00000060,-0.00000
 047,0.00000012,0.00000022,-0.00000013,-0.00000050,-0.00000020,-0.00000
 076,-0.00000005,-0.00000153,-0.00000007,0.,0.00000029,0.00000041,0.000
 00025,-0.00000039,0.00000017,0.00000040,0.00000011,0.00000049,0.000000
 62,-0.00000030,0.00000048,0.00000070,-0.00000094,-0.00000029,0.0000000
 8,0.00000196,0.,-0.00000033,-0.00000040,0.00000071,-0.00000004,0.00000
 063,0.00000030,0.00000019,0.00000020,-0.00000092,-0.00000096,0.0000003
 4,0.00000046,-0.00000014,0.00000041,0.00000028,-0.00000021,0.00000101,
 -0.00000074,-0.00000126,0.00000110,-0.00000007,-0.00000002,-0.00000035
 ,-0.00000041,0.,-0.00000005,0.00000069,0.00000047,-0.00000106,0.000000
 48,-0.00000009,0.00000023,0.00000007,0.00000041,0.00000039,0.00000007,
 -0.00000034,0.00000091,-0.00000047,0.00000009,0.00000041,-0.00000012,0
 .00000066,0.00000034,-0.00000018,0.00000028,0.00000047,0.00000010,-0.0
 0000053,0.00000098,-0.00000003,0.00000030,0.00000064,0.00000062,0.0000
 0003,-0.00000032,0.00000033,-0.00000016,0.\\\@


 IF NO USE IS MADE OF THE LABOR OF PAST AGES,
 THE WORLD MUST REMAIN ALWAYS IN THE INFANCY OF KNOWLEDGE.

                          -- CICERO
 File lengths (MBytes):  RWF=    606 Int=      0 D2E=      0 Chk=     10 Scr=      1
 Normal termination of Gaussian 16 at Thu Sep  1 01:54:30 2022.
real 10080.91
user 40065.37
sys 31.04
