 Entering Gaussian System, Link 0=g16
 Input=gaussian_test.inp
 Output=gaussian_test.log
 Initial command:
 /sw/restricted/lms/sw/Gaussian/g16_B01/g16/l1.exe "/scratch/user/peterchao1/peterchao1/8493816_1687818198000000474133092/Gau-137413.inp" -scrdir="/scratch/user/peterchao1/peterchao1/8493816_1687818198000000474133092/"
 Entering Link 1 = /sw/restricted/lms/sw/Gaussian/g16_B01/g16/l1.exe PID=    137424.
  
 Copyright (c) 1988-2017, Gaussian, Inc.  All Rights Reserved.
  
 This is part of the Gaussian(R) 16 program.  It is based on
 the Gaussian(R) 09 system (copyright 2009, Gaussian, Inc.),
 the Gaussian(R) 03 system (copyright 2003, Gaussian, Inc.),
 the Gaussian(R) 98 system (copyright 1998, Gaussian, Inc.),
 the Gaussian(R) 94 system (copyright 1995, Gaussian, Inc.),
 the Gaussian 92(TM) system (copyright 1992, Gaussian, Inc.),
 the Gaussian 90(TM) system (copyright 1990, Gaussian, Inc.),
 the Gaussian 88(TM) system (copyright 1988, Gaussian, Inc.),
 the Gaussian 86(TM) system (copyright 1986, Carnegie Mellon
 University), and the Gaussian 82(TM) system (copyright 1983,
 Carnegie Mellon University). Gaussian is a federally registered
 trademark of Gaussian, Inc.
  
 This software contains proprietary and confidential information,
 including trade secrets, belonging to Gaussian, Inc.
  
 This software is provided under written license and may be
 used, copied, transmitted, or stored only in accord with that
 written license.
  
 The following legend is applicable only to US Government
 contracts under FAR:
  
                    RESTRICTED RIGHTS LEGEND
  
 Use, reproduction and disclosure by the US Government is
 subject to restrictions as set forth in subparagraphs (a)
 and (c) of the Commercial Computer Software - Restricted
 Rights clause in FAR 52.227-19.
  
 Gaussian, Inc.
 340 Quinnipiac St., Bldg. 40, Wallingford CT 06492
  
  
 ---------------------------------------------------------------
 Warning -- This program may not be used in any manner that
 competes with the business of Gaussian, Inc. or will provide
 assistance to any competitor of Gaussian, Inc.  The licensee
 of this program is prohibited from giving any competitor of
 Gaussian, Inc. access to this program.  By using this program,
 the user acknowledges that Gaussian, Inc. is engaged in the
 business of creating and licensing software in the field of
 computational chemistry and represents and warrants to the
 licensee that it is not a competitor of Gaussian, Inc. and that
 it will not use this program in any manner prohibited above.
 ---------------------------------------------------------------
  

 Cite this work as:
 Gaussian 16, Revision B.01,
 M. J. Frisch, G. W. Trucks, H. B. Schlegel, G. E. Scuseria, 
 M. A. Robb, J. R. Cheeseman, G. Scalmani, V. Barone, 
 G. A. Petersson, H. Nakatsuji, X. Li, M. Caricato, A. V. Marenich, 
 J. Bloino, B. G. Janesko, R. Gomperts, B. Mennucci, H. P. Hratchian, 
 J. V. Ortiz, A. F. Izmaylov, J. L. Sonnenberg, D. Williams-Young, 
 F. Ding, F. Lipparini, F. Egidi, J. Goings, B. Peng, A. Petrone, 
 T. Henderson, D. Ranasinghe, V. G. Zakrzewski, J. Gao, N. Rega, 
 G. Zheng, W. Liang, M. Hada, M. Ehara, K. Toyota, R. Fukuda, 
 J. Hasegawa, M. Ishida, T. Nakajima, Y. Honda, O. Kitao, H. Nakai, 
 T. Vreven, K. Throssell, J. A. Montgomery, Jr., J. E. Peralta, 
 F. Ogliaro, M. J. Bearpark, J. J. Heyd, E. N. Brothers, K. N. Kudin, 
 V. N. Staroverov, T. A. Keith, R. Kobayashi, J. Normand, 
 K. Raghavachari, A. P. Rendell, J. C. Burant, S. S. Iyengar, 
 J. Tomasi, M. Cossi, J. M. Millam, M. Klene, C. Adamo, R. Cammi, 
 J. W. Ochterski, R. L. Martin, K. Morokuma, O. Farkas, 
 J. B. Foresman, and D. J. Fox, Gaussian, Inc., Wallingford CT, 2016.
 
 ******************************************
 Gaussian 16:  ES64L-G16RevB.01 20-Dec-2017
                26-Jun-2023 
 ******************************************
 %nprocshared=4
 Will use up to    4 processors via shared memory.
 %mem=8000mb
 %chk=41.chk
 %nprocshared=4
 Will use up to    4 processors via shared memory.
 %mem=8000mb
 ----------------------------------------------------------------------
 #T wB97XD/def2svpp opt=tight freq int(grid=ultrafine) scf=(verytight,q
 c)
 ----------------------------------------------------------------------
 --------------
 Comment gs min
 --------------
 Symbolic Z-matrix:
 Charge =  0 Multiplicity = 1
 C                     1.08058   0.0192   -0.07034 
 C                     2.62348   0.03458  -0.00557 
 C                     3.09227   1.50321   0.03789 
 C                     3.10998  -0.74704   1.24555 
 N                     2.62501  -0.20046   2.51661 
 C                     3.1545   -0.65914  -1.29225 
 N                     4.61247  -0.72473  -1.38046 
 H                     0.63215   0.51945   0.79479 
 H                     0.69687  -1.00698  -0.09947 
 H                     0.7191    0.53467  -0.96762 
 H                     2.63074   2.05151   0.86631 
 H                     2.82104   2.02783  -0.8855 
 H                     4.17793   1.57832   0.16021 
 H                     4.20516  -0.76578   1.2837 
 H                     2.77633  -1.7888    1.17797 
 H                     3.00779   0.73311   2.6501 
 H                     3.00015  -0.76283   3.27895 
 H                     2.77983  -0.13566  -2.17981 
 H                     2.76656  -1.68377  -1.34371 
 H                     4.99915   0.21743  -1.42941 
 H                     4.87504  -1.17723  -2.25568 
 

 GradGradGradGradGradGradGradGradGradGradGradGradGradGradGradGradGradGrad
 Initialization pass.
                           ----------------------------
                           !    Initial Parameters    !
                           ! (Angstroms and Degrees)  !
 --------------------------                            --------------------------
 ! Name  Definition              Value          Derivative Info.                !
 --------------------------------------------------------------------------------
 ! R1    R(1,2)                  1.5443         estimate D2E/DX2                !
 ! R2    R(1,8)                  1.0953         estimate D2E/DX2                !
 ! R3    R(1,9)                  1.096          estimate D2E/DX2                !
 ! R4    R(1,10)                 1.0961         estimate D2E/DX2                !
 ! R5    R(2,3)                  1.5422         estimate D2E/DX2                !
 ! R6    R(2,4)                  1.5534         estimate D2E/DX2                !
 ! R7    R(2,6)                  1.5552         estimate D2E/DX2                !
 ! R8    R(3,11)                 1.0954         estimate D2E/DX2                !
 ! R9    R(3,12)                 1.0961         estimate D2E/DX2                !
 ! R10   R(3,13)                 1.0951         estimate D2E/DX2                !
 ! R11   R(4,5)                  1.4661         estimate D2E/DX2                !
 ! R12   R(4,14)                 1.096          estimate D2E/DX2                !
 ! R13   R(4,15)                 1.096          estimate D2E/DX2                !
 ! R14   R(5,16)                 1.0178         estimate D2E/DX2                !
 ! R15   R(5,17)                 1.0189         estimate D2E/DX2                !
 ! R16   R(6,7)                  1.4621         estimate D2E/DX2                !
 ! R17   R(6,18)                 1.0964         estimate D2E/DX2                !
 ! R18   R(6,19)                 1.0968         estimate D2E/DX2                !
 ! R19   R(7,20)                 1.0196         estimate D2E/DX2                !
 ! R20   R(7,21)                 1.0197         estimate D2E/DX2                !
 ! A1    A(2,1,8)              111.7983         estimate D2E/DX2                !
 ! A2    A(2,1,9)              111.1142         estimate D2E/DX2                !
 ! A3    A(2,1,10)             111.0463         estimate D2E/DX2                !
 ! A4    A(8,1,9)              107.7753         estimate D2E/DX2                !
 ! A5    A(8,1,10)             107.2631         estimate D2E/DX2                !
 ! A6    A(9,1,10)             107.6443         estimate D2E/DX2                !
 ! A7    A(1,2,3)              108.3215         estimate D2E/DX2                !
 ! A8    A(1,2,4)              109.9787         estimate D2E/DX2                !
 ! A9    A(1,2,6)              107.5766         estimate D2E/DX2                !
 ! A10   A(3,2,4)              111.178          estimate D2E/DX2                !
 ! A11   A(3,2,6)              110.1384         estimate D2E/DX2                !
 ! A12   A(4,2,6)              109.5705         estimate D2E/DX2                !
 ! A13   A(2,3,11)             111.7089         estimate D2E/DX2                !
 ! A14   A(2,3,12)             110.9051         estimate D2E/DX2                !
 ! A15   A(2,3,13)             111.7035         estimate D2E/DX2                !
 ! A16   A(11,3,12)            107.0539         estimate D2E/DX2                !
 ! A17   A(11,3,13)            107.3911         estimate D2E/DX2                !
 ! A18   A(12,3,13)            107.8535         estimate D2E/DX2                !
 ! A19   A(2,4,5)              114.0215         estimate D2E/DX2                !
 ! A20   A(2,4,14)             110.4626         estimate D2E/DX2                !
 ! A21   A(2,4,15)             109.4681         estimate D2E/DX2                !
 ! A22   A(5,4,14)             107.8623         estimate D2E/DX2                !
 ! A23   A(5,4,15)             107.8858         estimate D2E/DX2                !
 ! A24   A(14,4,15)            106.8638         estimate D2E/DX2                !
 ! A25   A(4,5,16)             109.3452         estimate D2E/DX2                !
 ! A26   A(4,5,17)             108.7293         estimate D2E/DX2                !
 ! A27   A(16,5,17)            105.6445         estimate D2E/DX2                !
 ! A28   A(2,6,7)              114.2297         estimate D2E/DX2                !
 ! A29   A(2,6,18)             109.8813         estimate D2E/DX2                !
 ! A30   A(2,6,19)             109.5571         estimate D2E/DX2                !
 ! A31   A(7,6,18)             108.26           estimate D2E/DX2                !
 ! A32   A(7,6,19)             107.9361         estimate D2E/DX2                !
 ! A33   A(18,6,19)            106.6887         estimate D2E/DX2                !
 ! A34   A(6,7,20)             109.8536         estimate D2E/DX2                !
 ! A35   A(6,7,21)             109.176          estimate D2E/DX2                !
 ! A36   A(20,7,21)            105.7358         estimate D2E/DX2                !
 ! D1    D(8,1,2,3)            -59.3422         estimate D2E/DX2                !
 ! D2    D(8,1,2,4)             62.3469         estimate D2E/DX2                !
 ! D3    D(8,1,2,6)           -178.3762         estimate D2E/DX2                !
 ! D4    D(9,1,2,3)           -179.7993         estimate D2E/DX2                !
 ! D5    D(9,1,2,4)            -58.1102         estimate D2E/DX2                !
 ! D6    D(9,1,2,6)             61.1667         estimate D2E/DX2                !
 ! D7    D(10,1,2,3)            60.4167         estimate D2E/DX2                !
 ! D8    D(10,1,2,4)          -177.8942         estimate D2E/DX2                !
 ! D9    D(10,1,2,6)           -58.6173         estimate D2E/DX2                !
 ! D10   D(1,2,3,11)            55.4248         estimate D2E/DX2                !
 ! D11   D(1,2,3,12)           -63.914          estimate D2E/DX2                !
 ! D12   D(1,2,3,13)           175.7375         estimate D2E/DX2                !
 ! D13   D(4,2,3,11)           -65.5243         estimate D2E/DX2                !
 ! D14   D(4,2,3,12)           175.1369         estimate D2E/DX2                !
 ! D15   D(4,2,3,13)            54.7884         estimate D2E/DX2                !
 ! D16   D(6,2,3,11)           172.8281         estimate D2E/DX2                !
 ! D17   D(6,2,3,12)            53.4893         estimate D2E/DX2                !
 ! D18   D(6,2,3,13)           -66.8592         estimate D2E/DX2                !
 ! D19   D(1,2,4,5)            -59.9786         estimate D2E/DX2                !
 ! D20   D(1,2,4,14)           178.3711         estimate D2E/DX2                !
 ! D21   D(1,2,4,15)            60.9637         estimate D2E/DX2                !
 ! D22   D(3,2,4,5)             59.9918         estimate D2E/DX2                !
 ! D23   D(3,2,4,14)           -61.6584         estimate D2E/DX2                !
 ! D24   D(3,2,4,15)          -179.0658         estimate D2E/DX2                !
 ! D25   D(6,2,4,5)           -178.0299         estimate D2E/DX2                !
 ! D26   D(6,2,4,14)            60.3198         estimate D2E/DX2                !
 ! D27   D(6,2,4,15)           -57.0876         estimate D2E/DX2                !
 ! D28   D(1,2,6,7)           -179.9874         estimate D2E/DX2                !
 ! D29   D(1,2,6,18)            58.1341         estimate D2E/DX2                !
 ! D30   D(1,2,6,19)           -58.7722         estimate D2E/DX2                !
 ! D31   D(3,2,6,7)             62.1485         estimate D2E/DX2                !
 ! D32   D(3,2,6,18)           -59.7301         estimate D2E/DX2                !
 ! D33   D(3,2,6,19)          -176.6364         estimate D2E/DX2                !
 ! D34   D(4,2,6,7)            -60.4501         estimate D2E/DX2                !
 ! D35   D(4,2,6,18)           177.6714         estimate D2E/DX2                !
 ! D36   D(4,2,6,19)            60.7651         estimate D2E/DX2                !
 ! D37   D(2,4,5,16)           -64.3568         estimate D2E/DX2                !
 ! D38   D(2,4,5,17)          -179.2431         estimate D2E/DX2                !
 ! D39   D(14,4,5,16)           58.7196         estimate D2E/DX2                !
 ! D40   D(14,4,5,17)          -56.1667         estimate D2E/DX2                !
 ! D41   D(15,4,5,16)          173.824          estimate D2E/DX2                !
 ! D42   D(15,4,5,17)           58.9377         estimate D2E/DX2                !
 ! D43   D(2,6,7,20)           -63.5271         estimate D2E/DX2                !
 ! D44   D(2,6,7,21)          -179.0486         estimate D2E/DX2                !
 ! D45   D(18,6,7,20)           59.2374         estimate D2E/DX2                !
 ! D46   D(18,6,7,21)          -56.2841         estimate D2E/DX2                !
 ! D47   D(19,6,7,20)          174.3656         estimate D2E/DX2                !
 ! D48   D(19,6,7,21)           58.844          estimate D2E/DX2                !
 --------------------------------------------------------------------------------
 Number of steps in this run=    114 maximum allowed number of steps=    126.
 GradGradGradGradGradGradGradGradGradGradGradGradGradGradGradGradGradGrad

                    Distance matrix (angstroms):
                    1          2          3          4          5
     1  C    0.000000
     2  C    1.544335   0.000000
     3  C    2.502178   1.542247   0.000000
     4  C    2.537155   1.553356   2.553895   0.000000
     5  N    3.020898   2.533108   3.043826   1.466131   0.000000
     6  C    2.500871   1.555241   2.539469   2.539712   3.872746
     7  N    3.839804   2.534355   3.047366   3.025542   4.405906
     8  H    1.095349   2.200243   2.755517   2.819011   2.730279
     9  H    1.095960   2.192143   3.472443   2.774842   3.348443
    10  H    1.096124   2.191414   2.753372   3.501030   4.038907
    11  H    2.722240   2.197324   1.095410   2.864503   2.791933
    12  H    2.779979   2.187773   1.096103   3.510664   4.071616
    13  H    3.475282   2.197028   1.095108   2.779529   3.335902
    14  H    3.494656   2.191918   2.817602   1.096004   2.082433
    15  H    2.775376   2.179184   3.498132   1.095971   2.082709
    16  H    3.409487   2.772764   2.724671   2.043049   1.017788
    17  H    3.938790   3.400855   3.955742   2.036425   1.018898
    18  H    2.713171   2.186492   2.775195   3.495122   4.699418
    19  H    2.713689   2.182617   3.488803   2.774828   4.137912
    20  H    4.152295   2.775709   2.728075   3.413880   4.624094
    21  H    4.539282   3.406024   3.952656   3.944504   5.365768
                    6          7          8          9         10
     6  C    0.000000
     7  N    1.462108   0.000000
     8  H    3.479520   4.703471   0.000000
     9  H    2.753845   4.129470   1.770276   0.000000
    10  H    2.731619   4.112767   1.764619   1.769425   0.000000
    11  H    3.504473   4.084451   2.519263   3.745256   3.052617
    12  H    2.737964   3.321264   3.144809   3.786821   2.579617
    13  H    2.857145   2.804733   3.754524   4.343845   3.784800
    14  H    2.784022   2.695429   3.828479   3.778814   4.348819
    15  H    2.742468   3.324037   3.173697   2.562665   3.772832
    16  H    4.183540   4.576648   3.021836   3.991040   4.285485
    17  H    4.574980   4.930632   3.663703   4.096148   4.991999
    18  H    1.096436   2.084354   3.726921   3.070136   2.483013
    19  H    1.096819   2.080503   3.739394   2.507946   3.042205
    20  H    2.046930   1.019599   4.910089   4.666640   4.316563
    21  H    2.038841   1.019661   5.494197   4.704820   4.675632
                   11         12         13         14         15
    11  H    0.000000
    12  H    1.762275   0.000000
    13  H    1.765300   1.771079   0.000000
    14  H    3.254249   3.798088   2.599572   0.000000
    15  H    3.855685   4.338960   3.786531   1.760484   0.000000
    16  H    2.249945   3.769833   2.878048   2.355295   2.929295
    17  H    3.725293   5.016224   4.073658   2.330897   2.348793
    18  H    3.752970   2.521433   3.219954   3.797962   3.742669
    19  H    4.342229   3.740174   3.859400   3.132979   2.523885
    20  H    3.774062   2.884016   2.247958   2.993006   3.970430
    21  H    5.020803   4.045827   3.730354   3.625637   4.070449
                   16         17         18         19         20
    16  H    0.000000
    17  H    1.622759   0.000000
    18  H    4.912714   5.499086   0.000000
    19  H    4.674400   4.719288   1.759512   0.000000
    20  H    4.568790   5.208221   2.369210   2.933661   0.000000
    21  H    5.585938   5.858248   2.341053   2.352437   1.625793
                   21
    21  H    0.000000
 Framework group  C1[X(C5H14N2)]
 Deg. of freedom    57
                         Standard orientation:                         
 ---------------------------------------------------------------------
 Center     Atomic      Atomic             Coordinates (Angstroms)
 Number     Number       Type             X           Y           Z
 ---------------------------------------------------------------------
      1          6           0       -0.587411    1.642600   -0.619462
      2          6           0        0.000148    0.352229   -0.007344
      3          6           0       -0.008097    0.496633    1.528106
      4          6           0       -0.834104   -0.877483   -0.459832
      5          7           0       -2.244102   -0.821224   -0.061991
      6          6           0        1.460163    0.209886   -0.523939
      7          7           0        2.158990   -0.975135   -0.028837
      8          1           0       -1.611265    1.826053   -0.276157
      9          1           0       -0.606333    1.587324   -1.713864
     10          1           0        0.010715    2.518020   -0.341304
     11          1           0       -1.009816    0.724582    1.908266
     12          1           0        0.650392    1.312511    1.847756
     13          1           0        0.328962   -0.420324    2.022921
     14          1           0       -0.406646   -1.801123   -0.053145
     15          1           0       -0.795626   -0.963194   -1.551769
     16          1           0       -2.309096   -0.844638    0.953450
     17          1           0       -2.709673   -1.667369   -0.386699
     18          1           0        2.043094    1.094961   -0.242861
     19          1           0        1.459400    0.168267   -1.619968
     20          1           0        2.258966   -0.920106    0.984355
     21          1           0        3.108523   -0.983642   -0.400353
 ---------------------------------------------------------------------
 Rotational constants (GHZ):           3.2589573           1.8480291           1.6403341
   126 basis functions,   231 primitive gaussians,   133 cartesian basis functions
    29 alpha electrons       29 beta electrons
       nuclear repulsion energy       342.1480599355 Hartrees.
 NAtoms=   21 NActive=   21 NUniq=   21 SFac= 1.00D+00 NAtFMM=   60 NAOKFM=F Big=F
 Nuclear repulsion after empirical dispersion term =      342.1333052120 Hartrees.
   1 Symmetry operations used in ECPInt.
 ECPInt:  NShTT=    2485 NPrTT=   10003 LenC2=    2477 LenP2D=    8129.
 LDataN:  DoStor=T MaxTD1= 4 Len=   56
 ExpMin= 1.22D-01 ExpMax= 1.71D+03 ExpMxC= 2.58D+02 IAcc=3 IRadAn=         5 AccDes= 0.00D+00
 Harris functional with IExCor= 4639 and IRadAn=       5 diagonalized for initial guess.
 HarFok:  IExCor= 4639 AccDes= 0.00D+00 IRadAn=         5 IDoV= 1 UseB2=F ITyADJ=14
 ICtDFT=  3500011 ScaDFX=  1.000000  1.000000  1.000000  1.000000
 FoFCou: FMM=F IPFlag=           0 FMFlag=      100000 FMFlg1=           0
         NFxFlg=           0 DoJE=T BraDBF=F KetDBF=T FulRan=T
         wScrn=  0.000000 ICntrl=       500 IOpCl=  0 I1Cent=   200000004 NGrid=           0
         NMat0=    1 NMatS0=      1 NMatT0=    0 NMatD0=    1 NMtDS0=    0 NMtDT0=    0
 Petite list used in FoFCou.
     Accept linear search using points  2 and  3.
     Accept linear search using points  1 and  2.
     Minimum is close to point  2 DX= -4.76D-02 DF= -1.49D-07 DXR=  7.29D-02 DFR=  2.16D-03 which will be used.
     Minimum is close to point  2 DX=  1.98D-04 DF= -5.68D-13 DXR=  1.98D-04 DFR=  3.97D-08 which will be used.
 SCF Done:  E(RwB97XD) =  -308.103154491     a.u. after    7 cycles
            Convg  =    0.3065D-09                    33 Fock formations.
              S**2 =  0.0000                  -V/T =  2.0104

 **********************************************************************

            Population analysis using the SCF Density.

 **********************************************************************

 Orbital symmetries:
       Occupied  (A) (A) (A) (A) (A) (A) (A) (A) (A) (A) (A) (A)
                 (A) (A) (A) (A) (A) (A) (A) (A) (A) (A) (A) (A)
                 (A) (A) (A) (A) (A)
       Virtual   (A) (A) (A) (A) (A) (A) (A) (A) (A) (A) (A) (A)
                 (A) (A) (A) (A) (A) (A) (A) (A) (A) (A) (A) (A)
                 (A) (A) (A) (A) (A) (A) (A) (A) (A) (A) (A) (A)
                 (A) (A) (A) (A) (A) (A) (A) (A) (A) (A) (A) (A)
                 (A) (A) (A) (A) (A) (A) (A) (A) (A) (A) (A) (A)
                 (A) (A) (A) (A) (A) (A) (A) (A) (A) (A) (A) (A)
                 (A) (A) (A) (A) (A) (A) (A) (A) (A) (A) (A) (A)
                 (A) (A) (A) (A) (A) (A) (A) (A) (A) (A) (A) (A)
                 (A)
 The electronic state is 1-A.
 Alpha  occ. eigenvalues --  -14.41023 -14.40403 -10.30730 -10.30366 -10.29804
 Alpha  occ. eigenvalues --  -10.27952 -10.26701  -0.97604  -0.95908  -0.87812
 Alpha  occ. eigenvalues --   -0.77328  -0.74747  -0.72801  -0.62025  -0.58404
 Alpha  occ. eigenvalues --   -0.56206  -0.54226  -0.52384  -0.52209  -0.49180
 Alpha  occ. eigenvalues --   -0.48401  -0.46645  -0.44951  -0.44535  -0.40490
 Alpha  occ. eigenvalues --   -0.39921  -0.39725  -0.31738  -0.29747
 Alpha virt. eigenvalues --    0.12734   0.14888   0.16546   0.17829   0.19147
 Alpha virt. eigenvalues --    0.19400   0.21261   0.22316   0.23998   0.24521
 Alpha virt. eigenvalues --    0.25281   0.25887   0.26780   0.27662   0.28854
 Alpha virt. eigenvalues --    0.31406   0.32416   0.33065   0.35198   0.36197
 Alpha virt. eigenvalues --    0.50066   0.51943   0.53331   0.55633   0.58158
 Alpha virt. eigenvalues --    0.59973   0.62347   0.67130   0.67918   0.68588
 Alpha virt. eigenvalues --    0.72072   0.73510   0.74304   0.74912   0.77372
 Alpha virt. eigenvalues --    0.77943   0.78484   0.79916   0.80611   0.81637
 Alpha virt. eigenvalues --    0.82386   0.84281   0.84891   0.85307   0.85826
 Alpha virt. eigenvalues --    0.86231   0.87121   0.88955   0.92138   0.93774
 Alpha virt. eigenvalues --    0.95766   0.97444   1.03621   1.07557   1.11215
 Alpha virt. eigenvalues --    1.13970   1.17380   1.23814   1.26669   1.27561
 Alpha virt. eigenvalues --    1.40900   1.42958   1.50330   1.51255   1.75867
 Alpha virt. eigenvalues --    1.77630   1.78406   1.87276   1.90103   1.92835
 Alpha virt. eigenvalues --    2.02592   2.05541   2.09002   2.11729   2.13049
 Alpha virt. eigenvalues --    2.15086   2.17828   2.22697   2.24228   2.25946
 Alpha virt. eigenvalues --    2.27069   2.29111   2.39669   2.42045   2.44525
 Alpha virt. eigenvalues --    2.50353   2.58599   2.59697   2.62053   2.64240
 Alpha virt. eigenvalues --    2.75924   2.76846   2.79391   2.84182   2.88513
 Alpha virt. eigenvalues --    3.06654   3.12448
          Condensed to atoms (all electrons):
 Mulliken charges:
               1
     1  C   -0.249330
     2  C   -0.259419
     3  C   -0.315632
     4  C   -0.020800
     5  N   -0.518681
     6  C   -0.025939
     7  N   -0.517666
     8  H    0.129149
     9  H    0.106281
    10  H    0.102012
    11  H    0.124304
    12  H    0.113453
    13  H    0.115068
    14  H    0.091854
    15  H    0.088474
    16  H    0.213537
    17  H    0.218683
    18  H    0.075491
    19  H    0.093535
    20  H    0.216405
    21  H    0.219220
 Sum of Mulliken charges =   0.00000
 Mulliken charges with hydrogens summed into heavy atoms:
               1
     1  C    0.088112
     2  C   -0.259419
     3  C    0.037193
     4  C    0.159529
     5  N   -0.086460
     6  C    0.143086
     7  N   -0.082041
 Electronic spatial extent (au):  <R**2>=            910.2035
 Charge=              0.0000 electrons
 Dipole moment (field-independent basis, Debye):
    X=              1.3180    Y=             -0.2530    Z=              1.0207  Tot=              1.6861
   1 Symmetry operations used in ECPInt.
 ECPInt:  NShTT=    2485 NPrTT=   10003 LenC2=    2477 LenP2D=    8129.
 LDataN:  DoStor=T MaxTD1= 5 Len=  102
 Calling FoFJK, ICntrl=      2127 FMM=F ISym2X=0 I1Cent= 0 IOpClX= 0 NMat=1 NMatS=1 NMatT=0.

 GradGradGradGradGradGradGradGradGradGradGradGradGradGradGradGradGradGrad
 FormGI is forming the generalized inverse of G from B-inverse, IUseBI=4.
 Internal  Forces:  Max     0.012583303 RMS     0.003723709
 Step number   1 out of a maximum of  114
 All quantities printed in internal units (Hartrees-Bohrs-Radians)
 Mixed Optimization -- RFO/linear search
 Second derivative matrix not updated -- first step.
 ITU=  0
     Eigenvalues ---    0.00230   0.00230   0.00230   0.00230   0.00817
     Eigenvalues ---    0.00870   0.03938   0.03947   0.04393   0.04552
     Eigenvalues ---    0.04619   0.04739   0.05089   0.05285   0.05303
     Eigenvalues ---    0.05310   0.05332   0.05399   0.05414   0.09701
     Eigenvalues ---    0.09733   0.13002   0.13033   0.14252   0.14501
     Eigenvalues ---    0.16000   0.16000   0.16000   0.16000   0.16000
     Eigenvalues ---    0.16000   0.16000   0.16000   0.16000   0.16000
     Eigenvalues ---    0.21976   0.21976   0.27210   0.27368   0.28138
     Eigenvalues ---    0.28321   0.34036   0.34079   0.34114   0.34117
     Eigenvalues ---    0.34128   0.34132   0.34133   0.34195   0.34202
     Eigenvalues ---    0.34229   0.36207   0.36702   0.44392   0.44402
     Eigenvalues ---    0.44514   0.44693
 Linear search not attempted -- first point.
 Iteration  1 RMS(Cart)=  0.05067407 RMS(Int)=  0.00127235
 Iteration  2 RMS(Cart)=  0.00144997 RMS(Int)=  0.00040259
 Iteration  3 RMS(Cart)=  0.00000141 RMS(Int)=  0.00040259
 Iteration  4 RMS(Cart)=  0.00000000 RMS(Int)=  0.00040259
 Variable       Old X    -DE/DX   Delta X   Delta X   Delta X     New X
                                 (Linear)    (Quad)   (Total)
    R1        2.91837  -0.00559   0.00000  -0.01924  -0.01924   2.89913
    R2        2.06991   0.00438   0.00000   0.01249   0.01249   2.08240
    R3        2.07106   0.00577   0.00000   0.01647   0.01647   2.08754
    R4        2.07137   0.00619   0.00000   0.01767   0.01767   2.08905
    R5        2.91443  -0.00358   0.00000  -0.01227  -0.01227   2.90215
    R6        2.93542  -0.01171   0.00000  -0.04145  -0.04145   2.89397
    R7        2.93898  -0.01111   0.00000  -0.03953  -0.03953   2.89945
    R8        2.07002   0.00559   0.00000   0.01593   0.01593   2.08596
    R9        2.07133   0.00588   0.00000   0.01680   0.01680   2.08813
   R10        2.06945   0.00707   0.00000   0.02013   0.02013   2.08959
   R11        2.77059   0.00122   0.00000   0.00328   0.00328   2.77386
   R12        2.07115   0.00833   0.00000   0.02380   0.02380   2.09495
   R13        2.07109   0.00552   0.00000   0.01577   0.01577   2.08685
   R14        1.92334   0.00248   0.00000   0.00544   0.00544   1.92879
   R15        1.92544   0.00059   0.00000   0.00131   0.00131   1.92675
   R16        2.76298   0.00172   0.00000   0.00458   0.00458   2.76756
   R17        2.07196   0.01053   0.00000   0.03011   0.03011   2.10207
   R18        2.07269   0.00508   0.00000   0.01455   0.01455   2.08724
   R19        1.92676   0.00077   0.00000   0.00170   0.00170   1.92847
   R20        1.92688   0.00000   0.00000   0.00000   0.00000   1.92689
    A1        1.95125  -0.00327   0.00000  -0.02059  -0.02067   1.93058
    A2        1.93931  -0.00001   0.00000  -0.00257  -0.00265   1.93666
    A3        1.93812  -0.00109   0.00000  -0.00273  -0.00272   1.93540
    A4        1.88103   0.00089   0.00000  -0.00158  -0.00174   1.87929
    A5        1.87209   0.00290   0.00000   0.02183   0.02184   1.89393
    A6        1.87875   0.00087   0.00000   0.00743   0.00744   1.88618
    A7        1.89057   0.00114   0.00000   0.01926   0.01923   1.90980
    A8        1.91949  -0.00027   0.00000  -0.00170  -0.00162   1.91787
    A9        1.87757   0.00057   0.00000   0.00945   0.00936   1.88693
   A10        1.94042  -0.00040   0.00000  -0.00796  -0.00805   1.93237
   A11        1.92228  -0.00006   0.00000  -0.00040  -0.00069   1.92159
   A12        1.91237  -0.00093   0.00000  -0.01764  -0.01767   1.89470
   A13        1.94969  -0.00154   0.00000  -0.01061  -0.01064   1.93905
   A14        1.93566  -0.00087   0.00000  -0.00544  -0.00548   1.93018
   A15        1.94959   0.00045   0.00000   0.00449   0.00450   1.95410
   A16        1.86844   0.00083   0.00000   0.00147   0.00140   1.86984
   A17        1.87433   0.00066   0.00000   0.00443   0.00444   1.87877
   A18        1.88240   0.00059   0.00000   0.00637   0.00637   1.88877
   A19        1.99005  -0.00850   0.00000  -0.03548  -0.03578   1.95428
   A20        1.92794  -0.00505   0.00000  -0.03493  -0.03475   1.89319
   A21        1.91058   0.00065   0.00000  -0.03191  -0.03316   1.87742
   A22        1.88255   0.01258   0.00000   0.11591   0.11596   1.99852
   A23        1.88296   0.00172   0.00000  -0.00669  -0.00865   1.87432
   A24        1.86513  -0.00074   0.00000  -0.00315  -0.00505   1.86008
   A25        1.90843   0.00137   0.00000   0.01193   0.01183   1.92026
   A26        1.89768   0.00139   0.00000   0.01212   0.01202   1.90970
   A27        1.84384  -0.00028   0.00000   0.00676   0.00655   1.85039
   A28        1.99368  -0.00567   0.00000  -0.02385  -0.02409   1.96959
   A29        1.91779  -0.00531   0.00000  -0.03588  -0.03597   1.88182
   A30        1.91213   0.00025   0.00000  -0.02851  -0.02945   1.88268
   A31        1.88949   0.01065   0.00000   0.10021   0.10031   1.98980
   A32        1.88384   0.00077   0.00000  -0.00917  -0.01043   1.87341
   A33        1.86207  -0.00017   0.00000   0.00020  -0.00127   1.86080
   A34        1.91731   0.00039   0.00000   0.00667   0.00658   1.92388
   A35        1.90548   0.00164   0.00000   0.01411   0.01402   1.91950
   A36        1.84544   0.00012   0.00000   0.01007   0.00988   1.85532
    D1       -1.03572  -0.00054   0.00000  -0.02281  -0.02272  -1.05844
    D2        1.08816  -0.00048   0.00000  -0.02147  -0.02141   1.06675
    D3       -3.11325  -0.00142   0.00000  -0.03809  -0.03810   3.13183
    D4       -3.13809   0.00057   0.00000  -0.00495  -0.00495   3.14014
    D5       -1.01421   0.00063   0.00000  -0.00361  -0.00364  -1.01786
    D6        1.06756  -0.00031   0.00000  -0.02023  -0.02033   1.04723
    D7        1.05447   0.00020   0.00000  -0.01080  -0.01076   1.04371
    D8       -3.10484   0.00026   0.00000  -0.00946  -0.00945  -3.11429
    D9       -1.02307  -0.00067   0.00000  -0.02608  -0.02613  -1.04920
   D10        0.96735  -0.00070   0.00000  -0.01767  -0.01766   0.94968
   D11       -1.11551  -0.00015   0.00000  -0.00884  -0.00888  -1.12439
   D12        3.06720  -0.00061   0.00000  -0.01624  -0.01626   3.05094
   D13       -1.14361  -0.00086   0.00000  -0.02316  -0.02314  -1.16675
   D14        3.05672  -0.00030   0.00000  -0.01433  -0.01435   3.04236
   D15        0.95624  -0.00077   0.00000  -0.02173  -0.02173   0.93451
   D16        3.01642   0.00063   0.00000   0.00475   0.00478   3.02120
   D17        0.93356   0.00118   0.00000   0.01357   0.01357   0.94713
   D18       -1.16691   0.00072   0.00000   0.00618   0.00619  -1.16073
   D19       -1.04682   0.00278   0.00000   0.03692   0.03650  -1.01033
   D20        3.11316  -0.00380   0.00000  -0.06291  -0.06256   3.05060
   D21        1.06402  -0.00030   0.00000  -0.01914  -0.01902   1.04500
   D22        1.04706   0.00377   0.00000   0.05476   0.05428   1.10134
   D23       -1.07614  -0.00281   0.00000  -0.04507  -0.04478  -1.12092
   D24       -3.12529   0.00069   0.00000  -0.00130  -0.00123  -3.12652
   D25       -3.10721   0.00280   0.00000   0.03702   0.03660  -3.07061
   D26        1.05278  -0.00378   0.00000  -0.06281  -0.06246   0.99032
   D27       -0.99637  -0.00028   0.00000  -0.01904  -0.01891  -1.01528
   D28       -3.14137   0.00351   0.00000   0.04978   0.04947  -3.09190
   D29        1.01463  -0.00236   0.00000  -0.03698  -0.03664   0.97799
   D30       -1.02577   0.00079   0.00000   0.00036   0.00036  -1.02541
   D31        1.08470   0.00184   0.00000   0.02140   0.02110   1.10579
   D32       -1.04249  -0.00403   0.00000  -0.06537  -0.06501  -1.10750
   D33       -3.08289  -0.00088   0.00000  -0.02803  -0.02801  -3.11090
   D34       -1.05505   0.00299   0.00000   0.04332   0.04297  -1.01209
   D35        3.10095  -0.00287   0.00000  -0.04345  -0.04315   3.05780
   D36        1.06055   0.00028   0.00000  -0.00611  -0.00615   1.05441
   D37       -1.12324  -0.00017   0.00000  -0.05042  -0.05015  -1.17339
   D38       -3.12838  -0.00133   0.00000  -0.07145  -0.07129   3.08352
   D39        1.02485  -0.00307   0.00000  -0.03330  -0.03379   0.99106
   D40       -0.98029  -0.00422   0.00000  -0.05433  -0.05492  -1.03522
   D41        3.03380   0.00333   0.00000   0.01844   0.01882   3.05262
   D42        1.02866   0.00217   0.00000  -0.00259  -0.00232   1.02634
   D43       -1.10876   0.00013   0.00000  -0.03926  -0.03914  -1.14790
   D44       -3.12499  -0.00116   0.00000  -0.06306  -0.06304   3.09516
   D45        1.03389  -0.00264   0.00000  -0.02695  -0.02718   1.00671
   D46       -0.98234  -0.00394   0.00000  -0.05075  -0.05107  -1.03342
   D47        3.04325   0.00301   0.00000   0.01988   0.02014   3.06339
   D48        1.02702   0.00172   0.00000  -0.00391  -0.00376   1.02326
         Item               Value     Threshold  Converged?
 Maximum Force            0.012583     0.000015     NO 
 RMS     Force            0.003724     0.000010     NO 
 Maximum Displacement     0.245965     0.000060     NO 
 RMS     Displacement     0.051049     0.000040     NO 
 GradGradGradGradGradGradGradGradGradGradGradGradGradGradGradGradGradGrad

                    Distance matrix (angstroms):
                    1          2          3          4          5
     1  C    0.000000
     2  C    1.534152   0.000000
     3  C    2.505827   1.535754   0.000000
     4  C    2.509417   1.531422   2.523440   0.000000
     5  N    2.935847   2.486363   3.005326   1.467866   0.000000
     6  C    2.484225   1.534324   2.516377   2.488987   3.810276
     7  N    3.812448   2.498822   3.012755   2.926107   4.317692
     8  H    1.101957   2.181363   2.759624   2.769716   2.601527
     9  H    1.104676   2.187813   3.479061   2.753431   3.272798
    10  H    1.105476   2.187511   2.758350   3.480377   3.960493
    11  H    2.718347   2.190324   1.103841   2.842076   2.747148
    12  H    2.792510   2.184767   1.104990   3.486007   4.034172
    13  H    3.485593   2.202596   1.105762   2.750080   3.320021
    14  H    3.462644   2.156397   2.782189   1.108600   2.175684
    15  H    2.713091   2.141424   3.463328   1.104315   2.084011
    16  H    3.355791   2.756081   2.710505   2.054836   1.020669
    17  H    3.842247   3.366278   3.935501   2.046782   1.019591
    18  H    2.655688   2.153171   2.758323   3.445722   4.621818
    19  H    2.676637   2.148060   3.461317   2.697846   4.040317
    20  H    4.149987   2.761948   2.711842   3.337866   4.562598
    21  H    4.531405   3.380302   3.938670   3.834667   5.267377
                    6          7          8          9         10
     6  C    0.000000
     7  N    1.464531   0.000000
     8  H    3.457492   4.658120   0.000000
     9  H    2.734423   4.092404   1.781523   0.000000
    10  H    2.734614   4.121405   1.791658   1.788848   0.000000
    11  H    3.483738   4.049726   2.510674   3.749488   3.045656
    12  H    2.723187   3.316580   3.172484   3.801555   2.587754
    13  H    2.843047   2.764635   3.757918   4.352959   3.802615
    14  H    2.676815   2.507250   3.797260   3.742612   4.314793
    15  H    2.673168   3.221363   3.096910   2.491751   3.720396
    16  H    4.153259   4.521825   2.921254   3.947941   4.233699
    17  H    4.529874   4.866015   3.510596   3.993390   4.906328
    18  H    1.112370   2.169751   3.680465   3.007224   2.429857
    19  H    1.104521   2.080619   3.690924   2.455754   3.041235
    20  H    2.054238   1.020500   4.894613   4.655604   4.344640
    21  H    2.050619   1.019664   5.470935   4.676290   4.717791
                   11         12         13         14         15
    11  H    0.000000
    12  H    1.777119   0.000000
    13  H    1.783583   1.791014   0.000000
    14  H    3.256574   3.755593   2.554459   0.000000
    15  H    3.828791   4.302099   3.761570   1.773969   0.000000
    16  H    2.216137   3.758137   2.887402   2.462296   2.941893
    17  H    3.690346   4.996563   4.083745   2.467790   2.356224
    18  H    3.728842   2.502746   3.236645   3.713917   3.663191
    19  H    4.308862   3.730859   3.839217   3.004205   2.407771
    20  H    3.761549   2.897057   2.215983   2.835167   3.895964
    21  H    5.006471   4.072158   3.701519   3.413169   3.941423
                   16         17         18         19         20
    16  H    0.000000
    17  H    1.629636   0.000000
    18  H    4.874011   5.441518   0.000000
    19  H    4.613288   4.626110   1.777643   0.000000
    20  H    4.538115   5.174319   2.462083   2.940970   0.000000
    21  H    5.526689   5.772125   2.467069   2.359357   1.632575
                   21
    21  H    0.000000
 Framework group  C1[X(C5H14N2)]
 Deg. of freedom    57
                         Standard orientation:                         
 ---------------------------------------------------------------------
 Center     Atomic      Atomic             Coordinates (Angstroms)
 Number     Number       Type             X           Y           Z
 ---------------------------------------------------------------------
      1          6           0       -0.653944    1.601243   -0.618724
      2          6           0       -0.005219    0.356268   -0.000002
      3          6           0       -0.009383    0.485298    1.530316
      4          6           0       -0.763578   -0.899388   -0.439858
      5          7           0       -2.181766   -0.843891   -0.065302
      6          6           0        1.436223    0.262479   -0.517299
      7          7           0        2.134934   -0.933005   -0.040357
      8          1           0       -1.697942    1.703126   -0.281089
      9          1           0       -0.662944    1.535542   -1.721408
     10          1           0       -0.102144    2.515925   -0.334206
     11          1           0       -1.027932    0.676973    1.910163
     12          1           0        0.622433    1.333397    1.850533
     13          1           0        0.365462   -0.430620    2.023567
     14          1           0       -0.221808   -1.788415   -0.058924
     15          1           0       -0.714987   -0.949196   -1.541978
     16          1           0       -2.276759   -0.881940    0.950225
     17          1           0       -2.659615   -1.670168   -0.423759
     18          1           0        1.950237    1.216879   -0.267744
     19          1           0        1.397570    0.203387   -1.619560
     20          1           0        2.261303   -0.887855    0.971281
     21          1           0        3.070358   -0.974162   -0.444093
 ---------------------------------------------------------------------
 Rotational constants (GHZ):           3.3030980           1.9015549           1.6923797
   126 basis functions,   231 primitive gaussians,   133 cartesian basis functions
    29 alpha electrons       29 beta electrons
       nuclear repulsion energy       344.7896465035 Hartrees.
 NAtoms=   21 NActive=   21 NUniq=   21 SFac= 1.00D+00 NAtFMM=   60 NAOKFM=F Big=F
 Nuclear repulsion after empirical dispersion term =      344.7747763684 Hartrees.
   1 Symmetry operations used in ECPInt.
 ECPInt:  NShTT=    2485 NPrTT=   10003 LenC2=    2479 LenP2D=    8162.
 LDataN:  DoStor=T MaxTD1= 4 Len=   56
 Initial guess from the checkpoint file:  "41.chk"
 B after Tr=    -0.000000    0.000000   -0.000000
         Rot=    0.999907   -0.001218   -0.001596   -0.013483 Ang=  -1.56 deg.
 ExpMin= 1.22D-01 ExpMax= 1.71D+03 ExpMxC= 2.58D+02 IAcc=3 IRadAn=         5 AccDes= 0.00D+00
 Harris functional with IExCor= 4639 and IRadAn=       5 diagonalized for initial guess.
 HarFok:  IExCor= 4639 AccDes= 0.00D+00 IRadAn=         5 IDoV= 1 UseB2=F ITyADJ=14
 ICtDFT=  3500011 ScaDFX=  1.000000  1.000000  1.000000  1.000000
 FoFCou: FMM=F IPFlag=           0 FMFlag=      100000 FMFlg1=           0
         NFxFlg=           0 DoJE=T BraDBF=F KetDBF=T FulRan=T
         wScrn=  0.000000 ICntrl=       500 IOpCl=  0 I1Cent=   200000004 NGrid=           0
         NMat0=    1 NMatS0=      1 NMatT0=    0 NMatD0=    1 NMtDS0=    0 NMtDT0=    0
 Petite list used in FoFCou.
     Accept linear search using points  3 and  4.
     Minimum is close to point  3 DX=  7.81D-03 DF= -2.69D-08 DXR=  7.05D-03 DFR=  4.97D-05 which will be used.
     Accept linear search using points  1 and  2.
     Accept linear search using points  1 and  2.
     Minimum is close to point  2 DX= -2.48D-02 DF= -5.67D-08 DXR=  2.54D-02 DFR=  6.46D-04 which will be used.
     Minimum is close to point  2 DX=  1.21D-04 DF= -1.36D-12 DXR=  1.20D-04 DFR=  1.50D-08 which will be used.
 SCF Done:  E(RwB97XD) =  -308.106880502     a.u. after    7 cycles
            Convg  =    0.2485D-08                    32 Fock formations.
              S**2 =  0.0000                  -V/T =  2.0106
   1 Symmetry operations used in ECPInt.
 ECPInt:  NShTT=    2485 NPrTT=   10003 LenC2=    2479 LenP2D=    8162.
 LDataN:  DoStor=T MaxTD1= 5 Len=  102
 Calling FoFJK, ICntrl=      2127 FMM=F ISym2X=0 I1Cent= 0 IOpClX= 0 NMat=1 NMatS=1 NMatT=0.

 GradGradGradGradGradGradGradGradGradGradGradGradGradGradGradGradGradGrad
 Using GEDIIS/GDIIS optimizer.
 FormGI is forming the generalized inverse of G from B-inverse, IUseBI=4.
 Internal  Forces:  Max     0.006701514 RMS     0.001285678
 Step number   2 out of a maximum of  114
 All quantities printed in internal units (Hartrees-Bohrs-Radians)
 Mixed Optimization -- RFO/linear search
 Trust test= 7.71D-01 RLast= 3.11D-01 DXMaxT set to 5.05D-01
 ITU=  1  0
 Use linear search instead of GDIIS.
     Eigenvalues ---    0.00229   0.00230   0.00230   0.00230   0.00809
     Eigenvalues ---    0.00865   0.04058   0.04160   0.04373   0.04442
     Eigenvalues ---    0.04522   0.04754   0.05070   0.05305   0.05441
     Eigenvalues ---    0.05465   0.05479   0.05539   0.05578   0.09273
     Eigenvalues ---    0.09830   0.12745   0.12992   0.14273   0.14499
     Eigenvalues ---    0.15893   0.16000   0.16000   0.16000   0.16000
     Eigenvalues ---    0.16000   0.16000   0.16000   0.16000   0.16070
     Eigenvalues ---    0.21924   0.22790   0.27270   0.28020   0.28290
     Eigenvalues ---    0.30463   0.32847   0.34042   0.34101   0.34116
     Eigenvalues ---    0.34123   0.34132   0.34155   0.34189   0.34213
     Eigenvalues ---    0.34252   0.36418   0.38313   0.44392   0.44403
     Eigenvalues ---    0.44512   0.44686
 Quartic linear search produced a step of -0.13669.
 Iteration  1 RMS(Cart)=  0.05049735 RMS(Int)=  0.00140382
 Iteration  2 RMS(Cart)=  0.00161354 RMS(Int)=  0.00004796
 Iteration  3 RMS(Cart)=  0.00000228 RMS(Int)=  0.00004793
 Iteration  4 RMS(Cart)=  0.00000000 RMS(Int)=  0.00004793
 Variable       Old X    -DE/DX   Delta X   Delta X   Delta X     New X
                                 (Linear)    (Quad)   (Total)
    R1        2.89913   0.00026   0.00263  -0.00326  -0.00063   2.89850
    R2        2.08240  -0.00046  -0.00171   0.00147  -0.00023   2.08216
    R3        2.08754   0.00003  -0.00225   0.00353   0.00128   2.08881
    R4        2.08905   0.00011  -0.00242   0.00400   0.00158   2.09063
    R5        2.90215   0.00113   0.00168   0.00082   0.00250   2.90465
    R6        2.89397   0.00670   0.00567   0.01222   0.01788   2.91185
    R7        2.89945   0.00549   0.00540   0.00893   0.01434   2.91379
    R8        2.08596   0.00011  -0.00218   0.00364   0.00146   2.08742
    R9        2.08813   0.00026  -0.00230   0.00419   0.00190   2.09003
   R10        2.08959  -0.00032  -0.00275   0.00343   0.00068   2.09026
   R11        2.77386  -0.00429  -0.00045  -0.00947  -0.00992   2.76394
   R12        2.09495  -0.00046  -0.00325   0.00386   0.00060   2.09555
   R13        2.08685   0.00072  -0.00216   0.00514   0.00298   2.08983
   R14        1.92879  -0.00001  -0.00074   0.00113   0.00038   1.92917
   R15        1.92675   0.00018  -0.00018   0.00062   0.00044   1.92719
   R16        2.76756  -0.00445  -0.00063  -0.00943  -0.01006   2.75751
   R17        2.10207   0.00076  -0.00412   0.00825   0.00413   2.10620
   R18        2.08724   0.00038  -0.00199   0.00403   0.00204   2.08928
   R19        1.92847  -0.00007  -0.00023   0.00023  -0.00000   1.92846
   R20        1.92689  -0.00008  -0.00000  -0.00016  -0.00016   1.92672
    A1        1.93058  -0.00004   0.00282  -0.00438  -0.00156   1.92903
    A2        1.93666  -0.00027   0.00036  -0.00343  -0.00306   1.93360
    A3        1.93540   0.00032   0.00037   0.00229   0.00266   1.93806
    A4        1.87929  -0.00011   0.00024  -0.00325  -0.00301   1.87628
    A5        1.89393   0.00019  -0.00298   0.00840   0.00541   1.89934
    A6        1.88618  -0.00009  -0.00102   0.00059  -0.00043   1.88576
    A7        1.90980  -0.00027  -0.00263  -0.00373  -0.00636   1.90344
    A8        1.91787   0.00030   0.00022   0.00357   0.00377   1.92164
    A9        1.88693  -0.00041  -0.00128  -0.00103  -0.00235   1.88458
   A10        1.93237  -0.00031   0.00110  -0.00294  -0.00182   1.93055
   A11        1.92159  -0.00015   0.00009  -0.00316  -0.00304   1.91854
   A12        1.89470   0.00084   0.00242   0.00742   0.00984   1.90454
   A13        1.93905   0.00047   0.00145  -0.00022   0.00124   1.94029
   A14        1.93018   0.00056   0.00075   0.00206   0.00281   1.93299
   A15        1.95410  -0.00005  -0.00062   0.00094   0.00032   1.95441
   A16        1.86984  -0.00059  -0.00019  -0.00331  -0.00350   1.86635
   A17        1.87877  -0.00028  -0.00061  -0.00094  -0.00155   1.87722
   A18        1.88877  -0.00018  -0.00087   0.00125   0.00038   1.88915
   A19        1.95428   0.00350   0.00489   0.00709   0.01202   1.96629
   A20        1.89319  -0.00051   0.00475  -0.00868  -0.00393   1.88926
   A21        1.87742  -0.00030   0.00453  -0.00209   0.00260   1.88002
   A22        1.99852  -0.00213  -0.01585   0.00991  -0.00594   1.99258
   A23        1.87432  -0.00095   0.00118  -0.00292  -0.00152   1.87279
   A24        1.86008   0.00032   0.00069  -0.00443  -0.00349   1.85658
   A25        1.92026   0.00028  -0.00162   0.00533   0.00370   1.92396
   A26        1.90970   0.00113  -0.00164   0.00993   0.00828   1.91798
   A27        1.85039  -0.00041  -0.00090   0.00188   0.00097   1.85136
   A28        1.96959   0.00325   0.00329   0.00878   0.01209   1.98168
   A29        1.88182   0.00007   0.00492  -0.00558  -0.00061   1.88121
   A30        1.88268  -0.00045   0.00403  -0.00188   0.00224   1.88493
   A31        1.98980  -0.00249  -0.01371   0.00338  -0.01035   1.97945
   A32        1.87341  -0.00065   0.00143  -0.00118   0.00035   1.87377
   A33        1.86080   0.00019   0.00017  -0.00446  -0.00410   1.85670
   A34        1.92388   0.00052  -0.00090   0.00600   0.00509   1.92897
   A35        1.91950   0.00057  -0.00192   0.00785   0.00592   1.92542
   A36        1.85532  -0.00016  -0.00135   0.00491   0.00354   1.85886
    D1       -1.05844  -0.00046   0.00311  -0.05199  -0.04889  -1.10733
    D2        1.06675  -0.00083   0.00293  -0.05576  -0.05284   1.01391
    D3        3.13183   0.00012   0.00521  -0.04539  -0.04019   3.09164
    D4        3.14014  -0.00012   0.00068  -0.04284  -0.04216   3.09799
    D5       -1.01786  -0.00048   0.00050  -0.04661  -0.04611  -1.06396
    D6        1.04723   0.00046   0.00278  -0.03624  -0.03346   1.01377
    D7        1.04371  -0.00004   0.00147  -0.04282  -0.04135   1.00236
    D8       -3.11429  -0.00040   0.00129  -0.04659  -0.04530   3.12360
    D9       -1.04920   0.00054   0.00357  -0.03623  -0.03266  -1.08186
   D10        0.94968   0.00012   0.00241  -0.03691  -0.03450   0.91519
   D11       -1.12439   0.00019   0.00121  -0.03397  -0.03275  -1.15713
   D12        3.05094   0.00006   0.00222  -0.03763  -0.03540   3.01554
   D13       -1.16675   0.00013   0.00316  -0.03703  -0.03388  -1.20063
   D14        3.04236   0.00019   0.00196  -0.03409  -0.03213   3.01024
   D15        0.93451   0.00006   0.00297  -0.03775  -0.03478   0.89973
   D16        3.02120  -0.00063  -0.00065  -0.04235  -0.04301   2.97820
   D17        0.94713  -0.00056  -0.00185  -0.03941  -0.04126   0.90588
   D18       -1.16073  -0.00069  -0.00085  -0.04307  -0.04391  -1.20464
   D19       -1.01033  -0.00045  -0.00499  -0.05137  -0.05630  -1.06663
   D20        3.05060   0.00016   0.00855  -0.06282  -0.05430   2.99630
   D21        1.04500   0.00020   0.00260  -0.05219  -0.04958   0.99542
   D22        1.10134  -0.00079  -0.00742  -0.05559  -0.06296   1.03838
   D23       -1.12092  -0.00018   0.00612  -0.06704  -0.06096  -1.18189
   D24       -3.12652  -0.00014   0.00017  -0.05641  -0.05624   3.10043
   D25       -3.07061  -0.00063  -0.00500  -0.05654  -0.06151  -3.13212
   D26        0.99032  -0.00001   0.00854  -0.06799  -0.05952   0.93080
   D27       -1.01528   0.00002   0.00259  -0.05736  -0.05479  -1.07007
   D28       -3.09190  -0.00119  -0.00676  -0.06241  -0.06914   3.12214
   D29        0.97799  -0.00034   0.00501  -0.06883  -0.06387   0.91412
   D30       -1.02541  -0.00036  -0.00005  -0.05988  -0.05991  -1.08532
   D31        1.10579  -0.00052  -0.00288  -0.05542  -0.05828   1.04752
   D32       -1.10750   0.00033   0.00889  -0.06184  -0.05301  -1.16051
   D33       -3.11090   0.00030   0.00383  -0.05289  -0.04905   3.12324
   D34       -1.01209  -0.00059  -0.00587  -0.05456  -0.06039  -1.07248
   D35        3.05780   0.00027   0.00590  -0.06097  -0.05512   3.00268
   D36        1.05441   0.00024   0.00084  -0.05202  -0.05117   1.00324
   D37       -1.17339  -0.00013   0.00685  -0.04983  -0.04300  -1.21638
   D38        3.08352  -0.00045   0.00974  -0.06089  -0.05117   3.03235
   D39        0.99106   0.00037   0.00462  -0.04789  -0.04320   0.94786
   D40       -1.03522   0.00005   0.00751  -0.05894  -0.05137  -1.08659
   D41        3.05262  -0.00117  -0.00257  -0.04950  -0.05211   3.00051
   D42        1.02634  -0.00148   0.00032  -0.06055  -0.06028   0.96606
   D43       -1.14790  -0.00015   0.00535  -0.04044  -0.03508  -1.18298
   D44        3.09516  -0.00060   0.00862  -0.05469  -0.04607   3.04909
   D45        1.00671   0.00059   0.00371  -0.03817  -0.03444   0.97228
   D46       -1.03342   0.00014   0.00698  -0.05242  -0.04543  -1.07885
   D47        3.06339  -0.00108  -0.00275  -0.04251  -0.04529   3.01810
   D48        1.02326  -0.00152   0.00051  -0.05676  -0.05628   0.96698
         Item               Value     Threshold  Converged?
 Maximum Force            0.006702     0.000015     NO 
 RMS     Force            0.001286     0.000010     NO 
 Maximum Displacement     0.211880     0.000060     NO 
 RMS     Displacement     0.050459     0.000040     NO 
 GradGradGradGradGradGradGradGradGradGradGradGradGradGradGradGradGradGrad

                    Distance matrix (angstroms):
                    1          2          3          4          5
     1  C    0.000000
     2  C    1.533820   0.000000
     3  C    2.500979   1.537075   0.000000
     4  C    2.520217   1.540886   2.530722   0.000000
     5  N    2.990501   2.500029   2.986440   1.462615   0.000000
     6  C    2.487982   1.541910   2.520992   2.511657   3.832219
     7  N    3.817228   2.510808   2.993424   2.993627   4.353792
     8  H    1.101834   2.179848   2.775146   2.753433   2.637702
     9  H    1.105353   2.185815   3.474723   2.782165   3.373919
    10  H    1.106313   2.189775   2.735166   3.493203   3.996605
    11  H    2.698187   2.192969   1.104613   2.865129   2.750199
    12  H    2.805353   2.188732   1.105995   3.495027   4.034054
    13  H    3.480842   2.204267   1.106120   2.740459   3.247379
    14  H    3.466875   2.161954   2.816202   1.108919   2.167240
    15  H    2.704647   2.152782   3.472386   1.105893   2.079524
    16  H    3.456335   2.792681   2.719003   2.052875   1.020872
    17  H    3.871855   3.380557   3.939730   2.048005   1.019823
    18  H    2.629448   2.160919   2.789385   3.464767   4.643496
    19  H    2.712505   2.157157   3.468082   2.698752   4.066125
    20  H    4.150283   2.794365   2.714846   3.446943   4.630973
    21  H    4.535908   3.391840   3.940186   3.877851   5.289702
                    6          7          8          9         10
     6  C    0.000000
     7  N    1.459209   0.000000
     8  H    3.461201   4.666635   0.000000
     9  H    2.717744   4.098480   1.780011   0.000000
    10  H    2.754657   4.115609   1.795718   1.789795   0.000000
    11  H    3.488231   4.049097   2.514838   3.743136   2.985341
    12  H    2.710189   3.241843   3.223826   3.800096   2.583594
    13  H    2.867393   2.771622   3.757375   4.350772   3.791153
    14  H    2.669527   2.559578   3.794675   3.745159   4.322254
    15  H    2.726728   3.348626   3.034343   2.502139   3.731281
    16  H    4.172483   4.519098   3.042679   4.076416   4.311399
    17  H    4.554959   4.934725   3.510217   4.063235   4.925797
    18  H    1.114555   2.159650   3.670853   2.934511   2.421868
    19  H    1.105600   2.077096   3.708707   2.473510   3.114832
    20  H    2.052990   1.020497   4.914642   4.654293   4.309311
    21  H    2.049890   1.019578   5.476905   4.666584   4.728689
                   11         12         13         14         15
    11  H    0.000000
    12  H    1.776251   0.000000
    13  H    1.783483   1.792363   0.000000
    14  H    3.325563   3.772957   2.582389   0.000000
    15  H    3.834129   4.316360   3.770591   1.773174   0.000000
    16  H    2.284738   3.787300   2.799984   2.441676   2.938430
    17  H    3.719529   5.010548   4.048854   2.482696   2.335901
    18  H    3.739750   2.524400   3.307090   3.723758   3.691346
    19  H    4.318850   3.736576   3.846971   2.943994   2.444028
    20  H    3.784842   2.804784   2.280496   2.970819   4.043909
    21  H    5.017790   4.030332   3.734625   3.428158   4.040530
                   16         17         18         19         20
    16  H    0.000000
    17  H    1.630579   0.000000
    18  H    4.914306   5.462058   0.000000
    19  H    4.632091   4.637469   1.777540   0.000000
    20  H    4.574518   5.289761   2.442328   2.938968   0.000000
    21  H    5.515003   5.817222   2.475202   2.339850   1.634667
                   21
    21  H    0.000000
 Framework group  C1[X(C5H14N2)]
 Deg. of freedom    57
                         Standard orientation:                         
 ---------------------------------------------------------------------
 Center     Atomic      Atomic             Coordinates (Angstroms)
 Number     Number       Type             X           Y           Z
 ---------------------------------------------------------------------
      1          6           0       -0.606034    1.648639   -0.564258
      2          6           0       -0.003734    0.354411   -0.003179
      3          6           0       -0.007162    0.423667    1.532332
      4          6           0       -0.812692   -0.862084   -0.493136
      5          7           0       -2.207513   -0.824938   -0.054573
      6          6           0        1.444181    0.239818   -0.520765
      7          7           0        2.144588   -0.944752   -0.035465
      8          1           0       -1.660681    1.747199   -0.260869
      9          1           0       -0.576619    1.648204   -1.669219
     10          1           0       -0.047533    2.534249   -0.206906
     11          1           0       -1.011844    0.672446    1.918196
     12          1           0        0.680002    1.212781    1.890562
     13          1           0        0.298204   -0.535581    1.990697
     14          1           0       -0.268555   -1.782343   -0.198619
     15          1           0       -0.814892   -0.841570   -1.598836
     16          1           0       -2.264887   -0.976492    0.953356
     17          1           0       -2.727117   -1.589572   -0.485138
     18          1           0        1.968151    1.193702   -0.280361
     19          1           0        1.408405    0.173123   -1.623772
     20          1           0        2.308517   -0.876806    0.969485
     21          1           0        3.061969   -1.018217   -0.474277
 ---------------------------------------------------------------------
 Rotational constants (GHZ):           3.2982629           1.8790023           1.6736452
   126 basis functions,   231 primitive gaussians,   133 cartesian basis functions
    29 alpha electrons       29 beta electrons
       nuclear repulsion energy       343.8232360663 Hartrees.
 NAtoms=   21 NActive=   21 NUniq=   21 SFac= 1.00D+00 NAtFMM=   60 NAOKFM=F Big=F
 Nuclear repulsion after empirical dispersion term =      343.8084039486 Hartrees.
   1 Symmetry operations used in ECPInt.
 ECPInt:  NShTT=    2485 NPrTT=   10003 LenC2=    2479 LenP2D=    8156.
 LDataN:  DoStor=T MaxTD1= 4 Len=   56
 Initial guess from the checkpoint file:  "41.chk"
 B after Tr=     0.000000   -0.000000    0.000000
         Rot=    0.999829   -0.016416   -0.000219    0.008561 Ang=  -2.12 deg.
 ExpMin= 1.22D-01 ExpMax= 1.71D+03 ExpMxC= 2.58D+02 IAcc=3 IRadAn=         5 AccDes= 0.00D+00
 Harris functional with IExCor= 4639 and IRadAn=       5 diagonalized for initial guess.
 HarFok:  IExCor= 4639 AccDes= 0.00D+00 IRadAn=         5 IDoV= 1 UseB2=F ITyADJ=14
 ICtDFT=  3500011 ScaDFX=  1.000000  1.000000  1.000000  1.000000
 FoFCou: FMM=F IPFlag=           0 FMFlag=      100000 FMFlg1=           0
         NFxFlg=           0 DoJE=T BraDBF=F KetDBF=T FulRan=T
         wScrn=  0.000000 ICntrl=       500 IOpCl=  0 I1Cent=   200000004 NGrid=           0
         NMat0=    1 NMatS0=      1 NMatT0=    0 NMatD0=    1 NMtDS0=    0 NMtDT0=    0
 Petite list used in FoFCou.
     Minimum is close to point  2 DX=  3.80D-02 DF= -3.56D-07 DXR=  3.34D-02 DFR=  1.12D-03 which will be used.
     Accept linear search using points  1 and  2.
     Minimum is close to point  2 DX=  4.89D-02 DF= -1.60D-07 DXR=  4.66D-02 DFR=  2.18D-03 which will be used.
     Accept linear search using points  1 and  2.
     Minimum is close to point  2 DX= -1.41D-05 DF=  0.00D+00 DXR=  1.41D-05 DFR=  0.00D+00 which will be used.
 SCF Done:  E(RwB97XD) =  -308.107634264     a.u. after    8 cycles
            Convg  =    0.3491D-08                    35 Fock formations.
              S**2 =  0.0000                  -V/T =  2.0107
   1 Symmetry operations used in ECPInt.
 ECPInt:  NShTT=    2485 NPrTT=   10003 LenC2=    2479 LenP2D=    8156.
 LDataN:  DoStor=T MaxTD1= 5 Len=  102
 Calling FoFJK, ICntrl=      2127 FMM=F ISym2X=0 I1Cent= 0 IOpClX= 0 NMat=1 NMatS=1 NMatT=0.

 GradGradGradGradGradGradGradGradGradGradGradGradGradGradGradGradGradGrad
 Using GEDIIS/GDIIS optimizer.
 FormGI is forming the generalized inverse of G from B-inverse, IUseBI=4.
 Internal  Forces:  Max     0.002272618 RMS     0.000404431
 Step number   3 out of a maximum of  114
 All quantities printed in internal units (Hartrees-Bohrs-Radians)
 Mixed Optimization -- En-DIIS/RFO-DIIS
 Trust test= 1.21D+00 RLast= 3.43D-01 DXMaxT set to 8.49D-01
 ITU=  1  1  0
 Use linear search instead of GDIIS.
     Eigenvalues ---    0.00168   0.00230   0.00230   0.00250   0.00594
     Eigenvalues ---    0.00849   0.03994   0.04136   0.04250   0.04355
     Eigenvalues ---    0.04543   0.04719   0.05206   0.05297   0.05433
     Eigenvalues ---    0.05463   0.05500   0.05519   0.05781   0.09389
     Eigenvalues ---    0.09931   0.12875   0.13082   0.14284   0.14527
     Eigenvalues ---    0.15751   0.16000   0.16000   0.16000   0.16000
     Eigenvalues ---    0.16000   0.16000   0.16000   0.16023   0.16179
     Eigenvalues ---    0.21952   0.23286   0.27272   0.28082   0.28297
     Eigenvalues ---    0.32549   0.33678   0.34042   0.34101   0.34119
     Eigenvalues ---    0.34132   0.34133   0.34187   0.34190   0.34226
     Eigenvalues ---    0.35570   0.36331   0.37281   0.44398   0.44421
     Eigenvalues ---    0.44605   0.44739
 Quartic linear search produced a step of  0.43273.
 Iteration  1 RMS(Cart)=  0.05903568 RMS(Int)=  0.00265094
 Iteration  2 RMS(Cart)=  0.00283105 RMS(Int)=  0.00002388
 Iteration  3 RMS(Cart)=  0.00000992 RMS(Int)=  0.00002267
 Iteration  4 RMS(Cart)=  0.00000000 RMS(Int)=  0.00002267
 Variable       Old X    -DE/DX   Delta X   Delta X   Delta X     New X
                                 (Linear)    (Quad)   (Total)
    R1        2.89850   0.00006  -0.00027  -0.00094  -0.00121   2.89729
    R2        2.08216  -0.00003  -0.00010   0.00063   0.00053   2.08270
    R3        2.08881  -0.00006   0.00055   0.00084   0.00139   2.09021
    R4        2.09063  -0.00069   0.00068  -0.00173  -0.00104   2.08959
    R5        2.90465  -0.00008   0.00108  -0.00103   0.00005   2.90470
    R6        2.91185  -0.00045   0.00774  -0.00378   0.00396   2.91581
    R7        2.91379  -0.00020   0.00620  -0.00261   0.00360   2.91738
    R8        2.08742  -0.00032   0.00063  -0.00026   0.00037   2.08779
    R9        2.09003  -0.00022   0.00082   0.00025   0.00107   2.09110
   R10        2.09026  -0.00033   0.00029  -0.00011   0.00019   2.09045
   R11        2.76394  -0.00227  -0.00429  -0.00946  -0.01375   2.75019
   R12        2.09555  -0.00006   0.00026   0.00125   0.00151   2.09706
   R13        2.08983  -0.00016   0.00129   0.00048   0.00177   2.09160
   R14        1.92917  -0.00023   0.00017  -0.00038  -0.00022   1.92895
   R15        1.92719  -0.00034   0.00019  -0.00100  -0.00081   1.92638
   R16        2.75751  -0.00200  -0.00435  -0.00820  -0.01255   2.74495
   R17        2.10620  -0.00042   0.00179   0.00036   0.00215   2.10836
   R18        2.08928  -0.00016   0.00088   0.00034   0.00122   2.09050
   R19        1.92846  -0.00022  -0.00000  -0.00060  -0.00060   1.92786
   R20        1.92672  -0.00036  -0.00007  -0.00118  -0.00125   1.92548
    A1        1.92903  -0.00051  -0.00067  -0.00603  -0.00670   1.92232
    A2        1.93360   0.00022  -0.00132   0.00203   0.00070   1.93430
    A3        1.93806   0.00034   0.00115   0.00272   0.00387   1.94193
    A4        1.87628   0.00019  -0.00130   0.00199   0.00068   1.87697
    A5        1.89934   0.00004   0.00234   0.00133   0.00367   1.90301
    A6        1.88576  -0.00029  -0.00018  -0.00198  -0.00217   1.88359
    A7        1.90344   0.00017  -0.00275   0.00597   0.00321   1.90664
    A8        1.92164  -0.00016   0.00163  -0.00180  -0.00018   1.92146
    A9        1.88458   0.00040  -0.00102   0.00968   0.00864   1.89322
   A10        1.93055  -0.00012  -0.00079  -0.00692  -0.00771   1.92284
   A11        1.91854  -0.00011  -0.00132  -0.00100  -0.00236   1.91618
   A12        1.90454  -0.00017   0.00426  -0.00552  -0.00129   1.90325
   A13        1.94029  -0.00033   0.00054  -0.00305  -0.00252   1.93777
   A14        1.93299   0.00027   0.00122   0.00226   0.00348   1.93647
   A15        1.95441  -0.00034   0.00014  -0.00324  -0.00310   1.95131
   A16        1.86635   0.00010  -0.00151   0.00181   0.00030   1.86665
   A17        1.87722   0.00036  -0.00067   0.00333   0.00265   1.87987
   A18        1.88915  -0.00003   0.00016  -0.00081  -0.00065   1.88850
   A19        1.96629  -0.00036   0.00520  -0.00526  -0.00008   1.96621
   A20        1.88926   0.00012  -0.00170  -0.00525  -0.00696   1.88229
   A21        1.88002   0.00008   0.00112   0.00183   0.00294   1.88295
   A22        1.99258  -0.00023  -0.00257  -0.00102  -0.00361   1.98896
   A23        1.87279   0.00032  -0.00066   0.00583   0.00515   1.87794
   A24        1.85658   0.00013  -0.00151   0.00486   0.00336   1.85994
   A25        1.92396   0.00023   0.00160   0.00461   0.00617   1.93014
   A26        1.91798   0.00012   0.00358   0.00389   0.00742   1.92540
   A27        1.85136   0.00004   0.00042   0.00407   0.00439   1.85576
   A28        1.98168  -0.00068   0.00523  -0.00548  -0.00027   1.98141
   A29        1.88121   0.00034  -0.00027  -0.00188  -0.00214   1.87907
   A30        1.88493   0.00022   0.00097   0.00252   0.00347   1.88840
   A31        1.97945  -0.00008  -0.00448   0.00056  -0.00393   1.97553
   A32        1.87377   0.00038   0.00015   0.00519   0.00530   1.87907
   A33        1.85670  -0.00014  -0.00177  -0.00040  -0.00217   1.85454
   A34        1.92897   0.00028   0.00220   0.00515   0.00729   1.93626
   A35        1.92542   0.00011   0.00256   0.00411   0.00662   1.93204
   A36        1.85886   0.00006   0.00153   0.00526   0.00667   1.86553
    D1       -1.10733   0.00001  -0.02115  -0.05871  -0.07985  -1.18718
    D2        1.01391  -0.00013  -0.02286  -0.06458  -0.08744   0.92647
    D3        3.09164  -0.00019  -0.01739  -0.06651  -0.08391   3.00774
    D4        3.09799  -0.00004  -0.01824  -0.05862  -0.07685   3.02113
    D5       -1.06396  -0.00018  -0.01995  -0.06449  -0.08445  -1.14841
    D6        1.01377  -0.00024  -0.01448  -0.06642  -0.08091   0.93286
    D7        1.00236  -0.00005  -0.01789  -0.05928  -0.07716   0.92520
    D8        3.12360  -0.00019  -0.01960  -0.06515  -0.08476   3.03884
    D9       -1.08186  -0.00025  -0.01413  -0.06707  -0.08122  -1.16307
   D10        0.91519  -0.00017  -0.01493   0.01552   0.00060   0.91578
   D11       -1.15713  -0.00026  -0.01417   0.01376  -0.00041  -1.15754
   D12        3.01554  -0.00018  -0.01532   0.01544   0.00012   3.01566
   D13       -1.20063  -0.00000  -0.01466   0.01826   0.00361  -1.19702
   D14        3.01024  -0.00009  -0.01390   0.01650   0.00260   3.01284
   D15        0.89973  -0.00001  -0.01505   0.01817   0.00313   0.90286
   D16        2.97820   0.00035  -0.01861   0.03025   0.01163   2.98983
   D17        0.90588   0.00026  -0.01785   0.02849   0.01063   0.91650
   D18       -1.20464   0.00035  -0.01900   0.03017   0.01116  -1.19348
   D19       -1.06663  -0.00027  -0.02436  -0.05137  -0.07574  -1.14237
   D20        2.99630   0.00021  -0.02350  -0.04213  -0.06563   2.93066
   D21        0.99542  -0.00004  -0.02145  -0.04609  -0.06753   0.92789
   D22        1.03838  -0.00024  -0.02725  -0.04958  -0.07682   0.96155
   D23       -1.18189   0.00024  -0.02638  -0.04033  -0.06672  -1.24860
   D24        3.10043  -0.00000  -0.02434  -0.04429  -0.06862   3.03181
   D25       -3.13212  -0.00055  -0.02662  -0.05876  -0.08539   3.06568
   D26        0.93080  -0.00007  -0.02575  -0.04952  -0.07528   0.85552
   D27       -1.07007  -0.00032  -0.02371  -0.05348  -0.07718  -1.14725
   D28        3.12214  -0.00011  -0.02992  -0.02979  -0.05971   3.06243
   D29        0.91412   0.00021  -0.02764  -0.02509  -0.05274   0.86138
   D30       -1.08532   0.00010  -0.02592  -0.02495  -0.05087  -1.13619
   D31        1.04752  -0.00049  -0.02522  -0.04216  -0.06738   0.98014
   D32       -1.16051  -0.00017  -0.02294  -0.03746  -0.06041  -1.22091
   D33        3.12324  -0.00028  -0.02123  -0.03732  -0.05853   3.06470
   D34       -1.07248  -0.00017  -0.02613  -0.02946  -0.05560  -1.12808
   D35        3.00268   0.00015  -0.02385  -0.02477  -0.04862   2.95406
   D36        1.00324   0.00004  -0.02214  -0.02462  -0.04675   0.95649
   D37       -1.21638  -0.00011  -0.01861  -0.05310  -0.07168  -1.28806
   D38        3.03235  -0.00036  -0.02214  -0.06308  -0.08524   2.94711
   D39        0.94786  -0.00044  -0.01869  -0.06540  -0.08407   0.86379
   D40       -1.08659  -0.00069  -0.02223  -0.07538  -0.09763  -1.18423
   D41        3.00051  -0.00020  -0.02255  -0.05605  -0.07858   2.92194
   D42        0.96606  -0.00046  -0.02608  -0.06603  -0.09214   0.87392
   D43       -1.18298  -0.00009  -0.01518  -0.04434  -0.05948  -1.24245
   D44        3.04909  -0.00040  -0.01994  -0.05650  -0.07646   2.97263
   D45        0.97228  -0.00024  -0.01490  -0.05087  -0.06575   0.90653
   D46       -1.07885  -0.00055  -0.01966  -0.06303  -0.08272  -1.16157
   D47        3.01810  -0.00022  -0.01960  -0.04768  -0.06725   2.95085
   D48        0.96698  -0.00053  -0.02436  -0.05984  -0.08423   0.88275
         Item               Value     Threshold  Converged?
 Maximum Force            0.002273     0.000015     NO 
 RMS     Force            0.000404     0.000010     NO 
 Maximum Displacement     0.288628     0.000060     NO 
 RMS     Displacement     0.059119     0.000040     NO 
 GradGradGradGradGradGradGradGradGradGradGradGradGradGradGradGradGradGrad

                    Distance matrix (angstroms):
                    1          2          3          4          5
     1  C    0.000000
     2  C    1.533181   0.000000
     3  C    2.503336   1.537102   0.000000
     4  C    2.521259   1.542981   2.525690   0.000000
     5  N    3.031238   2.495744   2.933177   1.455338   0.000000
     6  C    2.496798   1.543812   2.520480   2.513759   3.826262
     7  N    3.815613   2.506711   2.951450   3.023063   4.334654
     8  H    1.102115   2.174617   2.811664   2.708523   2.646183
     9  H    1.106089   2.186318   3.474670   2.823960   3.498710
    10  H    1.105761   2.191589   2.706635   3.493571   3.998108
    11  H    2.699594   2.191324   1.104811   2.854716   2.691558
    12  H    2.811762   2.191706   1.106562   3.494240   3.991269
    13  H    3.481175   2.202143   1.106219   2.731356   3.165500
    14  H    3.459849   2.159127   2.838220   1.109718   2.158971
    15  H    2.677740   2.157509   3.469117   1.106829   2.077763
    16  H    3.565625   2.825417   2.712093   2.050550   1.020757
    17  H    3.868147   3.374912   3.914246   2.046321   1.019395
    18  H    2.615125   2.161788   2.817973   3.463606   4.640370
    19  H    2.751941   2.161898   3.468977   2.681496   4.071267
    20  H    4.150116   2.821899   2.710322   3.533760   4.657826
    21  H    4.542085   3.387001   3.924645   3.869509   5.247390
                    6          7          8          9         10
     6  C    0.000000
     7  N    1.452566   0.000000
     8  H    3.462180   4.658430   0.000000
     9  H    2.691668   4.089093   1.781277   0.000000
    10  H    2.807520   4.130318   1.797853   1.788538   0.000000
    11  H    3.488273   4.012211   2.560451   3.758602   2.932833
    12  H    2.716639   3.186435   3.281348   3.784105   2.562172
    13  H    2.858261   2.720353   3.781848   4.350557   3.769053
    14  H    2.630759   2.562431   3.766266   3.749182   4.320272
    15  H    2.769849   3.453898   2.918306   2.523747   3.730142
    16  H    4.164813   4.452178   3.176056   4.237947   4.375049
    17  H    4.555354   4.961680   3.445581   4.138341   4.896881
    18  H    1.115694   2.151982   3.675018   2.844636   2.465450
    19  H    1.106246   2.075775   3.713047   2.486131   3.223922
    20  H    2.051809   1.020180   4.934884   4.636833   4.291544
    21  H    2.048009   1.018919   5.470140   4.643395   4.783703
                   11         12         13         14         15
    11  H    0.000000
    12  H    1.777064   0.000000
    13  H    1.785453   1.792483   0.000000
    14  H    3.356551   3.788842   2.608879   0.000000
    15  H    3.806199   4.322096   3.776153   1.776789   0.000000
    16  H    2.315895   3.790045   2.717809   2.410920   2.934609
    17  H    3.681232   4.987562   4.019641   2.513683   2.308409
    18  H    3.763607   2.567871   3.338108   3.700032   3.705860
    19  H    4.322969   3.755479   3.824288   2.850059   2.475413
    20  H    3.786902   2.745336   2.301207   3.076708   4.179364
    21  H    5.001289   4.024308   3.703968   3.368014   4.103409
                   16         17         18         19         20
    16  H    0.000000
    17  H    1.632836   0.000000
    18  H    4.935831   5.456235   0.000000
    19  H    4.624767   4.628426   1.777525   0.000000
    20  H    4.566837   5.377771   2.417967   2.936978   0.000000
    21  H    5.426738   5.805352   2.500789   2.314938   1.637947
                   21
    21  H    0.000000
 Framework group  C1[X(C5H14N2)]
 Deg. of freedom    57
                         Standard orientation:                         
 ---------------------------------------------------------------------
 Center     Atomic      Atomic             Coordinates (Angstroms)
 Number     Number       Type             X           Y           Z
 ---------------------------------------------------------------------
      1          6           0       -0.581072    1.700058   -0.477447
      2          6           0       -0.003824    0.361726   -0.001741
      3          6           0       -0.012218    0.323954    1.534874
      4          6           0       -0.838335   -0.806433   -0.567235
      5          7           0       -2.197307   -0.827951   -0.046907
      6          6           0        1.445646    0.242443   -0.519587
      7          7           0        2.135803   -0.943602   -0.043216
      8          1           0       -1.656192    1.755009   -0.241324
      9          1           0       -0.474494    1.807081   -1.573175
     10          1           0       -0.063027    2.552515   -0.000315
     11          1           0       -1.015384    0.562147    1.931773
     12          1           0        0.686430    1.073358    1.952921
     13          1           0        0.275631   -0.671160    1.922963
     14          1           0       -0.273197   -1.744968   -0.390470
     15          1           0       -0.902228   -0.678468   -1.664784
     16          1           0       -2.205623   -1.148769    0.922088
     17          1           0       -2.767226   -1.489646   -0.572756
     18          1           0        1.975194    1.190886   -0.265014
     19          1           0        1.414780    0.191878   -1.624246
     20          1           0        2.352298   -0.864979    0.950623
     21          1           0        3.022384   -1.064506   -0.530607
 ---------------------------------------------------------------------
 Rotational constants (GHZ):           3.2921175           1.8858542           1.6772099
   126 basis functions,   231 primitive gaussians,   133 cartesian basis functions
    29 alpha electrons       29 beta electrons
       nuclear repulsion energy       344.0260285801 Hartrees.
 NAtoms=   21 NActive=   21 NUniq=   21 SFac= 1.00D+00 NAtFMM=   60 NAOKFM=F Big=F
 Nuclear repulsion after empirical dispersion term =      344.0112338088 Hartrees.
   1 Symmetry operations used in ECPInt.
 ECPInt:  NShTT=    2485 NPrTT=   10003 LenC2=    2479 LenP2D=    8164.
 LDataN:  DoStor=T MaxTD1= 4 Len=   56
 Initial guess from the checkpoint file:  "41.chk"
 B after Tr=    -0.000000    0.000000   -0.000000
         Rot=    0.999613   -0.027608   -0.000109    0.003394 Ang=  -3.19 deg.
 ExpMin= 1.22D-01 ExpMax= 1.71D+03 ExpMxC= 2.58D+02 IAcc=3 IRadAn=         5 AccDes= 0.00D+00
 Harris functional with IExCor= 4639 and IRadAn=       5 diagonalized for initial guess.
 HarFok:  IExCor= 4639 AccDes= 0.00D+00 IRadAn=         5 IDoV= 1 UseB2=F ITyADJ=14
 ICtDFT=  3500011 ScaDFX=  1.000000  1.000000  1.000000  1.000000
 FoFCou: FMM=F IPFlag=           0 FMFlag=      100000 FMFlg1=           0
         NFxFlg=           0 DoJE=T BraDBF=F KetDBF=T FulRan=T
         wScrn=  0.000000 ICntrl=       500 IOpCl=  0 I1Cent=   200000004 NGrid=           0
         NMat0=    1 NMatS0=      1 NMatT0=    0 NMatD0=    1 NMtDS0=    0 NMtDT0=    0
 Petite list used in FoFCou.
     Minimum is close to point  2 DX=  6.11D-02 DF= -1.49D-06 DXR=  5.26D-02 DFR=  2.78D-03 which will be used.
     Accept linear search using points  1 and  2.
     Minimum is close to point  2 DX=  3.20D-02 DF= -1.24D-07 DXR=  3.10D-02 DFR=  9.64D-04 which will be used.
     Accept linear search using points  1 and  2.
     Minimum is close to point  2 DX= -5.85D-02 DF= -2.67D-07 DXR=  6.21D-02 DFR=  3.87D-03 which will be used.
     Accept linear search using points  1 and  2.
     Minimum is close to point  2 DX= -1.98D-04 DF= -3.69D-12 DXR=  1.98D-04 DFR=  3.92D-08 which will be used.
 SCF Done:  E(RwB97XD) =  -308.108039650     a.u. after    9 cycles
            Convg  =    0.3418D-08                    36 Fock formations.
              S**2 =  0.0000                  -V/T =  2.0107
   1 Symmetry operations used in ECPInt.
 ECPInt:  NShTT=    2485 NPrTT=   10003 LenC2=    2479 LenP2D=    8164.
 LDataN:  DoStor=T MaxTD1= 5 Len=  102
 Calling FoFJK, ICntrl=      2127 FMM=F ISym2X=0 I1Cent= 0 IOpClX= 0 NMat=1 NMatS=1 NMatT=0.

 GradGradGradGradGradGradGradGradGradGradGradGradGradGradGradGradGradGrad
 Using GEDIIS/GDIIS optimizer.
 FormGI is forming the generalized inverse of G from B-inverse, IUseBI=4.
 Internal  Forces:  Max     0.001982144 RMS     0.000407217
 Step number   4 out of a maximum of  114
 All quantities printed in internal units (Hartrees-Bohrs-Radians)
 Mixed Optimization -- En-DIIS/RFO-DIIS
 Swapping is turned off.
 Trust test= 9.98D-01 RLast= 4.63D-01 DXMaxT set to 1.39D+00
 ITU=  1  1  1  0
     Eigenvalues ---    0.00200   0.00230   0.00238   0.00251   0.00442
     Eigenvalues ---    0.00848   0.04011   0.04101   0.04242   0.04334
     Eigenvalues ---    0.04597   0.04867   0.05120   0.05313   0.05421
     Eigenvalues ---    0.05458   0.05490   0.05576   0.05714   0.09383
     Eigenvalues ---    0.09943   0.12863   0.13069   0.14288   0.14533
     Eigenvalues ---    0.15647   0.15997   0.16000   0.16000   0.16000
     Eigenvalues ---    0.16000   0.16000   0.16006   0.16058   0.16157
     Eigenvalues ---    0.21940   0.23319   0.27290   0.28081   0.28302
     Eigenvalues ---    0.33149   0.33838   0.34042   0.34099   0.34117
     Eigenvalues ---    0.34130   0.34138   0.34187   0.34191   0.34221
     Eigenvalues ---    0.35805   0.36501   0.39790   0.44400   0.44430
     Eigenvalues ---    0.44591   0.44786
 En-DIIS/RFO-DIIS/Sim-DIIS IScMMF=       -3 using points:     4    3
[...]
 0093641,-0.00077034,-0.00116718,-0.00089073,0.00061908,-0.00084722,0.0
 0031806,0.00010329,-0.00079764,-0.00039333,0.00022463,-0.00001797,0.00
 029129,-0.00040927,0.00093730,-0.00041347,0.00011290,-0.00051366,-0.00
 519202,0.00763234,-0.00871662,0.01043133,-0.01360434,0.02231556,-0.053
 54996,0.13874289,-0.06612330,0.11286838,-0.19897573,0.00067650,-0.0000
 0979,-0.00160119,0.00039450,0.00015519,0.00034139,-0.00050906,-0.00070
 219,0.00014012,-0.00080579,0.00018710,0.00008265,0.00078086,-0.0006951
 6,0.00041506,-0.00007063,-0.00005597,0.00018854,-0.00976182,0.01637102
 ,-0.01591730,0.00283161,-0.00405895,0.00504221,0.07250426,-0.12363261,
 0.21008631,0.00079874,-0.00068388,-0.00116799,0.00394250,-0.00514442,-
 0.00936830,-0.10359098,0.05980155,0.09160824,-0.00013442,0.00074742,0.
 00075656,0.00019692,-0.00013057,0.00033191,-0.00137735,-0.00265699,0.0
 0019726,0.00007990,0.00037825,0.00054255,-0.00012817,-0.00036745,0.000
 27215,0.00006096,0.00024121,-0.00000308,0.00001942,0.00012652,-0.00009
 702,0.10676723,0.00132723,0.00121512,-0.00033128,0.01435944,-0.0139550
 1,-0.02445042,0.05812782,-0.10812199,-0.09637584,0.00063115,0.00002122
 ,-0.00200786,0.00019524,0.00076318,0.00068754,-0.00303504,-0.00593266,
 0.00189093,-0.00021572,0.00032399,0.00049887,-0.00104727,-0.00011010,0
 .00017137,0.00022429,0.00022720,0.00032318,-0.00012903,-0.00000665,0.0
 0007444,-0.06180179,0.11797119,0.00023055,0.00033024,0.00040862,-0.000
 22269,-0.00070727,-0.00075096,0.09119103,-0.09800965,-0.20162508,-0.00
 035320,-0.00001662,-0.00026583,-0.00066162,0.00123132,-0.00139931,-0.0
 0063423,-0.00056124,0.00079503,0.00000769,0.00014874,0.00019713,-0.000
 21364,-0.00019674,0.00025519,-0.00011552,0.00017906,0.00013158,-0.0000
 2525,-0.00009727,-0.00026441,-0.09825094,0.10547110,0.21459693,0.00073
 116,-0.00051146,0.00117409,0.00121618,-0.00364208,0.00913973,-0.063205
 07,0.02890971,-0.05200428,-0.00048888,-0.00149367,-0.00002356,0.000073
 10,-0.00016519,-0.00005115,0.00056612,0.00058102,-0.00025137,-0.000090
 43,0.00024965,0.00014029,0.00000504,-0.00004531,0.00003143,0.00006417,
 0.00022094,-0.00010457,-0.00034113,-0.00021804,-0.00028324,0.00377406,
 -0.00838433,0.01237580,0.06156514,0.00139958,0.00064750,0.00037460,0.0
 0848617,-0.01499309,0.02733576,0.02828037,-0.10553656,0.10560362,-0.00
 339205,-0.00604654,-0.00249977,-0.00028678,0.00067645,-0.00061543,0.00
 080766,0.00099306,0.00200694,-0.00003169,-0.00007605,-0.00044913,0.000
 02644,0.00000612,-0.00007718,0.00011322,0.00020753,-0.00032595,-0.0007
 6417,0.00027904,-0.00035560,-0.00508274,0.00802542,-0.01330034,-0.0299
 1187,0.11605043,-0.00006977,-0.00021281,0.00007764,0.00011586,-0.00182
 757,0.00128847,-0.05114435,0.10650184,-0.23839134,0.00041711,-0.000808
 94,0.00041840,-0.00009502,0.00039610,-0.00007382,0.00085650,-0.0010127
 9,0.00087114,-0.00038136,0.00002748,0.00022526,-0.00015054,0.00003385,
 -0.00007514,0.00021535,-0.00007911,0.00021041,0.00045427,0.00009428,0.
 00024112,-0.00690076,0.01174261,-0.01729645,0.05618017,-0.11577072,0.2
 5294515,0.00042740,-0.00320244,-0.00027645,-0.00920782,0.00022231,-0.0
 0116335,-0.30666864,-0.01144623,-0.03611009,0.00036543,0.00060152,-0.0
 0091686,0.00012759,-0.00011472,0.00047408,-0.00130305,0.00006714,0.000
 61218,0.00011999,0.00087264,0.00123945,0.00024008,0.00016954,-0.000074
 56,-0.00078988,-0.00013530,0.00002266,0.00031580,0.00014338,0.00008625
 ,-0.01090882,-0.00115048,-0.00340078,-0.00370663,-0.00040731,0.0005367
 6,0.32979829,-0.00079155,-0.00646035,-0.00054031,-0.03107032,0.0012938
 0,-0.00375372,-0.00969654,-0.04872312,-0.00102998,-0.00129856,0.001689
 99,-0.00017288,0.00025239,-0.00006042,0.00004810,-0.00124771,0.0009533
 5,0.00030004,0.00087417,0.00045643,-0.00048687,0.00007715,-0.00001600,
 0.00010660,-0.00207685,-0.00021353,-0.00006992,0.00014487,0.00003552,-
 0.00022200,0.01445281,0.00045259,0.00417271,0.01465792,0.00039304,0.00
 011937,0.01413352,0.05099794,0.00012816,-0.00003896,0.00019081,-0.0008
 0833,0.00069200,-0.00164315,-0.03572438,-0.00154341,-0.05540354,0.0011
 9560,0.00024763,0.00031017,0.00001627,0.00026230,-0.00002240,-0.001407
 70,0.00008357,-0.00002790,0.00034690,-0.00007699,-0.00036614,-0.000319
 84,-0.00005472,0.00014754,-0.00000610,-0.00010257,0.00052517,0.0003226
 2,-0.00013455,0.00015405,0.02413360,0.00247205,0.00572105,-0.02693416,
 -0.00268281,-0.00157746,0.03826420,0.00201900,0.05363004,0.00035999,0.
 00196466,-0.00233596,-0.01253030,-0.00030948,-0.00141070,0.00058532,-0
 .00045889,0.00032022,-0.29577978,0.02400693,0.00818752,-0.00171514,0.0
 0462845,0.00731935,-0.00170309,0.00063406,0.00036094,0.00049035,-0.000
 62532,0.00279139,0.00027442,-0.00012857,0.00023042,0.00027946,-0.00001
 818,0.00003892,-0.00083489,0.00019751,0.00003196,0.00005891,-0.0001922
 1,0.00000302,0.00018288,-0.00000753,-0.00004240,0.00030967,0.00060793,
 -0.00014607,0.31824550,-0.00017744,-0.00150331,0.00235832,0.01857303,-
 0.00154043,0.00156108,0.00134466,0.00109697,-0.00047447,0.02228632,-0.
 05895995,-0.00024089,0.01734472,-0.00213540,-0.00850640,0.00031515,0.0
 0043256,-0.00054509,-0.00022533,-0.00063699,-0.00065026,-0.00016887,-0
 .00007470,-0.00023325,0.00025627,0.00031559,0.00016308,0.00095513,0.00
 032900,0.00008609,0.00000363,0.00002359,-0.00005925,-0.00025897,0.0001
 7651,-0.00006064,-0.00044318,-0.00052956,0.00001358,-0.03199512,0.0572
 2310,-0.00054232,0.00325300,-0.00466834,-0.02637399,0.00233864,0.00091
 992,-0.00010806,-0.00130224,0.00053828,0.01177880,-0.00178145,-0.04981
 370,0.03339320,-0.00943644,-0.01167812,-0.00222464,0.00003549,-0.00008
 162,0.00017736,0.00013404,-0.00032443,0.00005409,0.00005979,0.00000095
 ,0.00025001,-0.00008091,0.00004424,-0.00188313,0.00026792,-0.00030080,
 0.00001297,0.00015643,-0.00003450,0.00008881,-0.00003843,0.00001495,0.
 00042383,0.00044102,0.00022394,-0.01588348,0.00468862,0.06143279,0.000
 54553,0.00162660,-0.00024279,0.00327053,0.01069240,-0.00099227,-0.0002
 3638,0.00088435,-0.00164152,-0.10122877,-0.10429367,-0.00032875,0.0052
 1523,0.01124944,0.00049791,0.00000123,-0.00052811,0.00033649,-0.000195
 30,0.00069774,0.00069078,0.00003272,-0.00003076,0.00009936,-0.00004438
 ,-0.00004957,-0.00040132,0.00010993,-0.00005100,0.00017332,0.00002151,
 -0.00018183,0.00009277,0.00046759,0.00049119,0.00002144,0.00024081,0.0
 0026932,-0.00007876,-0.01004817,-0.02844229,-0.00063081,0.10015382,-0.
 00094752,0.00048456,-0.00092368,-0.00758266,-0.01728710,0.00037393,0.0
 0172712,-0.00024411,0.00369198,-0.09745552,-0.25790105,-0.00479741,-0.
 00580211,-0.01419257,-0.00214975,-0.00007502,0.00013375,-0.00122189,0.
 00005820,0.00010982,0.00021182,-0.00001916,-0.00013399,-0.00002057,0.0
 0086456,0.00040338,0.00038005,-0.00004645,0.00050207,-0.00008829,-0.00
 000372,0.00019875,-0.00014884,-0.00027448,-0.00116798,0.00012182,0.000
 01243,0.00021938,-0.00008374,0.00157493,0.00493842,0.00056221,0.106416
 76,0.28191057,0.00088358,0.00025800,0.00084230,0.01092154,0.02340344,-
 0.00041607,-0.00189405,0.00202876,-0.00472636,0.00188065,0.00206893,-0
 .04833771,-0.01304094,-0.03236941,-0.00654872,0.00026776,0.00187046,0.
 00098533,0.00003321,-0.00050990,-0.00007693,-0.00018589,-0.00006110,-0
 .00004381,-0.00052020,-0.00029180,-0.00017759,0.00027108,-0.00021446,0
 .00008237,-0.00016678,0.00001479,0.00005298,0.00029445,0.00172130,0.00
 009768,-0.00007709,-0.00035043,-0.00003818,-0.00042321,0.00114682,0.00
 074763,0.00068940,0.00649937,0.06231924,-0.00024740,0.00043551,-0.0003
 7967,-0.00025480,-0.00131806,-0.00035773,0.00117753,-0.00087420,-0.000
 47766,0.00392689,0.01549924,0.00744496,-0.17295144,-0.21963338,-0.0498
 3540,0.00022582,0.00029259,-0.00022471,-0.00013636,-0.00000247,-0.0003
 3797,0.00004636,-0.00042445,-0.00002869,0.00002441,0.00013897,0.000155
 23,-0.00000969,-0.00003029,-0.00017542,-0.00044727,0.00096926,-0.00026
 574,-0.00035595,0.00028596,0.00040708,-0.00035137,-0.00011566,0.000155
 24,0.00180784,0.00122394,-0.00043298,0.00056704,0.00172009,0.00224991,
 0.16822584,0.00028055,-0.00038424,0.00026607,0.00031891,0.00053039,-0.
 00025021,-0.00031880,0.00033423,0.00031467,-0.01095370,-0.01428692,-0.
 00453539,-0.16915618,-0.25341109,-0.05285507,-0.00037269,-0.00020610,0
 .00001744,0.00014723,-0.00004108,0.00030518,-0.00010544,0.00026069,-0.
 00004508,-0.00000976,-0.00004996,-0.00004185,0.00006600,0.00003356,0.0
 0009845,0.00059778,-0.00079696,0.00120251,0.00009872,-0.00006624,-0.00
 012256,-0.00010388,0.00002200,0.00004702,0.00008479,0.00121236,0.00160
 482,0.00159145,0.00003074,-0.00353951,0.19490037,0.28500907,-0.0000017
 9,0.00015386,-0.00007776,-0.00044482,-0.00173962,0.00002733,0.00002217
 ,-0.00006023,-0.00056117,-0.02306549,-0.02752475,-0.00507729,-0.043057
 17,-0.06064090,-0.08072363,0.00010251,0.00013512,-0.00020024,-0.000005
 20,0.00016998,0.00004326,-0.00000669,-0.00009329,-0.00002121,0.0001836
 3,0.00013967,0.00006658,-0.00003536,0.00002942,-0.00003723,-0.00079995
 ,0.00135053,-0.00072298,0.00007999,0.00026770,0.00052361,0.00046971,0.
 00012779,-0.00036035,0.00063889,0.00032538,0.00141689,0.00171980,-0.00
 259178,-0.00539082,0.04349910,0.06482222,0.08281301,0.00054703,0.00002
 341,-0.00036850,-0.00064087,0.00058004,-0.00164922,-0.00021417,0.00001
 949,-0.00002500,-0.00468450,-0.00452831,0.01272189,-0.01621513,0.02909
 775,-0.05062854,-0.00014367,0.00030233,0.00006027,0.00013244,-0.000013
 91,-0.00006860,0.00051005,0.00022340,0.00026529,-0.00004762,-0.0002331
 3,-0.00026469,-0.00016837,-0.00002905,0.00002478,-0.00005106,-0.000378
 43,0.00012573,0.00007159,0.00008475,-0.00006891,0.00013483,-0.00001704
 ,-0.00013254,-0.00017304,-0.00030765,0.00093875,0.00090482,-0.00037519
 ,-0.00093510,-0.00124524,-0.01714076,0.02057046,0.02125000,0.00010533,
 0.00006503,0.00010683,0.00137840,-0.00153153,-0.00235857,0.00043680,-0
 .00056212,0.00011647,0.00121402,0.01170987,-0.01914877,-0.00182666,-0.
 21946660,0.18809726,-0.00021900,0.00048675,-0.00049385,-0.00002966,0.0
 0000330,-0.00000689,-0.00011756,-0.00004598,0.00000651,-0.00000466,0.0
 0001182,0.00000623,-0.00006380,0.00000122,-0.00002367,-0.00032442,0.00
 047871,0.00021798,-0.00010981,0.00021610,0.00021009,0.00004122,0.00002
 949,-0.00011043,0.00009313,-0.00043267,-0.00048716,-0.00035758,0.00087
 148,-0.00093684,0.00687944,-0.01821782,0.02471400,-0.00711255,0.226436
 96,0.00056252,-0.00011774,0.00024045,0.00322630,-0.00484199,-0.0039133
 5,0.00007917,-0.00087127,0.00058354,-0.00669932,0.02367264,-0.02402719
 ,-0.01411395,0.17778497,-0.26978603,-0.00116432,0.00126663,-0.00120306
 ,0.00015234,-0.00010780,0.00028729,-0.00011892,0.00008642,0.00004533,-
 0.00006713,-0.00003630,-0.00005982,-0.00005686,-0.00000197,0.00002353,
 -0.00012917,0.00014211,0.00006350,-0.00002110,0.00005176,0.00010811,0.
 00008449,0.00005415,-0.00005950,0.00047535,0.00031448,0.00056301,-0.00
 076143,-0.00019182,0.00107471,-0.00131608,-0.00730931,0.00834134,0.019
 65315,-0.18960622,0.28835518,0.00060300,-0.00015333,0.00190817,0.00358
 922,-0.00312103,0.00778626,-0.00018696,-0.00035135,-0.00041226,-0.0010
 6673,0.00131928,0.00151431,0.00036938,-0.00035184,0.00077485,-0.088225
 99,0.03822309,-0.07942724,-0.03348588,0.01275664,-0.02558532,0.0000490
 9,-0.00022259,-0.00006561,0.00012361,-0.00014916,-0.00015593,-0.000087
 51,0.00034704,0.00030110,0.00006243,-0.00011197,0.00008615,-0.00000093
 ,-0.00028048,-0.00026023,0.00011124,0.00023572,0.00014624,0.00010790,-
 0.00006711,0.00037734,0.00002037,0.00015918,-0.00011230,-0.00001139,0.
 00007346,0.00004231,0.00004837,0.00002347,0.00025018,0.11149300,-0.000
 58357,0.00054374,-0.00028143,-0.00471843,0.00495053,-0.01372002,-0.000
 44852,0.00166385,-0.00082916,0.00102550,-0.00174012,-0.00086373,0.0000
 9193,0.00086662,-0.00083978,0.03826796,-0.09461754,0.07833597,0.000304
 14,0.00559590,-0.00285057,-0.00027699,-0.00006830,-0.00001249,0.000123
 89,-0.00014251,0.00017828,0.00005437,0.00007448,0.00010837,0.00005126,
 0.00014275,0.00019929,0.00012879,-0.00008460,0.00039309,-0.00009748,-0
 .00014095,-0.00008319,-0.00012025,-0.00003968,-0.00014546,0.00013645,0
 .00043723,-0.00021185,-0.00001500,-0.00000061,0.00014344,-0.00010550,-
 0.00006206,-0.00027973,-0.04652278,0.09222000,-0.00151219,0.00077382,0
 .00050823,-0.01059025,0.01359147,-0.02544729,-0.00011398,0.00147632,0.
 00080119,0.00296269,-0.00464488,-0.00164304,0.00004385,0.00081751,-0.0
 0194765,-0.07680205,0.07705776,-0.20357552,-0.00141507,-0.00343680,0.0
 0841579,-0.00001018,-0.00024238,0.00035140,0.00013793,0.00006635,-0.00
 009648,0.00113636,-0.00068097,0.00029247,0.00019258,-0.00008234,0.0003
 0354,-0.00005350,-0.00112817,0.00030608,0.00006788,0.00004379,0.000101
 36,-0.00008093,0.00000429,0.00030411,0.00023015,-0.00005224,0.00024981
 ,-0.00012182,0.00004260,-0.00013743,-0.00020886,-0.00029218,-0.0005789
 2,0.08675872,-0.08249003,0.21980266,0.00070618,0.00145313,0.00005033,0
 .00232564,0.00966233,-0.00124681,-0.00084337,0.00116736,0.00205956,0.0
 0023634,-0.00016287,-0.00030580,-0.00010885,0.00015895,-0.00003200,-0.
 06443496,-0.05388792,0.00069750,-0.01603654,-0.03738876,0.00211391,0.0
 0003918,-0.00016069,-0.00007530,-0.00044574,-0.00015562,0.00036789,0.0
 0000404,-0.00000111,0.00009087,0.00047813,0.00063086,0.00025220,-0.000
 09997,-0.00033563,0.00005631,0.00009917,0.00005358,0.00018410,-0.00007
 870,-0.00012908,0.00017336,0.00014041,-0.00009661,-0.00003864,-0.00004
 124,0.00003954,-0.00001903,0.00001321,-0.00003299,-0.00003372,0.004476
 98,0.01250566,0.00044431,0.07986902,-0.00077780,0.00010826,0.00034638,
 -0.00393718,-0.01535403,0.00065796,0.00220222,-0.00024831,-0.00330880,
 -0.00024182,0.00029518,0.00157005,0.00037616,0.00056498,0.00001279,-0.
 06324587,-0.29344812,0.01007592,0.00004818,0.00132516,-0.00027533,0.00
 012896,0.00042492,-0.00006493,0.00091846,0.00042391,-0.00009213,-0.000
 10586,0.00009959,-0.00008879,-0.00047668,-0.00103471,-0.00022488,0.000
 03111,0.00049659,0.00005085,-0.00008358,0.00007697,0.00001361,-0.00000
 788,-0.00000832,-0.00011756,-0.00000244,0.00077210,-0.00058607,0.00009
 121,0.00000350,0.00030371,-0.00010748,0.00000011,-0.00004613,-0.002451
 55,-0.01053587,-0.00018620,0.06789755,0.31321529,-0.00116703,0.0000020
 6,0.00045453,-0.00648616,-0.02713570,-0.00017600,0.00265742,-0.0015412
 3,-0.00438099,-0.00058951,-0.00182861,0.00028156,0.00003462,0.00039968
 ,0.00048790,0.00072318,0.01166397,-0.05031333,0.00254028,0.00159303,-0
 .00028464,-0.00019135,0.00017348,-0.00000042,0.00040399,0.00030135,0.0
 0021489,0.00008041,0.00007973,-0.00004385,-0.00047135,-0.00163134,-0.0
 0004371,0.00011719,-0.00011004,0.00012861,-0.00008096,0.00022426,0.000
 10715,-0.00009447,0.00016167,0.00007019,0.00046047,0.00047065,-0.00071
 393,0.00005449,-0.00003918,0.00019426,-0.00002328,0.00004568,0.0000292
 4,0.00609397,0.02480302,0.00012482,-0.00542476,-0.00812060,0.05251128,
 0.00002089,-0.00000753,-0.00011282,0.00005248,-0.00072421,-0.00017080,
 0.00020748,0.00013446,0.00053748,0.00000027,-0.00015558,-0.00017613,0.
 00009638,0.00009074,-0.00014783,-0.01328868,-0.04002135,0.01101685,-0.
 08075131,-0.08164318,0.04378483,0.00003321,0.00016476,-0.00000331,0.00
 018877,0.00016287,-0.00000055,-0.00010663,0.00005348,-0.00003481,0.000
 15964,0.00014521,-0.00024915,-0.00041571,0.00043364,-0.00016748,0.0002
 8454,0.00029178,0.00041294,0.00003717,0.00011195,0.00011937,-0.0000387
 5,0.00012623,-0.00010746,0.00005581,-0.00002834,0.00006238,-0.00002506
 ,0.00001137,-0.00001117,0.00185977,-0.00023261,-0.00075461,-0.00745210
 ,0.00019890,0.00086721,0.09446030,0.00001130,-0.00019265,0.00001259,-0
 .00026956,0.00030640,-0.00001454,0.00005440,-0.00007399,-0.00042466,-0
 .00006878,-0.00005619,-0.00011507,-0.00002602,-0.00000793,0.00001495,0
 .00228927,0.00021036,0.00205122,-0.10371762,-0.36696507,0.07994274,-0.
 00001940,0.00001724,-0.00002612,-0.00005585,-0.00000290,0.00002390,-0.
 00000325,0.00003842,0.00001153,0.00007630,-0.00002067,0.00010077,0.000
 27639,-0.00026290,0.00020066,0.00054063,-0.00048302,-0.00110751,-0.000
 01581,-0.00001132,0.00011664,0.00003968,-0.00001434,0.00002269,-0.0000
 2928,0.00002413,-0.00002683,0.00000462,-0.00001378,-0.00001473,0.00109
 581,0.00136294,-0.00045927,-0.00029215,0.00198368,-0.00021343,0.107549
 98,0.38550558,0.00018942,-0.00061420,-0.00020977,0.00071073,0.00189439
 ,0.00030686,0.00154401,0.00001210,0.00081618,0.00015734,-0.00022319,-0
 .00059663,0.00004675,-0.00012636,-0.00007295,-0.00748704,0.00136205,-0
 .00268533,0.06378548,0.12107724,-0.06030962,0.00009883,-0.00003999,-0.
 00004282,-0.00025383,-0.00012292,-0.00001268,-0.00005942,0.00009633,-0
 .00002240,-0.00073779,-0.00005268,-0.00015220,-0.00002768,0.00008034,-
 0.00010676,-0.00025635,-0.00134900,-0.00174520,0.00011926,0.00027371,0
 .00023613,-0.00022839,-0.00019154,0.00012344,-0.00000692,0.00002327,-0
 .00017537,0.00005110,-0.00004024,-0.00003015,0.00083034,-0.00174413,0.
 00108343,0.00038939,-0.00028478,0.00082535,-0.04861307,-0.09262575,0.0
 5688948,-0.00037379,0.00083378,0.00180983,-0.00625712,-0.00177901,-0.0
 0278373,-0.00007747,-0.00081594,-0.00084240,-0.00000111,0.00012632,-0.
 00042123,0.00011416,-0.00003381,-0.00008595,-0.01481131,0.02680570,0.0
 2932132,-0.08616061,0.05962511,0.08813280,-0.00064082,-0.00003672,-0.0
 0001661,0.00004783,-0.00006273,0.00000472,0.00003178,0.00004540,-0.000
 03494,0.00021771,0.00001760,0.00002782,-0.00001233,0.00009125,0.000019
 98,0.00036138,0.00026308,0.00025203,0.00012369,-0.00019976,0.00029154,
 0.00010022,0.00001893,0.00001008,-0.00000538,-0.00000925,0.00004455,-0
 .00000362,0.00001551,0.00000968,0.00015103,0.00043116,-0.00031102,0.00
 115316,-0.00045460,0.00049565,0.00462153,-0.00744067,-0.01025218,0.101
 42107,0.00000063,0.00028646,0.00023101,-0.00161560,0.00039102,0.000825
 68,-0.00022436,-0.00013073,-0.00030777,-0.00027791,0.00026647,-0.00012
 856,0.00002729,-0.00009488,0.00014973,-0.00202415,0.00309904,0.0033521
 4,0.06937772,-0.20715441,-0.16268687,-0.00016745,0.00002980,0.00005056
 ,-0.00000469,-0.00003640,-0.00001655,0.00000313,-0.00003032,-0.0000275
 5,0.00019593,0.00013502,0.00006837,-0.00013904,0.00006619,0.00000307,0
 .00038028,0.00000645,0.00016811,0.00008683,0.00012421,-0.00026897,-0.0
 0015814,-0.00007111,0.00003681,0.00000621,0.00000034,-0.00000541,0.000
 01323,0.00002174,0.00005184,-0.00045047,-0.00042578,-0.00017844,-0.000
 92553,0.00083913,0.00070155,0.01333744,-0.02134397,-0.02740465,-0.0774
 4136,0.22402174,-0.00015727,-0.00036821,-0.00065644,0.00242632,0.00062
 234,0.00007646,-0.00018346,0.00035201,0.00004566,0.00049895,-0.0003566
 3,0.00049424,0.00001455,0.00010729,-0.00033277,-0.00835229,0.00125562,
 -0.00507951,0.11744426,-0.20008428,-0.21272955,0.00027987,-0.00004216,
 0.00005299,0.00006844,0.00007471,0.00001693,0.00003541,0.00000201,0.00
 007310,0.00004530,-0.00006417,0.00002987,0.00013267,-0.00008845,0.0000
 6436,0.00007499,0.00031828,0.00013257,-0.00010001,-0.00032690,0.000388
 46,0.00029415,0.00014973,-0.00010538,-0.00000521,-0.00000610,0.0000592
 2,-0.00003818,-0.00001624,-0.00005719,-0.00085103,0.00019010,0.0007814
 2,0.00029634,0.00036494,0.00052707,-0.00625186,0.01253020,0.00588101,-
 0.10567194,0.18538590,0.21033748\\0.00000006,0.00000005,0.,0.00000005,
 0.00000009,-0.00000013,0.00000005,0.00000004,0.00000032,-0.00000016,-0
 .00000033,0.00000004,-0.00000027,-0.00000022,0.00000002,0.,0.00000016,
 0.00000007,0.00000038,0.00000003,0.00000006,-0.00000014,0.00000001,-0.
 00000025,0.00000002,0.00000020,-0.00000043,0.00000015,0.00000032,-0.00
 000025,0.,-0.00000012,0.00000027,0.00000022,0.00000012,0.00000025,0.00
 000006,-0.00000010,0.00000043,-0.00000022,-0.00000016,-0.00000001,-0.0
 0000028,-0.00000011,-0.00000034,-0.00000036,-0.00000037,0.00000011,-0.
 00000049,-0.00000041,-0.00000021,0.00000030,0.00000031,-0.00000008,0.0
 0000011,0.00000018,-0.00000026,0.00000024,0.00000011,0.00000028,0.0000
 0027,0.00000019,0.00000008\\\@


 The best way to pay for a lovely moment is to enjoy it.
 -- Richard Bach
 File lengths (MBytes):  RWF=     45 Int=      0 D2E=      0 Chk=      3 Scr=      1
 Normal termination of Gaussian 16 at Mon Jun 26 17:33:35 2023.
real 617.40
user 2204.81
sys 14.69
