 Entering Gaussian System, Link 0=g16
 Input=gaussian_test.inp
 Output=gaussian_test.log
 Initial command:
 /sw/restricted/lms/sw/Gaussian/g16_B01/g16/l1.exe "/scratch/user/peterchao1/peterchao1/6097789_1659647563000000665642122/Gau-209695.inp" -scrdir="/scratch/user/peterchao1/peterchao1/6097789_1659647563000000665642122/"
 Entering Link 1 = /sw/restricted/lms/sw/Gaussian/g16_B01/g16/l1.exe PID=    209696.
  
 Copyright (c) 1988-2017, Gaussian, Inc.  All Rights Reserved.
  
 This is part of the Gaussian(R) 16 program.  It is based on
 the Gaussian(R) 09 system (copyright 2009, Gaussian, Inc.),
 the Gaussian(R) 03 system (copyright 2003, Gaussian, Inc.),
 the Gaussian(R) 98 system (copyright 1998, Gaussian, Inc.),
 the Gaussian(R) 94 system (copyright 1995, Gaussian, Inc.),
 the Gaussian 92(TM) system (copyright 1992, Gaussian, Inc.),
 the Gaussian 90(TM) system (copyright 1990, Gaussian, Inc.),
 the Gaussian 88(TM) system (copyright 1988, Gaussian, Inc.),
 the Gaussian 86(TM) system (copyright 1986, Carnegie Mellon
 University), and the Gaussian 82(TM) system (copyright 1983,
 Carnegie Mellon University). Gaussian is a federally registered
 trademark of Gaussian, Inc.
  
 This software contains proprietary and confidential information,
 including trade secrets, belonging to Gaussian, Inc.
  
 This software is provided under written license and may be
 used, copied, transmitted, or stored only in accord with that
 written license.
  
 The following legend is applicable only to US Government
 contracts under FAR:
  
                    RESTRICTED RIGHTS LEGEND
  
 Use, reproduction and disclosure by the US Government is
 subject to restrictions as set forth in subparagraphs (a)
 and (c) of the Commercial Computer Software - Restricted
 Rights clause in FAR 52.227-19.
  
 Gaussian, Inc.
 340 Quinnipiac St., Bldg. 40, Wallingford CT 06492
  
  
 ---------------------------------------------------------------
 Warning -- This program may not be used in any manner that
 competes with the business of Gaussian, Inc. or will provide
 assistance to any competitor of Gaussian, Inc.  The licensee
 of this program is prohibited from giving any competitor of
 Gaussian, Inc. access to this program.  By using this program,
 the user acknowledges that Gaussian, Inc. is engaged in the
 business of creating and licensing software in the field of
 computational chemistry and represents and warrants to the
 licensee that it is not a competitor of Gaussian, Inc. and that
 it will not use this program in any manner prohibited above.
 ---------------------------------------------------------------
  

 Cite this work as:
 Gaussian 16, Revision B.01,
 M. J. Frisch, G. W. Trucks, H. B. Schlegel, G. E. Scuseria, 
 M. A. Robb, J. R. Cheeseman, G. Scalmani, V. Barone, 
 G. A. Petersson, H. Nakatsuji, X. Li, M. Caricato, A. V. Marenich, 
 J. Bloino, B. G. Janesko, R. Gomperts, B. Mennucci, H. P. Hratchian, 
 J. V. Ortiz, A. F. Izmaylov, J. L. Sonnenberg, D. Williams-Young, 
 F. Ding, F. Lipparini, F. Egidi, J. Goings, B. Peng, A. Petrone, 
 T. Henderson, D. Ranasinghe, V. G. Zakrzewski, J. Gao, N. Rega, 
 G. Zheng, W. Liang, M. Hada, M. Ehara, K. Toyota, R. Fukuda, 
 J. Hasegawa, M. Ishida, T. Nakajima, Y. Honda, O. Kitao, H. Nakai, 
 T. Vreven, K. Throssell, J. A. Montgomery, Jr., J. E. Peralta, 
 F. Ogliaro, M. J. Bearpark, J. J. Heyd, E. N. Brothers, K. N. Kudin, 
 V. N. Staroverov, T. A. Keith, R. Kobayashi, J. Normand, 
 K. Raghavachari, A. P. Rendell, J. C. Burant, S. S. Iyengar, 
 J. Tomasi, M. Cossi, J. M. Millam, M. Klene, C. Adamo, R. Cammi, 
 J. W. Ochterski, R. L. Martin, K. Morokuma, O. Farkas, 
 J. B. Foresman, and D. J. Fox, Gaussian, Inc., Wallingford CT, 2016.
 
 ******************************************
 Gaussian 16:  ES64L-G16RevB.01 20-Dec-2017
                 4-Aug-2022 
 ******************************************
 %nprocshared=4
 Will use up to    4 processors via shared memory.
 %mem=8000mb
 ----------------------------------------------------------------------
 #T wB97XD/def2svpp opt=tight freq int(grid=ultrafine) scf=(verytight,q
 c)
 ----------------------------------------------------------------------
 --------------
 Comment gs min
 --------------
 Symbolic Z-matrix:
 Charge =  0 Multiplicity = 1
 N                     2.81496  -0.5902   -1.28965 
 C                     2.35988  -0.10824   0.01837 
 C                     2.91732  -0.92107   1.2181 
 C                     2.44456  -0.26292   2.54922 
 N                     0.98455  -0.25072   2.73322 
 C                     2.45104  -2.39586   1.16917 
 O                     1.03545  -2.50989   1.0639 
 C                     4.46533  -0.92335   1.21131 
 O                     4.99839   0.39716   1.25129 
 H                     2.41084   0.00449  -2.0149 
 H                     2.39999  -1.51107  -1.45577 
 H                     1.26418  -0.11631   0.01538 
 H                     2.65675   0.94371   0.11261 
 H                     2.81014   0.76788   2.62388 
 H                     2.87592  -0.81232   3.39513 
 H                     0.57989   0.46248   2.12222 
 H                     0.78642   0.08718   3.67843 
 H                     2.76382  -2.9352    2.07082 
 H                     2.88768  -2.92459   0.31467 
 H                     0.67188  -1.91826   1.76087 
 H                     4.87243  -1.43014   0.329 
 H                     4.85163  -1.45506   2.08838 
 H                     4.94827   0.73745   0.33856 
 

 GradGradGradGradGradGradGradGradGradGradGradGradGradGradGradGradGradGrad
 Initialization pass.
                           ----------------------------
                           !    Initial Parameters    !
                           ! (Angstroms and Degrees)  !
 --------------------------                            --------------------------
 ! Name  Definition              Value          Derivative Info.                !
 --------------------------------------------------------------------------------
 ! R1    R(1,2)                  1.4664         estimate D2E/DX2                !
 ! R2    R(1,10)                 1.0213         estimate D2E/DX2                !
 ! R3    R(1,11)                 1.0236         estimate D2E/DX2                !
 ! R4    R(2,3)                  1.5527         estimate D2E/DX2                !
 ! R5    R(2,12)                 1.0957         estimate D2E/DX2                !
 ! R6    R(2,13)                 1.0971         estimate D2E/DX2                !
 ! R7    R(3,4)                  1.5584         estimate D2E/DX2                !
 ! R8    R(3,6)                  1.5475         estimate D2E/DX2                !
 ! R9    R(3,8)                  1.548          estimate D2E/DX2                !
 ! R10   R(4,5)                  1.4716         estimate D2E/DX2                !
 ! R11   R(4,14)                 1.0963         estimate D2E/DX2                !
 ! R12   R(4,15)                 1.097          estimate D2E/DX2                !
 ! R13   R(5,16)                 1.0226         estimate D2E/DX2                !
 ! R14   R(5,17)                 1.0232         estimate D2E/DX2                !
 ! R15   R(6,7)                  1.4241         estimate D2E/DX2                !
 ! R16   R(6,18)                 1.0962         estimate D2E/DX2                !
 ! R17   R(6,19)                 1.0956         estimate D2E/DX2                !
 ! R18   R(7,20)                 0.9839         estimate D2E/DX2                !
 ! R19   R(8,9)                  1.4246         estimate D2E/DX2                !
 ! R20   R(8,21)                 1.0959         estimate D2E/DX2                !
 ! R21   R(8,22)                 1.096          estimate D2E/DX2                !
 ! R22   R(9,23)                 0.9754         estimate D2E/DX2                !
 ! A1    A(2,1,10)             108.6185         estimate D2E/DX2                !
 ! A2    A(2,1,11)             108.3384         estimate D2E/DX2                !
 ! A3    A(10,1,11)            104.3707         estimate D2E/DX2                !
 ! A4    A(1,2,3)              113.9387         estimate D2E/DX2                !
 ! A5    A(1,2,12)             107.7868         estimate D2E/DX2                !
 ! A6    A(1,2,13)             107.9263         estimate D2E/DX2                !
 ! A7    A(3,2,12)             110.9321         estimate D2E/DX2                !
 ! A8    A(3,2,13)             109.7819         estimate D2E/DX2                !
 ! A9    A(12,2,13)            106.134          estimate D2E/DX2                !
 ! A10   A(2,3,4)              109.2688         estimate D2E/DX2                !
 ! A11   A(2,3,6)              111.4873         estimate D2E/DX2                !
 ! A12   A(2,3,8)              110.8792         estimate D2E/DX2                !
 ! A13   A(4,3,6)              109.7601         estimate D2E/DX2                !
 ! A14   A(4,3,8)              107.9226         estimate D2E/DX2                !
 ! A15   A(6,3,8)              107.4433         estimate D2E/DX2                !
 ! A16   A(3,4,5)              114.285          estimate D2E/DX2                !
 ! A17   A(3,4,14)             110.7395         estimate D2E/DX2                !
 ! A18   A(3,4,15)             109.1384         estimate D2E/DX2                !
 ! A19   A(5,4,14)             108.3332         estimate D2E/DX2                !
 ! A20   A(5,4,15)             107.3284         estimate D2E/DX2                !
 ! A21   A(14,4,15)            106.6942         estimate D2E/DX2                !
 ! A22   A(4,5,16)             108.8851         estimate D2E/DX2                !
 ! A23   A(4,5,17)             108.0812         estimate D2E/DX2                !
 ! A24   A(16,5,17)            104.1828         estimate D2E/DX2                !
 ! A25   A(3,6,7)              112.2198         estimate D2E/DX2                !
 ! A26   A(3,6,18)             110.91           estimate D2E/DX2                !
 ! A27   A(3,6,19)             111.3758         estimate D2E/DX2                !
 ! A28   A(7,6,18)             107.7601         estimate D2E/DX2                !
 ! A29   A(7,6,19)             107.4494         estimate D2E/DX2                !
 ! A30   A(18,6,19)            106.879          estimate D2E/DX2                !
 ! A31   A(6,7,20)             105.4749         estimate D2E/DX2                !
 ! A32   A(3,8,9)              111.8815         estimate D2E/DX2                !
 ! A33   A(3,8,21)             112.0662         estimate D2E/DX2                !
 ! A34   A(3,8,22)             110.467          estimate D2E/DX2                !
 ! A35   A(9,8,21)             108.1944         estimate D2E/DX2                !
 ! A36   A(9,8,22)             107.1784         estimate D2E/DX2                !
 ! A37   A(21,8,22)            106.7979         estimate D2E/DX2                !
 ! A38   A(8,9,23)             106.1346         estimate D2E/DX2                !
 ! D1    D(10,1,2,3)          -179.3871         estimate D2E/DX2                !
 ! D2    D(10,1,2,12)           57.0446         estimate D2E/DX2                !
 ! D3    D(10,1,2,13)          -57.1921         estimate D2E/DX2                !
 ! D4    D(11,1,2,3)            67.8088         estimate D2E/DX2                !
 ! D5    D(11,1,2,12)          -55.7595         estimate D2E/DX2                !
 ! D6    D(11,1,2,13)         -169.9962         estimate D2E/DX2                !
 ! D7    D(1,2,3,4)            176.2919         estimate D2E/DX2                !
 ! D8    D(1,2,3,6)            -62.2072         estimate D2E/DX2                !
 ! D9    D(1,2,3,8)             57.4593         estimate D2E/DX2                !
 ! D10   D(12,2,3,4)           -61.8609         estimate D2E/DX2                !
 ! D11   D(12,2,3,6)            59.6399         estimate D2E/DX2                !
 ! D12   D(12,2,3,8)           179.3064         estimate D2E/DX2                !
 ! D13   D(13,2,3,4)            55.1237         estimate D2E/DX2                !
 ! D14   D(13,2,3,6)           176.6246         estimate D2E/DX2                !
 ! D15   D(13,2,3,8)           -63.7089         estimate D2E/DX2                !
 ! D16   D(2,3,4,5)             62.325          estimate D2E/DX2                !
 ! D17   D(2,3,4,14)           -60.3477         estimate D2E/DX2                !
 ! D18   D(2,3,4,15)          -177.512          estimate D2E/DX2                !
 ! D19   D(6,3,4,5)            -60.2153         estimate D2E/DX2                !
 ! D20   D(6,3,4,14)           177.112          estimate D2E/DX2                !
 ! D21   D(6,3,4,15)            59.9477         estimate D2E/DX2                !
 ! D22   D(8,3,4,5)           -177.0199         estimate D2E/DX2                !
 ! D23   D(8,3,4,14)            60.3074         estimate D2E/DX2                !
 ! D24   D(8,3,4,15)           -56.8569         estimate D2E/DX2                !
 ! D25   D(2,3,6,7)            -53.6472         estimate D2E/DX2                !
 ! D26   D(2,3,6,18)          -174.2313         estimate D2E/DX2                !
 ! D27   D(2,3,6,19)            66.8659         estimate D2E/DX2                !
 ! D28   D(4,3,6,7)             67.568          estimate D2E/DX2                !
 ! D29   D(4,3,6,18)           -53.0161         estimate D2E/DX2                !
 ! D30   D(4,3,6,19)          -171.9189         estimate D2E/DX2                !
 ! D31   D(8,3,6,7)           -175.327          estimate D2E/DX2                !
 ! D32   D(8,3,6,18)            64.0889         estimate D2E/DX2                !
 ! D33   D(8,3,6,19)           -54.8139         estimate D2E/DX2                !
 ! D34   D(2,3,8,9)             57.7969         estimate D2E/DX2                !
 ! D35   D(2,3,8,21)           -63.9309         estimate D2E/DX2                !
 ! D36   D(2,3,8,22)           177.1125         estimate D2E/DX2                !
 ! D37   D(4,3,8,9)            -61.845          estimate D2E/DX2                !
 ! D38   D(4,3,8,21)           176.4272         estimate D2E/DX2                !
 ! D39   D(4,3,8,22)            57.4706         estimate D2E/DX2                !
 ! D40   D(6,3,8,9)            179.8557         estimate D2E/DX2                !
 ! D41   D(6,3,8,21)            58.1279         estimate D2E/DX2                !
 ! D42   D(6,3,8,22)           -60.8287         estimate D2E/DX2                !
 ! D43   D(3,4,5,16)           -74.6098         estimate D2E/DX2                !
 ! D44   D(3,4,5,17)           172.8027         estimate D2E/DX2                !
 ! D45   D(14,4,5,16)           49.3618         estimate D2E/DX2                !
 ! D46   D(14,4,5,17)          -63.2257         estimate D2E/DX2                !
 ! D47   D(15,4,5,16)          164.2215         estimate D2E/DX2                !
 ! D48   D(15,4,5,17)           51.634          estimate D2E/DX2                !
 ! D49   D(3,6,7,20)           -49.0249         estimate D2E/DX2                !
 ! D50   D(18,6,7,20)           73.364          estimate D2E/DX2                !
 ! D51   D(19,6,7,20)         -171.7845         estimate D2E/DX2                !
 ! D52   D(3,8,9,23)           -80.2237         estimate D2E/DX2                !
 ! D53   D(21,8,9,23)           43.7045         estimate D2E/DX2                !
 ! D54   D(22,8,9,23)          158.5402         estimate D2E/DX2                !
 --------------------------------------------------------------------------------
 Number of steps in this run=    124 maximum allowed number of steps=    138.
 GradGradGradGradGradGradGradGradGradGradGradGradGradGradGradGradGradGrad

                    Distance matrix (angstroms):
                    1          2          3          4          5
     1  N    0.000000
     2  C    1.466390   0.000000
     3  C    2.531553   1.552670   0.000000
     4  C    3.870560   2.536986   1.558379   0.000000
     5  N    4.432734   3.046677   2.545694   1.471609   0.000000
     6  C    3.072237   2.562393   1.547520   2.540475   3.032898
     7  O    3.520094   2.935161   2.467704   3.039842   2.809461
     8  C    3.014882   2.553513   1.548027   2.511908   3.858040
     9  O    3.492653   2.955885   2.463673   2.939792   4.327445
    10  H    1.021253   2.037030   3.400805   4.572071   4.964280
    11  H    1.023620   2.035345   2.786631   4.195213   4.597781
    12  H    2.081488   1.095734   2.197054   2.799131   2.735491
    13  H    2.084285   1.097092   2.183440   2.727279   3.330242
    14  H    4.142478   2.785499   2.200058   1.096253   2.093390
    15  H    4.690439   3.487769   2.180138   1.097030   2.081057
    16  H    4.212426   2.814298   2.862730   2.045856   1.022607
    17  H    5.408848   3.988735   3.407422   2.036446   1.023159
    18  H    4.098097   3.516734   2.192581   2.733473   3.288010
    19  H    2.833462   2.880659   2.197989   3.503435   4.076870
    20  H    3.957551   3.026850   2.516145   2.550302   1.955484
    21  H    2.749311   2.856014   2.207285   3.490893   4.720902
    22  H    4.038204   3.508231   2.187256   2.725355   4.101288
    23  H    2.994117   2.741802   2.765689   3.486592   4.735182
                    6          7          8          9         10
     6  C    0.000000
     7  O    1.424072   0.000000
     8  C    2.495481   3.781920   0.000000
     9  O    3.781097   4.918429   1.424605   0.000000
    10  H    3.987681   4.206283   3.935765   4.185403   0.000000
    11  H    2.770518   3.034526   3.424085   4.209655   1.615446
    12  H    2.817129   2.623154   3.511257   3.966793   2.334836
    13  H    3.508755   3.932038   2.822059   2.660561   2.338569
    14  H    3.500626   4.040648   2.755951   2.609574   4.718102
    15  H    2.764601   3.421068   2.703261   3.250195   5.491075
    16  H    3.546775   3.187877   4.224562   4.503990   4.547295
    17  H    3.902926   3.693583   4.543372   4.871118   5.921113
    18  H    1.096217   2.045004   2.771540   4.095065   5.045739
    19  H    1.095619   2.040607   2.701463   4.045538   3.772769
    20  H    1.934844   0.983858   3.960066   4.933511   4.580108
    21  H    2.738910   4.053191   1.095919   2.050734   3.689371
    22  H    2.737313   4.089677   1.095990   2.037885   4.992459
    23  H    4.091907   5.136292   1.937313   0.975390   3.537592
                   11         12         13         14         15
    11  H    0.000000
    12  H    2.323726   0.000000
    13  H    2.924327   1.752811   0.000000
    14  H    4.690989   3.158490   2.522087   0.000000
    15  H    4.924022   3.808523   3.729157   1.759598   0.000000
    16  H    4.473218   2.289547   2.929755   2.306284   2.918419
    17  H    5.614091   3.699675   4.116655   2.381359   2.292459
    18  H    3.820649   3.797354   4.346492   3.744439   2.504592
    19  H    2.317399   3.257570   3.880451   4.355778   3.735111
    20  H    3.674090   2.577708   3.853225   3.540097   2.958327
    21  H    3.050396   3.852788   3.254416   3.788246   3.710648
    22  H    4.309835   4.354237   3.804637   3.065274   2.454412
    23  H    3.843071   3.795507   2.311852   3.129731   4.004877
                   16         17         18         19         20
    16  H    0.000000
    17  H    1.614092   0.000000
    18  H    4.039359   3.953391   0.000000
    19  H    4.479439   4.980054   1.760544   0.000000
    20  H    2.409763   2.777039   2.346582   2.830895   0.000000
    21  H    5.022305   5.496946   3.121759   2.484516   4.464654
    22  H    4.682507   4.629546   2.559311   3.026989   4.218071
    23  H    4.726499   5.375740   4.610955   4.202040   5.230992
                   21         22         23
    21  H    0.000000
    22  H    1.759679   0.000000
    23  H    2.168937   2.806833   0.000000
 Framework group  C1[X(C5H14N2O2)]
 Deg. of freedom    63
                         Standard orientation:                         
 ---------------------------------------------------------------------
 Center     Atomic      Atomic             Coordinates (Angstroms)
 Number     Number       Type             X           Y           Z
 ---------------------------------------------------------------------
      1          7           0       -1.167762    1.956221   -0.748746
      2          6           0       -0.405143    0.736590   -1.033726
      3          6           0       -0.100832   -0.124071    0.222236
      4          6           0        0.626293   -1.431519   -0.214128
      5          7           0        1.930320   -1.212163   -0.859907
      6          6           0        0.774468    0.646895    1.239230
      7          8           0        1.963965    1.158861    0.646805
      8          6           0       -1.408948   -0.525395    0.946223
      9          8           0       -2.291770   -1.242837    0.088667
     10          1           0       -1.330258    2.451796   -1.626788
     11          1           0       -0.573005    2.588610   -0.206395
     12          1           0        0.520819    1.031432   -1.539980
     13          1           0       -0.974722    0.144289   -1.760618
     14          1           0       -0.002180   -2.016165   -0.896025
     15          1           0        0.800453   -2.058194    0.669287
     16          1           0        1.775334   -0.864819   -1.809147
     17          1           0        2.374650   -2.123711   -0.995941
     18          1           0        1.068380   -0.001298    2.072988
     19          1           0        0.231527    1.494691    1.671478
     20          1           0        2.358468    0.403495    0.155107
     21          1           0       -1.945977    0.345461    1.338966
     22          1           0       -1.189864   -1.174650    1.801597
     23          1           0       -2.744109   -0.572534   -0.456740
 ---------------------------------------------------------------------
 Rotational constants (GHZ):           1.7711886           1.3213216           1.0548054
   154 basis functions,   281 primitive gaussians,   163 cartesian basis functions
    37 alpha electrons       37 beta electrons
       nuclear repulsion energy       525.1484344754 Hartrees.
 NAtoms=   23 NActive=   23 NUniq=   23 SFac= 1.00D+00 NAtFMM=   60 NAOKFM=F Big=F
 Nuclear repulsion after empirical dispersion term =      525.1307132406 Hartrees.
   1 Symmetry operations used in ECPInt.
 ECPInt:  NShTT=    3403 NPrTT=   13689 LenC2=    3375 LenP2D=   10739.
 LDataN:  DoStor=T MaxTD1= 4 Len=   56
 ExpMin= 1.22D-01 ExpMax= 2.27D+03 ExpMxC= 3.41D+02 IAcc=3 IRadAn=         5 AccDes= 0.00D+00
 Harris functional with IExCor= 4639 and IRadAn=       5 diagonalized for initial guess.
 HarFok:  IExCor= 4639 AccDes= 0.00D+00 IRadAn=         5 IDoV= 1 UseB2=F ITyADJ=14
 ICtDFT=  3500011 ScaDFX=  1.000000  1.000000  1.000000  1.000000
 FoFCou: FMM=F IPFlag=           0 FMFlag=      100000 FMFlg1=           0
         NFxFlg=           0 DoJE=T BraDBF=F KetDBF=T FulRan=T
         wScrn=  0.000000 ICntrl=       500 IOpCl=  0 I1Cent=   200000004 NGrid=           0
         NMat0=    1 NMatS0=      1 NMatT0=    0 NMatD0=    1 NMtDS0=    0 NMtDT0=    0
 Petite list used in FoFCou.
     Minimum is close to point  2 DX=  2.69D-02 DF= -4.02D-07 DXR=  4.29D-02 DFR=  1.85D-03 which will be used.
     Accept linear search using points  1 and  2.
     Minimum is close to point  2 DX= -7.40D-05 DF= -5.68D-14 DXR=  7.41D-05 DFR=  4.57D-09 which will be used.
 SCF Done:  E(RwB97XD) =  -458.366338901     a.u. after    8 cycles
            Convg  =    0.3547D-09                    36 Fock formations.
              S**2 =  0.0000                  -V/T =  2.0091

 **********************************************************************

            Population analysis using the SCF Density.

 **********************************************************************

 Orbital symmetries:
       Occupied  (A) (A) (A) (A) (A) (A) (A) (A) (A) (A) (A) (A)
                 (A) (A) (A) (A) (A) (A) (A) (A) (A) (A) (A) (A)
                 (A) (A) (A) (A) (A) (A) (A) (A) (A) (A) (A) (A)
                 (A)
       Virtual   (A) (A) (A) (A) (A) (A) (A) (A) (A) (A) (A) (A)
                 (A) (A) (A) (A) (A) (A) (A) (A) (A) (A) (A) (A)
                 (A) (A) (A) (A) (A) (A) (A) (A) (A) (A) (A) (A)
                 (A) (A) (A) (A) (A) (A) (A) (A) (A) (A) (A) (A)
                 (A) (A) (A) (A) (A) (A) (A) (A) (A) (A) (A) (A)
                 (A) (A) (A) (A) (A) (A) (A) (A) (A) (A) (A) (A)
                 (A) (A) (A) (A) (A) (A) (A) (A) (A) (A) (A) (A)
                 (A) (A) (A) (A) (A) (A) (A) (A) (A) (A) (A) (A)
                 (A) (A) (A) (A) (A) (A) (A) (A) (A) (A) (A) (A)
                 (A) (A) (A) (A) (A) (A) (A) (A) (A)
 The electronic state is 1-A.
 Alpha  occ. eigenvalues --  -19.24471 -19.21746 -14.44028 -14.42006 -10.33118
 Alpha  occ. eigenvalues --  -10.32583 -10.32068 -10.31633 -10.30766  -1.10210
 Alpha  occ. eigenvalues --   -1.08013  -0.99212  -0.97488  -0.87632  -0.76175
 Alpha  occ. eigenvalues --   -0.74661  -0.74087  -0.64245  -0.60337  -0.59306
 Alpha  occ. eigenvalues --   -0.58341  -0.57827  -0.54230  -0.53609  -0.51469
 Alpha  occ. eigenvalues --   -0.50846  -0.49373  -0.48437  -0.46140  -0.44363
 Alpha  occ. eigenvalues --   -0.42353  -0.41025  -0.40142  -0.35525  -0.33389
 Alpha  occ. eigenvalues --   -0.32667  -0.32044
 Alpha virt. eigenvalues --    0.12091   0.12823   0.15287   0.16304   0.18231
 Alpha virt. eigenvalues --    0.19066   0.19507   0.20199   0.22167   0.23714
 Alpha virt. eigenvalues --    0.24136   0.25408   0.26355   0.26690   0.27801
 Alpha virt. eigenvalues --    0.29755   0.31090   0.32286   0.33081   0.35371
 Alpha virt. eigenvalues --    0.36021   0.38898   0.52420   0.54219   0.54968
 Alpha virt. eigenvalues --    0.56312   0.58975   0.59734   0.63085   0.64303
 Alpha virt. eigenvalues --    0.66263   0.67499   0.67699   0.70098   0.70999
 Alpha virt. eigenvalues --    0.72971   0.74286   0.74539   0.76901   0.77647
 Alpha virt. eigenvalues --    0.78439   0.79224   0.79992   0.80487   0.81641
 Alpha virt. eigenvalues --    0.82775   0.83478   0.84454   0.85415   0.88127
 Alpha virt. eigenvalues --    0.92858   0.93863   0.95656   0.97519   1.00030
 Alpha virt. eigenvalues --    1.05335   1.09876   1.10538   1.13359   1.15136
 Alpha virt. eigenvalues --    1.19430   1.20903   1.21852   1.23339   1.24879
 Alpha virt. eigenvalues --    1.26425   1.33866   1.41051   1.44921   1.46629
 Alpha virt. eigenvalues --    1.48996   1.55666   1.61677   1.73518   1.74599
 Alpha virt. eigenvalues --    1.78553   1.80655   1.86183   1.88747   1.91032
 Alpha virt. eigenvalues --    2.01633   2.02959   2.03376   2.06826   2.08675
 Alpha virt. eigenvalues --    2.12646   2.14098   2.17293   2.20531   2.23917
 Alpha virt. eigenvalues --    2.24885   2.27987   2.36392   2.38706   2.40520
 Alpha virt. eigenvalues --    2.48849   2.52412   2.56913   2.60304   2.61922
 Alpha virt. eigenvalues --    2.69911   2.72035   2.72920   2.75644   2.77108
 Alpha virt. eigenvalues --    2.80350   2.87765   2.92325   2.96940   3.03834
 Alpha virt. eigenvalues --    3.06874   3.07033   3.09100   3.10835   3.14966
 Alpha virt. eigenvalues --    3.46835   3.49448
          Condensed to atoms (all electrons):
 Mulliken charges:
               1
     1  N   -0.526223
     2  C   -0.080874
     3  C   -0.304502
     4  C   -0.049025
     5  N   -0.534747
     6  C    0.079681
     7  O   -0.528639
     8  C    0.080339
     9  O   -0.504580
    10  H    0.221908
    11  H    0.233745
    12  H    0.090248
    13  H    0.093087
    14  H    0.108615
    15  H    0.102485
    16  H    0.234631
    17  H    0.235266
    18  H    0.086097
    19  H    0.101124
    20  H    0.324299
    21  H    0.111452
    22  H    0.098695
    23  H    0.326920
 Sum of Mulliken charges =   0.00000
 Mulliken charges with hydrogens summed into heavy atoms:
               1
     1  N   -0.070571
     2  C    0.102461
     3  C   -0.304502
     4  C    0.162075
     5  N   -0.064850
     6  C    0.266901
     7  O   -0.204340
     8  C    0.290485
     9  O   -0.177660
 Electronic spatial extent (au):  <R**2>=           1308.4226
 Charge=              0.0000 electrons
 Dipole moment (field-independent basis, Debye):
    X=              0.0789    Y=             -0.7776    Z=             -2.3180  Tot=              2.4462
   1 Symmetry operations used in ECPInt.
 ECPInt:  NShTT=    3403 NPrTT=   13689 LenC2=    3375 LenP2D=   10739.
 LDataN:  DoStor=T MaxTD1= 5 Len=  102
 Calling FoFJK, ICntrl=      2127 FMM=F ISym2X=0 I1Cent= 0 IOpClX= 0 NMat=1 NMatS=1 NMatT=0.

 GradGradGradGradGradGradGradGradGradGradGradGradGradGradGradGradGradGrad
 FormGI is forming the generalized inverse of G from B-inverse, IUseBI=4.
 Internal  Forces:  Max     0.014129918 RMS     0.004436547
 Step number   1 out of a maximum of  124
 All quantities printed in internal units (Hartrees-Bohrs-Radians)
 Mixed Optimization -- RFO/linear search
 Second derivative matrix not updated -- first step.
 ITU=  0
     Eigenvalues ---    0.00230   0.00230   0.00230   0.00230   0.00745
     Eigenvalues ---    0.00814   0.01366   0.01373   0.03886   0.03921
     Eigenvalues ---    0.04406   0.04659   0.04710   0.04722   0.04761
     Eigenvalues ---    0.04804   0.05157   0.05247   0.05273   0.05515
     Eigenvalues ---    0.05518   0.09721   0.09729   0.11759   0.11787
     Eigenvalues ---    0.13012   0.13027   0.13948   0.13968   0.14159
     Eigenvalues ---    0.14591   0.16000   0.16000   0.16000   0.16000
     Eigenvalues ---    0.16000   0.16000   0.21943   0.21975   0.21978
     Eigenvalues ---    0.21988   0.26951   0.27425   0.27820   0.27863
     Eigenvalues ---    0.34006   0.34013   0.34100   0.34104   0.34129
     Eigenvalues ---    0.34138   0.34158   0.34171   0.35548   0.36176
     Eigenvalues ---    0.41774   0.41853   0.43766   0.43838   0.43925
     Eigenvalues ---    0.44139   0.50643   0.52291
 Linear search not attempted -- first point.
 Iteration  1 RMS(Cart)=  0.07346530 RMS(Int)=  0.00211545
 Iteration  2 RMS(Cart)=  0.00269904 RMS(Int)=  0.00055810
 Iteration  3 RMS(Cart)=  0.00000481 RMS(Int)=  0.00055807
 Iteration  4 RMS(Cart)=  0.00000000 RMS(Int)=  0.00055807
 Variable       Old X    -DE/DX   Delta X   Delta X   Delta X     New X
                                 (Linear)    (Quad)   (Total)
    R1        2.77108  -0.00088   0.00000  -0.00236  -0.00236   2.76872
    R2        1.92989  -0.00063   0.00000  -0.00138  -0.00138   1.92850
    R3        1.93436  -0.00115   0.00000  -0.00255  -0.00255   1.93181
    R4        2.93412  -0.01413   0.00000  -0.04922  -0.04922   2.88490
    R5        2.07064   0.00822   0.00000   0.02320   0.02320   2.09384
    R6        2.07320   0.00518   0.00000   0.01467   0.01467   2.08788
    R7        2.94491  -0.01374   0.00000  -0.04866  -0.04866   2.89625
    R8        2.92439  -0.00633   0.00000  -0.02171  -0.02171   2.90268
    R9        2.92535  -0.00668   0.00000  -0.02294  -0.02294   2.90241
   R10        2.78094   0.00330   0.00000   0.00897   0.00897   2.78991
   R11        2.07162   0.00693   0.00000   0.01958   0.01958   2.09120
   R12        2.07309   0.00444   0.00000   0.01258   0.01258   2.08567
   R13        1.93245  -0.00052   0.00000  -0.00114  -0.00114   1.93130
   R14        1.93349  -0.00188   0.00000  -0.00417  -0.00417   1.92932
   R15        2.69111  -0.01144   0.00000  -0.02652  -0.02652   2.66458
   R16        2.07155   0.00911   0.00000   0.02575   0.02575   2.09730
   R17        2.07042   0.00543   0.00000   0.01532   0.01532   2.08574
   R18        1.85922  -0.00263   0.00000  -0.00506  -0.00506   1.85416
   R19        2.69211  -0.00720   0.00000  -0.01673  -0.01673   2.67539
   R20        2.07099   0.00596   0.00000   0.01684   0.01684   2.08782
   R21        2.07112   0.00490   0.00000   0.01385   0.01385   2.08497
   R22        1.84322  -0.00809   0.00000  -0.01511  -0.01511   1.82811
    A1        1.89575   0.00097   0.00000   0.01242   0.01223   1.90798
    A2        1.89086   0.00165   0.00000   0.01640   0.01621   1.90707
    A3        1.82161   0.00092   0.00000   0.02127   0.02085   1.84247
    A4        1.98861  -0.00981   0.00000  -0.04452  -0.04471   1.94389
    A5        1.88123   0.01211   0.00000   0.10041   0.10011   1.98134
    A6        1.88367   0.00250   0.00000  -0.00066  -0.00291   1.88076
    A7        1.93613  -0.00472   0.00000  -0.03605  -0.03515   1.90098
    A8        1.91606   0.00052   0.00000  -0.02850  -0.02953   1.88652
    A9        1.85239   0.00038   0.00000   0.01584   0.01405   1.86644
   A10        1.90710   0.00165   0.00000   0.00491   0.00482   1.91192
   A11        1.94582  -0.00082   0.00000  -0.01513  -0.01509   1.93073
   A12        1.93521  -0.00250   0.00000  -0.01596  -0.01589   1.91931
   A13        1.91567  -0.00230   0.00000  -0.01478  -0.01507   1.90061
   A14        1.88360   0.00124   0.00000   0.01880   0.01886   1.90247
   A15        1.87524   0.00276   0.00000   0.02322   0.02320   1.89844
   A16        1.99465  -0.01157   0.00000  -0.05065  -0.05090   1.94375
   A17        1.93277  -0.00312   0.00000  -0.02403  -0.02305   1.90971
   A18        1.90482   0.00127   0.00000  -0.02467  -0.02580   1.87902
   A19        1.89077   0.01228   0.00000   0.10045   0.10034   1.99111
   A20        1.87323   0.00272   0.00000  -0.00215  -0.00441   1.86882
   A21        1.86216  -0.00076   0.00000   0.00528   0.00393   1.86610
   A22        1.90040   0.00242   0.00000   0.02507   0.02439   1.92479
   A23        1.88637   0.00385   0.00000   0.03358   0.03289   1.91926
   A24        1.81833   0.00060   0.00000   0.02948   0.02806   1.84639
   A25        1.95860   0.00083   0.00000   0.00669   0.00669   1.96529
   A26        1.93574  -0.00616   0.00000  -0.03588  -0.03643   1.89931
   A27        1.94388  -0.00106   0.00000  -0.02072  -0.02112   1.92275
   A28        1.88077   0.00640   0.00000   0.06373   0.06396   1.94473
   A29        1.87535  -0.00117   0.00000  -0.01277  -0.01282   1.86253
   A30        1.86539   0.00158   0.00000   0.00199   0.00117   1.86656
   A31        1.84088  -0.00022   0.00000  -0.00129  -0.00129   1.83959
   A32        1.95270   0.00589   0.00000   0.02673   0.02697   1.97967
   A33        1.95592  -0.00795   0.00000  -0.04920  -0.04962   1.90630
   A34        1.92801  -0.00190   0.00000  -0.01730  -0.01759   1.91042
   A35        1.88835   0.00328   0.00000   0.03741   0.03786   1.92621
   A36        1.87062  -0.00243   0.00000  -0.01095  -0.01076   1.85985
   A37        1.86398   0.00330   0.00000   0.01518   0.01435   1.87833
   A38        1.85240   0.00298   0.00000   0.01724   0.01724   1.86964
    D1       -3.13089   0.00149   0.00000   0.05035   0.04994  -3.08095
    D2        0.99562   0.00520   0.00000   0.05217   0.05333   1.04895
    D3       -0.99819  -0.00252   0.00000  -0.01604  -0.01643  -1.01463
    D4        1.18349  -0.00091   0.00000   0.01099   0.01035   1.19384
    D5       -0.97319   0.00281   0.00000   0.01281   0.01374  -0.95945
    D6       -2.96699  -0.00492   0.00000  -0.05540  -0.05603  -3.02302
    D7        3.07687  -0.00211   0.00000  -0.05719  -0.05684   3.02004
    D8       -1.08572  -0.00441   0.00000  -0.08230  -0.08212  -1.16784
    D9        1.00285  -0.00315   0.00000  -0.07370  -0.07332   0.92953
   D10       -1.07968   0.00308   0.00000   0.01492   0.01495  -1.06473
   D11        1.04091   0.00078   0.00000  -0.01019  -0.01033   1.03058
   D12        3.12949   0.00204   0.00000  -0.00159  -0.00153   3.12796
   D13        0.96209   0.00103   0.00000  -0.00468  -0.00492   0.95717
   D14        3.08268  -0.00127   0.00000  -0.02979  -0.03020   3.05248
   D15       -1.11193  -0.00001   0.00000  -0.02119  -0.02140  -1.13333
   D16        1.08778   0.00297   0.00000   0.04783   0.04745   1.13523
   D17       -1.05327  -0.00229   0.00000  -0.02890  -0.02896  -1.08223
   D18       -3.09817  -0.00030   0.00000  -0.00640  -0.00609  -3.10426
   D19       -1.05096   0.00440   0.00000   0.07296   0.07256  -0.97840
   D20        3.09119  -0.00086   0.00000  -0.00377  -0.00386   3.08733
   D21        1.04628   0.00112   0.00000   0.01873   0.01902   1.06530
   D22       -3.08958   0.00165   0.00000   0.04264   0.04242  -3.04716
   D23        1.05256  -0.00361   0.00000  -0.03409  -0.03400   1.01857
   D24       -0.99234  -0.00162   0.00000  -0.01159  -0.01112  -1.00346
   D25       -0.93632   0.00147   0.00000   0.03045   0.03018  -0.90614
   D26       -3.04091  -0.00297   0.00000  -0.03054  -0.03033  -3.07124
   D27        1.16703  -0.00020   0.00000   0.00408   0.00373   1.17076
   D28        1.17928   0.00145   0.00000   0.01665   0.01665   1.19593
   D29       -0.92531  -0.00299   0.00000  -0.04434  -0.04386  -0.96917
   D30       -3.00055  -0.00022   0.00000  -0.00971  -0.00979  -3.01035
   D31       -3.06003   0.00325   0.00000   0.04420   0.04407  -3.01596
   D32        1.11856  -0.00119   0.00000  -0.01679  -0.01644   1.10213
   D33       -0.95668   0.00158   0.00000   0.01784   0.01763  -0.93906
   D34        1.00875   0.00125   0.00000  -0.01414  -0.01429   0.99446
   D35       -1.11581  -0.00153   0.00000  -0.04654  -0.04614  -1.16195
   D36        3.09120   0.00077   0.00000  -0.02207  -0.02236   3.06883
   D37       -1.07940  -0.00007   0.00000  -0.02245  -0.02238  -1.10178
   D38        3.07924  -0.00284   0.00000  -0.05485  -0.05424   3.02499
   D39        1.00305  -0.00055   0.00000  -0.03038  -0.03046   0.97259
   D40        3.13907   0.00050   0.00000  -0.02748  -0.02779   3.11128
   D41        1.01452  -0.00228   0.00000  -0.05988  -0.05965   0.95487
   D42       -1.06166   0.00002   0.00000  -0.03541  -0.03587  -1.09753
   D43       -1.30219   0.00115   0.00000  -0.01443  -0.01346  -1.31565
   D44        3.01598  -0.00270   0.00000  -0.07828  -0.07809   2.93789
   D45        0.86153  -0.00163   0.00000  -0.00430  -0.00483   0.85670
   D46       -1.10350  -0.00549   0.00000  -0.06815  -0.06946  -1.17295
   D47        2.86621   0.00498   0.00000   0.05072   0.05144   2.91765
   D48        0.90118   0.00112   0.00000  -0.01314  -0.01318   0.88800
   D49       -0.85565   0.00047   0.00000  -0.00844  -0.00878  -0.86442
   D50        1.28044  -0.00233   0.00000  -0.00541  -0.00508   1.27536
   D51       -2.99821   0.00208   0.00000   0.02207   0.02208  -2.97612
   D52       -1.40017   0.00114   0.00000   0.00139   0.00106  -1.39911
   D53        0.76279  -0.00270   0.00000  -0.01675  -0.01642   0.74637
   D54        2.76705   0.00152   0.00000   0.01380   0.01380   2.78085
         Item               Value     Threshold  Converged?
 Maximum Force            0.014130     0.000015     NO 
 RMS     Force            0.004437     0.000010     NO 
 Maximum Displacement     0.289313     0.000060     NO 
 RMS     Displacement     0.073992     0.000040     NO 
 GradGradGradGradGradGradGradGradGradGradGradGradGradGradGradGradGradGrad

                    Distance matrix (angstroms):
                    1          2          3          4          5
     1  N    0.000000
     2  C    1.465142   0.000000
     3  C    2.471393   1.526623   0.000000
     4  C    3.805511   2.499009   1.532630   0.000000
     5  N    4.371536   2.992318   2.485458   1.476356   0.000000
     6  C    3.026315   2.518296   1.536033   2.496640   2.892367
     7  O    3.496861   2.878080   2.452033   3.006998   2.662858
     8  C    2.876122   2.508185   1.535888   2.498181   3.818748
     9  O    3.343492   2.929114   2.468259   2.972255   4.365410
    10  H    1.020520   2.043875   3.353718   4.532335   4.949468
    11  H    1.022269   2.044535   2.739840   4.153786   4.551746
    12  H    2.161056   1.108013   2.157570   2.733181   2.630183
    13  H    2.086832   1.104857   2.144468   2.667970   3.296676
    14  H    4.064117   2.750223   2.168247   1.106613   2.176581
    15  H    4.599898   3.443166   2.143223   1.103689   2.086786
    16  H    4.182589   2.779196   2.823667   2.066442   1.022001
    17  H    5.363009   3.955907   3.364683   2.061871   1.020950
    18  H    4.034079   3.471760   2.165913   2.682572   3.163568
    19  H    2.759198   2.825788   2.178648   3.460760   3.943969
    20  H    3.935894   2.970525   2.505259   2.528760   1.808094
    21  H    2.575497   2.796096   2.167253   3.456151   4.631932
    22  H    3.915937   3.463815   2.169172   2.693736   4.047422
    23  H    2.858275   2.737321   2.781596   3.518234   4.772095
                    6          7          8          9         10
     6  C    0.000000
     7  O    1.410036   0.000000
     8  C    2.497351   3.765851   0.000000
     9  O    3.781974   4.905241   1.415753   0.000000
    10  H    3.949039   4.196307   3.795653   4.021507   0.000000
    11  H    2.731179   3.049267   3.280660   4.063152   1.626772
    12  H    2.739535   2.519918   3.466733   3.951432   2.454407
    13  H    3.462496   3.873895   2.763055   2.615384   2.354412
    14  H    3.461291   4.014252   2.714984   2.615256   4.663188
    15  H    2.707510   3.391867   2.679336   3.280398   5.427987
    16  H    3.409374   3.003679   4.212487   4.579353   4.565113
    17  H    3.750628   3.512389   4.541397   4.974413   5.925803
    18  H    1.109842   2.088829   2.746355   4.072317   4.995803
    19  H    1.103725   2.025249   2.687101   4.019182   3.693298
    20  H    1.919829   0.981179   3.952396   4.936164   4.579067
    21  H    2.679817   3.968307   1.104829   2.076917   3.510686
    22  H    2.750876   4.092537   1.103318   2.027848   4.868444
    23  H    4.096222   5.119190   1.935634   0.967396   3.369755
                   11         12         13         14         15
    11  H    0.000000
    12  H    2.424160   0.000000
    13  H    2.938066   1.778131   0.000000
    14  H    4.640361   3.117148   2.450365   0.000000
    15  H    4.847574   3.739157   3.668924   1.775843   0.000000
    16  H    4.450716   2.178245   2.938525   2.424744   2.940601
    17  H    5.569413   3.600037   4.117880   2.524444   2.318348
    18  H    3.767047   3.730343   4.286583   3.691114   2.420663
    19  H    2.216328   3.186171   3.832196   4.309470   3.678338
    20  H    3.698709   2.461282   3.787116   3.526733   2.953611
    21  H    2.822196   3.786919   3.220323   3.753897   3.659999
    22  H    4.182657   4.301122   3.736404   3.000857   2.402094
    23  H    3.706129   3.806381   2.303845   3.140671   4.030104
                   16         17         18         19         20
    16  H    0.000000
    17  H    1.629324   0.000000
    18  H    3.926792   3.800089   0.000000
    19  H    4.343501   4.838332   1.778775   0.000000
    20  H    2.211719   2.589744   2.388080   2.817303   0.000000
    21  H    4.962543   5.445207   3.040973   2.395264   4.396693
    22  H    4.657208   4.602671   2.534861   3.038956   4.224850
    23  H    4.804110   5.476197   4.593172   4.177291   5.226955
                   21         22         23
    21  H    0.000000
    22  H    1.782120   0.000000
    23  H    2.206546   2.804143   0.000000
 Framework group  C1[X(C5H14N2O2)]
 Deg. of freedom    63
                         Standard orientation:                         
 ---------------------------------------------------------------------
 Center     Atomic      Atomic             Coordinates (Angstroms)
 Number     Number       Type             X           Y           Z
 ---------------------------------------------------------------------
      1          7           0       -1.222448    1.868644   -0.679918
      2          6           0       -0.388443    0.713768   -1.022465
      3          6           0       -0.091926   -0.142468    0.206159
      4          6           0        0.631073   -1.423550   -0.224025
      5          7           0        1.960449   -1.125801   -0.792999
      6          6           0        0.798540    0.622613    1.196674
      7          8           0        1.956067    1.150534    0.588700
      8          6           0       -1.403201   -0.520771    0.910712
      9          8           0       -2.318094   -1.199839    0.070359
     10          1           0       -1.448929    2.385603   -1.530166
     11          1           0       -0.681926    2.515352   -0.101440
     12          1           0        0.568673    0.988131   -1.508619
     13          1           0       -0.950417    0.094588   -1.744621
     14          1           0       -0.026092   -2.009471   -0.894415
     15          1           0        0.795050   -2.035133    0.679970
     16          1           0        1.864877   -0.747437   -1.737558
     17          1           0        2.498258   -1.987931   -0.892160
     18          1           0        1.055141   -0.050355    2.041079
     19          1           0        0.245921    1.477564    1.623149
     20          1           0        2.349854    0.405061    0.086791
     21          1           0       -1.867979    0.390550    1.327994
     22          1           0       -1.185485   -1.200050    1.752431
     23          1           0       -2.762993   -0.529489   -0.466811
 ---------------------------------------------------------------------
 Rotational constants (GHZ):           1.9048602           1.3275334           1.0682229
   154 basis functions,   281 primitive gaussians,   163 cartesian basis functions
    37 alpha electrons       37 beta electrons
       nuclear repulsion energy       531.0245844677 Hartrees.
 NAtoms=   23 NActive=   23 NUniq=   23 SFac= 1.00D+00 NAtFMM=   60 NAOKFM=F Big=F
 Nuclear repulsion after empirical dispersion term =      531.0066699489 Hartrees.
   1 Symmetry operations used in ECPInt.
 ECPInt:  NShTT=    3403 NPrTT=   13689 LenC2=    3377 LenP2D=   10785.
 LDataN:  DoStor=T MaxTD1= 4 Len=   56
 Initial guess from the checkpoint file:  "/scratch/user/peterchao1/peterchao1/6097789_1659647563000000665642122/Gau-209696.chk"
 B after Tr=     0.000000    0.000000   -0.000000
         Rot=    0.999984   -0.001884   -0.000457   -0.005288 Ang=  -0.65 deg.
 ExpMin= 1.22D-01 ExpMax= 2.27D+03 ExpMxC= 3.41D+02 IAcc=3 IRadAn=         5 AccDes= 0.00D+00
 Harris functional with IExCor= 4639 and IRadAn=       5 diagonalized for initial guess.
 HarFok:  IExCor= 4639 AccDes= 0.00D+00 IRadAn=         5 IDoV= 1 UseB2=F ITyADJ=14
 ICtDFT=  3500011 ScaDFX=  1.000000  1.000000  1.000000  1.000000
 FoFCou: FMM=F IPFlag=           0 FMFlag=      100000 FMFlg1=           0
         NFxFlg=           0 DoJE=T BraDBF=F KetDBF=T FulRan=T
         wScrn=  0.000000 ICntrl=       500 IOpCl=  0 I1Cent=   200000004 NGrid=           0
         NMat0=    1 NMatS0=      1 NMatT0=    0 NMatD0=    1 NMtDS0=    0 NMtDT0=    0
 Petite list used in FoFCou.
     Accept linear search using points  3 and  4.
     Minimum is close to point  4 DX= -4.82D-02 DF= -2.11D-06 DXR=  4.19D-02 DFR=  3.68D-04 which will be used.
     Accept linear search using points  2 and  3.
     Minimum is close to point  2 DX=  4.10D-02 DF= -8.13D-07 DXR=  3.94D-02 DFR=  1.56D-03 which will be used.
     Accept linear search using points  1 and  2.
     Accept linear search using points  1 and  2.
     Minimum is close to point  2 DX= -7.41D-02 DF= -7.31D-07 DXR=  8.00D-02 DFR=  6.44D-03 which will be used.
     Accept linear search using points  1 and  2.
     Accept linear search using points  2 and  3.
     Minimum is close to point  2 DX=  5.87D-06 DF=  0.00D+00 DXR=  5.87D-06 DFR=  0.00D+00 which will be used.
 SCF Done:  E(RwB97XD) =  -458.371356313     a.u. after    9 cycles
            Convg  =    0.2506D-08                    36 Fock formations.
              S**2 =  0.0000                  -V/T =  2.0089
   1 Symmetry operations used in ECPInt.
 ECPInt:  NShTT=    3403 NPrTT=   13689 LenC2=    3377 LenP2D=   10785.
 LDataN:  DoStor=T MaxTD1= 5 Len=  102
 Calling FoFJK, ICntrl=      2127 FMM=F ISym2X=0 I1Cent= 0 IOpClX= 0 NMat=1 NMatS=1 NMatT=0.

 GradGradGradGradGradGradGradGradGradGradGradGradGradGradGradGradGradGrad
 Using GEDIIS/GDIIS optimizer.
 FormGI is forming the generalized inverse of G from B-inverse, IUseBI=4.
 Internal  Forces:  Max     0.014549908 RMS     0.003204824
 Step number   2 out of a maximum of  124
 All quantities printed in internal units (Hartrees-Bohrs-Radians)
 Mixed Optimization -- RFO/linear search
 Trust test= 6.95D-01 RLast= 3.56D-01 DXMaxT set to 5.05D-01
 ITU=  1  0
 Use linear search instead of GDIIS.
     Eigenvalues ---    0.00221   0.00230   0.00230   0.00239   0.00738
     Eigenvalues ---    0.00814   0.01366   0.01372   0.03944   0.04143
     Eigenvalues ---    0.04253   0.04495   0.04605   0.04640   0.04657
     Eigenvalues ---    0.04871   0.05062   0.05522   0.05662   0.05693
     Eigenvalues ---    0.05778   0.09120   0.09370   0.11411   0.11687
     Eigenvalues ---    0.12613   0.12771   0.13793   0.14005   0.14334
     Eigenvalues ---    0.15083   0.15911   0.16000   0.16000   0.16000
     Eigenvalues ---    0.16000   0.16073   0.21187   0.21940   0.22040
     Eigenvalues ---    0.24406   0.27184   0.27588   0.27756   0.32709
     Eigenvalues ---    0.34009   0.34026   0.34045   0.34106   0.34126
     Eigenvalues ---    0.34145   0.34162   0.34999   0.35862   0.38425
     Eigenvalues ---    0.41795   0.43027   0.43761   0.43839   0.43926
     Eigenvalues ---    0.44139   0.50716   0.52303
 Quartic linear search produced a step of -0.18751.
 Iteration  1 RMS(Cart)=  0.10427798 RMS(Int)=  0.00373376
 Iteration  2 RMS(Cart)=  0.00494059 RMS(Int)=  0.00021318
 Iteration  3 RMS(Cart)=  0.00001057 RMS(Int)=  0.00021299
 Iteration  4 RMS(Cart)=  0.00000000 RMS(Int)=  0.00021299
 Variable       Old X    -DE/DX   Delta X   Delta X   Delta X     New X
                                 (Linear)    (Quad)   (Total)
    R1        2.76872  -0.00392   0.00044  -0.00975  -0.00931   2.75941
    R2        1.92850  -0.00017   0.00026  -0.00111  -0.00085   1.92765
    R3        1.93181  -0.00069   0.00048  -0.00273  -0.00225   1.92955
    R4        2.88490   0.00831   0.00923  -0.00581   0.00342   2.88832
    R5        2.09384  -0.00039  -0.00435   0.01281   0.00846   2.10230
    R6        2.08788   0.00043  -0.00275   0.00964   0.00689   2.09477
    R7        2.89625   0.01016   0.00912   0.00017   0.00929   2.90555
    R8        2.90268   0.00957   0.00407   0.01354   0.01761   2.92029
    R9        2.90241   0.00117   0.00430  -0.01032  -0.00602   2.89639
   R10        2.78991  -0.00282  -0.00168  -0.00082  -0.00251   2.78740
   R11        2.09120   0.00043  -0.00367   0.01251   0.00884   2.10004
   R12        2.08567   0.00028  -0.00236   0.00806   0.00570   2.09137
   R13        1.93130  -0.00040   0.00021  -0.00138  -0.00117   1.93014
   R14        1.92932  -0.00061   0.00078  -0.00354  -0.00276   1.92656
   R15        2.66458  -0.00866   0.00497  -0.03163  -0.02665   2.63793
   R16        2.09730   0.00144  -0.00483   0.01846   0.01363   2.11093
   R17        2.08574   0.00081  -0.00287   0.01086   0.00798   2.09372
   R18        1.85416   0.00088   0.00095  -0.00164  -0.00069   1.85347
   R19        2.67539  -0.00622   0.00314  -0.02138  -0.01824   2.65715
   R20        2.08782  -0.00027  -0.00316   0.00933   0.00618   2.09400
   R21        2.08497   0.00065  -0.00260   0.00963   0.00703   2.09200
   R22        1.82811  -0.00016   0.00283  -0.00914  -0.00631   1.82180
    A1        1.90798   0.00124  -0.00229   0.01603   0.01361   1.92159
    A2        1.90707   0.00087  -0.00304   0.01663   0.01346   1.92054
    A3        1.84247  -0.00019  -0.00391   0.01757   0.01341   1.85587
    A4        1.94389   0.00483   0.00838  -0.00960  -0.00122   1.94267
    A5        1.98134  -0.00283  -0.01877   0.04454   0.02586   2.00720
    A6        1.88076  -0.00158   0.00055  -0.00851  -0.00762   1.87314
    A7        1.90098  -0.00037   0.00659  -0.01868  -0.01232   1.88866
    A8        1.88652  -0.00103   0.00554  -0.01875  -0.01311   1.87341
    A9        1.86644   0.00085  -0.00263   0.00910   0.00668   1.87312
   A10        1.91192  -0.00176  -0.00090   0.00550   0.00392   1.91584
   A11        1.93073   0.00030   0.00283   0.00447   0.00654   1.93727
   A12        1.91931   0.00202   0.00298  -0.01803  -0.01512   1.90419
   A13        1.90061   0.00583   0.00283   0.04092   0.04359   1.94420
   A14        1.90247  -0.00227  -0.00354  -0.01308  -0.01634   1.88613
   A15        1.89844  -0.00413  -0.00435  -0.01963  -0.02376   1.87468
   A16        1.94375   0.01455   0.00954   0.02365   0.03324   1.97699
   A17        1.90971  -0.00351   0.00432  -0.02778  -0.02376   1.88595
   A18        1.87902  -0.00317   0.00484  -0.01426  -0.00948   1.86954
   A19        1.99111  -0.00742  -0.01881   0.01884   0.00024   1.99135
   A20        1.86882  -0.00264   0.00083   0.00191   0.00315   1.87197
   A21        1.86610   0.00182  -0.00074  -0.00465  -0.00537   1.86072
   A22        1.92479  -0.00021  -0.00457   0.01571   0.01102   1.93582
   A23        1.91926   0.00118  -0.00617   0.02730   0.02103   1.94029
   A24        1.84639  -0.00004  -0.00526   0.02039   0.01492   1.86131
   A25        1.96529   0.01141  -0.00125   0.04800   0.04657   2.01187
   A26        1.89931  -0.00240   0.00683  -0.02606  -0.02012   1.87919
   A27        1.92275  -0.00322   0.00396  -0.02856  -0.02459   1.89816
   A28        1.94473  -0.00317  -0.01199   0.03719   0.02489   1.96962
   A29        1.86253  -0.00353   0.00240  -0.01926  -0.01637   1.84616
   A30        1.86656   0.00032  -0.00022  -0.01487  -0.01546   1.85110
   A31        1.83959  -0.00276   0.00024  -0.01380  -0.01356   1.82603
   A32        1.97967  -0.00052  -0.00506   0.01355   0.00849   1.98815
   A33        1.90630  -0.00027   0.00930  -0.03221  -0.02286   1.88345
   A34        1.91042   0.00033   0.00330  -0.00785  -0.00454   1.90588
   A35        1.92621   0.00018  -0.00710   0.02123   0.01410   1.94031
   A36        1.85985   0.00022   0.00202  -0.00429  -0.00230   1.85755
   A37        1.87833   0.00011  -0.00269   0.01030   0.00765   1.88598
   A38        1.86964  -0.00022  -0.00323   0.00918   0.00595   1.87559
    D1       -3.08095   0.00072  -0.00936   0.04035   0.03117  -3.04978
    D2        1.04895  -0.00042  -0.01000   0.03896   0.02882   1.07777
    D3       -1.01463   0.00127   0.00308   0.00671   0.00995  -1.00467
    D4        1.19384  -0.00021  -0.00194   0.00140  -0.00050   1.19334
    D5       -0.95945  -0.00135  -0.00258   0.00001  -0.00284  -0.96229
    D6       -3.02302   0.00034   0.01051  -0.03224  -0.02171  -3.04473
    D7        3.02004  -0.00321   0.01066  -0.11541  -0.10468   2.91536
    D8       -1.16784   0.00308   0.01540  -0.05837  -0.04304  -1.21088
    D9        0.92953  -0.00056   0.01375  -0.09162  -0.07793   0.85160
   D10       -1.06473  -0.00370  -0.00280  -0.07860  -0.08135  -1.14608
   D11        1.03058   0.00259   0.00194  -0.02156  -0.01972   1.01086
   D12        3.12796  -0.00105   0.00029  -0.05481  -0.05461   3.07335
   D13        0.95717  -0.00344   0.00092  -0.08784  -0.08676   0.87041
   D14        3.05248   0.00285   0.00566  -0.03080  -0.02513   3.02736
   D15       -1.13333  -0.00080   0.00401  -0.06405  -0.06002  -1.19335
   D16        1.13523  -0.00182  -0.00890  -0.09036  -0.09912   1.03610
   D17       -1.08223  -0.00023   0.00543  -0.11131  -0.10560  -1.18783
   D18       -3.10426   0.00119   0.00114  -0.08345  -0.08235   3.09658
   D19       -0.97840  -0.00473  -0.01360  -0.12463  -0.13838  -1.11678
   D20        3.08733  -0.00314   0.00072  -0.14558  -0.14486   2.94247
   D21        1.06530  -0.00172  -0.00357  -0.11772  -0.12160   0.94370
   D22       -3.04716  -0.00182  -0.00795  -0.11709  -0.12501   3.11102
   D23        1.01857  -0.00023   0.00637  -0.13804  -0.13148   0.88709
   D24       -1.00346   0.00119   0.00209  -0.11018  -0.10823  -1.11169
   D25       -0.90614   0.00028  -0.00566   0.04409   0.03839  -0.86775
   D26       -3.07124  -0.00179   0.00569  -0.01788  -0.01216  -3.08341
   D27        1.17076   0.00106  -0.00070   0.03158   0.03049   1.20125
   D28        1.19593   0.00201  -0.00312   0.07973   0.07694   1.27287
   D29       -0.96917  -0.00006   0.00822   0.01776   0.02638  -0.94279
   D30       -3.01035   0.00279   0.00184   0.06722   0.06903  -2.94131
   D31       -3.01596   0.00025  -0.00826   0.07620   0.06793  -2.94803
   D32        1.10213  -0.00181   0.00308   0.01422   0.01737   1.11950
   D33       -0.93906   0.00103  -0.00331   0.06368   0.06002  -0.87903
   D34        0.99446  -0.00122   0.00268  -0.07721  -0.07457   0.91989
   D35       -1.16195  -0.00089   0.00865  -0.09015  -0.08157  -1.24352
   D36        3.06883  -0.00105   0.00419  -0.07935  -0.07518   2.99365
   D37       -1.10178   0.00111   0.00420  -0.06486  -0.06063  -1.16241
   D38        3.02499   0.00145   0.01017  -0.07780  -0.06763   2.95736
   D39        0.97259   0.00128   0.00571  -0.06700  -0.06124   0.91135
   D40        3.11128  -0.00222   0.00521  -0.09526  -0.09002   3.02126
   D41        0.95487  -0.00189   0.01119  -0.10820  -0.09703   0.85785
   D42       -1.09753  -0.00205   0.00673  -0.09740  -0.09064  -1.18817
   D43       -1.31565  -0.00003   0.00252  -0.03205  -0.02956  -1.34522
   D44        2.93789  -0.00055   0.01464  -0.08226  -0.06777   2.87011
   D45        0.85670   0.00125   0.00091  -0.03554  -0.03432   0.82237
   D46       -1.17295   0.00073   0.01302  -0.08575  -0.07253  -1.24548
   D47        2.91765  -0.00261  -0.00965  -0.02899  -0.03874   2.87890
   D48        0.88800  -0.00313   0.00247  -0.07921  -0.07695   0.81105
   D49       -0.86442  -0.00205   0.00165  -0.06548  -0.06434  -0.92876
   D50        1.27536   0.00080   0.00095  -0.03669  -0.03510   1.24026
   D51       -2.97612  -0.00256  -0.00414  -0.04610  -0.05037  -3.02650
   D52       -1.39911   0.00024  -0.00020   0.00191   0.00175  -1.39736
   D53        0.74637  -0.00036   0.00308  -0.01435  -0.01132   0.73504
   D54        2.78085  -0.00001  -0.00259   0.00645   0.00388   2.78472
         Item               Value     Threshold  Converged?
 Maximum Force            0.014550     0.000015     NO 
 RMS     Force            0.003205     0.000010     NO 
 Maximum Displacement     0.466347     0.000060     NO 
 RMS     Displacement     0.104044     0.000040     NO 
 GradGradGradGradGradGradGradGradGradGradGradGradGradGradGradGradGradGrad

                    Distance matrix (angstroms):
                    1          2          3          4          5
     1  N    0.000000
     2  C    1.460216   0.000000
     3  C    2.467845   1.528431   0.000000
     4  C    3.799006   2.507971   1.537549   0.000000
     5  N    4.395599   2.978942   2.516336   1.475030   0.000000
     6  C    3.062059   2.533166   1.545351   2.546695   3.066016
     7  O    3.542203   2.920785   2.485677   3.143831   2.981712
     8  C    2.812293   2.493700   1.532701   2.484942   3.826733
     9  O    3.168864   2.874592   2.464436   2.991725   4.342647
    10  H    1.020068   2.048537   3.355675   4.532781   4.964153
    11  H    1.021076   2.048564   2.745249   4.186716   4.670902
    12  H    2.177876   1.112492   2.153275   2.773433   2.652373
    13  H    2.079650   1.108503   2.138861   2.626520   3.162845
    14  H    4.036328   2.793665   2.158306   1.111292   2.179252
    15  H    4.593639   3.448582   2.142548   1.106707   2.090219
    16  H    4.241418   2.804108   2.879395   2.072325   1.021384
    17  H    5.392060   3.964868   3.389990   2.073943   1.019491
    18  H    4.059120   3.480869   2.164220   2.715003   3.347056
    19  H    2.798877   2.838029   2.171813   3.486793   4.110918
    20  H    4.003069   3.044587   2.563262   2.710170   2.185342
    21  H    2.549946   2.802338   2.149845   3.435539   4.643991
    22  H    3.882043   3.451248   2.165796   2.644055   4.052879
    23  H    2.646157   2.690026   2.780506   3.553916   4.752881
                    6          7          8          9         10
     6  C    0.000000
     7  O    1.395932   0.000000
     8  C    2.480880   3.757018   0.000000
     9  O    3.764242   4.910283   1.406101   0.000000
    10  H    3.991157   4.261555   3.734357   3.837778   0.000000
    11  H    2.779989   3.105945   3.198185   3.882468   1.633701
    12  H    2.735498   2.557005   3.452786   3.924902   2.494564
    13  H    3.471992   3.919022   2.767481   2.590384   2.352270
    14  H    3.485493   4.170428   2.617567   2.558801   4.657519
    15  H    2.700610   3.437820   2.710186   3.391213   5.428759
    16  H    3.629963   3.418478   4.206166   4.501372   4.614683
    17  H    3.878616   3.781690   4.549281   4.988230   5.955478
    18  H    1.117054   2.099409   2.720982   4.062639   5.028164
    19  H    1.107951   2.004302   2.617778   3.923069   3.739938
    20  H    1.897889   0.980816   3.987387   5.015956   4.669431
    21  H    2.590142   3.864735   1.108098   2.080973   3.494895
    22  H    2.771609   4.116934   1.107039   2.020694   4.828186
    23  H    4.055065   5.093091   1.928762   0.964057   3.149126
                   11         12         13         14         15
    11  H    0.000000
    12  H    2.455776   0.000000
    13  H    2.939558   1.789069   0.000000
    14  H    4.645776   3.243130   2.456564   0.000000
    15  H    4.859267   3.743720   3.657532   1.778475   0.000000
    16  H    4.629278   2.304389   2.786852   2.425188   2.945300
    17  H    5.680892   3.648713   4.028829   2.567544   2.313491
    18  H    3.810469   3.730684   4.282525   3.672158   2.393709
    19  H    2.264485   3.192066   3.842340   4.288678   3.656495
    20  H    3.771379   2.525474   3.867426   3.762405   3.020216
    21  H    2.715153   3.765663   3.283605   3.680265   3.649006
    22  H    4.151726   4.290765   3.710563   2.820005   2.400107
    23  H    3.472675   3.782194   2.335298   3.149941   4.134190
                   16         17         18         19         20
    16  H    0.000000
    17  H    1.636807   0.000000
    18  H    4.133658   3.933680   0.000000
    19  H    4.564407   4.965089   1.777680   0.000000
    20  H    2.689905   2.897123   2.375204   2.798240   0.000000
    21  H    4.986700   5.447332   2.935140   2.238385   4.343157
    22  H    4.637685   4.589046   2.542302   3.022907   4.270408
    23  H    4.742172   5.500669   4.560442   4.051218   5.286480
                   21         22         23
    21  H    0.000000
    22  H    1.792749   0.000000
    23  H    2.212514   2.799519   0.000000
 Framework group  C1[X(C5H14N2O2)]
 Deg. of freedom    63
                         Standard orientation:                         
 ---------------------------------------------------------------------
 Center     Atomic      Atomic             Coordinates (Angstroms)
 Number     Number       Type             X           Y           Z
 ---------------------------------------------------------------------
      1          7           0       -1.342829    1.663206   -0.865431
      2          6           0       -0.389487    0.578964   -1.084044
      3          6           0       -0.040773   -0.126556    0.226201
      4          6           0        0.694719   -1.443445   -0.071979
      5          7           0        1.945356   -1.253628   -0.830656
      6          6           0        0.797413    0.792008    1.143693
      7          8           0        1.899395    1.396074    0.535936
      8          6           0       -1.335330   -0.463952    0.974171
      9          8           0       -2.272158   -1.172375    0.201118
     10          1           0       -1.628913    2.063889   -1.758822
     11          1           0       -0.899297    2.418606   -0.340790
     12          1           0        0.559658    0.880235   -1.580024
     13          1           0       -0.882304   -0.166667   -1.739745
     14          1           0       -0.026187   -2.139478   -0.552399
     15          1           0        0.966693   -1.892460    0.902298
     16          1           0        1.749984   -1.078542   -1.817772
     17          1           0        2.529624   -2.088200   -0.792155
     18          1           0        1.071733    0.203928    2.052935
     19          1           0        0.155811    1.622860    1.498076
     20          1           0        2.399266    0.653355    0.135315
     21          1           0       -1.765560    0.483425    1.355299
     22          1           0       -1.096639   -1.106627    1.843384
     23          1           0       -2.728718   -0.533073   -0.357675
 ---------------------------------------------------------------------
 Rotational constants (GHZ):           1.8374290           1.3192995           1.0707196
   154 basis functions,   281 primitive gaussians,   163 cartesian basis functions
    37 alpha electrons       37 beta electrons
       nuclear repulsion energy       528.6633300391 Hartrees.
 NAtoms=   23 NActive=   23 NUniq=   23 SFac= 1.00D+00 NAtFMM=   60 NAOKFM=F Big=F
 Nuclear repulsion after empirical dispersion term =      528.6454515317 Hartrees.
   1 Symmetry operations used in ECPInt.
 ECPInt:  NShTT=    3403 NPrTT=   13689 LenC2=    3375 LenP2D=   10780.
 LDataN:  DoStor=T MaxTD1= 4 Len=   56
 Initial guess from the checkpoint file:  "/scratch/user/peterchao1/peterchao1/6097789_1659647563000000665642122/Gau-209696.chk"
 B after Tr=    -0.000000   -0.000000    0.000000
         Rot=    0.998448    0.052415   -0.007562   -0.017257 Ang=   6.39 deg.
 ExpMin= 1.22D-01 ExpMax= 2.27D+03 ExpMxC= 3.41D+02 IAcc=3 IRadAn=         5 AccDes= 0.00D+00
 Harris functional with IExCor= 4639 and IRadAn=       5 diagonalized for initial guess.
 HarFok:  IExCor= 4639 AccDes= 0.00D+00 IRadAn=         5 IDoV= 1 UseB2=F ITyADJ=14
 ICtDFT=  3500011 ScaDFX=  1.000000  1.000000  1.000000  1.000000
 FoFCou: FMM=F IPFlag=           0 FMFlag=      100000 FMFlg1=           0
         NFxFlg=           0 DoJE=T BraDBF=F KetDBF=T FulRan=T
         wScrn=  0.000000 ICntrl=       500 IOpCl=  0 I1Cent=   200000004 NGrid=           0
         NMat0=    1 NMatS0=      1 NMatT0=    0 NMatD0=    1 NMtDS0=    0 NMtDT0=    0
 Petite list used in FoFCou.
     Minimum is close to point  4 DX=  1.02D-01 DF= -9.60D-05 DXR=  7.80D-02 DFR=  6.12D-03 which will be used.
     Accept linear search using points  2 and  3.
     Accept linear search using points  1 and  2.
     Minimum is close to point  2 DX= -6.95D-02 DF= -7.01D-06 DXR=  6.75D-02 DFR=  5.34D-03 which will be used.
     Accept linear search using points  1 and  2.
     Accept linear search using points  1 and  2.
     Accept linear search using points  1 and  2.
     Accept linear search using points  1 and  2.
     Minimum is close to point  2 DX= -4.23D-05 DF= -5.68D-14 DXR=  4.23D-05 DFR=  1.54D-09 which will be used.
 SCF Done:  E(RwB97XD) =  -458.371006125     a.u. after   11 cycles
            Convg  =    0.1124D-08                    41 Fock formations.
              S**2 =  0.0000                  -V/T =  2.0090
   1 Symmetry operations used in ECPInt.
 ECPInt:  NShTT=    3403 NPrTT=   13689 LenC2=    3375 LenP2D=   10780.
 LDataN:  DoStor=T MaxTD1= 5 Len=  102
 Calling FoFJK, ICntrl=      2127 FMM=F ISym2X=0 I1Cent= 0 IOpClX= 0 NMat=1 NMatS=1 NMatT=0.

 GradGradGradGradGradGradGradGradGradGradGradGradGradGradGradGradGradGrad
 Using GEDIIS/GDIIS optimizer.
 FormGI is forming the generalized inverse of G from B-inverse, IUseBI=4.
 Internal  Forces:  Max     0.013069318 RMS     0.002942881
 Step number   3 out of a maximum of  124
 All quantities printed in internal units (Hartrees-Bohrs-Radians)
 Mixed Optimization -- RFO/linear search
 Trust test=-8.84D-02 RLast= 5.39D-01 DXMaxT set to 2.52D-01
 ITU= -1  1  0
 Use linear search instead of GDIIS.
     Eigenvalues ---    0.00209   0.00230   0.00230   0.00342   0.00751
     Eigenvalues ---    0.00815   0.01366   0.01445   0.03979   0.04011
     Eigenvalues ---    0.04164   0.04301   0.04468   0.04642   0.04904
     Eigenvalues ---    0.04938   0.05340   0.05635   0.05740   0.05850
     Eigenvalues ---    0.06349   0.09200   0.09651   0.11698   0.11813
     Eigenvalues ---    0.12728   0.12934   0.13997   0.14120   0.14462
     Eigenvalues ---    0.15088   0.15936   0.15998   0.16000   0.16000
     Eigenvalues ---    0.16023   0.16395   0.21839   0.22051   0.22290
     Eigenvalues ---    0.25826   0.27355   0.27554   0.27865   0.32835
     Eigenvalues ---    0.33999   0.34022   0.34098   0.34124   0.34138
     Eigenvalues ---    0.34151   0.34168   0.34650   0.36000   0.39362
     Eigenvalues ---    0.39796   0.42768   0.43761   0.43852   0.44076
     Eigenvalues ---    0.44173   0.50952   0.52399
 Quartic linear search produced a step of -0.57969.
 Iteration  1 RMS(Cart)=  0.09416376 RMS(Int)=  0.00512233
 Iteration  2 RMS(Cart)=  0.00631230 RMS(Int)=  0.00014237
 Iteration  3 RMS(Cart)=  0.00002344 RMS(Int)=  0.00014135
 Iteration  4 RMS(Cart)=  0.00000001 RMS(Int)=  0.00014135
 Variable       Old X    -DE/DX   Delta X   Delta X   Delta X     New X
                                 (Linear)    (Quad)   (Total)
    R1        2.75941  -0.00164   0.00540  -0.01047  -0.00507   2.75433
    R2        1.92765  -0.00025   0.00050  -0.00060  -0.00010   1.92755
    R3        1.92955  -0.00008   0.00131  -0.00142  -0.00011   1.92944
    R4        2.88832   0.00789  -0.00198   0.03378   0.03180   2.92011
    R5        2.10230  -0.00265  -0.00491  -0.00332  -0.00823   2.09408
    R6        2.09477  -0.00194  -0.00399  -0.00089  -0.00489   2.08988
    R7        2.90555  -0.00241  -0.00539   0.02322   0.01783   2.92338
    R8        2.92029  -0.00477  -0.01021   0.01822   0.00801   2.92830
    R9        2.89639   0.00650   0.00349   0.01238   0.01588   2.91226
   R10        2.78740  -0.00719   0.00145  -0.01454  -0.01308   2.77432
   R11        2.10004  -0.00172  -0.00513  -0.00043  -0.00556   2.09448
   R12        2.09137  -0.00119  -0.00331  -0.00037  -0.00368   2.08769
   R13        1.93014  -0.00126   0.00068  -0.00200  -0.00132   1.92881
   R14        1.92656  -0.00049   0.00160  -0.00173  -0.00014   1.92642
   R15        2.63793   0.00201   0.01545  -0.01510   0.00035   2.63828
   R16        2.11093  -0.00236  -0.00790   0.00131  -0.00659   2.10433
   R17        2.09372  -0.00146  -0.00463   0.00059  -0.00404   2.08968
   R18        1.85347  -0.00223   0.00040  -0.00074  -0.00034   1.85314
   R19        2.65715  -0.00316   0.01057  -0.01555  -0.00497   2.65217
   R20        2.09400  -0.00224  -0.00358  -0.00277  -0.00635   2.08765
   R21        2.09200  -0.00137  -0.00408   0.00027  -0.00380   2.08820
   R22        1.82180   0.00407   0.00366   0.00253   0.00619   1.82799
    A1        1.92159   0.00009  -0.00789   0.00927   0.00148   1.92307
    A2        1.92054   0.00081  -0.00780   0.00962   0.00191   1.92244
    A3        1.85587  -0.00041  -0.00777   0.00418  -0.00340   1.85247
    A4        1.94267   0.00593   0.00071   0.02774   0.02845   1.97112
    A5        2.00720  -0.00457  -0.01499  -0.02737  -0.04250   1.96470
    A6        1.87314  -0.00155   0.00442  -0.00697  -0.00304   1.87010
    A7        1.88866   0.00009   0.00714   0.00330   0.01079   1.89945
    A8        1.87341  -0.00051   0.00760   0.00365   0.01113   1.88455
    A9        1.87312   0.00063  -0.00388   0.00041  -0.00378   1.86934
   A10        1.91584   0.00091  -0.00227  -0.00312  -0.00500   1.91084
   A11        1.93727   0.00102  -0.00379   0.00891   0.00547   1.94274
   A12        1.90419  -0.00085   0.00877   0.00577   0.01457   1.91876
   A13        1.94420  -0.00609  -0.02527   0.01275  -0.01240   1.93180
   A14        1.88613   0.00236   0.00947  -0.00964  -0.00035   1.88577
   A15        1.87468   0.00280   0.01377  -0.01546  -0.00191   1.87278
   A16        1.97699  -0.00815  -0.01927   0.03416   0.01491   1.99190
   A17        1.88595   0.00338   0.01377  -0.00419   0.00975   1.89570
   A18        1.86954   0.00345   0.00549   0.00587   0.01149   1.88103
   A19        1.99135   0.00262  -0.00014  -0.02930  -0.02962   1.96173
   A20        1.87197   0.00007  -0.00183  -0.00454  -0.00658   1.86539
   A21        1.86072  -0.00095   0.00311  -0.00195   0.00102   1.86175
   A22        1.93582   0.00063  -0.00639   0.00365  -0.00262   1.93319
   A23        1.94029  -0.00213  -0.01219   0.00308  -0.00900   1.93130
   A24        1.86131   0.00066  -0.00865   0.00550  -0.00292   1.85839
   A25        2.01187  -0.01307  -0.02700   0.01601  -0.01105   2.00082
   A26        1.87919   0.00419   0.01166  -0.00529   0.00665   1.88584
   A27        1.89816   0.00481   0.01425   0.00367   0.01790   1.91606
   A28        1.96962   0.00134  -0.01443  -0.01374  -0.02811   1.94151
   A29        1.84616   0.00542   0.00949   0.00874   0.01798   1.86414
   A30        1.85110  -0.00172   0.00896  -0.01072  -0.00148   1.84962
   A31        1.82603   0.00564   0.00786   0.00213   0.00999   1.83603
   A32        1.98815  -0.00240  -0.00492  -0.00595  -0.01086   1.97729
   A33        1.88345   0.00330   0.01325   0.00356   0.01673   1.90017
   A34        1.90588   0.00111   0.00263   0.00754   0.01015   1.91603
   A35        1.94031  -0.00184  -0.00818  -0.00986  -0.01802   1.92229
   A36        1.85755   0.00124   0.00133   0.00644   0.00781   1.86536
   A37        1.88598  -0.00143  -0.00443  -0.00128  -0.00577   1.88021
   A38        1.87559  -0.00308  -0.00345  -0.00857  -0.01202   1.86357
    D1       -3.04978  -0.00023  -0.01807   0.00070  -0.01758  -3.06737
    D2        1.07777  -0.00164  -0.01671  -0.00518  -0.02162   1.05615
    D3       -1.00467   0.00149  -0.00577   0.01621   0.01023  -0.99444
    D4        1.19334  -0.00028   0.00029  -0.01563  -0.01545   1.17789
    D5       -0.96229  -0.00169   0.00165  -0.02151  -0.01949  -0.98178
    D6       -3.04473   0.00145   0.01259  -0.00012   0.01237  -3.03237
    D7        2.91536   0.00349   0.06068  -0.04426   0.01638   2.93174
    D8       -1.21088  -0.00292   0.02495  -0.02410   0.00088  -1.21000
    D9        0.85160   0.00059   0.04518  -0.03416   0.01109   0.86270
   D10       -1.14608   0.00188   0.04716  -0.05733  -0.01015  -1.15624
   D11        1.01086  -0.00453   0.01143  -0.03717  -0.02565   0.98521
   D12        3.07335  -0.00102   0.03166  -0.04723  -0.01544   3.05791
   D13        0.87041   0.00239   0.05029  -0.05332  -0.00319   0.86722
   D14        3.02736  -0.00402   0.01457  -0.03316  -0.01868   3.00867
   D15       -1.19335  -0.00050   0.03479  -0.04322  -0.00847  -1.20182
   D16        1.03610   0.00093   0.05746   0.11154   0.16896   1.20507
   D17       -1.18783   0.00083   0.06121   0.12815   0.18924  -0.99859
   D18        3.09658  -0.00145   0.04774   0.12953   0.17730  -3.00931
   D19       -1.11678   0.00318   0.08022   0.09360   0.17390  -0.94288
   D20        2.94247   0.00308   0.08397   0.11021   0.19417   3.13665
   D21        0.94370   0.00081   0.07049   0.11159   0.18224   1.12593
   D22        3.11102   0.00182   0.07247   0.11103   0.18346  -2.98871
   D23        0.88709   0.00172   0.07622   0.12763   0.20374   1.09082
   D24       -1.11169  -0.00055   0.06274   0.12901   0.19180  -0.91989
   D25       -0.86775  -0.00137  -0.02225  -0.05632  -0.07853  -0.94628
   D26       -3.08341   0.00321   0.00705  -0.04562  -0.03856  -3.12197
   D27        1.20125   0.00062  -0.01767  -0.03218  -0.04962   1.15163
   D28        1.27287  -0.00378  -0.04460  -0.04498  -0.08980   1.18307
   D29       -0.94279   0.00080  -0.01529  -0.03427  -0.04983  -0.99262
   D30       -2.94131  -0.00179  -0.04002  -0.02084  -0.06089  -3.00221
   D31       -2.94803  -0.00265  -0.03938  -0.05893  -0.09828  -3.04632
   D32        1.11950   0.00194  -0.01007  -0.04823  -0.05832   1.06118
   D33       -0.87903  -0.00065  -0.03480  -0.03480  -0.06938  -0.94841
   D34        0.91989  -0.00158   0.04323  -0.06558  -0.02232   0.89757
   D35       -1.24352  -0.00004   0.04729  -0.05142  -0.00406  -1.24758
   D36        2.99365  -0.00077   0.04358  -0.05597  -0.01237   2.98128
   D37       -1.16241  -0.00357   0.03515  -0.05952  -0.02444  -1.18685
   D38        2.95736  -0.00202   0.03921  -0.04536  -0.00617   2.95119
   D39        0.91135  -0.00276   0.03550  -0.04991  -0.01449   0.89686
   D40        3.02126   0.00079   0.05219  -0.06067  -0.00849   3.01277
   D41        0.85785   0.00234   0.05625  -0.04651   0.00978   0.86763
   D42       -1.18817   0.00160   0.05254  -0.05106   0.00146  -1.18670
   D43       -1.34522  -0.00011   0.01714  -0.00321   0.01388  -1.33133
   D44        2.87011   0.00003   0.03929  -0.01445   0.02492   2.89503
   D45        0.82237  -0.00010   0.01990  -0.00464   0.01501   0.83738
   D46       -1.24548   0.00003   0.04204  -0.01587   0.02605  -1.21944
   D47        2.87890   0.00031   0.02246  -0.02732  -0.00474   2.87416
   D48        0.81105   0.00045   0.04461  -0.03855   0.00629   0.81734
   D49       -0.92876   0.00363   0.03730   0.01740   0.05484  -0.87392
   D50        1.24026  -0.00029   0.02035   0.01161   0.03182   1.27209
   D51       -3.02650   0.00159   0.02920  -0.00307   0.02612  -3.00038
   D52       -1.39736   0.00013  -0.00101   0.01162   0.01055  -1.38682
   D53        0.73504   0.00130   0.00656   0.00437   0.01101   0.74605
   D54        2.78472  -0.00066  -0.00225   0.00137  -0.00089   2.78383
         Item               Value     Threshold  Converged?
 Maximum Force            0.013069     0.000015     NO 
 RMS     Force            0.002943     0.000010     NO 
 Maximum Displacement     0.441158     0.000060     NO 
 RMS     Displacement     0.093700     0.000040     NO 
 GradGradGradGradGradGradGradGradGradGradGradGradGradGradGradGradGradGrad

                    Distance matrix (angstroms):
                    1          2          3          4          5
     1  N    0.000000
     2  C    1.457531   0.000000
     3  C    2.503536   1.545256   0.000000
     4  C    3.830267   2.524994   1.546986   0.000000
     5  N    4.497171   3.100023   2.530855   1.468106   0.000000
     6  C    3.111437   2.555296   1.549592   2.547123   2.979037
     7  O    3.636307   2.966460   2.480765   3.080273   2.812702
     8  C    2.886890   2.527220   1.541102   2.499059   3.835505
     9  O    3.207207   2.883836   2.460710   3.006123   4.408991
    10  H    1.020014   2.047133   3.387517   4.554935   5.084177
    11  H    1.021016   2.047448   2.777474   4.216669   4.737239
    12  H    2.142929   1.108139   2.172825   2.801039   2.808027
    13  H    2.073163   1.105918   2.160027   2.649661   3.332159
    14  H    4.013308   2.721454   2.171701   1.108351   2.150318
    15  H    4.627044   3.467788   2.158043   1.104760   2.077904
    16  H    4.335081   2.917055   2.885818   2.063881   1.020685
    17  H    5.476244   4.059463   3.401042   2.061647   1.019419
    18  H    4.098865   3.503465   2.170400   2.738520   3.236632
    19  H    2.847356   2.848380   2.187227   3.501754   4.037339
    20  H    4.073380   3.078323   2.540609   2.612445   1.973655
    21  H    2.654465   2.849660   2.167210   3.453867   4.655762
    22  H    3.957412   3.483806   2.179154   2.658661   4.009407
    23  H    2.656971   2.682289   2.763153   3.563777   4.844135
                    6          7          8          9         10
     6  C    0.000000
     7  O    1.396116   0.000000
     8  C    2.489319   3.768371   0.000000
     9  O    3.764449   4.911810   1.403469   0.000000
    10  H    4.034119   4.351456   3.813668   3.891280   0.000000
    11  H    2.834333   3.226577   3.261698   3.909123   1.631526
    12  H    2.755371   2.603513   3.482015   3.935606   2.448149
    13  H    3.493177   3.943496   2.814990   2.624075   2.343326
    14  H    3.499095   4.072324   2.735853   2.681240   4.600379
    15  H    2.794348   3.497044   2.638805   3.270833   5.449806
    16  H    3.491204   3.144331   4.268031   4.658161   4.732957
    17  H    3.828888   3.661135   4.535510   5.014634   6.052704
    18  H    1.113566   2.077406   2.702309   4.047793   5.063797
    19  H    1.105812   2.016133   2.671590   3.960734   3.781060
    20  H    1.904874   0.980637   3.965180   4.980413   4.736243
    21  H    2.616817   3.924465   1.104737   2.063450   3.607304
[...]
 0144536,-0.00168180,-0.00001056,0.00006159,0.00147720,0.00079722,-0.00
 001806,-0.00003412,-0.00004809,-0.00001282,-0.00001479,0.00023656,0.00
 012565,0.00010580,0.00023397,-0.00022450,0.00062763,-0.00049160,0.1009
 8879,0.27268520,0.00016140,0.00045025,0.00022903,-0.00012802,-0.002305
 68,0.00135290,-0.01077370,-0.02744485,-0.00347125,-0.00733119,-0.01175
 953,-0.05467060,0.00256010,0.00353710,0.00338597,0.00307357,-0.0006700
 4,-0.00548316,-0.00079826,0.00095565,0.00072570,-0.00099836,-0.0012887
 6,0.00106908,-0.00005208,0.00116388,0.00010635,-0.00001643,-0.00001134
 ,-0.00001517,-0.00002311,-0.00004180,0.00021405,0.00001767,0.00007479,
 -0.00002693,-0.00048002,0.00086624,-0.00061794,0.00525603,0.01756406,0
 .05454113,0.00023471,-0.00022591,0.00053199,-0.00033854,0.00054409,0.0
 0144576,0.00202011,-0.00465428,0.00524498,-0.07698350,0.04451633,-0.06
 125443,-0.02026588,0.02169853,-0.02765804,0.00007466,-0.00002313,-0.00
 047785,0.00025270,-0.00040647,-0.00014385,0.00088415,-0.00082546,0.001
 92610,-0.00045016,0.00020022,-0.00004749,-0.00003666,0.00000791,0.0001
 6544,0.00001161,0.00003015,0.00000152,0.00020926,0.00011370,0.00021181
 ,-0.00018897,0.00029467,-0.00004364,0.00587373,-0.00617639,0.00979369,
 0.09575916,-0.00035399,0.00086169,-0.00058046,0.00137286,-0.00141767,-
 0.00182979,-0.00476244,0.00665862,-0.01170637,0.04969085,-0.13769302,0
 .11380505,0.00155500,0.00058588,-0.00062831,-0.00100957,0.00118202,-0.
 00170883,0.00033551,-0.00015662,0.00017719,-0.00025013,0.00019284,0.00
 009286,-0.00045246,0.00020690,0.00015161,0.00008957,-0.00000131,-0.000
 24873,-0.00000196,0.00002275,0.00016142,-0.00002896,0.00010278,0.00022
 261,-0.00002080,0.00042228,-0.00020251,0.00993268,-0.01364153,0.021250
 60,-0.05674900,0.14120550,-0.00043310,0.00101822,-0.00164794,0.0029993
 1,-0.00346537,-0.00274532,-0.00884840,0.01574655,-0.02341696,-0.068740
 92,0.11220919,-0.19618313,0.00378083,-0.00389246,0.00458159,-0.0007283
 5,0.00236258,0.00034639,0.00011816,-0.00075534,0.00028312,-0.00217091,
 0.00077999,-0.00033853,0.00032565,-0.00037591,0.00055151,0.00017684,-0
 .00021386,-0.00052445,-0.00007178,0.00002482,-0.00006442,-0.00020945,0
 .00011244,-0.00010567,0.00025625,-0.00029236,0.00025266,0.00141989,-0.
 00235302,0.00311762,0.06926516,-0.11860183,0.21192398,0.00025554,-0.00
 052484,-0.00011875,-0.00009582,0.00124505,0.00088444,0.00011534,0.0001
 6602,-0.00043760,-0.01554885,0.02964180,-0.02540217,-0.10251646,0.1018
 3936,-0.06466517,-0.00001193,0.00013320,0.00000495,-0.00035485,-0.0002
 5292,-0.00098351,-0.00020266,0.00006969,-0.00015630,0.00017879,-0.0002
 6007,0.00011389,0.00001810,0.00001099,0.00004649,0.00006102,-0.0000066
 3,-0.00016531,0.00025546,0.00004736,0.00017429,-0.00043042,-0.00068180
 ,0.00031168,0.00180716,-0.00062232,-0.00070056,-0.00723415,0.00012252,
 0.00168248,0.11806096,-0.00104326,-0.00029347,0.00010781,0.00166651,0.
 00109723,0.00004099,0.00063644,-0.00055448,0.00081522,-0.00605270,-0.0
 0153223,-0.00135681,0.13140623,-0.23395977,0.18236888,0.00074187,-0.00
 008990,0.00039709,-0.00113234,0.00033768,-0.00190848,0.00019510,0.0002
 0323,-0.00021337,-0.00003573,-0.00019365,-0.00021241,0.00010676,0.0001
 0716,-0.00003515,0.00007806,-0.00004518,-0.00002085,-0.00056263,-0.000
 35960,-0.00080556,-0.00010746,-0.00036580,0.00006495,-0.00038984,0.001
 66242,-0.00099784,0.00002024,0.00126357,-0.00076445,-0.12144567,0.2299
 3635,-0.00082248,0.00016117,0.00020657,0.00136235,-0.00043923,-0.00067
 342,0.00000346,-0.00055187,0.00092698,0.00043879,-0.00392175,0.0042201
 4,-0.06999443,0.14704494,-0.17716973,0.00015867,-0.00018208,0.00005860
 ,-0.00027426,0.00002701,-0.00144393,0.00022300,0.00026763,-0.00015655,
 -0.00008907,-0.00008372,-0.00028683,0.00007000,0.00005036,-0.00005873,
 0.00003904,-0.00003025,0.00013179,-0.00014057,-0.00079151,-0.00125098,
 0.00048847,0.00055188,-0.00009433,0.00078943,0.00007205,0.00015441,0.0
 0111377,-0.00056931,0.00122831,0.08147084,-0.17117478,0.19105707,0.000
 40106,-0.00007403,-0.00008101,-0.00040681,-0.00010022,-0.00070613,-0.0
 0685516,-0.00113187,-0.00194032,-0.01002085,0.00989371,0.03920431,-0.0
 7004221,0.03212365,0.06870659,-0.00078401,-0.00033869,-0.00017116,0.00
 067607,-0.00197413,-0.00067632,0.00012602,0.00140201,0.00160504,0.0000
 5665,-0.00035096,-0.00004701,-0.00000837,-0.00001260,0.00003958,-0.000
 04954,0.00000801,-0.00005609,0.00033978,0.00008567,0.00020530,-0.00001
 446,-0.00009893,0.00006811,0.00026371,-0.00052551,0.00027883,0.0010073
 3,0.00072696,-0.00008626,0.00454752,-0.00576615,-0.01551343,0.08073506
 ,-0.00007113,0.00012444,-0.00017798,-0.00002164,-0.00009962,0.00043355
 ,0.00256783,0.00029229,0.00015271,-0.00434673,-0.00366305,-0.00175439,
 0.04584270,-0.04963720,-0.10110886,-0.00087177,0.00076865,-0.00010093,
 -0.00001651,-0.00331907,-0.00065501,-0.00051465,-0.00027349,-0.0006083
 7,0.00023138,0.00017468,-0.00010873,0.00000048,-0.00000810,-0.00003944
 ,-0.00000953,-0.00000401,0.00005819,-0.00005338,-0.00011512,0.00006569
 ,0.00014207,0.00015341,-0.00005244,-0.00042579,0.00028953,0.00095470,0
 .00074646,0.00011986,-0.00018826,-0.00907396,0.00505858,0.02968219,-0.
 03657357,0.04719184,0.00017103,0.00001222,0.00005607,-0.00043136,-0.00
 015389,0.00015939,0.00086901,0.00047912,0.00144504,-0.00329860,-0.0023
 9196,-0.00010793,0.08883908,-0.06347553,-0.39395639,-0.00016075,0.0000
 2179,0.00009907,-0.00017420,0.00013079,0.00043263,-0.00022485,-0.00038
 433,-0.00022342,-0.00001756,0.00015231,0.00005350,-0.00001710,-0.00001
 731,0.00002741,0.00000464,0.00001193,-0.00000198,0.00024059,0.00007030
 ,0.00015278,-0.00008963,0.00002732,0.00006984,-0.00080708,0.00039906,0
 .00003346,-0.00059119,0.00018794,0.00116866,0.00562439,-0.00957350,-0.
 01899578,-0.09030130,0.07499818,0.41062839,0.00027726,-0.00013033,-0.0
 0030771,-0.00060039,-0.00237891,-0.00015792,0.00551316,-0.00409214,0.0
 0575016,-0.00082671,0.00020906,-0.00001231,0.00068250,0.00089051,0.000
 91956,-0.07902629,0.04416130,-0.06292119,-0.03708729,0.01626895,-0.025
 87033,0.00029280,-0.00010419,0.00010662,0.00031828,0.00040432,-0.00000
 074,-0.00006027,-0.00004251,-0.00002586,-0.00004201,0.00021589,-0.0002
 4409,0.00006737,-0.00043401,0.00022824,0.00023757,-0.00042084,0.000514
 13,0.00017405,-0.00002179,0.00014709,0.00009041,0.00027269,0.00020541,
 -0.00004919,-0.00027773,-0.00009142,0.00009486,0.00021018,0.00000664,0
 .10368293,-0.00020702,0.00000321,-0.00002525,-0.00258547,-0.00572749,-
 0.00281664,0.01072206,-0.01831040,0.02631112,0.00068854,0.00133174,0.0
 0238965,0.00003753,0.00008686,-0.00057952,0.04334553,-0.11131621,0.088
 93568,0.00040671,0.00727563,-0.00459100,0.00129303,-0.00011781,0.00079
 840,-0.00054357,0.00034757,-0.00059806,0.00000476,0.00019227,0.0001252
 6,-0.00003009,-0.00003759,0.00019240,0.00007546,0.00043695,-0.00019909
 ,0.00066802,-0.00107873,0.00150921,-0.00033887,0.00047657,-0.00013250,
 -0.00013947,-0.00029675,-0.00137680,-0.00013263,0.00014909,0.00016712,
 0.00004662,-0.00018475,-0.00002387,-0.04822917,0.11857090,0.00032352,0
 .00029918,0.00010080,0.00007774,-0.00015774,0.00072167,-0.00017331,-0.
 00144624,-0.00070701,0.00014177,-0.00141583,0.00089519,0.00016598,0.00
 027874,0.00025415,-0.06420145,0.09126711,-0.19706952,-0.00649726,-0.00
 263654,0.01137663,-0.00049870,0.00047009,-0.00018588,0.00044490,-0.000
 32055,0.00042028,-0.00005008,-0.00000446,0.00008927,-0.00023097,-0.000
 28303,0.00057416,0.00019017,-0.00031369,0.00009585,0.00002076,0.000137
 53,0.00003381,0.00015663,0.00001467,0.00021251,-0.00012902,0.00011740,
 0.00054676,0.00006758,-0.00012712,-0.00010422,0.00003547,0.00012777,-0
 .00000470,0.07852956,-0.09902205,0.20351092,0.00000402,-0.00011618,0.0
 0002336,0.00006469,0.00033527,0.00061742,0.00279174,-0.00202887,-0.007
 62790,-0.00101296,-0.00207863,-0.00021434,0.00050795,0.00143510,0.0007
 2713,-0.06567170,0.02908413,0.05437781,-0.02857212,0.02060599,0.033644
 35,0.00031001,-0.00156623,-0.00163942,0.00004271,0.00038794,-0.0000653
 0,-0.00005187,-0.00001945,-0.00003035,0.00040666,0.00002520,-0.0000650
 4,0.00002881,-0.00021286,0.00017752,-0.00005088,0.00000103,-0.00014719
 ,0.00051030,-0.00048172,-0.00029070,0.00000473,-0.00000729,0.00030530,
 -0.00000110,-0.00011693,-0.00003014,0.00008691,0.00012892,0.00002004,0
 .00556127,-0.00488350,-0.00851851,0.09135676,-0.00017299,-0.00001045,0
 .00044374,0.00050708,0.00103235,-0.00116166,0.00781517,-0.01289861,-0.
 02774394,-0.00362163,-0.00564454,0.00157296,0.00042299,0.00077872,0.00
 049229,0.03366384,-0.10124739,-0.09325618,0.00021758,0.00444809,0.0029
 4122,0.00230381,-0.00026580,-0.00083567,-0.00013461,0.00041793,0.00065
 902,-0.00010362,0.00025726,0.00017982,-0.00013402,-0.00072122,0.001532
 05,0.00008767,-0.00011714,0.00025753,-0.00007030,0.00022959,-0.0001158
 9,0.00056118,-0.00109206,-0.00187850,-0.00017303,0.00017238,0.00005463
 ,-0.00003194,0.00002722,-0.00006926,0.00001108,-0.00018127,0.00003660,
 -0.00449797,0.00829497,0.01426430,-0.03491773,0.10527234,-0.00000642,0
 .00073765,-0.00008798,-0.00008351,-0.00009512,-0.00049034,-0.00036367,
 0.00092194,0.00043566,-0.00049967,-0.00066312,0.00063245,0.00008167,-0
 .00008909,-0.00020736,0.06183543,-0.09357111,-0.23742647,0.00534648,-0
 .00009908,0.00632518,0.00099292,-0.00073326,-0.00020386,-0.00056919,0.
 00046384,0.00049448,-0.00001879,0.00010326,0.00016485,0.00012395,0.000
 32148,0.00027133,-0.00007444,-0.00008079,-0.00006767,-0.00001098,-0.00
 010475,0.00015096,0.00029651,-0.00034351,0.00000184,0.00011940,0.00007
 794,0.00063093,0.00001106,-0.00005709,-0.00003264,-0.00003793,-0.00001
 625,0.00000477,0.00613607,-0.01134820,-0.02027780,-0.07145971,0.102119
 37,0.24776401,-0.00002749,0.00021189,-0.00024078,0.00024778,-0.0003980
 7,0.00061958,0.00146994,-0.00076922,0.00094590,-0.00245020,-0.00644112
 ,-0.00228313,-0.00869834,0.00135128,0.00086391,-0.02873463,0.02930526,
 0.03408954,-0.08454709,0.05707121,0.06197723,-0.00094209,0.00072764,0.
 00008538,0.00086416,0.00051026,-0.00034724,0.00001762,-0.00005830,-0.0
 0006437,-0.00006067,-0.00001712,0.00006688,0.00004482,-0.00050637,0.00
 019859,0.00006128,0.00019561,-0.00011515,-0.00102172,0.00044903,0.0002
 4614,-0.00027463,0.00003095,-0.00017637,0.00104454,0.00203713,0.000758
 30,0.00050086,0.00180853,0.00025486,0.00045119,0.00038505,0.00009360,-
 0.00581207,-0.00058328,-0.00107296,0.12770715,0.00072119,-0.00014945,-
 0.00061627,-0.00081841,-0.00052321,0.00021309,-0.00202698,0.00208940,0
 .00192905,-0.00984118,0.00041691,0.00039072,0.00320427,-0.00102004,0.0
 0735887,0.00567859,0.00585077,0.00377897,0.08885683,-0.19730238,-0.189
 42128,-0.00008040,-0.00055911,-0.00048456,-0.00006831,-0.00080106,-0.0
 0019710,0.00003777,-0.00005546,-0.00007827,0.00002540,0.00024047,-0.00
 042852,0.00007598,0.00034104,0.00076529,-0.00004663,-0.00044858,0.0002
 4879,0.00232190,-0.00000543,-0.00061995,0.00102288,-0.00004523,0.00041
 828,-0.00013385,-0.00252005,-0.00030023,0.00257950,0.00344419,-0.00051
 340,-0.00202632,-0.00020670,-0.00132116,-0.00504983,0.00075119,0.00226
 003,-0.08502453,0.19060220,-0.00111726,-0.00030926,0.00016779,0.001376
 67,0.00023704,-0.00064441,-0.00193809,-0.00090932,0.00171055,-0.005916
 32,0.00062779,0.00224051,0.00224749,0.00574070,-0.00660939,0.00742127,
 0.00080313,-0.00091348,0.09357741,-0.18550061,-0.20526534,0.00093552,-
 0.00079194,-0.00049586,-0.00084289,-0.00069670,-0.00016027,0.00013227,
 0.00011325,-0.00006543,0.00022449,0.00000699,-0.00015245,-0.00021601,0
 .00153745,-0.00119609,-0.00039475,-0.00053307,0.00020333,0.00164188,-0
 .00001287,-0.00061447,0.00013313,-0.00004892,-0.00043080,0.00196781,0.
 00344410,0.00225589,-0.00046770,-0.00176440,-0.00100869,-0.00305331,0.
 00070686,-0.00035561,-0.00002482,0.00014960,0.00147636,-0.09590967,0.1
 7688470,0.20998631,0.00067893,-0.00020074,-0.00047696,-0.00001669,-0.0
 0046430,0.00172153,-0.01204498,0.02024280,0.02301614,-0.00526859,-0.00
 100066,-0.00289292,-0.00098749,0.00031212,0.00221148,-0.00049565,0.002
 42119,0.00190809,0.00085011,-0.00063413,-0.00065950,-0.07641428,0.0544
 9781,0.05012635,0.00681834,-0.01707961,-0.00890974,0.00035002,-0.00012
 448,-0.00008650,-0.00068097,0.00008325,-0.00081318,0.00005043,0.000035
 27,-0.00027370,0.00002686,-0.00003774,-0.00005506,0.00005285,0.0000909
 6,-0.00009237,-0.00000795,-0.00028169,0.00009450,0.00006133,0.00003299
 ,-0.00000050,-0.00063357,0.00025980,0.00007164,0.00015647,-0.00031666,
 0.00002955,-0.00051243,-0.00102767,-0.00093477,0.00020449,0.00074119,0
 .00029300,0.08261340,-0.00024641,0.00120861,0.00009709,0.00005065,-0.0
 0004829,-0.00064990,0.00140707,0.00005061,-0.00355025,-0.00015556,0.00
 038150,0.00089778,0.00020733,0.00014809,-0.00019995,-0.00227481,-0.000
 05453,0.00022694,0.00006442,0.00037056,0.00048057,0.05456642,-0.159218
 06,-0.10505911,0.00047366,-0.04165782,-0.01114597,-0.00043674,0.000075
 09,0.00010330,0.00102562,0.00019675,0.00046712,-0.00006038,0.00003164,
 0.00022403,-0.00034040,0.00024276,0.00002208,-0.00020890,0.00014072,0.
 00018458,-0.00002616,0.00011465,-0.00008107,-0.00003665,-0.00004103,-0
 .00001777,0.00001763,-0.00013514,0.00002787,0.00038608,0.00008611,0.00
 005705,-0.00030153,0.00055020,0.00019848,-0.00019333,-0.00025678,0.000
 02509,-0.05019415,0.19066191,-0.00071326,0.00085654,-0.00103067,0.0002
 6406,0.00003558,-0.00022449,-0.00022251,-0.00048065,-0.00037021,0.0008
 3006,0.00028911,0.00008955,0.00052588,-0.00010750,-0.00003294,0.000206
 41,-0.00081063,0.00035826,-0.00034757,0.00071119,0.00028671,0.05005366
 ,-0.10988076,-0.16126631,-0.00350899,0.01006459,0.01371858,-0.00021211
 ,0.00007771,0.00016116,-0.00011214,0.00027673,-0.00021738,0.00009559,-
 0.00012410,0.00004584,0.00002047,0.00008261,0.00003584,-0.00019839,0.0
 0023837,0.00009325,0.00000234,-0.00012577,0.00044248,0.00009900,-0.000
 06360,-0.00004739,0.00007271,-0.00006227,0.00000055,0.00008465,-0.0000
 1042,-0.00028639,0.00009381,0.00039961,0.00043537,-0.00015738,-0.00035
 880,-0.00011956,-0.05531120,0.11763943,0.16268010,0.00087192,0.0000356
 7,0.00061741,-0.00577450,-0.00146399,0.00173056,-0.01291437,0.00733757
 ,-0.02805454,0.00010689,0.00052386,-0.00230032,0.00077539,-0.00027147,
 0.00029473,-0.00020640,0.00166867,-0.00064145,-0.00012817,-0.00063945,
 0.00074951,-0.08984280,0.02212688,-0.09443464,0.00645314,-0.00641809,0
 .01689833,-0.00005132,-0.00012642,-0.00005116,-0.00010134,-0.00000800,
 0.00000569,-0.00077872,0.00110246,-0.00142178,-0.00004004,0.00015469,0
 .00002649,0.00006782,0.00028670,0.00025391,-0.00066627,-0.00026891,0.0
 0127993,0.00020047,-0.00014536,-0.00019208,0.00004180,0.00007277,0.000
 02147,0.00005930,-0.00072472,0.00032669,-0.00007302,-0.00001026,0.0000
 9096,0.00004802,-0.00001678,-0.00034228,0.00514836,-0.00184946,0.00975
 442,0.09712849,0.00002061,0.00127155,-0.00019898,0.00048595,0.00014835
 ,-0.00040573,0.00323399,0.00078265,0.00161518,0.00037217,0.00033443,0.
 00052422,-0.00044063,-0.00007688,-0.00019108,0.00022887,-0.00021036,-0
 .00065117,0.00005006,0.00008910,0.00014145,0.01740789,-0.05906231,0.03
 553155,0.00815562,-0.01557737,0.03814347,-0.00026437,-0.00000053,0.000
 04774,0.00050054,0.00002759,0.00026540,0.00013661,-0.00016101,0.000153
 52,-0.00019694,0.00007783,-0.00000553,-0.00002550,-0.00016087,0.000170
 28,0.00016644,0.00017113,-0.00021385,-0.00006799,0.00003035,0.00005043
 ,0.00002315,0.00002403,-0.00000701,-0.00030581,-0.00007095,0.00017232,
 -0.00021697,0.00013243,0.00015493,-0.00005867,0.00007706,0.00015654,-0
 .00861639,0.00688044,-0.01917568,-0.01819018,0.07169364,-0.00053232,0.
 00016005,-0.00006502,0.00100851,-0.00038426,0.00006174,0.00164320,-0.0
 0064510,0.00190494,0.00230724,-0.00056079,0.00019026,0.00004276,-0.000
 31463,0.00045811,-0.00082327,0.00035697,-0.00059575,0.00012716,-0.0003
 4447,0.00034129,-0.09095503,0.04515521,-0.26478523,0.00015215,0.008061
 33,-0.00791000,-0.00014291,0.00002660,0.00008306,0.00028177,0.00010112
 ,0.00022014,0.00005611,0.00001655,0.00006926,-0.00002514,0.00000582,-0
 .00000725,-0.00026249,0.00002856,0.00000684,0.00029724,0.00012676,0.00
 052859,0.00016628,-0.00007798,-0.00006340,-0.00005564,0.00006541,-0.00
 000975,-0.00007305,-0.00043784,0.00035705,0.00000775,0.00017527,0.0002
 0241,-0.00000015,0.00005734,-0.00006985,-0.00805018,0.00343380,-0.0159
 0922,0.09427809,-0.05692896,0.28292407,-0.00243020,0.00368561,0.001755
 47,-0.00825394,-0.00172990,0.00306853,0.00077346,-0.00171087,0.0024474
 2,-0.00044070,0.00056475,0.00009593,-0.00011480,-0.00003022,-0.0002387
 9,-0.00011905,-0.00016346,-0.00032927,-0.00021544,0.00046939,-0.000464
 14,0.00676847,-0.00258380,0.01524981,-0.06007311,0.00538439,-0.1289757
 4,0.00091405,0.00063124,-0.00025826,0.00315286,-0.00000365,0.00067024,
 0.00061898,0.00034247,-0.00024438,-0.00145212,0.00056441,-0.00008721,0
 .00026874,-0.00025370,-0.00010363,0.00002416,0.00005761,-0.00044417,-0
 .00016080,0.00015449,0.00023224,-0.00006265,-0.00003247,-0.00000978,0.
 00003273,0.00045787,-0.00030462,0.00008157,-0.00011132,0.00009759,-0.0
 0009293,-0.00013229,0.00027216,0.00005104,-0.00187438,-0.00131952,-0.0
 0032464,-0.00239845,0.00055191,0.06105431,0.00423333,-0.00517235,0.003
 41453,-0.00256166,0.00201942,0.00204419,-0.00058384,0.00001651,0.00005
 169,0.00043866,0.00007405,0.00006714,0.00004582,-0.00008286,-0.0002842
 7,0.00016957,-0.00021209,0.00043689,0.00024711,0.00010894,-0.00028659,
 0.00770947,-0.01469354,0.04702176,-0.00883069,-0.04461183,0.01660905,0
 .00279354,0.00139532,0.00025333,-0.00167959,-0.00045990,-0.00039285,0.
 00049089,-0.00033262,-0.00064682,0.00095794,-0.00062239,-0.00071779,-0
 .00019220,0.00008745,-0.00002134,0.00003768,-0.00003073,-0.00015212,-0
 .00000472,0.00008227,0.00005699,0.00002866,-0.00002067,-0.00001461,-0.
 00005724,0.00009551,-0.00015777,-0.00000586,-0.00018617,-0.00015757,-0
 .00003383,0.00008023,0.00013385,0.00126085,0.00027201,0.00052869,-0.00
 317617,-0.00642031,0.00192322,-0.00128769,0.06861375,0.00221520,0.0032
 7718,-0.00416600,-0.00076061,0.00151177,0.00571190,-0.00064756,-0.0024
 6801,-0.00029676,0.00033909,0.00022374,-0.00075813,-0.00059947,-0.0001
 9300,0.00015452,-0.00051081,0.00126228,0.00032408,-0.00104965,-0.00050
 869,-0.00015967,-0.00144421,0.01198823,-0.01834490,-0.10964451,0.05939
 589,-0.40601311,-0.00070715,-0.00020277,-0.00071559,0.00158490,-0.0003
 0862,-0.00003068,0.00101326,-0.00037716,-0.00203261,0.00100005,-0.0009
 7987,-0.00036358,0.00024117,-0.00015248,-0.00034463,0.00009317,-0.0001
 2055,-0.00014539,0.00000417,0.00014993,0.00013817,-0.00007563,0.000098
 96,-0.00002292,0.00012981,0.00002553,-0.00019792,0.00011894,-0.0002169
 4,-0.00019649,0.00016731,0.00003442,0.00006095,-0.00091570,-0.00338121
 ,0.00115687,0.00111004,0.00065095,0.00206769,0.10833820,-0.06970959,0.
 42417416\\0.00000232,0.00000113,-0.00000016,0.00000091,-0.00000039,0.0
 0000038,-0.00000153,0.00000043,-0.00000075,-0.00000187,-0.00000042,-0.
 00000025,-0.00000169,-0.00000072,-0.00000164,0.00000110,-0.00000044,-0
 .00000060,0.00000052,0.00000052,-0.00000293,0.00000110,0.00000171,0.00
 000153,0.00000036,0.00000015,0.00000346,0.00000301,-0.00000032,-0.0000
 0014,0.00000388,0.00000026,0.00000090,0.00000125,-0.00000020,-0.000002
 15,0.00000039,-0.00000024,-0.00000017,-0.00000203,-0.00000005,0.000000
 90,-0.00000285,-0.00000049,-0.00000006,-0.00000191,-0.00000121,-0.0000
 0308,-0.00000346,-0.00000022,-0.00000249,-0.00000094,0.00000029,0.0000
 0073,0.00000255,-0.00000033,0.00000058,-0.00000120,-0.00000165,-0.0000
 0177,0.00000103,0.00000068,0.00000248,-0.00000131,0.00000065,0.0000026
 3,0.00000036,0.00000086,0.00000259\\\@


 ALMOST ALL THE CHEMICAL PROCESSES WHICH OCCUR IN NATURE,
 WHETHER IN ANIMAL OR VEGETABLE ORGANISMS,
 OR IN THE NON-LIVING SURFACE OF THE EARTH ... 
 TAKE PLACE BETWEEN SUBSTANCES IN SOLUTION

                                    -- W. OSTWALD, 1890
 Job cpu time:       0 days  0 hours 11 minutes  6.4 seconds.
 Elapsed time:       0 days  0 hours  2 minutes 47.7 seconds.
 File lengths (MBytes):  RWF=     72 Int=      0 D2E=      0 Chk=      3 Scr=      1
 Normal termination of Gaussian 16 at Thu Aug  4 16:31:05 2022.
real 1102.09
user 4192.19
sys 19.99
