 Entering Gaussian System, Link 0=g16
 Input=gaussian_test.inp
 Output=gaussian_test.log
 Initial command:
 /sw/restricted/lms/sw/Gaussian/g16_B01/g16/l1.exe "/scratch/user/peterchao1/peterchao1/8626451_1689049220000000711178209/Gau-42393.inp" -scrdir="/scratch/user/peterchao1/peterchao1/8626451_1689049220000000711178209/"
 Entering Link 1 = /sw/restricted/lms/sw/Gaussian/g16_B01/g16/l1.exe PID=     42394.
  
 Copyright (c) 1988-2017, Gaussian, Inc.  All Rights Reserved.
  
 This is part of the Gaussian(R) 16 program.  It is based on
 the Gaussian(R) 09 system (copyright 2009, Gaussian, Inc.),
 the Gaussian(R) 03 system (copyright 2003, Gaussian, Inc.),
 the Gaussian(R) 98 system (copyright 1998, Gaussian, Inc.),
 the Gaussian(R) 94 system (copyright 1995, Gaussian, Inc.),
 the Gaussian 92(TM) system (copyright 1992, Gaussian, Inc.),
 the Gaussian 90(TM) system (copyright 1990, Gaussian, Inc.),
 the Gaussian 88(TM) system (copyright 1988, Gaussian, Inc.),
 the Gaussian 86(TM) system (copyright 1986, Carnegie Mellon
 University), and the Gaussian 82(TM) system (copyright 1983,
 Carnegie Mellon University). Gaussian is a federally registered
 trademark of Gaussian, Inc.
  
 This software contains proprietary and confidential information,
 including trade secrets, belonging to Gaussian, Inc.
  
 This software is provided under written license and may be
 used, copied, transmitted, or stored only in accord with that
 written license.
  
 The following legend is applicable only to US Government
 contracts under FAR:
  
                    RESTRICTED RIGHTS LEGEND
  
 Use, reproduction and disclosure by the US Government is
 subject to restrictions as set forth in subparagraphs (a)
 and (c) of the Commercial Computer Software - Restricted
 Rights clause in FAR 52.227-19.
  
 Gaussian, Inc.
 340 Quinnipiac St., Bldg. 40, Wallingford CT 06492
  
  
 ---------------------------------------------------------------
 Warning -- This program may not be used in any manner that
 competes with the business of Gaussian, Inc. or will provide
 assistance to any competitor of Gaussian, Inc.  The licensee
 of this program is prohibited from giving any competitor of
 Gaussian, Inc. access to this program.  By using this program,
 the user acknowledges that Gaussian, Inc. is engaged in the
 business of creating and licensing software in the field of
 computational chemistry and represents and warrants to the
 licensee that it is not a competitor of Gaussian, Inc. and that
 it will not use this program in any manner prohibited above.
 ---------------------------------------------------------------
  

 Cite this work as:
 Gaussian 16, Revision B.01,
 M. J. Frisch, G. W. Trucks, H. B. Schlegel, G. E. Scuseria, 
 M. A. Robb, J. R. Cheeseman, G. Scalmani, V. Barone, 
 G. A. Petersson, H. Nakatsuji, X. Li, M. Caricato, A. V. Marenich, 
 J. Bloino, B. G. Janesko, R. Gomperts, B. Mennucci, H. P. Hratchian, 
 J. V. Ortiz, A. F. Izmaylov, J. L. Sonnenberg, D. Williams-Young, 
 F. Ding, F. Lipparini, F. Egidi, J. Goings, B. Peng, A. Petrone, 
 T. Henderson, D. Ranasinghe, V. G. Zakrzewski, J. Gao, N. Rega, 
 G. Zheng, W. Liang, M. Hada, M. Ehara, K. Toyota, R. Fukuda, 
 J. Hasegawa, M. Ishida, T. Nakajima, Y. Honda, O. Kitao, H. Nakai, 
 T. Vreven, K. Throssell, J. A. Montgomery, Jr., J. E. Peralta, 
 F. Ogliaro, M. J. Bearpark, J. J. Heyd, E. N. Brothers, K. N. Kudin, 
 V. N. Staroverov, T. A. Keith, R. Kobayashi, J. Normand, 
 K. Raghavachari, A. P. Rendell, J. C. Burant, S. S. Iyengar, 
 J. Tomasi, M. Cossi, J. M. Millam, M. Klene, C. Adamo, R. Cammi, 
 J. W. Ochterski, R. L. Martin, K. Morokuma, O. Farkas, 
 J. B. Foresman, and D. J. Fox, Gaussian, Inc., Wallingford CT, 2016.
 
 ******************************************
 Gaussian 16:  ES64L-G16RevB.01 20-Dec-2017
                10-Jul-2023 
 ******************************************
 %chk=44.chk
 %nprocshared=4
 Will use up to    4 processors via shared memory.
 %mem=8000mb
 ----------------------------------------------------------------------
 #T wB97XD/def2svpp opt=tight freq int(grid=ultrafine) scf=(verytight,q
 c)
 ----------------------------------------------------------------------
 --------------
 Comment gs min
 --------------
 Symbolic Z-matrix:
 Charge =  1 Multiplicity = 2
 C                    -0.85533   1.74082   0.91807 
 C                     0.        0.85419   0. 
 C                     0.85534   1.74081  -0.91807 
 C                     0.88766  -0.01092   0.90452 
 Cl                    1.99772  -1.10793   0.0091 
 C                    -0.88767  -0.01091  -0.90452 
 Cl                   -1.99773  -1.10793  -0.0091 
 H                    -0.21564   2.39682   1.5339 
 H                    -1.48596   1.13674   1.59089 
 H                    -1.52075   2.38573   0.31778 
 H                     1.52077   2.38572  -0.31778 
 H                     0.21564   2.39682  -1.5339 
 H                     1.48596   1.13674  -1.5909 
 H                     0.27282  -0.65439   1.55016 
 H                     1.52409   0.62792   1.53538 
 H                    -0.27283  -0.65439  -1.55017 
 H                    -1.52409   0.62792  -1.53538 
 

 GradGradGradGradGradGradGradGradGradGradGradGradGradGradGradGradGradGrad
 Initialization pass.
                           ----------------------------
                           !    Initial Parameters    !
                           ! (Angstroms and Degrees)  !
 --------------------------                            --------------------------
 ! Name  Definition              Value          Derivative Info.                !
 --------------------------------------------------------------------------------
 ! R1    R(1,2)                  1.5364         estimate D2E/DX2                !
 ! R2    R(1,8)                  1.104          estimate D2E/DX2                !
 ! R3    R(1,9)                  1.1024         estimate D2E/DX2                !
 ! R4    R(1,10)                 1.1041         estimate D2E/DX2                !
 ! R5    R(2,3)                  1.5364         estimate D2E/DX2                !
 ! R6    R(2,4)                  1.5344         estimate D2E/DX2                !
 ! R7    R(2,6)                  1.5344         estimate D2E/DX2                !
 ! R8    R(3,11)                 1.1041         estimate D2E/DX2                !
 ! R9    R(3,12)                 1.104          estimate D2E/DX2                !
 ! R10   R(3,13)                 1.1024         estimate D2E/DX2                !
 ! R11   R(4,5)                  1.7993         estimate D2E/DX2                !
 ! R12   R(4,14)                 1.0995         estimate D2E/DX2                !
 ! R13   R(4,15)                 1.1005         estimate D2E/DX2                !
 ! R14   R(6,7)                  1.7993         estimate D2E/DX2                !
 ! R15   R(6,16)                 1.0995         estimate D2E/DX2                !
 ! R16   R(6,17)                 1.1005         estimate D2E/DX2                !
 ! A1    A(2,1,8)              110.7107         estimate D2E/DX2                !
 ! A2    A(2,1,9)              111.5271         estimate D2E/DX2                !
 ! A3    A(2,1,10)             110.3477         estimate D2E/DX2                !
 ! A4    A(8,1,9)              108.4582         estimate D2E/DX2                !
 ! A5    A(8,1,10)             107.7835         estimate D2E/DX2                !
 ! A6    A(9,1,10)             107.8866         estimate D2E/DX2                !
 ! A7    A(1,2,3)              109.5094         estimate D2E/DX2                !
 ! A8    A(1,2,4)              107.1675         estimate D2E/DX2                !
 ! A9    A(1,2,6)              110.8263         estimate D2E/DX2                !
 ! A10   A(3,2,4)              110.8262         estimate D2E/DX2                !
 ! A11   A(3,2,6)              107.1675         estimate D2E/DX2                !
 ! A12   A(4,2,6)              111.3635         estimate D2E/DX2                !
 ! A13   A(2,3,11)             110.3477         estimate D2E/DX2                !
 ! A14   A(2,3,12)             110.7107         estimate D2E/DX2                !
 ! A15   A(2,3,13)             111.5271         estimate D2E/DX2                !
 ! A16   A(11,3,12)            107.7835         estimate D2E/DX2                !
 ! A17   A(11,3,13)            107.8866         estimate D2E/DX2                !
 ! A18   A(12,3,13)            108.4581         estimate D2E/DX2                !
 ! A19   A(2,4,5)              114.034          estimate D2E/DX2                !
 ! A20   A(2,4,14)             110.6467         estimate D2E/DX2                !
 ! A21   A(2,4,15)             110.193          estimate D2E/DX2                !
 ! A22   A(5,4,14)             106.284          estimate D2E/DX2                !
 ! A23   A(5,4,15)             106.4044         estimate D2E/DX2                !
 ! A24   A(14,4,15)            109.0559         estimate D2E/DX2                !
 ! A25   A(2,6,7)              114.0341         estimate D2E/DX2                !
 ! A26   A(2,6,16)             110.6467         estimate D2E/DX2                !
 ! A27   A(2,6,17)             110.1929         estimate D2E/DX2                !
 ! A28   A(7,6,16)             106.2841         estimate D2E/DX2                !
 ! A29   A(7,6,17)             106.4045         estimate D2E/DX2                !
 ! A30   A(16,6,17)            109.0559         estimate D2E/DX2                !
 ! D1    D(8,1,2,3)            -59.2903         estimate D2E/DX2                !
 ! D2    D(8,1,2,4)             60.9902         estimate D2E/DX2                !
 ! D3    D(8,1,2,6)           -177.3121         estimate D2E/DX2                !
 ! D4    D(9,1,2,3)            179.8455         estimate D2E/DX2                !
 ! D5    D(9,1,2,4)            -59.8739         estimate D2E/DX2                !
 ! D6    D(9,1,2,6)             61.8237         estimate D2E/DX2                !
 ! D7    D(10,1,2,3)            59.9496         estimate D2E/DX2                !
 ! D8    D(10,1,2,4)          -179.7698         estimate D2E/DX2                !
 ! D9    D(10,1,2,6)           -58.0722         estimate D2E/DX2                !
 ! D10   D(1,2,3,11)            59.9501         estimate D2E/DX2                !
 ! D11   D(1,2,3,12)           -59.2898         estimate D2E/DX2                !
 ! D12   D(1,2,3,13)           179.846          estimate D2E/DX2                !
 ! D13   D(4,2,3,11)           -58.0716         estimate D2E/DX2                !
 ! D14   D(4,2,3,12)          -177.3116         estimate D2E/DX2                !
 ! D15   D(4,2,3,13)            61.8242         estimate D2E/DX2                !
 ! D16   D(6,2,3,11)          -179.7693         estimate D2E/DX2                !
 ! D17   D(6,2,3,12)            60.9908         estimate D2E/DX2                !
 ! D18   D(6,2,3,13)           -59.8734         estimate D2E/DX2                !
 ! D19   D(1,2,4,5)           -178.8961         estimate D2E/DX2                !
 ! D20   D(1,2,4,14)            61.3602         estimate D2E/DX2                !
 ! D21   D(1,2,4,15)           -59.326          estimate D2E/DX2                !
 ! D22   D(3,2,4,5)            -59.4581         estimate D2E/DX2                !
 ! D23   D(3,2,4,14)          -179.2018         estimate D2E/DX2                !
 ! D24   D(3,2,4,15)            60.112          estimate D2E/DX2                !
 ! D25   D(6,2,4,5)             59.7441         estimate D2E/DX2                !
 ! D26   D(6,2,4,14)           -59.9997         estimate D2E/DX2                !
 ! D27   D(6,2,4,15)           179.3142         estimate D2E/DX2                !
 ! D28   D(1,2,6,7)            -59.4583         estimate D2E/DX2                !
 ! D29   D(1,2,6,16)          -179.2022         estimate D2E/DX2                !
 ! D30   D(1,2,6,17)            60.1118         estimate D2E/DX2                !
 ! D31   D(3,2,6,7)           -178.8963         estimate D2E/DX2                !
 ! D32   D(3,2,6,16)            61.3598         estimate D2E/DX2                !
 ! D33   D(3,2,6,17)           -59.3262         estimate D2E/DX2                !
 ! D34   D(4,2,6,7)             59.7439         estimate D2E/DX2                !
 ! D35   D(4,2,6,16)           -60.0            estimate D2E/DX2                !
 ! D36   D(4,2,6,17)           179.314          estimate D2E/DX2                !
 --------------------------------------------------------------------------------
 Number of steps in this run=     92 maximum allowed number of steps=    102.
 GradGradGradGradGradGradGradGradGradGradGradGradGradGradGradGradGradGrad

                    Distance matrix (angstroms):
                    1          2          3          4          5
     1  C    0.000000
     2  C    1.536410   0.000000
     3  C    2.509536   1.536409   0.000000
     4  C    2.471192   1.534441   2.528128   0.000000
     5  Cl   4.132978   2.800158   3.206248   1.799292   0.000000
     6  C    2.528129   1.534441   2.471191   2.534648   3.219259
     7  Cl   3.206252   2.800158   4.132977   3.219257   3.995490
     8  H    1.103992   2.186107   2.754902   2.722234   4.416698
     9  H    1.102402   2.195188   3.484457   2.724394   4.435840
    10  H    1.104106   2.181584   2.754820   3.447996   4.967962
    11  H    2.754824   2.181584   1.104107   2.763820   3.541176
    12  H    2.754898   2.186107   1.103992   3.492090   4.223732
    13  H    3.484458   2.195189   1.102403   2.811081   2.803644
    14  H    2.722003   2.180193   3.488334   1.099517   2.357085
    15  H    2.698382   2.175185   2.775818   1.100509   2.359453
    16  H    3.488335   2.180193   2.722000   2.790392   2.791490
    17  H    2.775818   2.175186   2.698383   3.489668   4.219214
                    6          7          8          9         10
     6  C    0.000000
     7  Cl   1.799291   0.000000
     8  H    3.492091   4.223733   0.000000
     9  H    2.811078   2.803645   1.790181   0.000000
    10  H    2.763826   3.541190   1.783934   1.783818   0.000000
    11  H    3.447996   4.967962   2.538493   3.774038   3.107213
    12  H    2.722239   4.416702   3.097971   3.774594   2.538484
    13  H    2.724389   4.435835   3.774600   4.353857   3.774035
    14  H    2.790390   2.791486   3.090098   2.510606   3.738723
    15  H    3.489668   4.219211   2.481057   3.053257   3.720691
    16  H    1.099518   2.357085   4.338731   3.813931   3.780060
    17  H    1.100511   2.359453   3.776444   3.167634   2.554231
                   11         12         13         14         15
    11  H    0.000000
    12  H    1.783934   0.000000
    13  H    1.783820   1.790182   0.000000
    14  H    3.780057   4.338730   3.813932   0.000000
    15  H    2.554227   3.776442   3.167642   1.791699   0.000000
    16  H    3.738718   3.090100   2.510597   3.147979   3.793915
    17  H    3.720694   2.481064   3.053254   3.793913   4.326770
                   16         17
    16  H    0.000000
    17  H    1.791700   0.000000
 Framework group  C1[X(C5H10Cl2)]
 Deg. of freedom    45
                         Standard orientation:                         
 ---------------------------------------------------------------------
 Center     Atomic      Atomic             Coordinates (Angstroms)
 Number     Number       Type             X           Y           Z
 ---------------------------------------------------------------------
      1          6           0        0.855333    1.740818   -0.918066
      2          6           0        0.000000    0.854187    0.000000
      3          6           0       -0.855336    1.740813    0.918067
      4          6           0       -0.887664   -0.010915   -0.904523
      5         17           0       -1.997724   -1.107928   -0.009102
      6          6           0        0.887666   -0.010914    0.904522
      7         17           0        1.997725   -1.107928    0.009101
      8          1           0        0.215639    2.396815   -1.533904
      9          1           0        1.485962    1.136744   -1.590890
     10          1           0        1.520755    2.385734   -0.317775
     11          1           0       -1.520765    2.385721    0.317777
     12          1           0       -0.215643    2.396818    1.533900
     13          1           0       -1.485957    1.136735    1.590897
     14          1           0       -0.272824   -0.654389   -1.550163
     15          1           0       -1.524087    0.627917   -1.535380
     16          1           0        0.272827   -0.654387    1.550165
     17          1           0        1.524090    0.627920    1.535378
 ---------------------------------------------------------------------
 Rotational constants (GHZ):           1.9991714           1.2987252           0.9664765
   126 basis functions,   239 primitive gaussians,   133 cartesian basis functions
    37 alpha electrons       36 beta electrons
       nuclear repulsion energy       462.7149796833 Hartrees.
 NAtoms=   17 NActive=   17 NUniq=   17 SFac= 1.00D+00 NAtFMM=   60 NAOKFM=F Big=F
 Nuclear repulsion after empirical dispersion term =      462.7033174476 Hartrees.
   1 Symmetry operations used in ECPInt.
 ECPInt:  NShTT=    2211 NPrTT=    9457 LenC2=    2187 LenP2D=    7371.
 LDataN:  DoStor=T MaxTD1= 4 Len=   56
 ExpMin= 1.22D-01 ExpMax= 1.04D+04 ExpMxC= 1.57D+03 IAcc=3 IRadAn=         5 AccDes= 0.00D+00
 Harris functional with IExCor= 4639 and IRadAn=       5 diagonalized for initial guess.
 HarFok:  IExCor= 4639 AccDes= 0.00D+00 IRadAn=         5 IDoV= 1 UseB2=F ITyADJ=14
 ICtDFT=  3500011 ScaDFX=  1.000000  1.000000  1.000000  1.000000
 FoFCou: FMM=F IPFlag=           0 FMFlag=      100000 FMFlg1=           0
         NFxFlg=           0 DoJE=T BraDBF=F KetDBF=T FulRan=T
         wScrn=  0.000000 ICntrl=       500 IOpCl=  0 I1Cent=   200000004 NGrid=           0
         NMat0=    1 NMatS0=      1 NMatT0=    0 NMatD0=    1 NMtDS0=    0 NMtDT0=    0
 Petite list used in FoFCou.
 Initial guess <Sx>= 0.0000 <Sy>= 0.0000 <Sz>= 0.5000 <S**2>= 0.7500 S= 0.5000
     Minimum is close to point  4 DX=  5.80D-03 DF= -3.13D-05 DXR=  9.57D-03 DFR=  9.35D-05 which will be used.
     Minimum is close to point  2 DX=  1.66D-03 DF= -1.78D-08 DXR=  2.36D-03 DFR=  5.57D-06 which will be used.
     Accept linear search using points  1 and  2.
     Accept linear search using points  1 and  2.
     Minimum is close to point  2 DX=  5.65D-03 DF= -9.96D-10 DXR=  5.62D-03 DFR=  3.16D-05 which will be used.
 SCF Done:  E(UwB97XD) =  -1116.06894261     a.u. after   10 cycles
            Convg  =    0.1096D-06                    84 Fock formations.
              S**2 =  0.7522                  -V/T =  2.0037
 <Sx>= 0.0000 <Sy>= 0.0000 <Sz>= 0.5000 <S**2>= 0.7522 S= 0.5011
 <L.S>=  0.00000000000    
 Annihilation of the first spin contaminant:
 S**2 before annihilation     0.7522,   after     0.7500

 **********************************************************************

            Population analysis using the SCF Density.

 **********************************************************************

 Orbital symmetries:
 Alpha Orbitals:
       Occupied  (A) (A) (A) (A) (A) (A) (A) (A) (A) (A) (A) (A)
                 (A) (A) (A) (A) (A) (A) (A) (A) (A) (A) (A) (A)
                 (A) (A) (A) (A) (A) (A) (A) (A) (A) (A) (A) (A)
                 (A)
       Virtual   (A) (A) (A) (A) (A) (A) (A) (A) (A) (A) (A) (A)
                 (A) (A) (A) (A) (A) (A) (A) (A) (A) (A) (A) (A)
                 (A) (A) (A) (A) (A) (A) (A) (A) (A) (A) (A) (A)
                 (A) (A) (A) (A) (A) (A) (A) (A) (A) (A) (A) (A)
                 (A) (A) (A) (A) (A) (A) (A) (A) (A) (A) (A) (A)
                 (A) (A) (A) (A) (A) (A) (A) (A) (A) (A) (A) (A)
                 (A) (A) (A) (A) (A) (A) (A) (A) (A) (A) (A) (A)
                 (A) (A) (A) (A) (A)
 Beta  Orbitals:
       Occupied  (A) (A) (A) (A) (A) (A) (A) (A) (A) (A) (A) (A)
                 (A) (A) (A) (A) (A) (A) (A) (A) (A) (A) (A) (A)
                 (A) (A) (A) (A) (A) (A) (A) (A) (A) (A) (A) (A)
       Virtual   (A) (A) (A) (A) (A) (A) (A) (A) (A) (A) (A) (A)
                 (A) (A) (A) (A) (A) (A) (A) (A) (A) (A) (A) (A)
                 (A) (A) (A) (A) (A) (A) (A) (A) (A) (A) (A) (A)
                 (A) (A) (A) (A) (A) (A) (A) (A) (A) (A) (A) (A)
                 (A) (A) (A) (A) (A) (A) (A) (A) (A) (A) (A) (A)
                 (A) (A) (A) (A) (A) (A) (A) (A) (A) (A) (A) (A)
                 (A) (A) (A) (A) (A) (A) (A) (A) (A) (A) (A) (A)
                 (A) (A) (A) (A) (A) (A)
 The electronic state is 2-A.
 Alpha  occ. eigenvalues -- -101.91772-101.91770 -10.55763 -10.55759 -10.52255
 Alpha  occ. eigenvalues --  -10.45812 -10.45811  -9.82369  -9.82368  -7.57538
 Alpha  occ. eigenvalues --   -7.57538  -7.57444  -7.57443  -7.56546  -7.56546
 Alpha  occ. eigenvalues --   -1.19971  -1.17646  -1.09805  -0.98233  -0.95704
 Alpha  occ. eigenvalues --   -0.94930  -0.83119  -0.77433  -0.77322  -0.74160
 Alpha  occ. eigenvalues --   -0.72331  -0.70153  -0.69555  -0.64417  -0.63698
 Alpha  occ. eigenvalues --   -0.63546  -0.62632  -0.62408  -0.61173  -0.59839
 Alpha  occ. eigenvalues --   -0.59796  -0.58443
 Alpha virt. eigenvalues --   -0.09358  -0.08747  -0.03051   0.00309   0.01003
 Alpha virt. eigenvalues --    0.01069   0.03815   0.04836   0.05918   0.07731
 Alpha virt. eigenvalues --    0.08160   0.10360   0.10470   0.10974   0.11934
 Alpha virt. eigenvalues --    0.12339   0.27408   0.28634   0.29989   0.31827
 Alpha virt. eigenvalues --    0.32745   0.36170   0.39542   0.42716   0.44465
 Alpha virt. eigenvalues --    0.47021   0.47179   0.49844   0.53469   0.54502
 Alpha virt. eigenvalues --    0.54916   0.55924   0.56991   0.57618   0.59050
 Alpha virt. eigenvalues --    0.59342   0.60651   0.60790   0.63531   0.64318
 Alpha virt. eigenvalues --    0.64378   0.65323   0.65811   0.65972   0.66221
 Alpha virt. eigenvalues --    0.67155   0.68724   0.69350   0.69935   0.70251
 Alpha virt. eigenvalues --    0.71137   0.74953   0.76946   0.79399   0.88278
 Alpha virt. eigenvalues --    0.94064   0.95765   0.96020   0.97026   1.03425
 Alpha virt. eigenvalues --    1.06693   1.08887   1.19072   1.22874   1.30606
 Alpha virt. eigenvalues --    1.35029   1.59260   1.62233   1.62980   1.69175
 Alpha virt. eigenvalues --    1.69953   1.73606   1.90356   1.90520   1.91747
 Alpha virt. eigenvalues --    1.93427   1.93516   2.02147   2.04051   2.04897
 Alpha virt. eigenvalues --    2.07486   2.08326   2.10730   2.11412   2.41216
 Alpha virt. eigenvalues --    2.43566   2.54514   2.56743   2.58616
  Beta  occ. eigenvalues -- -101.91495-101.91493 -10.55700 -10.55696 -10.52238
  Beta  occ. eigenvalues --  -10.45797 -10.45795  -9.82064  -9.82064  -7.57288
  Beta  occ. eigenvalues --   -7.57287  -7.56518  -7.56518  -7.56338  -7.56338
  Beta  occ. eigenvalues --   -1.18878  -1.16137  -1.08987  -0.97474  -0.95030
  Beta  occ. eigenvalues --   -0.94668  -0.82700  -0.76429  -0.76325  -0.73736
  Beta  occ. eigenvalues --   -0.71329  -0.69473  -0.68690  -0.64129  -0.63468
  Beta  occ. eigenvalues --   -0.63296  -0.62011  -0.60010  -0.59417  -0.58081
  Beta  occ. eigenvalues --   -0.54839
  Beta virt. eigenvalues --   -0.40659  -0.08895  -0.08229  -0.02974   0.00442
  Beta virt. eigenvalues --    0.01229   0.01236   0.03890   0.04878   0.06011
  Beta virt. eigenvalues --    0.07863   0.08296   0.10420   0.10497   0.11180
  Beta virt. eigenvalues --    0.12109   0.12374   0.27945   0.28940   0.30405
  Beta virt. eigenvalues --    0.31942   0.32905   0.36536   0.40128   0.43106
  Beta virt. eigenvalues --    0.45009   0.47425   0.47886   0.50342   0.54403
  Beta virt. eigenvalues --    0.54649   0.55380   0.56415   0.57446   0.58063
  Beta virt. eigenvalues --    0.59487   0.60161   0.61168   0.61350   0.64470
  Beta virt. eigenvalues --    0.64823   0.65091   0.65611   0.66522   0.67015
  Beta virt. eigenvalues --    0.67088   0.68376   0.69377   0.69940   0.70361
  Beta virt. eigenvalues --    0.70707   0.71337   0.75240   0.77823   0.80965
  Beta virt. eigenvalues --    0.88652   0.95161   0.96125   0.96403   0.97709
  Beta virt. eigenvalues --    1.03819   1.06922   1.09229   1.19464   1.23314
  Beta virt. eigenvalues --    1.30869   1.35457   1.59612   1.62361   1.63092
  Beta virt. eigenvalues --    1.69324   1.70050   1.73756   1.90671   1.90677
  Beta virt. eigenvalues --    1.92043   1.93570   1.93588   2.02392   2.04233
  Beta virt. eigenvalues --    2.05125   2.07548   2.08444   2.10937   2.11617
  Beta virt. eigenvalues --    2.41407   2.43651   2.54658   2.56836   2.58726
          Condensed to atoms (all electrons):
          Atomic-Atomic Spin Densities.
 Mulliken charges and spin densities:
               1          2
     1  C   -0.289885   0.014768
     2  C   -0.338996   0.005866
     3  C   -0.289886   0.014767
     4  C   -0.167447   0.018091
     5  Cl   0.154415   0.400511
     6  C   -0.167448   0.018093
     7  Cl   0.154416   0.400511
     8  H    0.172758  -0.000402
     9  H    0.157479  -0.000792
    10  H    0.173080   0.000066
    11  H    0.173080   0.000066
    12  H    0.172758  -0.000402
    13  H    0.157479  -0.000792
    14  H    0.231408   0.041083
    15  H    0.237691   0.023741
    16  H    0.231409   0.041084
    17  H    0.237690   0.023740
 Sum of Mulliken charges =   1.00000   1.00000
 Mulliken charges and spin densities with hydrogens summed into heavy atoms:
               1          2
     1  C    0.213431   0.013640
     2  C   -0.338996   0.005866
     3  C    0.213431   0.013640
     4  C    0.301651   0.082916
     5  Cl   0.154415   0.400511
     6  C    0.301651   0.082917
     7  Cl   0.154416   0.400511
 Electronic spatial extent (au):  <R**2>=           1235.0285
 Charge=              1.0000 electrons
 Dipole moment (field-independent basis, Debye):
    X=              0.0000    Y=              0.6787    Z=              0.0000  Tot=              0.6787
                          Isotropic Fermi Contact Couplings
        Atom                 a.u.       MegaHertz       Gauss      10(-4) cm-1
     1  C(13)              0.00047       0.52944       0.18892       0.17660
     2  C(13)             -0.00431      -4.84828      -1.72999      -1.61721
     3  C(13)              0.00047       0.52938       0.18890       0.17658
     4  C(13)             -0.00369      -4.15116      -1.48124      -1.38468
     5  Cl(35)             0.06305      27.64542       9.86457       9.22152
     6  C(13)             -0.00369      -4.15084      -1.48112      -1.38457
     7  Cl(35)             0.06305      27.64541       9.86457       9.22151
     8  H(1)              -0.00023      -1.02646      -0.36627      -0.34239
     9  H(1)               0.00029       1.27785       0.45597       0.42625
    10  H(1)              -0.00002      -0.10471      -0.03736      -0.03493
    11  H(1)              -0.00002      -0.10440      -0.03725      -0.03482
    12  H(1)              -0.00023      -1.02653      -0.36629      -0.34241
    13  H(1)               0.00029       1.27771       0.45592       0.42620
    14  H(1)               0.02322     103.81192      37.04268      34.62793
    15  H(1)               0.01216      54.36899      19.40021      18.13554
    16  H(1)               0.02323     103.81442      37.04357      34.62876
    17  H(1)               0.01216      54.36630      19.39925      18.13464
 --------------------------------------------------------
       Center         ----  Spin Dipole Couplings  ----
                      3XX-RR        3YY-RR        3ZZ-RR
 --------------------------------------------------------
     1   Atom        0.004763     -0.006036      0.001273
     2   Atom       -0.014481      0.034752     -0.020271
     3   Atom        0.004763     -0.006035      0.001272
     4   Atom       -0.016346      0.050214     -0.033868
     5   Atom        0.073688      1.088537     -1.162224
     6   Atom       -0.016348      0.050215     -0.033867
     7   Atom        0.073637      1.088563     -1.162200
     8   Atom       -0.000813      0.001775     -0.000962
     9   Atom       -0.001566      0.002383     -0.000818
    10   Atom       -0.001094      0.002890     -0.001796
    11   Atom       -0.001094      0.002890     -0.001796
    12   Atom       -0.000813      0.001775     -0.000962
    13   Atom       -0.001566      0.002383     -0.000818
    14   Atom        0.003319     -0.005284      0.001964
    15   Atom       -0.002003     -0.003852      0.005856
    16   Atom        0.003320     -0.005284      0.001964
    17   Atom       -0.002003     -0.003852      0.005856
 --------------------------------------------------------
                        XY            XZ            YZ
 --------------------------------------------------------
     1   Atom        0.003839     -0.012827     -0.005453
     2   Atom       -0.000001      0.001888     -0.000001
     3   Atom       -0.003840     -0.012827      0.005453
     4   Atom       -0.052132     -0.020705      0.039012
     5   Atom       -1.725847     -0.298942      0.388942
     6   Atom        0.052131     -0.020706     -0.039016
     7   Atom        1.725823     -0.298987     -0.389012
     8   Atom        0.000054      0.000221     -0.002756
     9   Atom       -0.000897     -0.000500     -0.003113
    10   Atom        0.001562      0.000243     -0.000398
    11   Atom       -0.001562      0.000243      0.000398
    12   Atom       -0.000054      0.000221      0.002756
    13   Atom        0.000897     -0.000500      0.003113
    14   Atom       -0.006952     -0.009878      0.006765
    15   Atom       -0.003056      0.008374     -0.009237
    16   Atom        0.006952     -0.009878     -0.006765
    17   Atom        0.003056      0.008374      0.009237
 --------------------------------------------------------


 ---------------------------------------------------------------------------------
              Anisotropic Spin Dipole Couplings in Principal Axis System
 ---------------------------------------------------------------------------------

       Atom             a.u.   MegaHertz   Gauss  10(-4) cm-1        Axes

              Baa    -0.0107    -1.440    -0.514    -0.480  0.5010  0.4494  0.7396
     1 C(13)  Bbb    -0.0070    -0.940    -0.335    -0.314 -0.4853  0.8535 -0.1898
              Bcc     0.0177     2.380     0.849     0.794  0.7165  0.2639 -0.6457
 
              Baa    -0.0208    -2.796    -0.998    -0.932 -0.2849  0.0000  0.9586
     2 C(13)  Bbb    -0.0139    -1.868    -0.667    -0.623  0.9586  0.0000  0.2849
              Bcc     0.0348     4.663     1.664     1.556 -0.0000  1.0000 -0.0000
 
              Baa    -0.0107    -1.440    -0.514    -0.480  0.5010 -0.4494  0.7396
     3 C(13)  Bbb    -0.0070    -0.940    -0.335    -0.314  0.4853  0.8535  0.1898
              Bcc     0.0177     2.380     0.849     0.794  0.7166 -0.2639 -0.6457
 
              Baa    -0.0492    -6.601    -2.355    -2.202  0.0417 -0.3460  0.9373
     4 C(13)  Bbb    -0.0448    -6.017    -2.147    -2.007  0.8905  0.4383  0.1221
              Bcc     0.0940    12.618     4.502     4.209 -0.4530  0.8296  0.3264
 
              Baa    -1.2317   -64.465   -23.003   -21.503  0.4019  0.1474  0.9037
     5 Cl(35) Bbb    -1.2150   -63.589   -22.690   -21.211  0.6970  0.5908 -0.4063
              Bcc     2.4467   128.053    45.693    42.714 -0.5939  0.7932  0.1347
 
              Baa    -0.0492    -6.601    -2.355    -2.202  0.0418  0.3460  0.9373
     6 C(13)  Bbb    -0.0448    -6.017    -2.147    -2.007  0.8905 -0.4383  0.1221
              Bcc     0.0940    12.618     4.503     4.209  0.4530  0.8296 -0.3264
 
              Baa    -1.2317   -64.465   -23.003   -21.503  0.4019 -0.1474  0.9037
     7 Cl(35) Bbb    -1.2150   -63.589   -22.690   -21.211  0.6970 -0.5908 -0.4063
              Bcc     2.4467   128.053    45.693    42.714  0.5939  0.7932 -0.1347
 
              Baa    -0.0027    -1.438    -0.513    -0.480 -0.1143  0.5223  0.8450
     8 H(1)   Bbb    -0.0008    -0.421    -0.150    -0.141  0.9933  0.0742  0.0885
              Bcc     0.0035     1.860     0.664     0.620 -0.0164  0.8495 -0.5273
 
              Baa    -0.0032    -1.714    -0.612    -0.572  0.4846  0.4832  0.7292
     9 H(1)   Bbb    -0.0011    -0.594    -0.212    -0.198  0.8704 -0.1834 -0.4569
              Bcc     0.0043     2.309     0.824     0.770 -0.0870  0.8561 -0.5095
 
              Baa    -0.0021    -1.117    -0.398    -0.372 -0.5678  0.2408  0.7872
    10 H(1)   Bbb    -0.0014    -0.722    -0.258    -0.241  0.7575 -0.2214  0.6141
              Bcc     0.0034     1.839     0.656     0.613  0.3222  0.9450 -0.0567
 
              Baa    -0.0021    -1.117    -0.398    -0.372 -0.5678 -0.2408  0.7871
    11 H(1)   Bbb    -0.0014    -0.722    -0.258    -0.241  0.7575  0.2214  0.6142
              Bcc     0.0034     1.839     0.656     0.613 -0.3222  0.9450  0.0567
 
              Baa    -0.0027    -1.438    -0.513    -0.480 -0.1143 -0.5223  0.8450
    12 H(1)   Bbb    -0.0008    -0.421    -0.150    -0.141  0.9933 -0.0741  0.0885
              Bcc     0.0035     1.860     0.664     0.620  0.0164  0.8495  0.5273
 
              Baa    -0.0032    -1.714    -0.612    -0.572  0.4846 -0.4832  0.7292
    13 H(1)   Bbb    -0.0011    -0.594    -0.212    -0.198  0.8704  0.1834 -0.4569
              Bcc     0.0043     2.309     0.824     0.770  0.0870  0.8561  0.5095
 
              Baa    -0.0096    -5.099    -1.820    -1.701  0.2386  0.9128 -0.3314
    14 H(1)   Bbb    -0.0072    -3.866    -1.379    -1.289  0.7059  0.0713  0.7047
              Bcc     0.0168     8.965     3.199     2.990  0.6669 -0.4021 -0.6273
 
              Baa    -0.0101    -5.380    -1.920    -1.794 -0.3508  0.7184  0.6007
    15 H(1)   Bbb    -0.0057    -3.034    -1.083    -1.012  0.8247  0.5409 -0.1654
              Bcc     0.0158     8.414     3.002     2.807  0.4437 -0.4373  0.7822
 
              Baa    -0.0096    -5.099    -1.820    -1.701 -0.2387  0.9128  0.3314
    16 H(1)   Bbb    -0.0072    -3.866    -1.379    -1.289  0.7059 -0.0713  0.7048
              Bcc     0.0168     8.965     3.199     2.990  0.6669  0.4021 -0.6273
 
              Baa    -0.0101    -5.380    -1.920    -1.794  0.3508  0.7184 -0.6007
    17 H(1)   Bbb    -0.0057    -3.034    -1.083    -1.012  0.8247 -0.5409 -0.1654
              Bcc     0.0158     8.414     3.002     2.807  0.4437  0.4373  0.7822
 

 ---------------------------------------------------------------------------------

   1 Symmetry operations used in ECPInt.
 ECPInt:  NShTT=    2211 NPrTT=    9457 LenC2=    2187 LenP2D=    7371.
 LDataN:  DoStor=T MaxTD1= 5 Len=  102
 Calling FoFJK, ICntrl=      2127 FMM=F ISym2X=0 I1Cent= 0 IOpClX= 1 NMat=1 NMatS=1 NMatT=0.

 GradGradGradGradGradGradGradGradGradGradGradGradGradGradGradGradGradGrad
 FormGI is forming the generalized inverse of G from B-inverse, IUseBI=4.
 Internal  Forces:  Max     0.010838319 RMS     0.003172579
 Step number   1 out of a maximum of   92
 All quantities printed in internal units (Hartrees-Bohrs-Radians)
 Mixed Optimization -- RFO/linear search
 Second derivative matrix not updated -- first step.
 ITU=  0
     Eigenvalues ---    0.00284   0.00284   0.00310   0.00310   0.04584
     Eigenvalues ---    0.04823   0.04945   0.05228   0.05228   0.05419
     Eigenvalues ---    0.05419   0.05567   0.05567   0.05770   0.05770
     Eigenvalues ---    0.13982   0.14841   0.16000   0.16000   0.16000
     Eigenvalues ---    0.16000   0.16000   0.16000   0.16000   0.16000
     Eigenvalues ---    0.16000   0.16000   0.22303   0.22303   0.26172
     Eigenvalues ---    0.26173   0.28839   0.28839   0.29017   0.29017
     Eigenvalues ---    0.33232   0.33232   0.33244   0.33244   0.33418
     Eigenvalues ---    0.33418   0.33626   0.33626   0.33735   0.33736
 Linear search not attempted -- first point.
 Iteration  1 RMS(Cart)=  0.06268175 RMS(Int)=  0.00302014
 Iteration  2 RMS(Cart)=  0.00310250 RMS(Int)=  0.00018593
 Iteration  3 RMS(Cart)=  0.00000617 RMS(Int)=  0.00018584
 Iteration  4 RMS(Cart)=  0.00000000 RMS(Int)=  0.00018584
 Variable       Old X    -DE/DX   Delta X   Delta X   Delta X     New X
                                 (Linear)    (Quad)   (Total)
    R1        2.90339   0.00387   0.00000   0.01316   0.01316   2.91655
    R2        2.08624  -0.00121   0.00000  -0.00358  -0.00358   2.08267
    R3        2.08324   0.00100   0.00000   0.00296   0.00296   2.08620
    R4        2.08646  -0.00086   0.00000  -0.00256  -0.00256   2.08390
    R5        2.90339   0.00387   0.00000   0.01316   0.01316   2.91655
    R6        2.89967  -0.00198   0.00000  -0.00669  -0.00669   2.89299
    R7        2.89967  -0.00198   0.00000  -0.00668  -0.00668   2.89299
    R8        2.08646  -0.00086   0.00000  -0.00256  -0.00256   2.08390
    R9        2.08624  -0.00121   0.00000  -0.00358  -0.00358   2.08267
   R10        2.08324   0.00100   0.00000   0.00296   0.00296   2.08620
   R11        3.40017  -0.01084   0.00000  -0.04058  -0.04058   3.35959
   R12        2.07779   0.00944   0.00000   0.02753   0.02753   2.10532
   R13        2.07966   0.00317   0.00000   0.00927   0.00927   2.08893
   R14        3.40017  -0.01084   0.00000  -0.04058  -0.04058   3.35959
   R15        2.07779   0.00944   0.00000   0.02753   0.02753   2.10532
   R16        2.07966   0.00317   0.00000   0.00926   0.00926   2.08893
    A1        1.93227   0.00027   0.00000  -0.00067  -0.00069   1.93158
    A2        1.94652   0.00167   0.00000   0.01257   0.01257   1.95909
    A3        1.92593  -0.00120   0.00000  -0.00744  -0.00746   1.91847
    A4        1.89295  -0.00098   0.00000  -0.00555  -0.00556   1.88739
    A5        1.88118  -0.00011   0.00000  -0.00554  -0.00557   1.87560
    A6        1.88298   0.00031   0.00000   0.00623   0.00623   1.88921
    A7        1.91130   0.00164   0.00000   0.02421   0.02422   1.93551
    A8        1.87043  -0.00080   0.00000  -0.00517  -0.00528   1.86515
    A9        1.93428   0.00030   0.00000   0.00192   0.00181   1.93610
   A10        1.93428   0.00030   0.00000   0.00192   0.00182   1.93610
   A11        1.87043  -0.00080   0.00000  -0.00518  -0.00528   1.86514
   A12        1.94366  -0.00055   0.00000  -0.01677  -0.01679   1.92686
   A13        1.92593  -0.00120   0.00000  -0.00744  -0.00746   1.91847
   A14        1.93227   0.00027   0.00000  -0.00067  -0.00069   1.93158
   A15        1.94652   0.00167   0.00000   0.01257   0.01257   1.95909
   A16        1.88118  -0.00011   0.00000  -0.00554  -0.00558   1.87560
   A17        1.88298   0.00031   0.00000   0.00623   0.00623   1.88921
   A18        1.89295  -0.00098   0.00000  -0.00555  -0.00556   1.88739
   A19        1.99027  -0.00048   0.00000  -0.00438  -0.00447   1.98580
   A20        1.93115   0.00259   0.00000   0.01229   0.01187   1.94302
   A21        1.92323   0.00931   0.00000   0.06218   0.06162   1.98485
   A22        1.85501  -0.00254   0.00000  -0.02712  -0.02706   1.82795
   A23        1.85711  -0.00439   0.00000  -0.02195  -0.02217   1.83494
   A24        1.90339  -0.00544   0.00000  -0.02664  -0.02742   1.87597
   A25        1.99027  -0.00048   0.00000  -0.00438  -0.00447   1.98580
   A26        1.93115   0.00259   0.00000   0.01229   0.01187   1.94302
   A27        1.92323   0.00931   0.00000   0.06218   0.06162   1.98485
   A28        1.85501  -0.00254   0.00000  -0.02712  -0.02706   1.82795
   A29        1.85711  -0.00439   0.00000  -0.02195  -0.02217   1.83494
   A30        1.90338  -0.00544   0.00000  -0.02664  -0.02742   1.87597
    D1       -1.03481   0.00015   0.00000   0.01356   0.01359  -1.02122
    D2        1.06448   0.00096   0.00000   0.02648   0.02647   1.09095
    D3       -3.09468  -0.00005   0.00000   0.00376   0.00371  -3.09097
    D4        3.13890   0.00009   0.00000   0.01257   0.01261  -3.13168
    D5       -1.04500   0.00089   0.00000   0.02549   0.02548  -1.01951
    D6        1.07903  -0.00012   0.00000   0.00277   0.00273   1.08175
    D7        1.04632  -0.00059   0.00000   0.00147   0.00152   1.04784
    D8       -3.13758   0.00022   0.00000   0.01439   0.01440  -3.12318
    D9       -1.01355  -0.00079   0.00000  -0.00833  -0.00836  -1.02191
   D10        1.04633  -0.00059   0.00000   0.00147   0.00152   1.04785
   D11       -1.03480   0.00015   0.00000   0.01356   0.01359  -1.02121
   D12        3.13891   0.00009   0.00000   0.01256   0.01260  -3.13168
   D13       -1.01354  -0.00079   0.00000  -0.00833  -0.00836  -1.02191
   D14       -3.09467  -0.00005   0.00000   0.00376   0.00371  -3.09096
   D15        1.07904  -0.00012   0.00000   0.00277   0.00272   1.08176
   D16       -3.13757   0.00022   0.00000   0.01438   0.01439  -3.12317
   D17        1.06449   0.00096   0.00000   0.02647   0.02646   1.09096
   D18       -1.04499   0.00089   0.00000   0.02548   0.02548  -1.01951
   D19       -3.12233  -0.00073   0.00000   0.06801   0.06798  -3.05434
   D20        1.07094   0.00099   0.00000   0.09714   0.09740   1.16834
   D21       -1.03543   0.00001   0.00000   0.08166   0.08157  -0.95387
   D22       -1.03774   0.00093   0.00000   0.09527   0.09519  -0.94254
   D23       -3.12766   0.00266   0.00000   0.12441   0.12462  -3.00305
   D24        1.04915   0.00167   0.00000   0.10893   0.10878   1.15793
   D25        1.04273  -0.00025   0.00000   0.07906   0.07895   1.12168
   D26       -1.04719   0.00148   0.00000   0.10820   0.10837  -0.93882
   D27        3.12962   0.00049   0.00000   0.09271   0.09253  -3.06103
   D28       -1.03774   0.00093   0.00000   0.09528   0.09520  -0.94254
   D29       -3.12767   0.00266   0.00000   0.12442   0.12463  -3.00304
   D30        1.04915   0.00167   0.00000   0.10894   0.10879   1.15793
   D31       -3.12233  -0.00073   0.00000   0.06801   0.06799  -3.05434
   D32        1.07093   0.00099   0.00000   0.09715   0.09742   1.16835
   D33       -1.03544   0.00001   0.00000   0.08167   0.08158  -0.95386
   D34        1.04273  -0.00025   0.00000   0.07906   0.07895   1.12168
   D35       -1.04720   0.00148   0.00000   0.10820   0.10838  -0.93882
   D36        3.12962   0.00049   0.00000   0.09272   0.09254  -3.06103
         Item               Value     Threshold  Converged?
 Maximum Force            0.010838     0.000015     NO 
 RMS     Force            0.003173     0.000010     NO 
 Maximum Displacement     0.215410     0.000060     NO 
 RMS     Displacement     0.062696     0.000040     NO 
 GradGradGradGradGradGradGradGradGradGradGradGradGradGradGradGradGradGrad

                    Distance matrix (angstroms):
                    1          2          3          4          5
     1  C    0.000000
     2  C    1.543372   0.000000
     3  C    2.542291   1.543372   0.000000
     4  C    2.469133   1.530904   2.532541   0.000000
     5  Cl   4.108704   2.774708   3.130934   1.777819   0.000000
     6  C    2.532541   1.530904   2.469132   2.514220   3.227170
     7  Cl   3.130934   2.774709   4.108704   3.227173   4.112897
     8  H    1.102099   2.190320   2.784587   2.731831   4.376254
     9  H    1.103968   2.211539   3.518341   2.721878   4.436179
    10  H    1.102751   2.181241   2.785591   3.441443   4.939926
    11  H    2.785593   2.181241   1.102751   2.766515   3.434888
    12  H    2.784584   2.190320   1.102099   3.492832   4.160894
    13  H    3.518341   2.211539   1.103968   2.829683   2.741957
    14  H    2.782176   2.196689   3.507946   1.114086   2.325788
    15  H    2.710908   2.219751   2.883941   1.105413   2.325673
    16  H    3.507945   2.196688   2.782175   2.734258   2.766838
    17  H    2.883943   2.219752   2.710905   3.503482   4.196964
                    6          7          8          9         10
     6  C    0.000000
     7  Cl   1.777818   0.000000
     8  H    3.492832   4.160894   0.000000
     9  H    2.829680   2.741954   1.786324   0.000000
    10  H    2.766516   3.434889   1.777681   1.788028   0.000000
    11  H    3.441442   4.939927   2.573215   3.802520   3.138752
    12  H    2.731832   4.376254   3.115919   3.810231   2.573210
    13  H    2.721876   4.436178   3.810234   4.389780   3.802517
    14  H    2.734263   2.766847   3.187631   2.573334   3.780920
    15  H    3.503482   4.196969   2.510530   3.016637   3.746717
    16  H    1.114086   2.325788   4.357700   3.814858   3.823225
    17  H    1.105413   2.325673   3.871607   3.295523   2.673068
                   11         12         13         14         15
    11  H    0.000000
    12  H    1.777681   0.000000
    13  H    1.788028   1.786324   0.000000
    14  H    3.823223   4.357702   3.814862   0.000000
    15  H    2.673064   3.871604   3.295523   1.789738   0.000000
    16  H    3.780917   3.187635   2.573331   2.992412   3.791764
    17  H    3.746716   2.510530   3.016630   3.791769   4.398992
                   16         17
    16  H    0.000000
    17  H    1.789739   0.000000
 Framework group  C1[X(C5H10Cl2)]
 Deg. of freedom    45
                         Standard orientation:                         
 ---------------------------------------------------------------------
 Center     Atomic      Atomic             Coordinates (Angstroms)
 Number     Number       Type             X           Y           Z
 ---------------------------------------------------------------------
      1          6           0        0.867993    1.692621   -0.928654
      2          6           0       -0.000001    0.817300   -0.000000
      3          6           0       -0.867992    1.692620    0.928656
      4          6           0       -0.874678   -0.056393   -0.902921
      5         17           0       -2.056382   -1.045501   -0.016421
      6          6           0        0.874677   -0.056395    0.902919
      7         17           0        2.056383   -1.045501    0.016421
      8          1           0        0.235817    2.356866   -1.540009
      9          1           0        1.491351    1.088153   -1.610408
     10          1           0        1.534962    2.332184   -0.326847
     11          1           0       -1.534964    2.332182    0.326850
     12          1           0       -0.235815    2.356866    1.540009
     13          1           0       -1.491347    1.088152    1.610412
     14          1           0       -0.261307   -0.791054   -1.473215
     15          1           0       -1.470832    0.518112   -1.635370
     16          1           0        0.261301   -0.791058    1.473208
     17          1           0        1.470828    0.518107    1.635373
 ---------------------------------------------------------------------
 Rotational constants (GHZ):           2.1170591           1.2438466           0.9635714
   126 basis functions,   239 primitive gaussians,   133 cartesian basis functions
    37 alpha electrons       36 beta electrons
       nuclear repulsion energy       463.7168510711 Hartrees.
 NAtoms=   17 NActive=   17 NUniq=   17 SFac= 1.00D+00 NAtFMM=   60 NAOKFM=F Big=F
 Nuclear repulsion after empirical dispersion term =      463.7053370395 Hartrees.
   1 Symmetry operations used in ECPInt.
 ECPInt:  NShTT=    2211 NPrTT=    9457 LenC2=    2189 LenP2D=    7367.
 LDataN:  DoStor=T MaxTD1= 4 Len=   56
 Initial guess from the checkpoint file:  "44.chk"
 B after Tr=    -0.000000    0.000000    0.000000
         Rot=    0.999997   -0.000000    0.002591    0.000000 Ang=  -0.30 deg.
 Initial guess <Sx>= 0.0000 <Sy>= 0.0000 <Sz>= 0.5000 <S**2>= 0.7522 S= 0.5011
 ExpMin= 1.22D-01 ExpMax= 1.04D+04 ExpMxC= 1.57D+03 IAcc=3 IRadAn=         5 AccDes= 0.00D+00
 Harris functional with IExCor= 4639 and IRadAn=       5 diagonalized for initial guess.
 HarFok:  IExCor= 4639 AccDes= 0.00D+00 IRadAn=         5 IDoV= 1 UseB2=F ITyADJ=14
 ICtDFT=  3500011 ScaDFX=  1.000000  1.000000  1.000000  1.000000
 FoFCou: FMM=F IPFlag=           0 FMFlag=      100000 FMFlg1=           0
         NFxFlg=           0 DoJE=T BraDBF=F KetDBF=T FulRan=T
         wScrn=  0.000000 ICntrl=       500 IOpCl=  0 I1Cent=   200000004 NGrid=           0
         NMat0=    1 NMatS0=      1 NMatT0=    0 NMatD0=    1 NMtDS0=    0 NMtDT0=    0
 Petite list used in FoFCou.
     Minimum is close to point  2 DX=  1.01D-01 DF= -3.22D-06 DXR=  8.40D-02 DFR=  7.11D-03 which will be used.
     Accept linear search using points  1 and  2.
     Minimum is close to point  2 DX= -4.44D-02 DF= -4.48D-07 DXR=  4.20D-02 DFR=  2.08D-03 which will be used.
     Accept linear search using points  1 and  2.
     Accept linear search using points  1 and  2.
     Minimum is close to point  2 DX= -3.32D-03 DF= -3.02D-09 DXR=  3.33D-03 DFR=  1.11D-05 which will be used.
     Minimum is close to point  2 DX=  1.64D-04 DF=  0.00D+00 DXR=  1.64D-04 DFR=  0.00D+00 which will be used.
 SCF Done:  E(UwB97XD) =  -1116.07203564     a.u. after    8 cycles
            Convg  =    0.7038D-06                    48 Fock formations.
              S**2 =  0.7523                  -V/T =  2.0037
 <Sx>= 0.0000 <Sy>= 0.0000 <Sz>= 0.5000 <S**2>= 0.7523 S= 0.5012
 <L.S>=  0.00000000000    
 Annihilation of the first spin contaminant:
 S**2 before annihilation     0.7523,   after     0.7500
   1 Symmetry operations used in ECPInt.
 ECPInt:  NShTT=    2211 NPrTT=    9457 LenC2=    2189 LenP2D=    7367.
 LDataN:  DoStor=T MaxTD1= 5 Len=  102
 Calling FoFJK, ICntrl=      2127 FMM=F ISym2X=0 I1Cent= 0 IOpClX= 1 NMat=1 NMatS=1 NMatT=0.

 GradGradGradGradGradGradGradGradGradGradGradGradGradGradGradGradGradGrad
 Using GEDIIS/GDIIS optimizer.
 FormGI is forming the generalized inverse of G from B-inverse, IUseBI=4.
 Internal  Forces:  Max     0.003288490 RMS     0.001203630
 Step number   2 out of a maximum of   92
 All quantities printed in internal units (Hartrees-Bohrs-Radians)
 Mixed Optimization -- RFO/linear search
 Trust test= 9.66D-01 RLast= 4.36D-01 DXMaxT set to 5.05D-01
 ITU=  1  0
 Use linear search instead of GDIIS.
     Eigenvalues ---    0.00280   0.00284   0.00310   0.00440   0.03946
     Eigenvalues ---    0.04656   0.04857   0.05000   0.05079   0.05338
     Eigenvalues ---    0.05341   0.05457   0.05581   0.05610   0.05798
     Eigenvalues ---    0.12177   0.14874   0.15589   0.16000   0.16000
     Eigenvalues ---    0.16000   0.16000   0.16000   0.16000   0.16000
     Eigenvalues ---    0.16000   0.18061   0.22122   0.22165   0.24745
     Eigenvalues ---    0.26173   0.28732   0.28839   0.29017   0.29315
     Eigenvalues ---    0.32605   0.33232   0.33241   0.33244   0.33263
     Eigenvalues ---    0.33418   0.33533   0.33626   0.33736   0.33846
 Quartic linear search produced a step of  0.16355.
 Iteration  1 RMS(Cart)=  0.04867538 RMS(Int)=  0.00122232
 Iteration  2 RMS(Cart)=  0.00137088 RMS(Int)=  0.00027934
 Iteration  3 RMS(Cart)=  0.00000053 RMS(Int)=  0.00027934
 Variable       Old X    -DE/DX   Delta X   Delta X   Delta X     New X
                                 (Linear)    (Quad)   (Total)
    R1        2.91655  -0.00039   0.00215   0.00081   0.00296   2.91951
    R2        2.08267   0.00007  -0.00058  -0.00041  -0.00099   2.08167
    R3        2.08620  -0.00090   0.00048  -0.00258  -0.00210   2.08410
    R4        2.08390   0.00033  -0.00042   0.00068   0.00026   2.08416
    R5        2.91655  -0.00039   0.00215   0.00081   0.00296   2.91951
    R6        2.89299  -0.00173  -0.00109  -0.00806  -0.00916   2.88383
    R7        2.89299  -0.00173  -0.00109  -0.00806  -0.00915   2.88384
    R8        2.08390   0.00033  -0.00042   0.00068   0.00026   2.08416
    R9        2.08267   0.00007  -0.00058  -0.00041  -0.00099   2.08167
   R10        2.08620  -0.00090   0.00048  -0.00258  -0.00210   2.08410
   R11        3.35959  -0.00196  -0.00664  -0.01586  -0.02249   3.33710
   R12        2.10532   0.00225   0.00450   0.01265   0.01715   2.12247
   R13        2.08893  -0.00009   0.00152   0.00136   0.00288   2.09181
   R14        3.35959  -0.00196  -0.00664  -0.01586  -0.02249   3.33710
   R15        2.10532   0.00225   0.00450   0.01265   0.01715   2.12247
   R16        2.08893  -0.00009   0.00152   0.00136   0.00288   2.09180
    A1        1.93158  -0.00053  -0.00011  -0.00538  -0.00550   1.92607
    A2        1.95909  -0.00034   0.00206   0.00021   0.00227   1.96135
    A3        1.91847  -0.00023  -0.00122  -0.00195  -0.00319   1.91528
    A4        1.88739   0.00031  -0.00091  -0.00054  -0.00145   1.88594
    A5        1.87560   0.00028  -0.00091   0.00014  -0.00080   1.87480
    A6        1.88921   0.00056   0.00102   0.00781   0.00883   1.89804
    A7        1.93551  -0.00205   0.00396  -0.00339   0.00041   1.93592
    A8        1.86515   0.00050  -0.00086   0.00284   0.00200   1.86715
    A9        1.93610   0.00216   0.00030   0.01819   0.01836   1.95446
   A10        1.93610   0.00216   0.00030   0.01819   0.01836   1.95446
   A11        1.86514   0.00050  -0.00086   0.00283   0.00199   1.86714
   A12        1.92686  -0.00329  -0.00275  -0.03888  -0.04152   1.88534
   A13        1.91847  -0.00023  -0.00122  -0.00195  -0.00319   1.91528
   A14        1.93158  -0.00053  -0.00011  -0.00537  -0.00550   1.92607
   A15        1.95909  -0.00034   0.00206   0.00021   0.00227   1.96135
   A16        1.87560   0.00028  -0.00091   0.00014  -0.00080   1.87480
   A17        1.88921   0.00056   0.00102   0.00781   0.00883   1.89804
   A18        1.88739   0.00031  -0.00091  -0.00054  -0.00145   1.88594
   A19        1.98580   0.00094  -0.00073   0.00950   0.00799   1.99379
   A20        1.94302  -0.00215   0.00194  -0.02563  -0.02357   1.91946
   A21        1.98485   0.00186   0.01008   0.03017   0.03965   2.02450
   A22        1.82795  -0.00013  -0.00443  -0.01372  -0.01821   1.80974
   A23        1.83494   0.00040  -0.00363   0.02264   0.01783   1.85277
   A24        1.87597  -0.00103  -0.00448  -0.02587  -0.03009   1.84588
   A25        1.98580   0.00094  -0.00073   0.00951   0.00800   1.99379
   A26        1.94302  -0.00215   0.00194  -0.02564  -0.02358   1.91944
   A27        1.98485   0.00186   0.01008   0.03017   0.03966   2.02451
   A28        1.82795  -0.00013  -0.00443  -0.01372  -0.01821   1.80974
   A29        1.83494   0.00040  -0.00363   0.02264   0.01783   1.85277
   A30        1.87597  -0.00103  -0.00448  -0.02586  -0.03009   1.84588
    D1       -1.02122  -0.00020   0.00222   0.04362   0.04591  -0.97531
    D2        1.09095   0.00155   0.00433   0.06560   0.06990   1.16085
    D3       -3.09097  -0.00089   0.00061   0.03057   0.03111  -3.05986
    D4       -3.13168   0.00001   0.00206   0.04795   0.05008  -3.08160
    D5       -1.01951   0.00176   0.00417   0.06992   0.07407  -0.94544
    D6        1.08175  -0.00068   0.00045   0.03489   0.03528   1.11703
    D7        1.04784  -0.00032   0.00025   0.03925   0.03958   1.08742
    D8       -3.12318   0.00143   0.00236   0.06123   0.06357  -3.05960
    D9       -1.02191  -0.00101  -0.00137   0.02620   0.02478  -0.99713
   D10        1.04785  -0.00032   0.00025   0.03925   0.03958   1.08742
   D11       -1.02121  -0.00020   0.00222   0.04362   0.04591  -0.97530
   D12       -3.13168   0.00001   0.00206   0.04794   0.05008  -3.08160
   D13       -1.02191  -0.00101  -0.00137   0.02618   0.02477  -0.99714
   D14       -3.09096  -0.00089   0.00061   0.03056   0.03110  -3.05987
   D15        1.08176  -0.00068   0.00044   0.03488   0.03527   1.11702
   D16       -3.12317   0.00143   0.00235   0.06122   0.06356  -3.05961
   D17        1.09096   0.00155   0.00433   0.06559   0.06989   1.16085
   D18       -1.01951   0.00176   0.00417   0.06991   0.07406  -0.94545
   D19       -3.05434  -0.00057   0.01112  -0.03445  -0.02353  -3.07787
   D20        1.16834   0.00049   0.01593  -0.00513   0.01079   1.17913
   D21       -0.95387   0.00211   0.01334   0.02623   0.03998  -0.91389
   D22       -0.94254  -0.00149   0.01557  -0.02619  -0.01080  -0.95334
   D23       -3.00305  -0.00044   0.02038   0.00314   0.02352  -2.97953
   D24        1.15793   0.00118   0.01779   0.03449   0.05271   1.21064
   D25        1.12168  -0.00160   0.01291  -0.03591  -0.02341   1.09827
   D26       -0.93882  -0.00055   0.01772  -0.00659   0.01090  -0.92792
   D27       -3.06103   0.00107   0.01513   0.02477   0.04010  -3.02093
   D28       -0.94254  -0.00149   0.01557  -0.02617  -0.01078  -0.95332
   D29       -3.00304  -0.00044   0.02038   0.00316   0.02355  -2.97949
   D30        1.15793   0.00118   0.01779   0.03452   0.05274   1.21068
   D31       -3.05434  -0.00057   0.01112  -0.03443  -0.02351  -3.07785
   D32        1.16835   0.00049   0.01593  -0.00509   0.01082   1.17917
   D33       -0.95386   0.00211   0.01334   0.02626   0.04001  -0.91385
   D34        1.12168  -0.00160   0.01291  -0.03589  -0.02339   1.09830
   D35       -0.93882  -0.00055   0.01773  -0.00655   0.01094  -0.92788
   D36       -3.06103   0.00107   0.01513   0.02480   0.04013  -3.02089
         Item               Value     Threshold  Converged?
 Maximum Force            0.003288     0.000015     NO 
 RMS     Force            0.001204     0.000010     NO 
 Maximum Displacement     0.117822     0.000060     NO 
 RMS     Displacement     0.048872     0.000040     NO 
 GradGradGradGradGradGradGradGradGradGradGradGradGradGradGradGradGradGrad

                    Distance matrix (angstroms):
                    1          2          3          4          5
     1  C    0.000000
     2  C    1.544938   0.000000
     3  C    2.545227   1.544938   0.000000
     4  C    2.468343   1.526059   2.545728   0.000000
     5  Cl   4.102042   2.767630   3.158931   1.765917   0.000000
     6  C    2.545729   1.526062   2.468339   2.469567   3.160227
     7  Cl   3.158922   2.767635   4.102039   3.160252   3.994900
     8  H    1.101574   2.187300   2.761596   2.762271   4.396091
     9  H    1.102859   2.213696   3.520383   2.690338   4.398004
    10  H    1.102890   2.180380   2.804251   3.436861   4.932502
    11  H    2.804249   2.180378   1.102891   2.771095   3.445892
    12  H    2.761595   2.187300   1.101574   3.497028   4.194803
    13  H    3.520383   2.213696   1.102858   2.865100   2.808716
    14  H    2.771425   2.182083   3.513123   1.123161   2.306255
    15  H    2.727837   2.243873   2.956912   1.106936   2.330577
    16  H    3.513117   2.182077   2.771430   2.656479   2.645794
    17  H    2.956932   2.243878   2.727818   3.482774   4.126186
                    6          7          8          9         10
     6  C    0.000000
     7  Cl   1.765915   0.000000
     8  H    3.497029   4.194801   0.000000
     9  H    2.865103   2.808712   1.784061   0.000000
    10  H    2.771093   3.445866   1.776848   1.792930   0.000000
    11  H    3.436858   4.932504   2.567900   3.802450   3.193835
    12  H    2.762264   4.396074   3.045085   3.802135   2.567901
    13  H    2.690337   4.398009   3.802135   4.392980   3.802452
    14  H    2.656509   2.645856   3.233890   2.530703   3.746126
    15  H    3.482776   4.126227   2.573153   2.958768   3.780786
    16  H    1.123162   2.306252   4.347332   3.836674   3.834364
    17  H    1.106935   2.330576   3.926996   3.396820   2.748860
                   11         12         13         14         15
    11  H    0.000000
    12  H    1.776848   0.000000
    13  H    1.792930   1.784061   0.000000
    14  H    3.834362   4.347339   3.836687   0.000000
    15  H    2.748838   3.926982   3.396790   1.778258   0.000000
    16  H    3.746126   3.233902   2.530712   2.891772   3.732156
    17  H    3.780771   2.573132   2.958740   3.732190   4.422009
                   16         17
    16  H    0.000000
    17  H    1.778261   0.000000
 Framework group  C1[X(C5H10Cl2)]
 Deg. of freedom    45
                         Standard orientation:                         
 ---------------------------------------------------------------------
 Center     Atomic      Atomic             Coordinates (Angstroms)
 Number     Number       Type             X           Y           Z
 ---------------------------------------------------------------------
      1          6           0        0.868834    1.724020   -0.929879
      2          6           0       -0.000002    0.848071   -0.000002
      3          6           0       -0.868823    1.724022    0.929887
      4          6           0       -0.848487   -0.048676   -0.897095
      5         17           0       -1.997290   -1.067650   -0.025084
      6          6           0        0.848471   -0.048694    0.897089
      7         17           0        1.997295   -1.067649    0.025084
      8          1           0        0.235343    2.418475   -1.504237
      9          1           0        1.454312    1.123534   -1.646069
     10          1           0        1.563162    2.332616   -0.326649
     11          1           0       -1.563140    2.332638    0.326664
     12          1           0       -0.235321    2.418459    1.504254
     13          1           0       -1.454312    1.123538    1.646070
     14          1           0       -0.192503   -0.786197   -1.433040
     15          1           0       -1.430055    0.465419   -1.686268
     16          1           0        0.192468   -0.786231    1.432992
     17          1           0        1.430016    0.465379    1.686291
 ---------------------------------------------------------------------
 Rotational constants (GHZ):           2.0567641           1.3021726           0.9843904
   126 basis functions,   239 primitive gaussians,   133 cartesian basis functions
    37 alpha electrons       36 beta electrons
       nuclear repulsion energy       466.0359729789 Hartrees.
 NAtoms=   17 NActive=   17 NUniq=   17 SFac= 1.00D+00 NAtFMM=   60 NAOKFM=F Big=F
 Nuclear repulsion after empirical dispersion term =      466.0245328676 Hartrees.
   1 Symmetry operations used in ECPInt.
 ECPInt:  NShTT=    2211 NPrTT=    9457 LenC2=    2191 LenP2D=    7387.
 LDataN:  DoStor=T MaxTD1= 4 Len=   56
 Initial guess from the checkpoint file:  "44.chk"
 B after Tr=     0.000000   -0.000000    0.000000
         Rot=    0.999996   -0.000001    0.002680    0.000001 Ang=  -0.31 deg.
 Initial guess <Sx>= 0.0000 <Sy>= 0.0000 <Sz>= 0.5000 <S**2>= 0.7523 S= 0.5012
 ExpMin= 1.22D-01 ExpMax= 1.04D+04 ExpMxC= 1.57D+03 IAcc=3 IRadAn=         5 AccDes= 0.00D+00
 Harris functional with IExCor= 4639 and IRadAn=       5 diagonalized for initial guess.
 HarFok:  IExCor= 4639 AccDes= 0.00D+00 IRadAn=         5 IDoV= 1 UseB2=F ITyADJ=14
 ICtDFT=  3500011 ScaDFX=  1.000000  1.000000  1.000000  1.000000
 FoFCou: FMM=F IPFlag=           0 FMFlag=      100000 FMFlg1=           0
         NFxFlg=           0 DoJE=T BraDBF=F KetDBF=T FulRan=T
         wScrn=  0.000000 ICntrl=       500 IOpCl=  0 I1Cent=   200000004 NGrid=           0
         NMat0=    1 NMatS0=      1 NMatT0=    0 NMatD0=    1 NMtDS0=    0 NMtDT0=    0
 Petite list used in FoFCou.
     Accept linear search using points  1 and  2.
     Accept linear search using points  1 and  2.
     Minimum is close to point  2 DX= -5.77D-03 DF= -9.14D-09 DXR=  5.80D-03 DFR=  3.38D-05 which will be used.
     Minimum is close to point  2 DX=  3.84D-04 DF=  0.00D+00 DXR=  3.84D-04 DFR=  0.00D+00 which will be used.
 SCF Done:  E(UwB97XD) =  -1116.07272693     a.u. after    8 cycles
            Convg  =    0.9537D-07                    61 Fock formations.
              S**2 =  0.7524                  -V/T =  2.0037
 <Sx>= 0.0000 <Sy>= 0.0000 <Sz>= 0.5000 <S**2>= 0.7524 S= 0.5012
 <L.S>=  0.00000000000    
 Annihilation of the first spin contaminant:
 S**2 before annihilation     0.7524,   after     0.7500
   1 Symmetry operations used in ECPInt.
 ECPInt:  NShTT=    2211 NPrTT=    9457 LenC2=    2191 LenP2D=    7387.
 LDataN:  DoStor=T MaxTD1= 5 Len=  102
 Calling FoFJK, ICntrl=      2127 FMM=F ISym2X=0 I1Cent= 0 IOpClX= 1 NMat=1 NMatS=1 NMatT=0.

 GradGradGradGradGradGradGradGradGradGradGradGradGradGradGradGradGradGrad
 Using GEDIIS/GDIIS optimizer.
 FormGI is forming the generalized inverse of G from B-inverse, IUseBI=4.
 Internal  Forces:  Max     0.001929641 RMS     0.000851501
 Step number   3 out of a maximum of   92
 All quantities printed in internal units (Hartrees-Bohrs-Radians)
 Mixed Optimization -- En-DIIS/RFO-DIIS
 Trust test= 7.34D-01 RLast= 2.73D-01 DXMaxT set to 8.20D-01
 ITU=  1  1  0
 Use linear search instead of GDIIS.
     Eigenvalues ---    0.00249   0.00284   0.00310   0.00430   0.04498
     Eigenvalues ---    0.04657   0.04766   0.05080   0.05098   0.05333
     Eigenvalues ---    0.05340   0.05572   0.05654   0.05654   0.06126
     Eigenvalues ---    0.13110   0.15295   0.15708   0.16000   0.16000
     Eigenvalues ---    0.16000   0.16000   0.16000   0.16000   0.16000
     Eigenvalues ---    0.16270   0.17205   0.22039   0.22364   0.25451
     Eigenvalues ---    0.26173   0.28839   0.29017   0.29075   0.29548
     Eigenvalues ---    0.32678   0.33232   0.33244   0.33250   0.33261
     Eigenvalues ---    0.33418   0.33530   0.33626   0.33736   0.33747
 Quartic linear search produced a step of -0.17114.
 Iteration  1 RMS(Cart)=  0.05813127 RMS(Int)=  0.00225867
 Iteration  2 RMS(Cart)=  0.00243391 RMS(Int)=  0.00007824
 Iteration  3 RMS(Cart)=  0.00000443 RMS(Int)=  0.00007818
 Iteration  4 RMS(Cart)=  0.00000000 RMS(Int)=  0.00007818
 Variable       Old X    -DE/DX   Delta X   Delta X   Delta X     New X
                                 (Linear)    (Quad)   (Total)
    R1        2.91951  -0.00179  -0.00051  -0.00579  -0.00630   2.91321
    R2        2.08167   0.00042   0.00017   0.00110   0.00127   2.08294
    R3        2.08410  -0.00020   0.00036  -0.00262  -0.00226   2.08184
    R4        2.08416   0.00005  -0.00004   0.00088   0.00083   2.08499
    R5        2.91951  -0.00179  -0.00051  -0.00579  -0.00630   2.91321
    R6        2.88383   0.00127   0.00157  -0.00151   0.00006   2.88389
    R7        2.88384   0.00128   0.00157  -0.00149   0.00007   2.88391
    R8        2.08416   0.00005  -0.00005   0.00088   0.00083   2.08499
    R9        2.08167   0.00042   0.00017   0.00110   0.00127   2.08294
   R10        2.08410  -0.00020   0.00036  -0.00262  -0.00226   2.08184
   R11        3.33710   0.00181   0.00385  -0.00137   0.00248   3.33958
   R12        2.12247  -0.00093  -0.00293   0.00380   0.00087   2.12333
   R13        2.09181  -0.00083  -0.00049  -0.00201  -0.00250   2.08931
   R14        3.33710   0.00181   0.00385  -0.00138   0.00247   3.33956
   R15        2.12247  -0.00093  -0.00294   0.00381   0.00088   2.12335
   R16        2.09180  -0.00083  -0.00049  -0.00201  -0.00250   2.08930
    A1        1.92607  -0.00077   0.00094  -0.00690  -0.00596   1.92011
    A2        1.96135  -0.00052  -0.00039  -0.00450  -0.00490   1.95645
    A3        1.91528   0.00055   0.00055   0.00216   0.00271   1.91799
    A4        1.88594   0.00068   0.00025   0.00353   0.00376   1.88970
    A5        1.87480   0.00031   0.00014   0.00367   0.00381   1.87861
    A6        1.89804  -0.00021  -0.00151   0.00253   0.00103   1.89906
    A7        1.93592  -0.00056  -0.00007  -0.01086  -0.01092   1.92500
    A8        1.86715   0.00126  -0.00034   0.00936   0.00903   1.87617
    A9        1.95446  -0.00101  -0.00314   0.00705   0.00397   1.95843
   A10        1.95446  -0.00101  -0.00314   0.00706   0.00397   1.95843
   A11        1.86714   0.00126  -0.00034   0.00934   0.00901   1.87615
   A12        1.88534   0.00000   0.00711  -0.02229  -0.01521   1.87013
   A13        1.91528   0.00055   0.00055   0.00215   0.00271   1.91799
   A14        1.92607  -0.00077   0.00094  -0.00690  -0.00596   1.92011
   A15        1.96135  -0.00052  -0.00039  -0.00450  -0.00489   1.95646
   A16        1.87480   0.00031   0.00014   0.00367   0.00381   1.87861
   A17        1.89804  -0.00021  -0.00151   0.00253   0.00103   1.89906
   A18        1.88594   0.00068   0.00025   0.00353   0.00376   1.88969
   A19        1.99379  -0.00055  -0.00137   0.00648   0.00524   1.99903
   A20        1.91946  -0.00111   0.00403  -0.02334  -0.01945   1.90001
   A21        2.02450  -0.00124  -0.00679   0.00413  -0.00272   2.02179
   A22        1.80974   0.00193   0.00312   0.01059   0.01378   1.82352
   A23        1.85277   0.00074  -0.00305   0.01831   0.01541   1.86818
   A24        1.84588   0.00069   0.00515  -0.01651  -0.01168   1.83420
   A25        1.99379  -0.00055  -0.00137   0.00650   0.00526   1.99905
   A26        1.91944  -0.00111   0.00404  -0.02338  -0.01949   1.89995
   A27        2.02451  -0.00124  -0.00679   0.00414  -0.00271   2.02180
   A28        1.80974   0.00193   0.00312   0.01058   0.01377   1.82351
   A29        1.85277   0.00074  -0.00305   0.01831   0.01541   1.86818
   A30        1.84588   0.00069   0.00515  -0.01650  -0.01167   1.83421
    D1       -0.97531   0.00038  -0.00786   0.03455   0.02670  -0.94861
    D2        1.16085  -0.00038  -0.01196   0.04272   0.03075   1.19161
    D3       -3.05986  -0.00016  -0.00532   0.02539   0.02009  -3.03977
    D4       -3.08160   0.00040  -0.00857   0.03792   0.02933  -3.05227
    D5       -0.94544  -0.00036  -0.01268   0.04608   0.03339  -0.91205
    D6        1.11703  -0.00014  -0.00604   0.02875   0.02272   1.13976
    D7        1.08742   0.00063  -0.00677   0.03620   0.02941   1.11683
    D8       -3.05960  -0.00013  -0.01088   0.04436   0.03347  -3.02613
    D9       -0.99713   0.00009  -0.00424   0.02703   0.02280  -0.97433
   D10        1.08742   0.00063  -0.00677   0.03619   0.02941   1.11683
   D11       -0.97530   0.00038  -0.00786   0.03455   0.02670  -0.94861
   D12       -3.08160   0.00040  -0.00857   0.03791   0.02933  -3.05227
   D13       -0.99714   0.00009  -0.00424   0.02700   0.02278  -0.97436
   D14       -3.05987  -0.00016  -0.00532   0.02536   0.02006  -3.03980
   D15        1.11702  -0.00014  -0.00604   0.02872   0.02269   1.13972
   D16       -3.05961  -0.00013  -0.01088   0.04434   0.03345  -3.02616
   D17        1.16085  -0.00038  -0.01196   0.04270   0.03074   1.19159
   D18       -0.94545  -0.00036  -0.01267   0.04606   0.03337  -0.91208
   D19       -3.07787   0.00112   0.00403   0.08372   0.08774  -2.99014
   D20        1.17913  -0.00022  -0.00185   0.08215   0.08038   1.25950
   D21       -0.91389   0.00060  -0.00684   0.11898   0.11199  -0.80190
   D22       -0.95334   0.00065   0.00185   0.08078   0.08264  -0.87070
   D23       -2.97953  -0.00069  -0.00402   0.07921   0.07528  -2.90425
   D24        1.21064   0.00013  -0.00902   0.11603   0.10689   1.31753
   D25        1.09827   0.00161   0.00401   0.08235   0.08640   1.18467
   D26       -0.92792   0.00027  -0.00187   0.08078   0.07904  -0.84888
   D27       -3.02093   0.00109  -0.00686   0.11760   0.11065  -2.91028
   D28       -0.95332   0.00065   0.00184   0.08085   0.08271  -0.87061
   D29       -2.97949  -0.00069  -0.00403   0.07931   0.07537  -2.90412
   D30        1.21068   0.00013  -0.00903   0.11614   0.10699   1.31767
   D31       -3.07785   0.00112   0.00402   0.08381   0.08782  -2.99002
   D32        1.17917  -0.00022  -0.00185   0.08227   0.08049   1.25965
   D33       -0.91385   0.00060  -0.00685   0.11910   0.11211  -0.80174
   D34        1.09830   0.00161   0.00400   0.08244   0.08649   1.18479
   D35       -0.92788   0.00027  -0.00187   0.08090   0.07916  -0.84872
   D36       -3.02089   0.00109  -0.00687   0.11773   0.11078  -2.91011
         Item               Value     Threshold  Converged?
 Maximum Force            0.001930     0.000015     NO 
 RMS     Force            0.000852     0.000010     NO 
 Maximum Displacement     0.165170     0.000060     NO 
 RMS     Displacement     0.058123     0.000040     NO 
 GradGradGradGradGradGradGradGradGradGradGradGradGradGradGradGradGradGrad

                    Distance matrix (angstroms):
                    1          2          3          4          5
     1  C    0.000000
     2  C    1.541606   0.000000
     3  C    2.530154   1.541605   0.000000
     4  C    2.473890   1.526088   2.546387   0.000000
     5  Cl   4.103251   2.773432   3.121816   1.767229   0.000000
     6  C    2.546393   1.526100   2.473877   2.455908   3.207679
     7  Cl   3.121793   2.773454   4.103237   3.207784   4.169799
     8  H    1.102247   2.180509   2.727204   2.779998   4.372407
     9  H    1.101663   2.206338   3.503751   2.678236   4.409380
    10  H    1.103331   2.179771   2.803982   3.440857   4.937159
    11  H    2.803974   2.179764   1.103331   2.765018   3.355261
    12  H    2.727207   2.180512   1.102247   3.494110   4.173949
    13  H    3.503752   2.206340   1.101662   2.871999   2.784098
    14  H    2.805434   2.167994   3.496955   1.123619   2.319185
    15  H    2.688013   2.241014   3.004531   1.105613   2.343183
    16  H    3.496930   2.167973   2.805459   2.584545   2.657300
    17  H    3.004609   2.241033   2.687944   3.461662   4.112907
                    6          7          8          9         10
     6  C    0.000000
     7  Cl   1.767221   0.000000
     8  H    3.494114   4.173948   0.000000
     9  H    2.872015   2.784105   1.786065   0.000000
    10  H    2.765012   3.355162   1.780231   1.792976   0.000000
    11  H    3.440847   4.937163   2.547447   3.789212   3.221034
    12  H    2.779972   4.372336   2.980249   3.774903   2.547459
    13  H    2.678228   4.409389   3.774899   4.376099   3.789223
    14  H    2.584656   2.657541   3.306615   2.562629   3.756670
    15  H    3.461677   4.113083   2.560687   2.858591   3.755676
    16  H    1.123627   2.319174   4.326581   3.805537   3.834578
    17  H    1.105610   2.343181   3.953023   3.475296   2.805142
                   11         12         13         14         15
    11  H    0.000000
    12  H    1.780231   0.000000
    13  H    1.792976   1.786064   0.000000
    14  H    3.834572   4.326609   3.805588   0.000000
    15  H    2.805048   3.952970   3.475182   1.769691   0.000000
    16  H    3.756679   3.306664   2.562678   2.722753   3.677692
    17  H    3.755619   2.560618   2.858482   3.677809   4.405295
                   16         17
    16  H    0.000000
    17  H    1.769705   0.000000
 Framework group  C1[X(C5H10Cl2)]
 Deg. of freedom    45
                         Standard orientation:                         
 ---------------------------------------------------------------------
 Center     Atomic      Atomic             Coordinates (Angstroms)
 Number     Number       Type             X           Y           Z
 ---------------------------------------------------------------------
      1          6           0        0.861326    1.691785   -0.926569
      2          6           0       -0.000009    0.810800   -0.000007
      3          6           0       -0.861286    1.691778    0.926614
      4          6           0       -0.848913   -0.095300   -0.887300
      5         17           0       -2.084744   -1.018187   -0.024688
      6          6           0        0.848852   -0.095383    0.887264
      7         17           0        2.084762   -1.018180    0.024686
      8          1           0        0.220847    2.402743   -1.473627
      9          1           0        1.421713    1.094306   -1.663214
     10          1           0        1.577015    2.279646   -0.326946
     11          1           0       -1.576933    2.279722    0.327022
     12          1           0       -0.220765    2.402662    1.473721
     13          1           0       -1.421715    1.094291    1.663219
     14          1           0       -0.185951   -0.876376   -1.348733
     15          1           0       -1.349679    0.397943   -1.740720
     16          1           0        0.185824   -0.876521    1.348519
     17          1           0        1.349519    0.397757    1.740796
 ---------------------------------------------------------------------
 Rotational constants (GHZ):           2.1591751           1.2282180           0.9597475
   126 basis functions,   239 primitive gaussians,   133 cartesian basis functions
    37 alpha electrons       36 beta electrons
       nuclear repulsion energy       464.5793825656 Hartrees.
 NAtoms=   17 NActive=   17 NUniq=   17 SFac= 1.00D+00 NAtFMM=   60 NAOKFM=F Big=F
 Nuclear repulsion after empirical dispersion term =      464.5679381709 Hartrees.
   1 Symmetry operations used in ECPInt.
 ECPInt:  NShTT=    2211 NPrTT=    9457 LenC2=    2189 LenP2D=    7383.
 LDataN:  DoStor=T MaxTD1= 4 Len=   56
 Initial guess from the checkpoint file:  "44.chk"
 B after Tr=     0.000000   -0.000000   -0.000000
         Rot=    1.000000   -0.000006   -0.000048    0.000001 Ang=  -0.01 deg.
 Initial guess <Sx>= 0.0000 <Sy>= 0.0000 <Sz>= 0.5000 <S**2>= 0.7524 S= 0.5012
 ExpMin= 1.22D-01 ExpMax= 1.04D+04 ExpMxC= 1.57D+03 IAcc=3 IRadAn=         5 AccDes= 0.00D+00
 Harris functional with IExCor= 4639 and IRadAn=       5 diagonalized for initial guess.
 HarFok:  IExCor= 4639 AccDes= 0.00D+00 IRadAn=         5 IDoV= 1 UseB2=F ITyADJ=14
 ICtDFT=  3500011 ScaDFX=  1.000000  1.000000  1.000000  1.000000
 FoFCou: FMM=F IPFlag=           0 FMFlag=      100000 FMFlg1=           0
         NFxFlg=           0 DoJE=T BraDBF=F KetDBF=T FulRan=T
         wScrn=  0.000000 ICntrl=       500 IOpCl=  0 I1Cent=   200000004 NGrid=           0
         NMat0=    1 NMatS0=      1 NMatT0=    0 NMatD0=    1 NMtDS0=    0 NMtDT0=    0
 Petite list used in FoFCou.
     Minimum is close to point  2 DX=  3.32D-02 DF= -3.08D-07 DXR=  2.69D-02 DFR=  7.27D-04 which will be used.
     Accept linear search using points  1 and  2.
     Accept linear search using points  1 and  2.
     Minimum is close to point  2 DX= -1.10D-02 DF= -1.26D-08 DXR=  1.01D-02 DFR=  1.22D-04 which will be used.
     Accept linear search using points  1 and  2.
     Minimum is close to point  2 DX= -3.03D-03 DF= -1.92D-09 DXR=  3.04D-03 DFR=  9.27D-06 which will be used.
     Minimum is close to point  2 DX=  2.10D-04 DF=  0.00D+00 DXR=  2.10D-04 DFR=  0.00D+00 which will be used.
 SCF Done:  E(UwB97XD) =  -1116.07281117     a.u. after    8 cycles
            Convg  =    0.1461D-06                    46 Fock formations.
              S**2 =  0.7525                  -V/T =  2.0037
 <Sx>= 0.0000 <Sy>= 0.0000 <Sz>= 0.5000 <S**2>= 0.7525 S= 0.5012
 <L.S>=  0.00000000000    
 Annihilation of the first spin contaminant:
 S**2 before annihilation     0.7525,   after     0.7500
   1 Symmetry operations used in ECPInt.
 ECPInt:  NShTT=    2211 NPrTT=    9457 LenC2=    2189 LenP2D=    7383.
 LDataN:  DoStor=T MaxTD1= 5 Len=  102
 Calling FoFJK, ICntrl=      2127 FMM=F ISym2X=0 I1Cent= 0 IOpClX= 1 NMat=1 NMatS=1 NMatT=0.

 GradGradGradGradGradGradGradGradGradGradGradGradGradGradGradGradGradGrad
 Using GEDIIS/GDIIS optimizer.
 FormGI is forming the generalized inverse of G from B-inverse, IUseBI=4.
 Internal  Forces:  Max     0.002500915 RMS     0.000739542
 Step number   4 out of a maximum of   92
 All quantities printed in internal units (Hartrees-Bohrs-Radians)
 Mixed Optimization -- En-DIIS/RFO-DIIS
 Swapping is turned off.
 Trust test= 1.33D-01 RLast= 4.13D-01 DXMaxT set to 8.20D-01
 ITU=  0  1  1  0
     Eigenvalues ---    0.00260   0.00284   0.00310   0.00905   0.04249
     Eigenvalues ---    0.04495   0.04719   0.04804   0.05118   0.05382
     Eigenvalues ---    0.05396   0.05670   0.05670   0.05713   0.06279
     Eigenvalues ---    0.12856   0.15500   0.15771   0.16000   0.16000
     Eigenvalues ---    0.16000   0.16000   0.16000   0.16000   0.16233
     Eigenvalues ---    0.16355   0.16796   0.22057   0.22420   0.25818
     Eigenvalues ---    0.26173   0.28839   0.29017   0.29250   0.30724
     Eigenvalues ---    0.32773   0.33232   0.33244   0.33251   0.33266
     Eigenvalues ---    0.33418   0.33606   0.33626   0.33685   0.33736
 En-DIIS/RFO-DIIS/Sim-DIIS IScMMF=       -3 using points:     4    3
 RFO step:  Lambda=-5.03000948D-04.
 DidBck=T Rises=F RFO-DIIS coefs:    0.55930    0.44070
 Iteration  1 RMS(Cart)=  0.02689287 RMS(Int)=  0.00050406
 Iteration  2 RMS(Cart)=  0.00054892 RMS(Int)=  0.00002353
 Iteration  3 RMS(Cart)=  0.00000024 RMS(Int)=  0.00002353
 Variable       Old X    -DE/DX   Delta X   Delta X   Delta X     New X
                                 (Linear)    (Quad)   (Total)
[...]
   yx        -0.192651D+02     -0.285479D+01     -0.317638D+01
   yy         0.759237D+02      0.112507D+02      0.125181D+02
   zx         0.749371D+01      0.111045D+01      0.123555D+01
   zy        -0.378452D+01     -0.560808D+00     -0.623983D+00
   zz         0.888902D+02      0.131722D+02      0.146560D+02

 ----------------------------------------------------------------------
 1\1\GINC-C304\Freq\UwB97XD\def2SVPP\C5H10Cl2(1+,2)\PETERCHAO1\11-Jul-2
 023\0\\#T Geom=AllCheck Guess=TCheck SCRF=Check GenChk UwB97XD/def2SVP
 P Freq\\Comment gs min\\1,2\C,-0.8413345784,1.7503917239,0.9259280864\
 C,-0.0753075719,0.9473023837,-0.0950530582\C,0.8707562305,1.7583193797
 ,-0.9487578186\C,0.9546047926,-0.1000467693,0.9665702116\Cl,2.09800478
 32,-1.0132969635,0.1183883205\C,-0.890101456,-0.0580299697,-0.89643373
 51\Cl,-1.9694191977,-1.0863717798,0.0529723305\H,-0.1933774447,2.46129
 94188,1.4621853891\H,-1.399032783,1.1273627686,1.6424052096\H,-1.59265
 15831,2.3458648147,0.3678453812\H,1.611526026,2.30082338,-0.3375346449
 \H,0.2722004393,2.5306998742,-1.4700702988\H,1.394803063,1.1528222087,
 -1.7043722704\H,0.1307172699,-0.7217113183,1.3650372361\H,1.4214407447
 ,0.6282525244,1.6435991079\H,-0.2621154971,-0.6977362014,-1.5328020797
 \H,-1.5307062371,0.5578145254,-1.5599113673\\Version=ES64L-G16RevB.01\
 State=2-A\HF=-1116.0819613\S2=0.75317\S2-1=0.\S2A=0.750008\RMSD=1.107e
 -09\RMSF=1.570e-06\ZeroPoint=0.1390667\Thermal=0.1482891\Dipole=0.5922
 472,1.1839792,0.0357574\DipoleDeriv=-0.262009,0.3625369,0.1583516,0.15
 27673,-0.3560043,-0.1052584,0.0191326,0.2369876,-0.0424761,0.2594711,-
 0.6707102,-0.0624171,-0.230484,1.0479932,-0.0275579,-0.1657644,-0.5537
 438,0.2318683,0.0367764,0.2201226,0.0021428,-0.1170066,-0.4896401,0.16
 72749,0.0807067,0.2044055,-0.1135163,0.7670343,0.0202931,0.0281506,-0.
 6045927,-0.1388657,-0.0122616,0.1103367,0.5750142,0.2925712,-0.3977837
 ,0.1921965,-0.0310227,0.3853657,-0.0341259,0.0198945,0.3280102,-0.1971
 886,0.0601372,-0.1146996,0.1751363,-0.2691947,0.8475031,0.1663073,0.06
 64464,-0.6680929,-0.2354204,-0.1061956,-0.270111,-0.1701476,0.0147333,
 -0.3570963,-0.2025651,-0.0102672,0.3020663,0.1432857,-0.0486136,0.0385
 075,-0.0766557,-0.0448738,-0.0443131,0.1044773,-0.0117435,0.0145461,-0
 .0430366,0.075629,0.1204149,-0.064068,-0.004498,-0.0304575,0.0587694,0
 .0561588,0.0073722,0.0003864,0.068751,0.1523487,-0.0248063,-0.0458205,
 -0.0295886,0.1061436,0.0124303,-0.0247558,-0.0890475,-0.0025857,0.0692
 261,-0.0349141,-0.0068779,0.0137968,0.165169,-0.0344301,-0.0672104,-0.
 0529092,0.0236409,-0.0220596,-0.0655666,0.0046576,0.0226296,0.1489321,
 -0.0248419,0.0154393,0.0609189,0.0992771,0.0526924,-0.0134331,0.030452
 4,0.047739,0.0370431,-0.0583681,0.0044715,-0.020217,0.0577411,0.190460
 7,0.1096772,0.0233065,0.0502865,0.1908975,-0.0394047,-0.0408174,-0.058
 3,0.0854114,0.1024991,-0.0271939,0.0410896,0.0919251,0.1145111,0.01352
 64,-0.0313097,-0.052091,0.0877425,0.0545349,0.0109288,0.0983458,-0.007
 3032,0.0493073,0.0110839,0.073636,0.0328917,0.0991389,0.2226969,0.0566
 042,0.0634743,-0.1911709,0.0316501,-0.0226816,0.0422331,0.0480641,0.13
 14787\Polar=111.9691452,-3.2298309,86.3226946,2.7485029,-0.6188453,65.
 0509233\Quadrupole=-0.2581212,0.6444109,-0.3862897,-1.8668286,1.352752
 ,-0.5284377\PG=C01 [X(C5H10Cl2)]\NImag=0\\0.54265012,0.07105870,0.5499
 7342,0.01686043,-0.02098954,0.54597574,-0.10432166,0.01820135,0.054057
 22,0.37195511,0.01614716,-0.11239642,-0.04513437,0.08333448,0.38314352
 ,0.05157804,-0.05396861,-0.12339003,-0.11993973,0.08261387,0.40419085,
 -0.01287856,-0.00866665,0.01516035,-0.11388933,-0.04315439,0.05974354,
 0.54417835,0.00631227,0.01769218,-0.00874938,-0.04709081,-0.10545150,0
 .01821076,-0.02724384,0.53906138,0.01849419,0.01028688,-0.01570709,0.0
 5656998,0.02454515,-0.11840237,0.00847026,0.06624779,0.55274126,-0.011
 21250,0.01117991,-0.00319972,0.02004274,-0.01318006,0.02515198,-0.0112
 5814,0.00332878,-0.00495160,0.42848599,0.01539167,-0.01455429,0.005834
 79,-0.02768302,0.02232362,-0.03187052,0.00609392,-0.01520562,0.0137779
 8,0.17128965,0.39797246,-0.00711493,0.00421931,-0.01161346,0.02539613,
 -0.02487986,0.00957098,-0.00805051,0.01475008,-0.01167128,-0.07690364,
 0.15531045,0.34813884,-0.00211861,0.00204722,-0.00161410,-0.01370261,0
 .00630245,0.00280940,0.00075066,0.00032988,0.00092836,-0.12225961,0.05
 936543,0.08222415,0.15123613,0.00088155,-0.00117999,0.00058752,0.01103
 236,-0.00911944,-0.00080488,0.00282263,-0.00451636,0.00156640,0.061630
 53,-0.08724552,-0.07146794,-0.09582521,0.10486328,0.00325945,-0.002191
 97,0.00240265,0.00016975,0.00268827,-0.00059241,-0.00297391,0.00198757
 ,-0.00202393,0.06418440,-0.05658980,-0.08918660,-0.09112925,0.07491636
 ,0.09479202,0.01961451,0.00709731,0.00465019,-0.09878981,-0.02656136,-
 0.01736037,-0.01248134,-0.01919537,-0.00231921,-0.00956745,-0.00406741
 ,-0.01389682,-0.00500669,0.00120836,-0.00060766,0.46683734,-0.01461118
 ,-0.01273300,-0.02506418,-0.01912550,-0.10819052,-0.03255529,-0.026284
 53,-0.01029242,-0.00961297,-0.01607375,-0.00553299,-0.00293496,0.00779
 618,-0.00356889,-0.00252352,-0.10653149,0.47045598,-0.00537533,-0.0200
 7414,-0.01192907,-0.01288899,-0.04370960,-0.10010456,0.00786455,0.0040
 3086,0.01542900,-0.00686325,0.00037590,-0.00979800,-0.00504235,0.00157
 671,-0.00022290,-0.02126601,0.03584998,0.46223904,0.00180943,0.0003675
 5,0.00149921,-0.02253445,-0.01457970,0.00732012,0.00200086,-0.00240611
 ,-0.00304665,-0.00393869,-0.00924524,0.00420245,-0.00031840,0.00079270
 ,-0.00013773,-0.08213991,-0.03597279,0.04645889,0.11226365,-0.00071632
 ,-0.00111185,0.00102686,-0.02037892,-0.01554132,0.01152683,0.00031700,
 -0.00301210,-0.00328404,0.00422667,-0.00399158,0.00548035,-0.00220155,
 0.00153747,0.00065143,-0.04468804,-0.07232871,0.03717435,0.08074888,0.
 10280734,-0.00313257,-0.00054879,-0.00316098,0.00144500,0.00010285,0.0
 0693498,-0.00243141,0.00086585,-0.00083080,-0.01029834,-0.00222088,-0.
 00460045,0.00189295,-0.00133394,-0.00089520,0.04988362,0.03406079,-0.0
 7481880,-0.06588752,-0.06020111,0.09116272,-0.14868302,-0.11213637,-0.
 08060649,0.01150789,0.01463426,0.01016086,0.00028306,0.00065488,-0.000
 18447,-0.00024298,0.00068549,0.00126197,0.00020348,-0.00002792,-0.0002
 3054,-0.00296931,0.00136971,0.00241269,0.00014776,-0.00043222,-0.00051
 899,0.15604333,-0.10990669,-0.15994733,-0.08519771,-0.00901237,-0.0144
 7442,-0.00946261,0.00004633,-0.00001267,0.00161885,-0.00054814,-0.0001
 5003,-0.00151544,-0.00015879,0.00039732,0.00064480,0.00300972,0.000251
 89,-0.00052604,0.00028209,0.00016960,-0.00029543,0.11366518,0.17021204
 ,-0.07649960,-0.08593512,-0.11577348,-0.01447929,-0.01045781,-0.009413
 70,-0.00119915,0.00056632,0.00046656,-0.00085233,0.00007359,-0.0002132
 8,0.00008090,0.00010218,-0.00005258,0.00373214,-0.00279819,-0.00254213
 ,-0.00003539,0.00066847,0.00058546,0.08355830,0.09549076,0.11898091,-0
 .11329283,-0.08368762,0.08869022,-0.01267638,-0.00700051,0.01234883,0.
 00041708,0.00375292,0.00213146,-0.00068042,-0.00054068,0.00177972,0.00
 059582,-0.00026196,-0.00099852,-0.00145362,0.00093567,-0.00239495,-0.0
 0048358,-0.00101742,-0.00057425,-0.00689164,-0.00743063,0.01196706,0.1
 2229509,-0.08347008,-0.14240858,0.10296374,0.01064922,0.01545438,-0.01
 079161,0.00136831,-0.00264429,-0.00213904,0.00084211,-0.00036267,-0.00
 123534,-0.00017206,0.00008809,0.00010100,-0.00033548,-0.00052486,-0.00
 014976,-0.00085864,-0.00221967,-0.00147636,-0.00564432,-0.00834181,0.0
 1274114,0.08488319,0.14889585,0.09120659,0.09979488,-0.16754326,0.0059
 4536,0.01419572,-0.01195150,0.00196740,-0.00325462,-0.00153687,0.00080
 715,0.00015553,0.00044600,-0.00063173,0.00019254,0.00026736,0.00044947
 ,0.00131500,-0.00123595,-0.00096317,-0.00096163,0.00074929,-0.00833593
 ,-0.00917368,0.01364558,-0.09992041,-0.10929937,0.17500970,-0.15996358
 ,0.09453097,-0.09453345,-0.01434282,0.01038123,-0.00368204,0.00114197,
 0.00047545,-0.00028438,-0.00270786,0.00150789,0.00062410,0.00022994,0.
 00026176,-0.00075130,-0.00041042,-0.00040674,-0.00231693,-0.00039033,0
 .00046004,0.00048118,-0.01007535,0.01022969,-0.00732227,0.01092876,-0.
 00917135,0.00839424,0.17301390,0.09606329,-0.11597443,0.07422447,0.011
 02911,-0.01300079,0.00339885,0.00030832,-0.00117567,0.00128171,0.00212
 049,-0.00301694,0.00058032,0.00021852,0.00006180,0.00032236,0.00022064
 ,0.00306542,-0.00021645,-0.00061489,-0.00024215,0.00073399,-0.01383454
 ,0.01178544,-0.01009723,0.01174473,-0.00793251,0.00734902,-0.10629284,
 0.12466907,-0.08802178,0.06865982,-0.10614069,0.01217653,-0.01138921,0
 .00451008,-0.00031579,0.00125056,-0.00077080,0.00041879,-0.00187424,0.
 00380006,0.00017922,0.00027220,-0.00066573,-0.00093184,0.00321700,-0.0
 0155450,-0.00041501,-0.00056995,0.00102384,-0.00820794,0.00901394,-0.0
 0637977,-0.01437699,0.00929855,-0.00867054,0.09652846,-0.07557317,0.11
 669306,0.00016573,-0.00012700,0.00010096,-0.01211378,-0.00651521,-0.01
 314747,-0.17083007,-0.09062519,-0.10079739,0.00020990,-0.00044689,-0.0
 0009185,0.00008905,-0.00008242,0.00052302,-0.00055910,-0.00086287,0.00
 269072,-0.00032452,-0.00066502,-0.00019377,-0.00034302,0.00027361,0.00
 083122,0.00048007,0.00015456,0.00021322,0.00019747,-0.00024526,-0.0000
 5570,0.17985995,0.00197850,-0.00087930,0.00016799,-0.01337234,-0.01408
 807,-0.00734349,-0.08928857,-0.10577681,-0.07984790,-0.00173893,-0.000
 16198,-0.00084706,0.00005688,0.00014308,-0.00013493,0.00003830,-0.0010
 9708,0.00417979,-0.00086042,-0.00027735,-0.00044061,0.00001033,0.00079
 823,-0.00013778,0.00010369,-0.00007207,0.00002949,0.00031293,0.0003488
 0,-0.00041981,0.09913503,0.11604429,-0.00001879,0.00046301,0.00021570,
 0.01302132,0.01034677,0.01222677,-0.10230808,-0.07948623,-0.13564545,0
 .00135677,0.00090497,0.00038679,0.00005262,0.00001223,-0.00009712,0.00
 092101,0.00209969,-0.00247854,0.00061070,0.00081563,0.00036793,0.00026
 526,-0.00007220,-0.00027834,-0.00031992,-0.00001202,-0.00007551,-0.000
 13234,0.00003510,0.00017575,0.10932629,0.07970581,0.14184645,-0.000729
 67,0.00078061,-0.00007332,0.00561310,-0.01362905,0.00625374,-0.1191538
 3,0.10030845,-0.06397022,0.00317800,-0.00137211,0.00213242,0.00017814,
 -0.00051053,-0.00003946,-0.00164222,0.00305248,-0.00120251,-0.00074926
 ,-0.00069964,0.00073295,0.00025369,-0.00005136,0.00010037,0.00012754,-
 0.00012677,-0.00037735,-0.00031945,-0.00070447,0.00127407,-0.00991755,
 0.01569383,-0.00875278,0.13011947,0.00236185,-0.00055740,-0.00062828,0
 .00400100,-0.01587245,0.00915744,0.10656288,-0.16974373,0.08544853,0.0
 0045381,-0.00272840,0.00179096,-0.00117807,0.00110066,0.00083438,0.000
 82697,0.00149134,0.00118501,-0.00065401,0.00001289,-0.00008164,-0.0001
 3106,0.00007309,-0.00014380,-0.00054687,0.00002226,-0.00033293,-0.0003
 0349,0.00056402,-0.00065061,-0.00917322,0.01119677,-0.00793276,-0.1082
 5039,0.18374325,0.00061794,-0.00121278,0.00259308,-0.00785508,0.012465
 91,-0.01114411,-0.06804100,0.08768843,-0.10381210,-0.00006427,0.000820
 41,-0.00103799,0.00001035,-0.00031196,0.00070217,0.00004759,-0.0008814
 1,-0.00033271,0.00013511,-0.00000348,-0.00014645,-0.00026311,0.0003118
 4,-0.00032984,0.00013172,-0.00007379,0.00032139,0.00097405,0.00024740,
 -0.00102823,-0.00833544,0.01192236,-0.00680766,0.07154602,-0.09683858,
 0.10786935,-0.00097830,-0.00383415,0.00386682,-0.01043338,0.01280657,0
 .00836749,-0.11141543,0.07091718,0.08993430,0.00081360,-0.00074731,0.0
 0092146,0.00009738,0.00046812,-0.00040756,-0.00021273,0.00199814,0.000
 33513,0.00031533,-0.00002318,-0.00020576,-0.00001001,0.00016848,0.0001
 1870,-0.00007248,0.00082256,0.00078297,0.00055324,-0.00034756,-0.00069
 213,0.01261962,-0.01187513,-0.01438705,-0.00655310,0.00643522,0.011042
 57,0.11569228,-0.00193896,-0.00216153,-0.00091975,-0.01007163,0.012002
 16,0.01845318,0.07435515,-0.13766597,-0.11066939,-0.00054259,0.0014605
 7,-0.00136025,0.00053467,-0.00098623,0.00069472,-0.00099343,-0.0005806
 2,0.00102969,0.00053857,0.00052023,-0.00031547,0.00017616,-0.00020076,
 0.00010319,-0.00096152,0.00051376,0.00061968,-0.00068595,0.00014579,0.
 00049163,0.00869911,-0.00692840,-0.00715962,0.00696468,-0.00916002,-0.
 01432055,-0.07602992,0.14354129,0.00150737,0.00275363,0.00048415,0.007
 77352,-0.00965295,-0.01456301,0.08908255,-0.10714604,-0.17809757,0.001
 28080,-0.00172038,0.00011076,-0.00108308,0.00093086,0.00083881,-0.0008
 9504,0.00048854,-0.00010927,-0.00050134,-0.00022264,0.00026741,-0.0001
 9017,0.00033984,0.00033788,0.00089302,-0.00058344,-0.00015402,0.000559
 12,-0.00020150,-0.00024196,0.00854554,-0.00713371,-0.00892999,-0.00766
 659,0.00868357,0.01243793,-0.09956833,0.11323756,0.18716882,-0.0043944
 7,0.00385988,-0.00396757,-0.00228388,-0.00583945,0.00164153,0.00167461
 ,0.00009487,-0.00022591,-0.18123656,-0.11283266,0.06841295,-0.01293550
 ,-0.00295688,0.01154164,-0.00061431,0.00882189,-0.00636704,0.00183290,
 0.00011734,0.00276846,0.00012186,-0.00034393,0.00041075,0.00039147,0.0
 0109515,-0.00002089,0.00104016,0.00054652,0.00127502,-0.00000905,-0.00
 004828,0.00000589,-0.00046714,0.00003484,0.00012030,-0.00002778,-0.000
 07393,0.00006007,0.19786357,-0.00189511,0.00043167,-0.00071778,0.00115
 915,-0.01528356,0.01477328,-0.00005164,0.00023723,-0.00020588,-0.13330
 180,-0.13035599,0.04593036,0.02210166,0.00524446,-0.01124604,-0.000794
 78,0.00192901,-0.00163860,0.00057301,-0.00027496,-0.00040155,0.0000683
 5,-0.00005428,0.00002354,0.00104427,-0.00065262,-0.00015156,-0.0001265
 0,0.00049663,0.00027654,0.00015570,-0.00008594,0.00004152,0.00030991,-
 0.00034879,0.00027909,0.00020404,-0.00002340,-0.00004872,0.11801691,0.
 14322460,-0.00070072,-0.00017148,-0.00025320,-0.00267130,0.00823744,-0
 .00868173,0.00136163,0.00076321,-0.00012075,0.08537286,0.05046746,-0.0
 7925957,0.01122173,0.00242384,-0.00225174,-0.00069133,0.00730358,-0.00
 454410,0.00063264,-0.00143771,0.00214073,0.00006114,-0.00015997,0.0001
 5706,0.00032236,-0.00022711,0.00044547,0.00029400,-0.00045846,0.000144
 40,-0.00000678,0.00012238,-0.00024300,-0.00041597,-0.00001805,-0.00003
 027,-0.00006266,-0.00008465,0.00005725,-0.08321410,-0.05479415,0.07981
 322,-0.00016460,-0.00059571,-0.00039698,-0.00740217,-0.00089922,-0.009
 54911,0.00069321,-0.00117540,0.00133607,-0.10399124,-0.10123148,-0.075
 07275,0.00254227,0.02207572,0.01941395,-0.00085400,-0.00065194,0.00042
 098,-0.00080502,0.00044038,-0.00123850,-0.00018326,0.00093272,-0.00002
 299,-0.00018093,-0.00022392,-0.00001667,0.00021870,-0.00016889,0.00020
 033,0.00038981,0.00019582,0.00006177,-0.00024209,0.00016271,0.00022583
 ,-0.00004898,0.00004522,0.00010234,-0.00050673,-0.00648855,-0.01264691
 ,0.11081508,0.00313662,-0.00123209,0.00275577,0.00614884,-0.00577765,0
 .00830373,0.00053570,0.00060583,-0.00005866,-0.09311512,-0.16188863,-0
 .12249271,0.00170828,-0.00778184,-0.01175871,0.00105139,0.00179536,0.0
 0041227,0.00092190,0.00072742,0.00010954,0.00041572,-0.00039232,0.0002
 4861,-0.00033024,0.00012799,-0.00018200,-0.00018225,0.00064628,-0.0004
 6656,0.00016023,-0.00007248,0.00034978,0.00007251,0.00041494,0.0001338
 0,0.00004590,-0.00026300,0.00008428,-0.00745251,-0.00351167,-0.0104662
 4,0.08723905,0.17761593,0.00016939,-0.00033939,-0.00015572,-0.00739410
 ,0.00119674,-0.00825092,-0.00008061,-0.00079954,0.00016519,-0.07644816
 ,-0.13197928,-0.15470773,-0.00026898,-0.00928636,-0.00427735,-0.001499
 44,0.00004421,-0.00132002,-0.00015902,-0.00056107,0.00034631,0.0000729
 9,0.00008493,0.00043782,0.00004609,0.00008287,0.00001535,0.00042205,-0
 .00024387,0.00011325,0.00010721,0.00054477,-0.00040808,0.00010892,-0.0
 0023597,0.00016853,-0.00005788,0.00018380,-0.00008493,0.00720660,0.007
 72215,0.01286687,0.07744769,0.13316348,0.15482836,-0.00411359,-0.00162
 758,-0.00049924,0.01208010,-0.01524018,-0.01318947,0.00011548,0.000736
 11,-0.00162403,-0.00078344,0.00069167,-0.00087986,-0.00090883,-0.00003
 745,-0.00094467,-0.14010326,0.10357715,0.09593082,-0.01060422,0.000734
 18,0.01121324,0.00072391,-0.00076648,-0.00063461,0.00034235,0.00022112
 ,0.00011138,0.00032235,-0.00008759,0.00009696,-0.00003532,-0.00010513,
 0.00008984,0.00034757,0.00005282,-0.00011761,-0.00023494,-0.00016083,0
 .00014821,-0.00003879,-0.00018976,0.00013657,0.00004409,-0.00012097,0.
 00021362,0.15010459,-0.00377722,-0.00120853,-0.00222319,0.01325410,-0.
 01007049,-0.00671117,0.00045043,0.00022579,-0.00073235,-0.00010545,0.0
 0129889,-0.00096164,0.00063118,0.00010276,0.00054809,0.09946705,-0.148
 37780,-0.09875164,-0.01810077,0.00545162,0.01714403,0.00059540,-0.0002
 0351,-0.00080776,0.00001054,-0.00017241,-0.00008535,-0.00026295,0.0004
 9570,0.00055342,-0.00014323,0.00020679,0.00026836,0.00004035,0.0000825
 8,-0.00011793,-0.00078524,-0.00047109,0.00029340,-0.00069756,-0.000217
 74,-0.00017684,0.00017309,-0.00033146,0.00020561,-0.09756076,0.1602156
 1,-0.00349829,-0.00106157,0.00131744,0.00629498,-0.01407470,-0.0142387
 9,-0.00043228,0.00164919,-0.00040963,0.00092385,-0.00137629,0.00018218
 ,-0.00030919,0.00058592,0.00062269,0.09263261,-0.09744269,-0.13540448,
 0.01158585,-0.00079831,-0.00943551,0.00055902,-0.00068358,-0.00015812,
 0.00042032,0.00047170,0.00026256,0.00051244,-0.00027488,-0.00007408,-0
 .00000314,0.00006011,-0.00005423,0.00025758,0.00019910,0.00009583,0.00
 002909,0.00000888,0.00059586,0.00049725,0.00015804,-0.00003988,0.00002
 180,0.00002753,0.00014734,-0.09915689,0.10136289,0.14495996,-0.0013884
 0,0.00155157,0.00000546,-0.00870869,0.00299300,-0.00850735,0.00065141,
 0.00082593,-0.00046074,-0.00485134,0.00314108,-0.00494500,0.00132739,-
 0.00147135,-0.00087161,-0.12964769,0.09296958,-0.09239640,0.00391846,-
 0.01622217,0.01606372,0.00011360,-0.00038943,0.00024619,0.00015369,-0.
 00003360,0.00038837,0.00056332,0.00004442,0.00086781,0.00012082,-0.000
 23651,0.00020749,-0.00004321,-0.00065499,-0.00017497,-0.00010432,0.000
 14518,-0.00004798,-0.00041036,-0.00078486,0.00100682,-0.00032412,-0.00
 023505,0.00011363,-0.00725803,0.00681104,-0.01033498,0.14588748,0.0029
 8395,-0.00175253,0.00206302,-0.01207502,0.00634292,-0.01292976,0.00182
 897,-0.00232527,0.00177694,0.00353388,0.00213911,-0.00036665,-0.001556
 67,0.00085934,0.00105598,0.09024763,-0.11576213,0.07925167,-0.00093212
 ,-0.01222690,0.01429874,-0.00006905,0.00008951,0.00035989,-0.00069754,
 0.00022918,-0.00021073,-0.00072791,-0.00093648,-0.00209012,0.00030807,
 0.00070151,-0.00038004,-0.00187851,-0.00029101,-0.00010876,-0.00022373
 ,0.00025721,-0.00010229,-0.00234221,-0.00075464,-0.00132326,0.00017043
 ,-0.00068262,0.00021693,0.00988366,-0.00702670,0.01118866,-0.08845384,
 0.13113950,0.00066861,0.00031587,0.00267823,-0.01762130,0.00290578,-0.
 01670054,0.00218246,0.00142518,0.00022664,0.00008470,-0.00008968,-0.00
 054726,0.00067900,0.00003830,0.00063987,-0.09284891,0.08943441,-0.1312
 7302,-0.00129914,0.01069604,-0.00969046,0.00018543,-0.00041830,0.00052
 996,-0.00014573,0.00032881,0.00000494,0.00023305,-0.00110768,-0.000934
 12,0.00029336,-0.00042741,-0.00020147,0.00009213,-0.00043639,0.0004811
 0,-0.00001715,0.00000735,-0.00011810,-0.00014494,-0.00000025,-0.000200
 73,-0.00028686,-0.00016391,0.00011573,0.00910573,-0.00980793,0.0116308
 6,0.09883956,-0.09270020,0.14335839\\0.,-0.00000047,0.00000069,-0.0000
 0005,-0.00000012,-0.00000018,-0.00000249,0.00000105,-0.00000138,0.0000
 0165,0.00000158,-0.00000054,0.00000232,0.00000221,-0.00000183,0.000000
 39,-0.00000163,0.00000124,0.00000231,-0.00000208,0.00000288,-0.0000001
 3,0.00000011,-0.00000026,0.00000141,-0.00000099,0.00000144,-0.00000135
 ,-0.00000172,0.00000129,-0.00000194,0.00000160,-0.00000225,-0.00000344
 ,-0.00000021,-0.00000075,-0.00000215,0.00000095,-0.00000162,0.00000313
 ,0.00000021,0.00000042,0.00000213,0.00000194,-0.00000167,-0.00000032,-
 0.00000050,0.00000085,-0.00000144,-0.00000193,0.00000165\\\@


 JUST WHEN YOU THINK YOU'VE GOT THE WORLD ON A STRING,
 YOU FIND OUT IT'S YOUR LEASH.
 Job cpu time:       0 days  0 hours  8 minutes 15.3 seconds.
 Elapsed time:       0 days  0 hours  2 minutes  4.8 seconds.
 File lengths (MBytes):  RWF=     78 Int=      0 D2E=      0 Chk=      3 Scr=      1
 Normal termination of Gaussian 16 at Tue Jul 11 00:03:55 2023.
real 2614.83
user 9872.31
sys 31.78
