 Entering Gaussian System, Link 0=g16
 Input=gaussian_test.inp
 Output=gaussian_test.log
 Initial command:
 /sw/restricted/lms/sw/Gaussian/g16_B01/g16/l1.exe "/scratch/user/peterchao1/peterchao1/6991744_1675632216000000214170378/Gau-39311.inp" -scrdir="/scratch/user/peterchao1/peterchao1/6991744_1675632216000000214170378/"
 Entering Link 1 = /sw/restricted/lms/sw/Gaussian/g16_B01/g16/l1.exe PID=     39318.
  
 Copyright (c) 1988-2017, Gaussian, Inc.  All Rights Reserved.
  
 This is part of the Gaussian(R) 16 program.  It is based on
 the Gaussian(R) 09 system (copyright 2009, Gaussian, Inc.),
 the Gaussian(R) 03 system (copyright 2003, Gaussian, Inc.),
 the Gaussian(R) 98 system (copyright 1998, Gaussian, Inc.),
 the Gaussian(R) 94 system (copyright 1995, Gaussian, Inc.),
 the Gaussian 92(TM) system (copyright 1992, Gaussian, Inc.),
 the Gaussian 90(TM) system (copyright 1990, Gaussian, Inc.),
 the Gaussian 88(TM) system (copyright 1988, Gaussian, Inc.),
 the Gaussian 86(TM) system (copyright 1986, Carnegie Mellon
 University), and the Gaussian 82(TM) system (copyright 1983,
 Carnegie Mellon University). Gaussian is a federally registered
 trademark of Gaussian, Inc.
  
 This software contains proprietary and confidential information,
 including trade secrets, belonging to Gaussian, Inc.
  
 This software is provided under written license and may be
 used, copied, transmitted, or stored only in accord with that
 written license.
  
 The following legend is applicable only to US Government
 contracts under FAR:
  
                    RESTRICTED RIGHTS LEGEND
  
 Use, reproduction and disclosure by the US Government is
 subject to restrictions as set forth in subparagraphs (a)
 and (c) of the Commercial Computer Software - Restricted
 Rights clause in FAR 52.227-19.
  
 Gaussian, Inc.
 340 Quinnipiac St., Bldg. 40, Wallingford CT 06492
  
  
 ---------------------------------------------------------------
 Warning -- This program may not be used in any manner that
 competes with the business of Gaussian, Inc. or will provide
 assistance to any competitor of Gaussian, Inc.  The licensee
 of this program is prohibited from giving any competitor of
 Gaussian, Inc. access to this program.  By using this program,
 the user acknowledges that Gaussian, Inc. is engaged in the
 business of creating and licensing software in the field of
 computational chemistry and represents and warrants to the
 licensee that it is not a competitor of Gaussian, Inc. and that
 it will not use this program in any manner prohibited above.
 ---------------------------------------------------------------
  

 Cite this work as:
 Gaussian 16, Revision B.01,
 M. J. Frisch, G. W. Trucks, H. B. Schlegel, G. E. Scuseria, 
 M. A. Robb, J. R. Cheeseman, G. Scalmani, V. Barone, 
 G. A. Petersson, H. Nakatsuji, X. Li, M. Caricato, A. V. Marenich, 
 J. Bloino, B. G. Janesko, R. Gomperts, B. Mennucci, H. P. Hratchian, 
 J. V. Ortiz, A. F. Izmaylov, J. L. Sonnenberg, D. Williams-Young, 
 F. Ding, F. Lipparini, F. Egidi, J. Goings, B. Peng, A. Petrone, 
 T. Henderson, D. Ranasinghe, V. G. Zakrzewski, J. Gao, N. Rega, 
 G. Zheng, W. Liang, M. Hada, M. Ehara, K. Toyota, R. Fukuda, 
 J. Hasegawa, M. Ishida, T. Nakajima, Y. Honda, O. Kitao, H. Nakai, 
 T. Vreven, K. Throssell, J. A. Montgomery, Jr., J. E. Peralta, 
 F. Ogliaro, M. J. Bearpark, J. J. Heyd, E. N. Brothers, K. N. Kudin, 
 V. N. Staroverov, T. A. Keith, R. Kobayashi, J. Normand, 
 K. Raghavachari, A. P. Rendell, J. C. Burant, S. S. Iyengar, 
 J. Tomasi, M. Cossi, J. M. Millam, M. Klene, C. Adamo, R. Cammi, 
 J. W. Ochterski, R. L. Martin, K. Morokuma, O. Farkas, 
 J. B. Foresman, and D. J. Fox, Gaussian, Inc., Wallingford CT, 2016.
 
 ******************************************
 Gaussian 16:  ES64L-G16RevB.01 20-Dec-2017
                 5-Feb-2023 
 ******************************************
 %nprocshared=4
 Will use up to    4 processors via shared memory.
 %mem=8000mb
 %chk=4.chk
 %nprocshared=4
 Will use up to    4 processors via shared memory.
 %mem=8000mb
 ----------------------------------------------------------------------
 #T wB97XD/def2svpp opt=tight freq int(grid=ultrafine) scf=(verytight,q
 c) Volume=tight
 ----------------------------------------------------------------------
 -----
 Dimer
 -----
 Symbolic Z-matrix:
 Charge =  0 Multiplicity = 1
 C                    -1.99479  -1.23103  -0.40763 
 C                    -2.03256   0.28927  -0.50233 
 C                    -2.03107   0.93853   0.87605 
 H                    -1.99458  -1.67832  -1.39924 
 H                    -2.86263  -1.60033   0.13494 
 H                    -1.0998   -1.55816   0.11711 
 H                    -2.92906   0.59665  -1.04564 
 H                    -1.16684   0.63943  -1.06859 
 H                    -2.9013    0.62237   1.44749 
 H                    -2.05138   2.0229    0.79142 
 H                    -1.13913   0.65386   1.43058 
 C                     2.03168  -0.93853   0.87588 
 C                     2.03066  -0.28932  -0.50252 
 C                     1.99596   1.23106  -0.40781 
 H                     2.0496   -2.02294   0.79125 
 H                     1.14188  -0.65206   1.43291 
 H                     2.90414  -0.62407   1.44484 
 H                     1.16273  -0.63782  -1.0664 
 H                     2.92507  -0.59844  -1.04828 
 H                     2.86615   1.59879   0.13204 
 H                     1.10318   1.5599    0.11965 
 H                     1.99351   1.67829  -1.39945 
 
 Add virtual bond connecting atoms H16        and H6         Dist= 5.20D+00.
 Add virtual bond connecting atoms H16        and H11        Dist= 4.97D+00.
 Add virtual bond connecting atoms H18        and H6         Dist= 5.13D+00.
 Add virtual bond connecting atoms H18        and H8         Dist= 5.02D+00.
 Add virtual bond connecting atoms H21        and H8         Dist= 5.14D+00.

 GradGradGradGradGradGradGradGradGradGradGradGradGradGradGradGradGradGrad
 Initialization pass.
                           ----------------------------
                           !    Initial Parameters    !
                           ! (Angstroms and Degrees)  !
 --------------------------                            --------------------------
 ! Name  Definition              Value          Derivative Info.                !
 --------------------------------------------------------------------------------
 ! R1    R(1,2)                  1.5237         estimate D2E/DX2                !
 ! R2    R(1,4)                  1.0878         estimate D2E/DX2                !
 ! R3    R(1,5)                  1.0881         estimate D2E/DX2                !
 ! R4    R(1,6)                  1.0878         estimate D2E/DX2                !
 ! R5    R(2,3)                  1.5236         estimate D2E/DX2                !
 ! R6    R(2,7)                  1.0924         estimate D2E/DX2                !
 ! R7    R(2,8)                  1.0921         estimate D2E/DX2                !
 ! R8    R(3,9)                  1.088          estimate D2E/DX2                !
 ! R9    R(3,10)                 1.0879         estimate D2E/DX2                !
 ! R10   R(3,11)                 1.0882         estimate D2E/DX2                !
 ! R11   R(6,16)                 2.7527         estimate D2E/DX2                !
 ! R12   R(6,18)                 2.7142         estimate D2E/DX2                !
 ! R13   R(8,18)                 2.6567         estimate D2E/DX2                !
 ! R14   R(8,21)                 2.7225         estimate D2E/DX2                !
 ! R15   R(11,16)                2.6284         estimate D2E/DX2                !
 ! R16   R(12,13)                1.5236         estimate D2E/DX2                !
 ! R17   R(12,15)                1.0879         estimate D2E/DX2                !
 ! R18   R(12,16)                1.0882         estimate D2E/DX2                !
 ! R19   R(12,17)                1.088          estimate D2E/DX2                !
 ! R20   R(13,14)                1.5237         estimate D2E/DX2                !
 ! R21   R(13,18)                1.0921         estimate D2E/DX2                !
 ! R22   R(13,19)                1.0924         estimate D2E/DX2                !
 ! R23   R(14,20)                1.0881         estimate D2E/DX2                !
 ! R24   R(14,21)                1.0878         estimate D2E/DX2                !
 ! R25   R(14,22)                1.0878         estimate D2E/DX2                !
 ! A1    A(2,1,4)              110.7086         estimate D2E/DX2                !
 ! A2    A(2,1,5)              110.4796         estimate D2E/DX2                !
 ! A3    A(2,1,6)              110.5131         estimate D2E/DX2                !
 ! A4    A(4,1,5)              108.3695         estimate D2E/DX2                !
 ! A5    A(4,1,6)              108.4147         estimate D2E/DX2                !
 ! A6    A(5,1,6)              108.2759         estimate D2E/DX2                !
 ! A7    A(1,2,3)              111.649          estimate D2E/DX2                !
 ! A8    A(1,2,7)              109.3896         estimate D2E/DX2                !
 ! A9    A(1,2,8)              109.4193         estimate D2E/DX2                !
 ! A10   A(3,2,7)              109.3199         estimate D2E/DX2                !
 ! A11   A(3,2,8)              109.3696         estimate D2E/DX2                !
 ! A12   A(7,2,8)              107.6044         estimate D2E/DX2                !
 ! A13   A(2,3,9)              110.5192         estimate D2E/DX2                !
 ! A14   A(2,3,10)             110.7539         estimate D2E/DX2                !
 ! A15   A(2,3,11)             110.5085         estimate D2E/DX2                !
 ! A16   A(9,3,10)             108.3955         estimate D2E/DX2                !
 ! A17   A(9,3,11)             108.1757         estimate D2E/DX2                !
 ! A18   A(10,3,11)            108.405          estimate D2E/DX2                !
 ! A19   A(1,6,16)             143.2808         estimate D2E/DX2                !
 ! A20   A(1,6,18)             111.9328         estimate D2E/DX2                !
 ! A21   A(16,6,18)             54.4069         estimate D2E/DX2                !
 ! A22   A(2,8,18)             122.7183         estimate D2E/DX2                !
 ! A23   A(2,8,21)             122.8914         estimate D2E/DX2                !
 ! A24   A(18,8,21)             55.3244         estimate D2E/DX2                !
 ! A25   A(3,11,16)            147.3281         estimate D2E/DX2                !
 ! A26   A(13,12,15)           110.7551         estimate D2E/DX2                !
 ! A27   A(13,12,16)           110.5112         estimate D2E/DX2                !
 ! A28   A(13,12,17)           110.5166         estimate D2E/DX2                !
 ! A29   A(15,12,16)           108.4047         estimate D2E/DX2                !
 ! A30   A(15,12,17)           108.3949         estimate D2E/DX2                !
 ! A31   A(16,12,17)           108.1753         estimate D2E/DX2                !
 ! A32   A(12,13,14)           111.6501         estimate D2E/DX2                !
 ! A33   A(12,13,18)           109.3699         estimate D2E/DX2                !
 ! A34   A(12,13,19)           109.3197         estimate D2E/DX2                !
 ! A35   A(14,13,18)           109.4149         estimate D2E/DX2                !
 ! A36   A(14,13,19)           109.3932         estimate D2E/DX2                !
 ! A37   A(18,13,19)           107.6039         estimate D2E/DX2                !
 ! A38   A(13,14,20)           110.4783         estimate D2E/DX2                !
 ! A39   A(13,14,21)           110.5151         estimate D2E/DX2                !
 ! A40   A(13,14,22)           110.7083         estimate D2E/DX2                !
 ! A41   A(20,14,21)           108.2774         estimate D2E/DX2                !
 ! A42   A(20,14,22)           108.3692         estimate D2E/DX2                !
 ! A43   A(21,14,22)           108.4131         estimate D2E/DX2                !
 ! A44   A(6,16,11)             57.0709         estimate D2E/DX2                !
 ! A45   A(6,16,12)            109.5453         estimate D2E/DX2                !
 ! A46   A(11,16,12)           147.1383         estimate D2E/DX2                !
 ! A47   A(6,18,8)              55.4195         estimate D2E/DX2                !
 ! A48   A(6,18,13)            123.062          estimate D2E/DX2                !
 ! A49   A(8,18,13)            122.9471         estimate D2E/DX2                !
 ! A50   A(8,21,14)            111.7441         estimate D2E/DX2                !
 ! D1    D(4,1,2,3)           -179.9007         estimate D2E/DX2                !
 ! D2    D(4,1,2,7)             58.9647         estimate D2E/DX2                !
 ! D3    D(4,1,2,8)            -58.6836         estimate D2E/DX2                !
 ! D4    D(5,1,2,3)             60.0442         estimate D2E/DX2                !
 ! D5    D(5,1,2,7)            -61.0903         estimate D2E/DX2                !
 ! D6    D(5,1,2,8)           -178.7386         estimate D2E/DX2                !
 ! D7    D(6,1,2,3)            -59.7673         estimate D2E/DX2                !
 ! D8    D(6,1,2,7)            179.0982         estimate D2E/DX2                !
 ! D9    D(6,1,2,8)             61.4499         estimate D2E/DX2                !
 ! D10   D(2,1,6,16)             2.5587         estimate D2E/DX2                !
 ! D11   D(2,1,6,18)           -56.8056         estimate D2E/DX2                !
 ! D12   D(4,1,6,16)           124.0587         estimate D2E/DX2                !
 ! D13   D(4,1,6,18)            64.6944         estimate D2E/DX2                !
 ! D14   D(5,1,6,16)          -118.5702         estimate D2E/DX2                !
 ! D15   D(5,1,6,18)          -177.9346         estimate D2E/DX2                !
 ! D16   D(1,2,3,9)            -60.2417         estimate D2E/DX2                !
 ! D17   D(1,2,3,10)           179.6153         estimate D2E/DX2                !
 ! D18   D(1,2,3,11)            59.4675         estimate D2E/DX2                !
 ! D19   D(7,2,3,9)             60.9333         estimate D2E/DX2                !
 ! D20   D(7,2,3,10)           -59.2097         estimate D2E/DX2                !
 ! D21   D(7,2,3,11)          -179.3575         estimate D2E/DX2                !
 ! D22   D(8,2,3,9)            178.5124         estimate D2E/DX2                !
 ! D23   D(8,2,3,10)            58.3693         estimate D2E/DX2                !
 ! D24   D(8,2,3,11)           -61.7785         estimate D2E/DX2                !
 ! D25   D(1,2,8,18)           -30.8548         estimate D2E/DX2                !
 ! D26   D(1,2,8,21)           -97.9106         estimate D2E/DX2                !
 ! D27   D(3,2,8,18)            91.7321         estimate D2E/DX2                !
 ! D28   D(3,2,8,21)            24.6763         estimate D2E/DX2                !
 ! D29   D(7,2,8,18)          -149.6168         estimate D2E/DX2                !
 ! D30   D(7,2,8,21)           143.3274         estimate D2E/DX2                !
 ! D31   D(2,3,11,16)            2.8749         estimate D2E/DX2                !
 ! D32   D(9,3,11,16)          123.9861         estimate D2E/DX2                !
 ! D33   D(10,3,11,16)        -118.672          estimate D2E/DX2                !
 ! D34   D(1,6,16,11)           31.4536         estimate D2E/DX2                !
 ! D35   D(1,6,16,12)         -114.8546         estimate D2E/DX2                !
 ! D36   D(18,6,16,11)         110.4237         estimate D2E/DX2                !
 ! D37   D(18,6,16,12)         -35.8845         estimate D2E/DX2                !
 ! D38   D(1,6,18,8)            31.0382         estimate D2E/DX2                !
 ! D39   D(1,6,18,13)          140.8822         estimate D2E/DX2                !
 ! D40   D(16,6,18,8)         -109.7168         estimate D2E/DX2                !
 ! D41   D(16,6,18,13)           0.1272         estimate D2E/DX2                !
 ! D42   D(2,8,18,6)             6.0653         estimate D2E/DX2                !
 ! D43   D(2,8,18,13)         -103.9842         estimate D2E/DX2                !
 ! D44   D(21,8,18,6)          115.9676         estimate D2E/DX2                !
 ! D45   D(21,8,18,13)           5.9181         estimate D2E/DX2                !
 ! D46   D(2,8,21,14)          140.7343         estimate D2E/DX2                !
 ! D47   D(18,8,21,14)          31.1428         estimate D2E/DX2                !
 ! D48   D(3,11,16,6)          -35.8232         estimate D2E/DX2                !
 ! D49   D(3,11,16,12)          38.6306         estimate D2E/DX2                !
 ! D50   D(15,12,13,14)        179.6066         estimate D2E/DX2                !
 ! D51   D(15,12,13,18)         58.3653         estimate D2E/DX2                !
 ! D52   D(15,12,13,19)        -59.2132         estimate D2E/DX2                !
 ! D53   D(16,12,13,14)         59.4565         estimate D2E/DX2                !
 ! D54   D(16,12,13,18)        -61.7848         estimate D2E/DX2                !
 ! D55   D(16,12,13,19)       -179.3633         estimate D2E/DX2                !
 ! D56   D(17,12,13,14)        -60.2521         estimate D2E/DX2                !
 ! D57   D(17,12,13,18)        178.5066         estimate D2E/DX2                !
 ! D58   D(17,12,13,19)         60.9281         estimate D2E/DX2                !
 ! D59   D(13,12,16,6)          62.3245         estimate D2E/DX2                !
 ! D60   D(13,12,16,11)          3.2227         estimate D2E/DX2                !
 ! D61   D(15,12,16,6)         -59.2253         estimate D2E/DX2                !
 ! D62   D(15,12,16,11)       -118.3271         estimate D2E/DX2                !
 ! D63   D(17,12,16,6)        -176.5661         estimate D2E/DX2                !
 ! D64   D(17,12,16,11)        124.3321         estimate D2E/DX2                !
 ! D65   D(12,13,14,20)         60.0677         estimate D2E/DX2                !
 ! D66   D(12,13,14,21)        -59.746          estimate D2E/DX2                !
 ! D67   D(12,13,14,22)       -179.8787         estimate D2E/DX2                !
 ! D68   D(18,13,14,20)       -178.7171         estimate D2E/DX2                !
 ! D69   D(18,13,14,21)         61.4692         estimate D2E/DX2                !
 ! D70   D(18,13,14,22)        -58.6635         estimate D2E/DX2                !
 ! D71   D(19,13,14,20)        -61.0698         estimate D2E/DX2                !
 ! D72   D(19,13,14,21)        179.1165         estimate D2E/DX2                !
 ! D73   D(19,13,14,22)         58.9838         estimate D2E/DX2                !
 ! D74   D(12,13,18,6)          24.5193         estimate D2E/DX2                !
 ! D75   D(12,13,18,8)          91.8675         estimate D2E/DX2                !
 ! D76   D(14,13,18,6)         -98.0664         estimate D2E/DX2                !
 ! D77   D(14,13,18,8)         -30.7183         estimate D2E/DX2                !
 ! D78   D(19,13,18,6)         143.17           estimate D2E/DX2                !
 ! D79   D(19,13,18,8)        -149.4818         estimate D2E/DX2                !
 ! D80   D(13,14,21,8)         -56.8805         estimate D2E/DX2                !
 ! D81   D(20,14,21,8)        -178.01           estimate D2E/DX2                !
 ! D82   D(22,14,21,8)          64.6194         estimate D2E/DX2                !
 --------------------------------------------------------------------------------
 Number of steps in this run=    132 maximum allowed number of steps=    132.
 GradGradGradGradGradGradGradGradGradGradGradGradGradGradGradGradGradGrad

                    Distance matrix (angstroms):
                    1          2          3          4          5
     1  C    0.000000
     2  C    1.523714   0.000000
     3  C    2.521137   1.523637   0.000000
     4  H    1.087822   2.162711   3.467879   0.000000
     5  H    1.088073   2.160029   2.772464   1.764451   0.000000
     6  H    1.087831   2.160268   2.770691   1.764757   1.763418
     7  H    2.149491   1.092421   2.148534   2.484706   2.494978
     8  H    2.149648   1.092125   2.148948   2.483237   3.056259
     9  H    2.774580   2.160428   1.088032   3.770830   2.581601
    10  H    3.468274   2.163232   1.087853   4.301302   3.770524
    11  H    2.768385   2.160388   1.088159   3.765463   3.119369
    12  C    4.236203   4.463740   4.475401   4.683397   4.994113
    13  C    4.135223   4.104205   4.461576   4.351548   5.105813
    14  C    4.689131   4.138218   4.236837   5.037044   5.649528
    15  H    4.292038   4.866594   5.042753   4.612204   4.973866
    16  H    3.682600   3.835148   3.592724   4.348759   4.315094
    17  H    5.272535   5.384860   5.207834   5.761747   5.993708
    18  H    3.279608   3.374546   4.056887   3.340964   4.309657
    19  H    5.001565   5.065985   5.534311   5.048990   5.991762
    20  H    5.650477   5.110249   4.997222   6.058961   6.561499
    21  H    4.202944   3.440091   3.283558   4.731725   5.070988
    22  H    5.035312   4.352403   4.682128   5.212648   6.056875
                    6          7          8          9         10
     6  H    0.000000
     7  H    3.056368   0.000000
     8  H    2.497956   1.762892   0.000000
     9  H    3.125706   2.493419   3.056027   0.000000
    10  H    3.766189   2.485819   2.481130   1.764731   0.000000
    11  H    2.572893   3.055948   2.499366   1.762535   1.764939
    12  C    3.281134   5.536960   4.062191   5.205520   5.044653
    13  C    3.434193   5.067416   3.377420   5.381259   4.866584
    14  C    4.199882   5.006507   3.284802   5.272173   4.294894
    15  H    3.254112   5.918067   4.570854   5.651531   5.760805
    16  H    2.752730   4.926977   3.640830   4.239309   4.214717
    17  H    4.320530   6.459021   4.948400   5.937747   5.656027
    18  H    2.714180   4.274002   2.656739   4.942073   4.567429
    19  H    4.298695   5.974872   4.275097   6.454909   5.917850
    20  H    5.069058   5.997978   4.315889   5.995611   4.979637
    21  H    3.817781   4.306360   2.722527   4.321810   3.258361
    22  H    4.726850   5.052406   3.343124   5.760138   4.613000
                   11         12         13         14         15
    11  H    0.000000
    12  C    3.591295   0.000000
    13  C    3.830670   1.523637   0.000000
    14  C    3.679897   2.521155   1.523716   0.000000
    15  H    4.212127   1.087857   2.163250   3.468300   0.000000
    16  H    2.628391   1.088157   2.160421   2.768362   1.764938
    17  H    4.240445   1.088025   2.160390   2.774642   1.764722
    18  H    3.633444   2.148940   1.092111   2.149584   2.481121
    19  H    4.922471   2.148530   1.092419   2.149536   2.485856
    20  H    4.315253   2.772653   2.160016   1.088075   3.770702
    21  H    2.750899   2.770581   2.160302   1.087840   3.766097
    22  H    4.344187   3.467892   2.162710   1.087824   4.301321
                   16         17         18         19         20
    16  H    0.000000
    17  H    1.762522   0.000000
    18  H    2.499442   3.055987   0.000000
    19  H    3.055967   2.493339   1.762873   0.000000
    20  H    3.119563   2.581860   3.056196   2.494882   0.000000
    21  H    2.572726   3.125595   2.498044   3.056428   1.763443
    22  H    3.765373   3.770955   2.483036   2.484879   1.764450
                   21         22
    21  H    0.000000
    22  H    1.764748   0.000000
 Framework group  C1[X(C6H16)]
 Deg. of freedom    60
                         Standard orientation:                         
 ---------------------------------------------------------------------
 Center     Atomic      Atomic             Coordinates (Angstroms)
 Number     Number       Type             X           Y           Z
 ---------------------------------------------------------------------
      1          6           0       -1.998151   -1.225594   -0.415407
      2          6           0       -2.031781    0.294803   -0.510106
      3          6           0       -2.028519    0.944055    0.868274
      4          1           0       -1.999156   -1.672889   -1.407014
      5          1           0       -2.866984   -1.592536    0.127165
      6          1           0       -1.104052   -1.555164    0.109330
      7          1           0       -2.927441    0.604615   -1.053423
      8          1           0       -1.165108    0.642604   -1.076366
      9          1           0       -2.899615    0.630261    1.439709
     10          1           0       -2.045885    2.028471    0.783637
     11          1           0       -1.137364    0.656952    1.422804
     12          6           0        2.029101   -0.944050    0.868101
     13          6           0        2.029846   -0.294840   -0.510303
     14          6           0        1.999285    1.225622   -0.415589
     15          1           0        2.044079   -2.028507    0.783470
     16          1           0        1.140090   -0.655161    1.425135
     17          1           0        2.902419   -0.631972    1.437065
     18          1           0        1.160975   -0.640981   -1.074179
     19          1           0        2.923416   -0.606397   -1.056054
     20          1           0        2.870477    1.590984    0.124265
     21          1           0        1.107407    1.556892    0.111868
     22          1           0        1.998053    1.672858   -1.407224
 ---------------------------------------------------------------------
 Rotational constants (GHZ):           3.7919487           1.2168325           1.1097014
   116 basis functions,   214 primitive gaussians,   122 cartesian basis functions
    26 alpha electrons       26 beta electrons
       nuclear repulsion energy       248.1141462630 Hartrees.
 NAtoms=   22 NActive=   22 NUniq=   22 SFac= 1.00D+00 NAtFMM=   60 NAOKFM=F Big=F
 Nuclear repulsion after empirical dispersion term =      248.1020986285 Hartrees.
   1 Symmetry operations used in ECPInt.
 ECPInt:  NShTT=    2346 NPrTT=    9442 LenC2=    2338 LenP2D=    7514.
 LDataN:  DoStor=T MaxTD1= 4 Len=   56
 ExpMin= 1.22D-01 ExpMax= 1.24D+03 ExpMxC= 1.86D+02 IAcc=3 IRadAn=         5 AccDes= 0.00D+00
 Harris functional with IExCor= 4639 and IRadAn=       5 diagonalized for initial guess.
 HarFok:  IExCor= 4639 AccDes= 0.00D+00 IRadAn=         5 IDoV= 1 UseB2=F ITyADJ=14
 ICtDFT=  3500011 ScaDFX=  1.000000  1.000000  1.000000  1.000000
 FoFCou: FMM=F IPFlag=           0 FMFlag=      100000 FMFlg1=           0
         NFxFlg=           0 DoJE=T BraDBF=F KetDBF=T FulRan=T
         wScrn=  0.000000 ICntrl=       500 IOpCl=  0 I1Cent=   200000004 NGrid=           0
         NMat0=    1 NMatS0=      1 NMatT0=    0 NMatD0=    1 NMtDS0=    0 NMtDT0=    0
 Petite list used in FoFCou.
     Accept linear search using points  2 and  3.
     Accept linear search using points  1 and  2.
     Accept linear search using points  1 and  2.
     Minimum is close to point  2 DX= -1.28D-04 DF= -1.42D-13 DXR=  1.28D-04 DFR=  1.71D-08 which will be used.
 SCF Done:  E(RwB97XD) =  -238.006637455     a.u. after    8 cycles
            Convg  =    0.2392D-09                    39 Fock formations.
              S**2 =  0.0000                  -V/T =  2.0108

 **********************************************************************

            Population analysis using the SCF Density.

 **********************************************************************

 Orbital symmetries:
       Occupied  (A) (A) (A) (A) (A) (A) (A) (A) (A) (A) (A) (A)
                 (A) (A) (A) (A) (A) (A) (A) (A) (A) (A) (A) (A)
                 (A) (A)
       Virtual   (A) (A) (A) (A) (A) (A) (A) (A) (A) (A) (A) (A)
                 (A) (A) (A) (A) (A) (A) (A) (A) (A) (A) (A) (A)
                 (A) (A) (A) (A) (A) (A) (A) (A) (A) (A) (A) (A)
                 (A) (A) (A) (A) (A) (A) (A) (A) (A) (A) (A) (A)
                 (A) (A) (A) (A) (A) (A) (A) (A) (A) (A) (A) (A)
                 (A) (A) (A) (A) (A) (A) (A) (A) (A) (A) (A) (A)
                 (A) (A) (A) (A) (A) (A) (A) (A) (A) (A) (A) (A)
                 (A) (A) (A) (A) (A) (A)
 The electronic state is 1-A.
 Alpha  occ. eigenvalues --  -10.28273 -10.28271 -10.27329 -10.27328 -10.27268
 Alpha  occ. eigenvalues --  -10.27268  -0.87662  -0.87375  -0.77104  -0.76985
 Alpha  occ. eigenvalues --   -0.67203  -0.67085  -0.55773  -0.54098  -0.52587
 Alpha  occ. eigenvalues --   -0.52482  -0.48526  -0.48380  -0.46942  -0.46442
 Alpha  occ. eigenvalues --   -0.42028  -0.41725  -0.41719  -0.41662  -0.41285
 Alpha  occ. eigenvalues --   -0.40810
 Alpha virt. eigenvalues --    0.11945   0.16083   0.16828   0.17035   0.18707
 Alpha virt. eigenvalues --    0.20285   0.20906   0.21976   0.22362   0.22755
 Alpha virt. eigenvalues --    0.24759   0.24926   0.25497   0.25570   0.27139
 Alpha virt. eigenvalues --    0.29242   0.30401   0.30987   0.33826   0.35131
 Alpha virt. eigenvalues --    0.49158   0.49545   0.50518   0.52171   0.52614
 Alpha virt. eigenvalues --    0.54245   0.54619   0.55344   0.61099   0.63020
 Alpha virt. eigenvalues --    0.72123   0.72379   0.72565   0.74212   0.74627
 Alpha virt. eigenvalues --    0.75588   0.75973   0.76291   0.78096   0.80249
 Alpha virt. eigenvalues --    0.80351   0.80719   0.81168   0.82173   0.82353
 Alpha virt. eigenvalues --    0.82519   0.83708   0.84020   0.84605   0.86011
 Alpha virt. eigenvalues --    0.87321   0.90861   0.91110   0.92756   0.93866
 Alpha virt. eigenvalues --    0.96426   1.12245   1.14578   1.14647   1.17734
 Alpha virt. eigenvalues --    1.52823   1.53093   1.54776   1.55126   1.80850
 Alpha virt. eigenvalues --    1.81446   1.93158   1.97313   1.98895   1.99114
 Alpha virt. eigenvalues --    1.99959   2.03078   2.10197   2.11444   2.14013
 Alpha virt. eigenvalues --    2.14385   2.24212   2.25518   2.25605   2.26263
 Alpha virt. eigenvalues --    2.34632   2.36344   2.39889   2.40819   2.46188
 Alpha virt. eigenvalues --    2.46681   2.61916   2.61957   2.73612   2.73661
          Condensed to atoms (all electrons):
 Mulliken charges:
               1
     1  C   -0.329199
     2  C   -0.250371
     3  C   -0.335229
     4  H    0.117379
     5  H    0.110999
     6  H    0.118428
     7  H    0.104758
     8  H    0.111316
     9  H    0.111635
    10  H    0.118295
    11  H    0.122002
    12  C   -0.335210
    13  C   -0.250436
    14  C   -0.329124
    15  H    0.118306
    16  H    0.121969
    17  H    0.111647
    18  H    0.111352
    19  H    0.104758
    20  H    0.110996
    21  H    0.118349
    22  H    0.117379
 Sum of Mulliken charges =   0.00000
 Mulliken charges with hydrogens summed into heavy atoms:
               1
     1  C    0.017607
     2  C   -0.034297
     3  C    0.016703
    12  C    0.016712
    13  C   -0.034326
    14  C    0.017600
 Electronic spatial extent (au):  <R**2>=           1204.3835
 Charge=              0.0000 electrons
 Dipole moment (field-independent basis, Debye):
    X=             -0.0002    Y=             -0.0001    Z=             -0.0829  Tot=              0.0829
 Evaluate density.
 Using the total density.
 Monte-Carlo method of calculating molar volume:
 based on  0.001 e/bohr**3 density envelope.
 Number of points per bohr**3 =  100 CutOff= 1.00D-04
 Using the SCF density.
 There are      1787 points.  Will hold      1787 in memory.
 LenV=  1048336549 MDV=  1048576000.
 Box volume = 5713.439 fraction occupied=0.202
 Integrated density= 4.4014653173919761D+01 error=-7.9853468260802387D+00
 Molar volume = 1154.198 bohr**3/mol (102.999 cm**3/mol)
 Recommended a0 for SCRF calculation =  4.29 angstrom (  8.11 bohr)
   1 Symmetry operations used in ECPInt.
 ECPInt:  NShTT=    2346 NPrTT=    9442 LenC2=    2338 LenP2D=    7514.
 LDataN:  DoStor=T MaxTD1= 5 Len=  102
 Calling FoFJK, ICntrl=      2127 FMM=F ISym2X=0 I1Cent= 0 IOpClX= 0 NMat=1 NMatS=1 NMatT=0.

 GradGradGradGradGradGradGradGradGradGradGradGradGradGradGradGradGradGrad
 FormGI is forming the generalized inverse of G from B-inverse, IUseBI=4.
 Internal  Forces:  Max     0.011148726 RMS     0.003386323
 Step number   1 out of a maximum of  132
 All quantities printed in internal units (Hartrees-Bohrs-Radians)
 Mixed Optimization -- RFO/linear search
 Second derivative matrix not updated -- first step.
 ITU=  0
     Eigenvalues ---    0.00320   0.00531   0.00618   0.00705   0.01023
     Eigenvalues ---    0.01222   0.01384   0.01461   0.01902   0.02504
     Eigenvalues ---    0.02910   0.03077   0.03455   0.03980   0.04051
     Eigenvalues ---    0.04073   0.04326   0.04537   0.04726   0.04878
     Eigenvalues ---    0.05240   0.05475   0.05591   0.05745   0.06093
     Eigenvalues ---    0.06222   0.07894   0.08506   0.08984   0.09077
     Eigenvalues ---    0.09520   0.10274   0.10335   0.11156   0.11199
     Eigenvalues ---    0.11468   0.11968   0.12388   0.13355   0.14938
     Eigenvalues ---    0.25124   0.26415   0.26880   0.27887   0.29514
     Eigenvalues ---    0.29937   0.30607   0.31827   0.32742   0.33642
     Eigenvalues ---    0.34534   0.34535   0.35036   0.35036   0.35041
     Eigenvalues ---    0.35042   0.35061   0.35062   0.35065   0.35066
 Linear search not attempted -- first point.
 Iteration  1 RMS(Cart)=  0.01708831 RMS(Int)=  0.00012378
 Iteration  2 RMS(Cart)=  0.00011930 RMS(Int)=  0.00004552
 Iteration  3 RMS(Cart)=  0.00000002 RMS(Int)=  0.00004552
 Variable       Old X    -DE/DX   Delta X   Delta X   Delta X     New X
                                 (Linear)    (Quad)   (Total)
    R1        2.87940   0.00282   0.00000   0.01307   0.01309   2.89249
    R2        2.05569   0.01079   0.00000   0.03027   0.03027   2.08595
    R3        2.05616   0.01112   0.00000   0.03121   0.03121   2.08737
    R4        2.05570   0.01009   0.00000   0.03022   0.03022   2.08593
    R5        2.87926   0.00399   0.00000   0.01404   0.01405   2.89331
    R6        2.06438   0.00820   0.00000   0.02337   0.02337   2.08774
    R7        2.06382   0.00763   0.00000   0.02298   0.02296   2.08678
    R8        2.05608   0.01114   0.00000   0.03128   0.03128   2.08737
    R9        2.05574   0.01075   0.00000   0.03017   0.03017   2.08591
   R10        2.05632   0.01080   0.00000   0.03084   0.03085   2.08717
   R11        5.20191   0.00056   0.00000   0.00479   0.00479   5.20669
   R12        5.12906   0.00117   0.00000   0.00439   0.00440   5.13346
   R13        5.02051   0.00140   0.00000   0.00645   0.00645   5.02695
   R14        5.14483   0.00015   0.00000  -0.00738  -0.00740   5.13743
   R15        4.96694  -0.00009   0.00000  -0.00394  -0.00393   4.96301
   R16        2.87926   0.00369   0.00000   0.01426   0.01426   2.89352
   R17        2.05575   0.01075   0.00000   0.03016   0.03016   2.08591
   R18        2.05632   0.00963   0.00000   0.02960   0.02960   2.08592
   R19        2.05607   0.01115   0.00000   0.03130   0.03130   2.08737
   R20        2.87941   0.00351   0.00000   0.01423   0.01424   2.89364
   R21        2.06379   0.00757   0.00000   0.02274   0.02276   2.08655
   R22        2.06437   0.00821   0.00000   0.02337   0.02337   2.08774
   R23        2.05616   0.01111   0.00000   0.03121   0.03121   2.08737
   R24        2.05572   0.01009   0.00000   0.03079   0.03078   2.08650
   R25        2.05569   0.01079   0.00000   0.03027   0.03027   2.08595
    A1        1.93223   0.00182   0.00000   0.01592   0.01590   1.94813
    A2        1.92823   0.00076   0.00000   0.00917   0.00914   1.93737
    A3        1.92882  -0.00058   0.00000  -0.00318  -0.00320   1.92562
    A4        1.89140  -0.00077   0.00000  -0.00702  -0.00718   1.88422
    A5        1.89219  -0.00080   0.00000  -0.00802  -0.00802   1.88418
    A6        1.88977  -0.00051   0.00000  -0.00775  -0.00773   1.88204
    A7        1.94864   0.00145   0.00000   0.01662   0.01659   1.96524
    A8        1.90921  -0.00007   0.00000   0.00378   0.00360   1.91281
    A9        1.90973  -0.00078   0.00000  -0.00497  -0.00498   1.90474
   A10        1.90799   0.00004   0.00000   0.00485   0.00470   1.91269
   A11        1.90886   0.00011   0.00000  -0.00381  -0.00382   1.90504
   A12        1.87805  -0.00083   0.00000  -0.01774  -0.01772   1.86033
   A13        1.92892   0.00091   0.00000   0.00757   0.00756   1.93648
   A14        1.93302   0.00208   0.00000   0.01587   0.01583   1.94885
   A15        1.92874  -0.00051   0.00000  -0.00004  -0.00006   1.92868
   A16        1.89186  -0.00109   0.00000  -0.00790  -0.00803   1.88383
   A17        1.88802  -0.00076   0.00000  -0.00855  -0.00856   1.87946
   A18        1.89202  -0.00075   0.00000  -0.00793  -0.00794   1.88409
   A19        2.50072  -0.00025   0.00000  -0.00222  -0.00224   2.49848
   A20        1.95360  -0.00161   0.00000  -0.00516  -0.00517   1.94842
   A21        0.94958   0.00218   0.00000   0.00674   0.00673   0.95631
   A22        2.14184  -0.00054   0.00000  -0.00356  -0.00360   2.13824
   A23        2.14486  -0.00056   0.00000  -0.00283  -0.00285   2.14201
   A24        0.96559   0.00205   0.00000   0.00829   0.00831   0.97390
   A25        2.57136  -0.00064   0.00000  -0.00372  -0.00378   2.56758
   A26        1.93304   0.00161   0.00000   0.01447   0.01446   1.94750
   A27        1.92878  -0.00035   0.00000  -0.00136  -0.00137   1.92742
   A28        1.92888   0.00078   0.00000   0.00914   0.00911   1.93799
   A29        1.89202  -0.00081   0.00000  -0.00912  -0.00915   1.88287
   A30        1.89185  -0.00074   0.00000  -0.00737  -0.00752   1.88433
   A31        1.88801  -0.00058   0.00000  -0.00668  -0.00666   1.88136
   A32        1.94866   0.00294   0.00000   0.02129   0.02124   1.96990
   A33        1.90886  -0.00073   0.00000  -0.00470  -0.00471   1.90416
   A34        1.90799  -0.00061   0.00000   0.00283   0.00266   1.91065
   A35        1.90965  -0.00107   0.00000  -0.00624  -0.00623   1.90342
   A36        1.90927  -0.00037   0.00000   0.00256   0.00235   1.91163
   A37        1.87804  -0.00027   0.00000  -0.01717  -0.01717   1.86087
   A38        1.92821   0.00092   0.00000   0.00886   0.00884   1.93704
   A39        1.92885  -0.00039   0.00000   0.00203   0.00203   1.93088
   A40        1.93223   0.00210   0.00000   0.01447   0.01444   1.94667
   A41        1.88980  -0.00033   0.00000  -0.00780  -0.00782   1.88197
   A42        1.89140  -0.00108   0.00000  -0.00817  -0.00830   1.88310
   A43        1.89217  -0.00134   0.00000  -0.01040  -0.01042   1.88174
   A44        0.99607   0.00160   0.00000   0.01012   0.01013   1.00621
   A45        1.91193  -0.00146   0.00000  -0.00621  -0.00619   1.90574
   A46        2.56805  -0.00045   0.00000  -0.00513  -0.00516   2.56288
   A47        0.96725   0.00196   0.00000   0.00639   0.00639   0.97364
   A48        2.14784  -0.00081   0.00000  -0.00187  -0.00189   2.14595
   A49        2.14583  -0.00036   0.00000  -0.00384  -0.00386   2.14198
   A50        1.95030  -0.00102   0.00000  -0.00355  -0.00357   1.94674
    D1       -3.13986   0.00046   0.00000   0.01015   0.01021  -3.12965
    D2        1.02913  -0.00049   0.00000  -0.00933  -0.00933   1.01980
    D3       -1.02422   0.00102   0.00000   0.01283   0.01285  -1.01138
    D4        1.04797  -0.00026   0.00000   0.00260   0.00259   1.05056
    D5       -1.06623  -0.00121   0.00000  -0.01688  -0.01695  -1.08317
    D6       -3.11958   0.00030   0.00000   0.00528   0.00523  -3.11435
    D7       -1.04314   0.00027   0.00000   0.00840   0.00843  -1.03471
    D8        3.12585  -0.00068   0.00000  -0.01107  -0.01111   3.11474
    D9        1.07250   0.00082   0.00000   0.01108   0.01106   1.08356
   D10        0.04466   0.00027   0.00000   0.00029   0.00030   0.04496
   D11       -0.99145  -0.00140   0.00000  -0.00509  -0.00507  -0.99651
   D12        2.16523   0.00165   0.00000   0.01282   0.01278   2.17802
   D13        1.12913  -0.00003   0.00000   0.00744   0.00741   1.13654
   D14       -2.06944   0.00002   0.00000  -0.00410  -0.00408  -2.07352
   D15       -3.10554  -0.00165   0.00000  -0.00949  -0.00945  -3.11500
   D16       -1.05142  -0.00003   0.00000  -0.00637  -0.00638  -1.05780
   D17        3.13488  -0.00062   0.00000  -0.01179  -0.01185   3.12303
   D18        1.03790  -0.00071   0.00000  -0.01218  -0.01224   1.02567
   D19        1.06349   0.00086   0.00000   0.01246   0.01252   1.07601
   D20       -1.03340   0.00026   0.00000   0.00704   0.00705  -1.02635
   D21       -3.13038   0.00018   0.00000   0.00665   0.00666  -3.12371
   D22        3.11563  -0.00006   0.00000  -0.00836  -0.00834   3.10729
   D23        1.01874  -0.00066   0.00000  -0.01379  -0.01381   1.00493
   D24       -1.07824  -0.00075   0.00000  -0.01418  -0.01420  -1.09244
   D25       -0.53852  -0.00020   0.00000  -0.01180  -0.01179  -0.55030
   D26       -1.70886  -0.00232   0.00000  -0.01956  -0.01952  -1.72838
   D27        1.60103   0.00117   0.00000   0.00315   0.00311   1.60414
   D28        0.43068  -0.00095   0.00000  -0.00460  -0.00462   0.42606
   D29       -2.61131   0.00080   0.00000  -0.00334  -0.00336  -2.61467
   D30        2.50153  -0.00132   0.00000  -0.01109  -0.01109   2.49044
   D31        0.05018   0.00068   0.00000   0.01107   0.01104   0.06121
   D32        2.16397   0.00101   0.00000   0.01492   0.01485   2.17882
   D33       -2.07122  -0.00110   0.00000  -0.00339  -0.00335  -2.07457
   D34        0.54897  -0.00051   0.00000  -0.00721  -0.00720   0.54177
   D35       -2.00459  -0.00035   0.00000  -0.00146  -0.00144  -2.00603
   D36        1.92726  -0.00011   0.00000  -0.00491  -0.00492   1.92234
   D37       -0.62630   0.00004   0.00000   0.00084   0.00085  -0.62546
   D38        0.54172   0.00030   0.00000  -0.00133  -0.00135   0.54037
   D39        2.45886   0.00110   0.00000  -0.00252  -0.00255   2.45630
   D40       -1.91492   0.00010   0.00000  -0.00023  -0.00022  -1.91514
   D41        0.00222   0.00091   0.00000  -0.00142  -0.00143   0.00079
   D42        0.10586  -0.00113   0.00000   0.00528   0.00529   0.11115
   D43       -1.81487  -0.00113   0.00000   0.00299   0.00303  -1.81183
   D44        2.02402  -0.00070   0.00000   0.00701   0.00700   2.03101
   D45        0.10329  -0.00070   0.00000   0.00473   0.00474   0.10803
   D46        2.45628   0.00027   0.00000  -0.00490  -0.00493   2.45135
   D47        0.54354  -0.00022   0.00000  -0.00537  -0.00536   0.53818
   D48       -0.62523   0.00024   0.00000   0.00061   0.00064  -0.62459
   D49        0.67423   0.00045   0.00000   0.01103   0.01099   0.68522
   D50        3.13473  -0.00067   0.00000  -0.00735  -0.00738   3.12734
   D51        1.01867  -0.00074   0.00000  -0.01019  -0.01021   1.00846
   D52       -1.03347   0.00037   0.00000   0.01162   0.01163  -1.02183
   D53        1.03771  -0.00047   0.00000  -0.00447  -0.00445   1.03326
   D54       -1.07835  -0.00054   0.00000  -0.00732  -0.00728  -1.08563
   D55       -3.13048   0.00057   0.00000   0.01450   0.01456  -3.11592
   D56       -1.05160  -0.00003   0.00000  -0.00115  -0.00113  -1.05273
   D57        3.11553  -0.00010   0.00000  -0.00400  -0.00396   3.11157
   D58        1.06340   0.00101   0.00000   0.01782   0.01788   1.08128
   D59        1.08777   0.00083   0.00000   0.00421   0.00420   1.09197
   D60        0.05625  -0.00013   0.00000  -0.00790  -0.00789   0.04836
   D61       -1.03368  -0.00041   0.00000  -0.00694  -0.00690  -1.04058
   D62       -2.06520  -0.00137   0.00000  -0.01905  -0.01899  -2.08419
   D63       -3.08166   0.00121   0.00000   0.01038   0.01034  -3.07132
   D64        2.17000   0.00026   0.00000  -0.00174  -0.00175   2.16826
   D65        1.04838  -0.00027   0.00000  -0.00196  -0.00195   1.04643
   D66       -1.04277  -0.00021   0.00000   0.00074   0.00079  -1.04198
   D67       -3.13948   0.00034   0.00000   0.00301   0.00306  -3.13642
   D68       -3.11920  -0.00001   0.00000   0.00179   0.00176  -3.11744
   D69        1.07284   0.00005   0.00000   0.00449   0.00449   1.07733
   D70       -1.02387   0.00061   0.00000   0.00676   0.00676  -1.01711
   D71       -1.06587  -0.00117   0.00000  -0.02112  -0.02116  -1.08703
   D72        3.12617  -0.00111   0.00000  -0.01842  -0.01843   3.10774
   D73        1.02946  -0.00056   0.00000  -0.01615  -0.01616   1.01330
   D74        0.42794   0.00023   0.00000   0.00629   0.00628   0.43422
   D75        1.60339   0.00222   0.00000   0.01192   0.01188   1.61527
   D76       -1.71158  -0.00225   0.00000  -0.01307  -0.01300  -1.72459
   D77       -0.53613  -0.00027   0.00000  -0.00744  -0.00740  -0.54353
   D78        2.49879  -0.00106   0.00000  -0.00277  -0.00276   2.49603
   D79       -2.60895   0.00092   0.00000   0.00286   0.00284  -2.60611
   D80       -0.99275  -0.00069   0.00000  -0.00069  -0.00068  -0.99343
   D81       -3.10686  -0.00138   0.00000  -0.00787  -0.00780  -3.11466
   D82        1.12782   0.00081   0.00000   0.01174   0.01167   1.13949
         Item               Value     Threshold  Converged?
 Maximum Force            0.011149     0.000015     NO 
 RMS     Force            0.003386     0.000010     NO 
 Maximum Displacement     0.065932     0.000060     NO 
 RMS     Displacement     0.017091     0.000040     NO 
 GradGradGradGradGradGradGradGradGradGradGradGradGradGradGradGradGradGrad

                    Distance matrix (angstroms):
                    1          2          3          4          5
     1  C    0.000000
     2  C    1.530639   0.000000
     3  C    2.547200   1.531075   0.000000
     4  H    1.103839   2.192337   3.511572   0.000000
     5  H    1.104589   2.185169   2.817290   1.786178   0.000000
     6  H    1.103826   2.176067   2.799520   1.785532   1.784752
     7  H    2.167418   1.104786   2.167714   2.518780   2.533276
     8  H    2.161092   1.104276   2.161692   2.508367   3.088668
     9  H    2.819871   2.184904   1.104586   3.835039   2.639882
    10  H    3.511754   2.193225   1.103818   4.362967   3.835053
    11  H    2.798560   2.179172   1.104485   3.811474   3.164157
    12  C    4.256550   4.482587   4.496081   4.706841   5.023139
    13  C    4.153594   4.119480   4.473875   4.374314   5.137239
    14  C    4.709546   4.151512   4.247534   5.062147   5.688059
    15  H    4.313744   4.892431   5.073262   4.633491   4.997867
    16  H    3.698303   3.847203   3.604030   4.373521   4.337083
    17  H    5.308076   5.418965   5.238055   5.802352   6.035875
    18  H    3.287717   3.384309   4.069354   3.351007   4.331529
    19  H    5.019438   5.085334   5.556126   5.063754   6.022753
    20  H    5.688618   5.135507   5.014248   6.103227   6.616646
    21  H    4.221398   3.443319   3.280586   4.759637   5.107534
    22  H    5.062133   4.372889   4.700845   5.241624   6.102874
                    6          7          8          9         10
     6  H    0.000000
     7  H    3.086765   0.000000
     8  H    2.515791   1.771045   0.000000
     9  H    3.172844   2.530127   3.088623   0.000000
    10  H    3.809597   2.522057   2.507317   1.785905   0.000000
    11  H    2.597170   3.089235   2.522756   1.783604   1.785989
    12  C    3.287756   5.565473   4.080614   5.239901   5.068543
    13  C    3.444087   5.087177   3.386948   5.411976   4.879918
    14  C    4.218883   5.018225   3.288474   5.300134   4.299306
    15  H    3.259600   5.954467   4.599372   5.694304   5.798746
    16  H    2.755263   4.951169   3.658682   4.259709   4.231453
    17  H    4.341221   6.503031   4.984245   5.977425   5.686373
    18  H    2.716508   4.287031   2.660149   4.974497   4.586649
    19  H    4.309171   5.995781   4.286447   6.495695   5.941175
    20  H    5.105658   6.021262   4.332712   6.027962   4.982095
    21  H    3.839945   4.307308   2.718610   4.335223   3.244053
    22  H    4.757273   5.063867   3.351203   5.796829   4.623948
                   11         12         13         14         15
    11  H    0.000000
    12  C    3.601359   0.000000
    13  C    3.837667   1.531184   0.000000
    14  C    3.693226   2.551755   1.531251   0.000000
    15  H    4.231893   1.103819   2.192351   3.514632   0.000000
    16  H    2.626309   1.103821   2.177852   2.806077   1.784664
    17  H    4.256666   1.104588   2.186094   2.824400   1.786231
    18  H    3.645215   2.161046   1.104154   2.160559   2.506678
    19  H    4.941565   2.166309   1.104785   2.167083   2.517562
    20  H    4.332817   2.820774   2.185471   1.104590   3.836995
    21  H    2.755949   2.813174   2.180658   1.104127   3.822741
    22  H    4.371964   3.514292   2.191828   1.103840   4.362891
                   16         17         18         19         20
    16  H    0.000000
    17  H    1.784303   0.000000
    18  H    2.518032   3.088933   0.000000
    19  H    3.086961   2.531723   1.771307   0.000000
    20  H    3.171593   2.644022   3.088177   2.533975   0.000000
    21  H    2.615952   3.184961   2.517427   3.089458   1.784952
    22  H    3.818518   3.837568   2.508514   2.514688   1.785451
                   21         22
    21  H    0.000000
    22  H    1.784194   0.000000
 Framework group  C1[X(C6H16)]
 Deg. of freedom    60
                         Standard orientation:                         
 ---------------------------------------------------------------------
 Center     Atomic      Atomic             Coordinates (Angstroms)
 Number     Number       Type             X           Y           Z
 ---------------------------------------------------------------------
      1          6           0       -2.006634   -1.234019   -0.428129
      2          6           0       -2.040001    0.294323   -0.505026
      3          6           0       -2.031055    0.953312    0.876945
      4          1           0       -2.001318   -1.691753   -1.432575
      5          1           0       -2.884564   -1.622194    0.118382
      6          1           0       -1.100587   -1.571514    0.104419
      7          1           0       -2.936512    0.617722   -1.063805
      8          1           0       -1.165784    0.646967   -1.080189
      9          1           0       -2.914007    0.647589    1.466046
     10          1           0       -2.036355    2.054651    0.803204
     11          1           0       -1.130574    0.654343    1.442311
     12          6           0        2.037537   -0.960134    0.871060
     13          6           0        2.037706   -0.290844   -0.506101
     14          6           0        2.002078    1.237830   -0.424760
     15          1           0        2.048837   -2.060738    0.787635
     16          1           0        1.135885   -0.672554    1.439163
     17          1           0        2.919961   -0.654103    1.460794
     18          1           0        1.161249   -0.641950   -1.078555
     19          1           0        2.932248   -0.609881   -1.070514
     20          1           0        2.880225    1.625451    0.121800
     21          1           0        1.095965    1.578142    0.106505
     22          1           0        1.997537    1.697018   -1.428547
 ---------------------------------------------------------------------
 Rotational constants (GHZ):           3.7139214           1.2078828           1.0995316
   116 basis functions,   214 primitive gaussians,   122 cartesian basis functions
    26 alpha electrons       26 beta electrons
       nuclear repulsion energy       246.1455195753 Hartrees.
 NAtoms=   22 NActive=   22 NUniq=   22 SFac= 1.00D+00 NAtFMM=   60 NAOKFM=F Big=F
 Nuclear repulsion after empirical dispersion term =      246.1335721868 Hartrees.
   1 Symmetry operations used in ECPInt.
 ECPInt:  NShTT=    2346 NPrTT=    9442 LenC2=    2338 LenP2D=    7502.
 LDataN:  DoStor=T MaxTD1= 4 Len=   56
 Initial guess from the checkpoint file:  "4.chk"
 B after Tr=     0.000000    0.000000    0.000000
         Rot=    0.999999   -0.001288   -0.000270    0.000002 Ang=  -0.15 deg.
 ExpMin= 1.22D-01 ExpMax= 1.24D+03 ExpMxC= 1.86D+02 IAcc=3 IRadAn=         5 AccDes= 0.00D+00
 Harris functional with IExCor= 4639 and IRadAn=       5 diagonalized for initial guess.
 HarFok:  IExCor= 4639 AccDes= 0.00D+00 IRadAn=         5 IDoV= 1 UseB2=F ITyADJ=14
 ICtDFT=  3500011 ScaDFX=  1.000000  1.000000  1.000000  1.000000
 FoFCou: FMM=F IPFlag=           0 FMFlag=      100000 FMFlg1=           0
         NFxFlg=           0 DoJE=T BraDBF=F KetDBF=T FulRan=T
         wScrn=  0.000000 ICntrl=       500 IOpCl=  0 I1Cent=   200000004 NGrid=           0
         NMat0=    1 NMatS0=      1 NMatT0=    0 NMatD0=    1 NMtDS0=    0 NMtDT0=    0
 Petite list used in FoFCou.
     Minimum is close to point  3 DX=  7.79D-02 DF= -4.29D-07 DXR=  7.22D-02 DFR=  5.25D-03 which will be used.
     Accept linear search using points  1 and  2.
     Minimum is close to point  2 DX= -2.69D-04 DF= -2.39D-12 DXR=  2.69D-04 DFR=  7.23D-08 which will be used.
 SCF Done:  E(RwB97XD) =  -238.009515252     a.u. after    5 cycles
            Convg  =    0.6039D-09                    25 Fock formations.
              S**2 =  0.0000                  -V/T =  2.0124
   1 Symmetry operations used in ECPInt.
 ECPInt:  NShTT=    2346 NPrTT=    9442 LenC2=    2338 LenP2D=    7502.
 LDataN:  DoStor=T MaxTD1= 5 Len=  102
 Calling FoFJK, ICntrl=      2127 FMM=F ISym2X=0 I1Cent= 0 IOpClX= 0 NMat=1 NMatS=1 NMatT=0.

 GradGradGradGradGradGradGradGradGradGradGradGradGradGradGradGradGradGrad
 Using GEDIIS/GDIIS optimizer.
 FormGI is forming the generalized inverse of G from B-inverse, IUseBI=4.
 Internal  Forces:  Max     0.001849515 RMS     0.000366342
 Step number   2 out of a maximum of  132
 All quantities printed in internal units (Hartrees-Bohrs-Radians)
 Mixed Optimization -- En-DIIS/RFO-DIIS
 Trust test= 9.71D-01 RLast= 1.59D-01 DXMaxT set to 4.77D-01
 ITU=  1  0
 Use linear search instead of GDIIS.
     Eigenvalues ---    0.00322   0.00535   0.00622   0.00705   0.01033
     Eigenvalues ---    0.01229   0.01381   0.01467   0.01903   0.02496
     Eigenvalues ---    0.02892   0.03038   0.03444   0.03908   0.04013
     Eigenvalues ---    0.04058   0.04333   0.04529   0.04692   0.04824
     Eigenvalues ---    0.05246   0.05449   0.05612   0.05720   0.06031
     Eigenvalues ---    0.06199   0.07863   0.08506   0.08979   0.09115
     Eigenvalues ---    0.09507   0.10295   0.10329   0.11176   0.11281
     Eigenvalues ---    0.11484   0.11989   0.12394   0.13447   0.14928
     Eigenvalues ---    0.25335   0.26456   0.26993   0.28058   0.29567
     Eigenvalues ---    0.29979   0.30661   0.31716   0.32502   0.33661
     Eigenvalues ---    0.34534   0.34539   0.34991   0.35036   0.35039
     Eigenvalues ---    0.35042   0.35062   0.35064   0.35065   0.36162
 Quartic linear search produced a step of  0.00877.
 Iteration  1 RMS(Cart)=  0.00467252 RMS(Int)=  0.00001667
 Iteration  2 RMS(Cart)=  0.00001415 RMS(Int)=  0.00000678
 Iteration  3 RMS(Cart)=  0.00000000 RMS(Int)=  0.00000678
 Variable       Old X    -DE/DX   Delta X   Delta X   Delta X     New X
                                 (Linear)    (Quad)   (Total)
    R1        2.89249  -0.00131   0.00011  -0.00571  -0.00559   2.88689
    R2        2.08595  -0.00020   0.00027  -0.00019   0.00008   2.08603
    R3        2.08737   0.00013   0.00027   0.00078   0.00105   2.08842
    R4        2.08593   0.00043   0.00026   0.00127   0.00153   2.08746
    R5        2.89331  -0.00185   0.00012  -0.00641  -0.00628   2.88703
    R6        2.08774   0.00014   0.00020   0.00071   0.00092   2.08866
    R7        2.08678   0.00032   0.00020   0.00101   0.00121   2.08799
    R8        2.08737   0.00016   0.00027   0.00086   0.00113   2.08850
    R9        2.08591  -0.00019   0.00026  -0.00018   0.00009   2.08600
   R10        2.08717   0.00015   0.00027   0.00104   0.00131   2.08849
   R11        5.20669  -0.00020   0.00004  -0.00864  -0.00860   5.19809
   R12        5.13346  -0.00033   0.00004  -0.01058  -0.01053   5.12292
   R13        5.02695  -0.00041   0.00006  -0.01250  -0.01243   5.01452
   R14        5.13743  -0.00022  -0.00006  -0.01566  -0.01573   5.12170
   R15        4.96301  -0.00032  -0.00003  -0.01511  -0.01515   4.94786
   R16        2.89352  -0.00180   0.00013  -0.00665  -0.00652   2.88700
   R17        2.08591  -0.00020   0.00026  -0.00018   0.00008   2.08600
   R18        2.08592   0.00039   0.00026   0.00135   0.00161   2.08753
   R19        2.08737   0.00012   0.00027   0.00074   0.00101   2.08838
   R20        2.89364  -0.00177   0.00012  -0.00675  -0.00663   2.88701
   R21        2.08655   0.00038   0.00020   0.00112   0.00133   2.08788
   R22        2.08774   0.00015   0.00020   0.00073   0.00094   2.08868
   R23        2.08737   0.00016   0.00027   0.00085   0.00113   2.08850
   R24        2.08650   0.00044   0.00027   0.00140   0.00166   2.08816
   R25        2.08595  -0.00017   0.00027  -0.00010   0.00017   2.08612
    A1        1.94813  -0.00019   0.00014  -0.00118  -0.00104   1.94709
    A2        1.93737   0.00021   0.00008   0.00324   0.00332   1.94070
    A3        1.92562   0.00052  -0.00003   0.00333   0.00329   1.92891
    A4        1.88422  -0.00001  -0.00006  -0.00155  -0.00162   1.88260
    A5        1.88418  -0.00017  -0.00007  -0.00162  -0.00170   1.88248
    A6        1.88204  -0.00038  -0.00007  -0.00249  -0.00256   1.87949
    A7        1.96524   0.00016   0.00015   0.00165   0.00180   1.96703
    A8        1.91281   0.00008   0.00003   0.00184   0.00187   1.91468
    A9        1.90474   0.00003  -0.00004   0.00075   0.00071   1.90545
   A10        1.91269  -0.00006   0.00004   0.00047   0.00050   1.91319
   A11        1.90504   0.00000  -0.00003   0.00044   0.00040   1.90544
   A12        1.86033  -0.00023  -0.00016  -0.00556  -0.00572   1.85461
   A13        1.93648   0.00024   0.00007   0.00321   0.00328   1.93976
   A14        1.94885  -0.00025   0.00014  -0.00179  -0.00165   1.94720
   A15        1.92868   0.00071  -0.00000   0.00395   0.00395   1.93262
   A16        1.88383  -0.00004  -0.00007  -0.00151  -0.00158   1.88224
   A17        1.87946  -0.00043  -0.00008  -0.00219  -0.00229   1.87718
   A18        1.88409  -0.00027  -0.00007  -0.00193  -0.00199   1.88209
   A19        2.49848  -0.00069  -0.00002  -0.00532  -0.00534   2.49313
   A20        1.94842  -0.00034  -0.00005  -0.00299  -0.00303   1.94539
   A21        0.95631   0.00009   0.00006   0.00299   0.00305   0.95936
   A22        2.13824  -0.00016  -0.00003  -0.00309  -0.00313   2.13511
   A23        2.14201  -0.00039  -0.00002  -0.00417  -0.00420   2.13781
   A24        0.97390   0.00009   0.00007   0.00400   0.00408   0.97798
   A25        2.56758  -0.00067  -0.00003  -0.00383  -0.00387   2.56371
   A26        1.94750  -0.00022   0.00013  -0.00187  -0.00173   1.94577
   A27        1.92742   0.00058  -0.00001   0.00426   0.00424   1.93166
   A28        1.93799   0.00014   0.00008   0.00279   0.00286   1.94086
   A29        1.88287  -0.00014  -0.00008  -0.00146  -0.00154   1.88133
   A30        1.88433   0.00001  -0.00007  -0.00156  -0.00163   1.88270
   A31        1.88136  -0.00040  -0.00006  -0.00243  -0.00249   1.87887
   A32        1.96990  -0.00027   0.00019   0.00042   0.00060   1.97050
   A33        1.90416   0.00022  -0.00004   0.00132   0.00127   1.90543
   A34        1.91065   0.00014   0.00002   0.00147   0.00149   1.91214
   A35        1.90342   0.00015  -0.00005   0.00165   0.00160   1.90502
   A36        1.91163   0.00013   0.00002   0.00072   0.00073   1.91236
   A37        1.86087  -0.00038  -0.00015  -0.00596  -0.00611   1.85477
   A38        1.93704   0.00027   0.00008   0.00306   0.00314   1.94018
   A39        1.93088   0.00056   0.00002   0.00481   0.00482   1.93570
   A40        1.94667  -0.00023   0.00013  -0.00218  -0.00205   1.94462
   A41        1.88197  -0.00046  -0.00007  -0.00290  -0.00298   1.87900
   A42        1.88310  -0.00004  -0.00007  -0.00156  -0.00163   1.88147
   A43        1.88174  -0.00012  -0.00009  -0.00154  -0.00163   1.88011
   A44        1.00621   0.00008   0.00009   0.00374   0.00384   1.01005
   A45        1.90574  -0.00036  -0.00005  -0.00277  -0.00282   1.90292
   A46        2.56288  -0.00059  -0.00005  -0.00602  -0.00608   2.55681
   A47        0.97364   0.00011   0.00006   0.00331   0.00337   0.97701
   A48        2.14595  -0.00032  -0.00002  -0.00275  -0.00277   2.14318
   A49        2.14198  -0.00025  -0.00003  -0.00390  -0.00394   2.13803
   A50        1.94674  -0.00044  -0.00003  -0.00213  -0.00216   1.94457
    D1       -3.12965  -0.00003   0.00009   0.00051   0.00060  -3.12905
    D2        1.01980  -0.00012  -0.00008  -0.00253  -0.00262   1.01718
    D3       -1.01138   0.00010   0.00011   0.00268   0.00279  -1.00858
    D4        1.05056  -0.00003   0.00002   0.00106   0.00108   1.05165
    D5       -1.08317  -0.00012  -0.00015  -0.00199  -0.00214  -1.08531
    D6       -3.11435   0.00010   0.00005   0.00323   0.00328  -3.11107
    D7       -1.03471  -0.00001   0.00007  -0.00008  -0.00002  -1.03472
    D8        3.11474  -0.00010  -0.00010  -0.00312  -0.00324   3.11150
    D9        1.08356   0.00012   0.00010   0.00210   0.00218   1.08574
   D10        0.04496   0.00006   0.00000   0.00611   0.00612   0.05108
   D11       -0.99651   0.00013  -0.00004   0.00326   0.00322  -0.99329
   D12        2.17802   0.00004   0.00011   0.00567   0.00577   2.18378
   D13        1.13654   0.00011   0.00006   0.00281   0.00287   1.13941
   D14       -2.07352  -0.00026  -0.00004   0.00171   0.00167  -2.07185
   D15       -3.11500  -0.00019  -0.00008  -0.00115  -0.00123  -3.11622
   D16       -1.05780  -0.00005  -0.00006  -0.00477  -0.00484  -1.06264
   D17        3.12303   0.00001  -0.00010  -0.00384  -0.00395   3.11908
   D18        1.02567   0.00003  -0.00011  -0.00288  -0.00299   1.02267
   D19        1.07601   0.00013   0.00011  -0.00095  -0.00085   1.07516
   D20       -1.02635   0.00018   0.00006  -0.00002   0.00004  -1.02631
   D21       -3.12371   0.00021   0.00006   0.00095   0.00100  -3.12272
   D22        3.10729  -0.00019  -0.00007  -0.00712  -0.00721   3.10008
   D23        1.00493  -0.00013  -0.00012  -0.00619  -0.00632   0.99861
   D24       -1.09244  -0.00011  -0.00012  -0.00523  -0.00536  -1.09780
   D25       -0.55030  -0.00007  -0.00010  -0.00306  -0.00317  -0.55347
   D26       -1.72838   0.00005  -0.00017  -0.00501  -0.00519  -1.73357
   D27        1.60414   0.00015   0.00003  -0.00025  -0.00022   1.60392
   D28        0.42606   0.00027  -0.00004  -0.00220  -0.00225   0.42382
   D29       -2.61467  -0.00005  -0.00003  -0.00255  -0.00259  -2.61725
   D30        2.49044   0.00007  -0.00010  -0.00450  -0.00461   2.48583
   D31        0.06121  -0.00008   0.00010   0.00210   0.00219   0.06340
   D32        2.17882   0.00036   0.00013   0.00702   0.00714   2.18595
   D33       -2.07457  -0.00004  -0.00003   0.00312   0.00308  -2.07149
   D34        0.54177  -0.00015  -0.00006  -0.00587  -0.00592   0.53584
   D35       -2.00603   0.00038  -0.00001   0.00098   0.00097  -2.00505
   D36        1.92234   0.00000  -0.00004  -0.00199  -0.00204   1.92030
   D37       -0.62546   0.00053   0.00001   0.00486   0.00486  -0.62060
   D38        0.54037  -0.00049  -0.00001  -0.00481  -0.00482   0.53555
   D39        2.45630  -0.00060  -0.00002  -0.00702  -0.00705   2.44925
   D40       -1.91514   0.00018  -0.00000   0.00064   0.00064  -1.91450
   D41        0.00079   0.00007  -0.00001  -0.00157  -0.00159  -0.00080
   D42        0.11115   0.00001   0.00005   0.00271   0.00276   0.11391
   D43       -1.81183   0.00026   0.00003   0.00290   0.00293  -1.80890
   D44        2.03101  -0.00037   0.00006   0.00060   0.00067   2.03168
   D45        0.10803  -0.00013   0.00004   0.00079   0.00084   0.10887
   D46        2.45135  -0.00043  -0.00004  -0.00559  -0.00563   2.44572
   D47        0.53818  -0.00045  -0.00005  -0.00542  -0.00546   0.53272
   D48       -0.62459   0.00013   0.00001   0.00041   0.00044  -0.62415
   D49        0.68522   0.00015   0.00010   0.00751   0.00759   0.69281
   D50        3.12734   0.00007  -0.00006   0.00221   0.00215   3.12949
   D51        1.00846  -0.00010  -0.00009  -0.00111  -0.00119   1.00727
   D52       -1.02183   0.00015   0.00010   0.00448   0.00458  -1.01725
   D53        1.03326   0.00000  -0.00004   0.00241   0.00239   1.03565
   D54       -1.08563  -0.00017  -0.00006  -0.00090  -0.00095  -1.08658
   D55       -3.11592   0.00008   0.00013   0.00468   0.00482  -3.11110
   D56       -1.05273   0.00004  -0.00001   0.00087   0.00086  -1.05187
   D57        3.11157  -0.00013  -0.00003  -0.00245  -0.00248   3.10909
   D58        1.08128   0.00011   0.00016   0.00314   0.00329   1.08457
   D59        1.09197  -0.00011   0.00004  -0.00338  -0.00334   1.08863
   D60        0.04836   0.00001  -0.00007  -0.00904  -0.00910   0.03926
   D61       -1.04058  -0.00011  -0.00006  -0.00276  -0.00282  -1.04340
   D62       -2.08419   0.00001  -0.00017  -0.00843  -0.00858  -2.09276
   D63       -3.07132   0.00016   0.00009   0.00108   0.00116  -3.07016
   D64        2.16826   0.00028  -0.00002  -0.00458  -0.00459   2.16366
   D65        1.04643  -0.00006  -0.00002  -0.00287  -0.00289   1.04355
   D66       -1.04198  -0.00002   0.00001  -0.00438  -0.00438  -1.04636
   D67       -3.13642  -0.00008   0.00003  -0.00423  -0.00421  -3.14063
   D68       -3.11744   0.00015   0.00002   0.00025   0.00027  -3.11718
   D69        1.07733   0.00019   0.00004  -0.00126  -0.00123   1.07610
   D70       -1.01711   0.00013   0.00006  -0.00111  -0.00105  -1.01817
   D71       -1.08703  -0.00014  -0.00019  -0.00556  -0.00574  -1.09277
   D72        3.10774  -0.00010  -0.00016  -0.00708  -0.00724   3.10050
   D73        1.01330  -0.00017  -0.00014  -0.00693  -0.00707   1.00624
   D74        0.43422   0.00002   0.00006   0.00137   0.00142   0.43564
   D75        1.61527  -0.00008   0.00010   0.00268   0.00278   1.61805
   D76       -1.72459   0.00012  -0.00011  -0.00108  -0.00119  -1.72578
   D77       -0.54353   0.00001  -0.00006   0.00023   0.00017  -0.54337
   D78        2.49603   0.00009  -0.00002   0.00049   0.00047   2.49650
   D79       -2.60611  -0.00001   0.00002   0.00180   0.00183  -2.60428
   D80       -0.99343   0.00004  -0.00001   0.00467   0.00466  -0.98877
   D81       -3.11466  -0.00033  -0.00007  -0.00016  -0.00022  -3.11488
   D82        1.13949   0.00002   0.00010   0.00396   0.00405   1.14355
         Item               Value     Threshold  Converged?
 Maximum Force            0.001850     0.000015     NO 
 RMS     Force            0.000366     0.000010     NO 
 Maximum Displacement     0.022944     0.000060     NO 
 RMS     Displacement     0.004681     0.000040     NO 
 GradGradGradGradGradGradGradGradGradGradGradGradGradGradGradGradGradGrad

                    Distance matrix (angstroms):
                    1          2          3          4          5
     1  C    0.000000
     2  C    1.527679   0.000000
     3  C    2.543494   1.527751   0.000000
     4  H    1.103881   2.189009   3.507040   0.000000
     5  H    1.105146   2.185377   2.818080   1.785611   0.000000
     6  H    1.104637   2.176465   2.799940   1.785118   1.784192
     7  H    2.166559   1.105272   2.165528   2.516133   2.536369
     8  H    2.159497   1.104915   2.159554   2.504703   3.089526
     9  H    2.822224   2.184793   1.105186   3.836653   2.646723
    10  H    3.506989   2.189139   1.103865   4.356467   3.836210
    11  H    2.798093   2.179634   1.105180   3.811001   3.165770
    12  C    4.248818   4.472323   4.484101   4.700736   5.015454
    13  C    4.144857   4.108746   4.460144   4.367143   5.128752
    14  C    4.699297   4.140303   4.233255   5.052679   5.678803
    15  H    4.307949   4.883944   5.064113   4.628883   4.991812
    16  H    3.691905   3.840191   3.595069   4.369135   4.329658
    17  H    5.300525   5.409153   5.225810   5.796745   6.027999
    18  H    3.280370   3.376170   4.059541   3.343955   4.324486
    19  H    5.009329   5.073519   5.542278   5.054280   6.012892
    20  H    5.678828   5.123665   4.998268   6.094892   6.607508
    21  H    4.213790   3.432696   3.266954   4.752397   5.101262
    22  H    5.053782   4.364933   4.690225   5.232927   6.095880
                    6          7          8          9         10
     6  H    0.000000
     7  H    3.088333   0.000000
     8  H    2.518098   1.768164   0.000000
     9  H    3.178817   2.530578   3.089005   0.000000
    10  H    3.808627   2.518279   2.501248   1.785398   0.000000
    11  H    2.600264   3.090064   2.526175   1.783158   1.785293
    12  C    3.281497   5.555321   4.073230   5.231698   5.053055
    13  C    3.437224   5.075802   3.378269   5.401793   4.861677
    14  C    4.212239   5.005281   3.279292   5.287417   4.279827
    15  H    3.253591   5.946521   4.592948   5.690228   5.786347
    16  H    2.750712   4.944561   3.656943   4.252561   4.220933
    17  H    4.335192   6.493153   4.977848   5.967663   5.670471
    18  H    2.710934   4.278018   2.653570   4.968739   4.573031
    19  H    4.300446   5.982798   4.275690   6.485686   5.922537
    20  H    5.099709   6.007439   4.323433   6.012746   4.959991
    21  H    3.838773   4.293630   2.710285   4.322711   3.223295
    22  H    4.752109   5.053407   3.343857   5.787473   4.607987
                   11         12         13         14         15
    11  H    0.000000
    12  C    3.591552   0.000000
    13  C    3.827754   1.527732   0.000000
    14  C    3.683196   2.546466   1.527742   0.000000
    15  H    4.225002   1.103863   2.188093   3.508542   0.000000
    16  H    2.618294   1.104673   2.178537   2.806567   1.784386
    17  H    4.245585   1.105122   2.185521   2.822066   1.785640
    18  H    3.640604   2.159489   1.104858   2.159190   2.503076
    19  H    4.932119   2.164747   1.105282   2.164917   2.512821
    20  H    4.320148   2.817796   2.185091   1.105186   3.833585
    21  H    2.748697   2.815046   2.181723   1.105008   3.824409
    22  H    4.366199   3.508101   2.187326   1.103928   4.354965
                   16         17         18         19         20
    16  H    0.000000
    17  H    1.783803   0.000000
    18  H    2.520782   3.089541   0.000000
    19  H    3.088474   2.534077   1.768231   0.000000
    20  H    3.172424   2.643143   3.089130   2.536813   0.000000
    21  H    2.623246   3.188754   2.520090   3.090792   1.784205
    22  H    3.819466   3.833991   2.505715   2.508084   1.784944
                   21         22
    21  H    0.000000
    22  H    1.783918   0.000000
 Framework group  C1[X(C6H16)]
 Deg. of freedom    60
                         Standard orientation:                         
 ---------------------------------------------------------------------
 Center     Atomic      Atomic             Coordinates (Angstroms)
 Number     Number       Type             X           Y           Z
 ---------------------------------------------------------------------
      1          6           0       -2.003762   -1.232373   -0.426114
      2          6           0       -2.035192    0.293051   -0.502906
      3          6           0       -2.023042    0.953161    0.874821
      4          1           0       -2.000225   -1.689140   -1.431053
      5          1           0       -2.881047   -1.623043    0.120783
      6          1           0       -1.097581   -1.574728    0.104782
      7          1           0       -2.930355    0.619604   -1.062971
      8          1           0       -1.162479    0.645327   -1.081794
      9          1           0       -2.907253    0.655440    1.467248
     10          1           0       -2.023022    2.054292    0.797176
     11          1           0       -1.124246    0.653938    1.444077
     12          6           0        2.033423   -0.957918    0.869365
     13          6           0        2.031899   -0.290526   -0.504881
     14          6           0        1.995855    1.234702   -0.425044
     15          1           0        2.047273   -2.058414    0.784337
     16          1           0        1.131788   -0.674883    1.441422
     17          1           0        2.915340   -0.652371    1.461105
     18          1           0        1.156701   -0.644180   -1.079050
     19          1           0        2.924600   -0.610549   -1.072610
     20          1           0        2.872226    1.626419    0.122650
     21          1           0        1.088720    1.580626    0.102674
     22          1           0        1.994480    1.691075   -1.430220
 ---------------------------------------------------------------------
 Rotational constants (GHZ):           3.7231677           1.2137809           1.1046091
   116 basis functions,   214 primitive gaussians,   122 cartesian basis functions
    26 alpha electrons       26 beta electrons
       nuclear repulsion energy       246.4787306869 Hartrees.
 NAtoms=   22 NActive=   22 NUniq=   22 SFac= 1.00D+00 NAtFMM=   60 NAOKFM=F Big=F
 Nuclear repulsion after empirical dispersion term =      246.4667435264 Hartrees.
   1 Symmetry operations used in ECPInt.
 ECPInt:  NShTT=    2346 NPrTT=    9442 LenC2=    2338 LenP2D=    7504.
 LDataN:  DoStor=T MaxTD1= 4 Len=   56
 Initial guess from the checkpoint file:  "4.chk"
 B after Tr=    -0.000000   -0.000000   -0.000000
         Rot=    1.000000    0.000403   -0.000207    0.000133 Ang=   0.05 deg.
 ExpMin= 1.22D-01 ExpMax= 1.24D+03 ExpMxC= 1.86D+02 IAcc=3 IRadAn=         5 AccDes= 0.00D+00
 Harris functional with IExCor= 4639 and IRadAn=       5 diagonalized for initial guess.
 HarFok:  IExCor= 4639 AccDes= 0.00D+00 IRadAn=         5 IDoV= 1 UseB2=F ITyADJ=14
 ICtDFT=  3500011 ScaDFX=  1.000000  1.000000  1.000000  1.000000
 FoFCou: FMM=F IPFlag=           0 FMFlag=      100000 FMFlg1=           0
         NFxFlg=           0 DoJE=T BraDBF=F KetDBF=T FulRan=T
         wScrn=  0.000000 ICntrl=       500 IOpCl=  0 I1Cent=   200000004 NGrid=           0
         NMat0=    1 NMatS0=      1 NMatT0=    0 NMatD0=    1 NMtDS0=    0 NMtDT0=    0
 Petite list used in FoFCou.
     Accept linear search using points  1 and  2.
     Minimum is close to point  2 DX= -1.04D-05 DF=  0.00D+00 DXR=  1.04D-05 DFR=  0.00D+00 which will be used.
 SCF Done:  E(RwB97XD) =  -238.009612238     a.u. after    3 cycles
            Convg  =    0.1771D-09                    18 Fock formations.
              S**2 =  0.0000                  -V/T =  2.0124
   1 Symmetry operations used in ECPInt.
 ECPInt:  NShTT=    2346 NPrTT=    9442 LenC2=    2338 LenP2D=    7504.
 LDataN:  DoStor=T MaxTD1= 5 Len=  102
 Calling FoFJK, ICntrl=      2127 FMM=F ISym2X=0 I1Cent= 0 IOpClX= 0 NMat=1 NMatS=1 NMatT=0.

 GradGradGradGradGradGradGradGradGradGradGradGradGradGradGradGradGradGrad
 Using GEDIIS/GDIIS optimizer.
 FormGI is forming the generalized inverse of G from B-inverse, IUseBI=4.
 Internal  Forces:  Max     0.000404334 RMS     0.000142696
 Step number   3 out of a maximum of  132
 All quantities printed in internal units (Hartrees-Bohrs-Radians)
 Mixed Optimization -- En-DIIS/RFO-DIIS
 Swapping is turned off.
 Trust test= 1.42D+00 RLast= 5.18D-02 DXMaxT set to 4.77D-01
 ITU=  1  1  0
     Eigenvalues ---    0.00323   0.00498   0.00622   0.00700   0.00965
     Eigenvalues ---    0.01150   0.01293   0.01441   0.01915   0.02500
     Eigenvalues ---    0.02767   0.02982   0.03427   0.03838   0.03983
     Eigenvalues ---    0.04036   0.04265   0.04527   0.04625   0.04692
     Eigenvalues ---    0.05042   0.05266   0.05586   0.05723   0.05741
     Eigenvalues ---    0.06182   0.07706   0.08543   0.08943   0.09163
     Eigenvalues ---    0.09515   0.10324   0.10364   0.10960   0.11317
     Eigenvalues ---    0.11456   0.12008   0.12159   0.13097   0.14653
     Eigenvalues ---    0.25416   0.26462   0.27119   0.29454   0.29984
     Eigenvalues ---    0.30539   0.30968   0.31836   0.33294   0.33693
     Eigenvalues ---    0.34534   0.34590   0.35036   0.35039   0.35042
     Eigenvalues ---    0.35062   0.35064   0.35065   0.35396   0.36631
 En-DIIS/RFO-DIIS/Sim-DIIS IScMMF=       -3 using points:     3    2
 RFO step:  Lambda=-1.03373914D-04.
 DidBck=F Rises=F RFO-DIIS coefs:    2.64093   -1.64093
 Iteration  1 RMS(Cart)=  0.00967746 RMS(Int)=  0.00005308
 Iteration  2 RMS(Cart)=  0.00004178 RMS(Int)=  0.00003025
 Iteration  3 RMS(Cart)=  0.00000000 RMS(Int)=  0.00003025
 Variable       Old X    -DE/DX   Delta X   Delta X   Delta X     New X
                                 (Linear)    (Quad)   (Total)
    R1        2.88689  -0.00015  -0.00918   0.00493  -0.00426   2.88263
    R2        2.08603  -0.00016   0.00013  -0.00023  -0.00010   2.08593
    R3        2.08842  -0.00017   0.00173  -0.00145   0.00028   2.08870
    R4        2.08746   0.00001   0.00252  -0.00190   0.00062   2.08808
    R5        2.88703  -0.00031  -0.01031   0.00582  -0.00446   2.88257
    R6        2.08866  -0.00009   0.00151  -0.00102   0.00048   2.08914
    R7        2.08799   0.00001   0.00198  -0.00137   0.00060   2.08859
    R8        2.08850  -0.00018   0.00186  -0.00155   0.00031   2.08881
    R9        2.08600  -0.00014   0.00014  -0.00018  -0.00003   2.08597
   R10        2.08849  -0.00015   0.00215  -0.00173   0.00043   2.08892
   R11        5.19809  -0.00011  -0.01411  -0.00356  -0.01769   5.18040
   R12        5.12292  -0.00025  -0.01728  -0.00428  -0.02154   5.10138
   R13        5.01452  -0.00040  -0.02040  -0.01064  -0.03099   4.98353
   R14        5.12170  -0.00027  -0.02581  -0.01226  -0.03809   5.08361
   R15        4.94786  -0.00015  -0.02486  -0.00414  -0.02901   4.91884
   R16        2.88700  -0.00031  -0.01070   0.00617  -0.00454   2.88246
   R17        2.08600  -0.00014   0.00014  -0.00014  -0.00000   2.08600
   R18        2.08753  -0.00002   0.00264  -0.00198   0.00065   2.08818
   R19        2.08838  -0.00018   0.00166  -0.00140   0.00025   2.08863
   R20        2.88701  -0.00019  -0.01088   0.00637  -0.00454   2.88247
   R21        2.08788   0.00005   0.00218  -0.00135   0.00086   2.08874
   R22        2.08868  -0.00008   0.00154  -0.00103   0.00051   2.08919
   R23        2.08850  -0.00017   0.00185  -0.00151   0.00034   2.08884
   R24        2.08816  -0.00007   0.00273  -0.00229   0.00039   2.08855
   R25        2.08612  -0.00013   0.00027  -0.00022   0.00006   2.08618
    A1        1.94709  -0.00004  -0.00170   0.00232   0.00064   1.94773
    A2        1.94070   0.00003   0.00545  -0.00307   0.00239   1.94309
    A3        1.92891   0.00028   0.00540  -0.00109   0.00427   1.93317
    A4        1.88260  -0.00001  -0.00265   0.00044  -0.00223   1.88037
    A5        1.88248  -0.00006  -0.00279   0.00056  -0.00225   1.88022
    A6        1.87949  -0.00022  -0.00420   0.00094  -0.00324   1.87625
    A7        1.96703   0.00010   0.00295   0.00176   0.00472   1.97175
    A8        1.91468  -0.00000   0.00307  -0.00321  -0.00014   1.91454
    A9        1.90545   0.00004   0.00116   0.00030   0.00144   1.90689
   A10        1.91319  -0.00004   0.00082  -0.00178  -0.00098   1.91221
   A11        1.90544   0.00004   0.00066  -0.00002   0.00060   1.90604
   A12        1.85461  -0.00016  -0.00938   0.00306  -0.00631   1.84830
   A13        1.93976   0.00005   0.00538  -0.00283   0.00256   1.94232
   A14        1.94720   0.00000  -0.00271   0.00299   0.00027   1.94747
   A15        1.93262   0.00027   0.00647  -0.00191   0.00455   1.93718
   A16        1.88224  -0.00004  -0.00260   0.00040  -0.00220   1.88004
   A17        1.87718  -0.00023  -0.00375   0.00061  -0.00321   1.87397
   A18        1.88209  -0.00008  -0.00327   0.00081  -0.00242   1.87967
   A19        2.49313  -0.00040  -0.00877  -0.00036  -0.00916   2.48397
   A20        1.94539  -0.00032  -0.00497  -0.00156  -0.00650   1.93889
   A21        0.95936   0.00014   0.00501   0.00110   0.00611   0.96548
   A22        2.13511  -0.00019  -0.00513  -0.00042  -0.00556   2.12955
   A23        2.13781  -0.00023  -0.00689  -0.00214  -0.00908   2.12873
   A24        0.97798   0.00016   0.00670   0.00211   0.00887   0.98685
   A25        2.56371  -0.00032  -0.00635   0.00038  -0.00602   2.55770
   A26        1.94577   0.00002  -0.00285   0.00376   0.00095   1.94672
   A27        1.93166   0.00028   0.00696  -0.00200   0.00492   1.93658
   A28        1.94086  -0.00000   0.00470  -0.00290   0.00179   1.94265
[...]
 0000860,0.00001302,-0.00017676,0.00002187,0.00004657,0.,0.00004804,-0.
 00005513,0.00007504,-0.00001162,0.00004621,-0.00026653,0.00002432,0.00
 019950,0.57350225,0.00020770,-0.00016769,-0.00037171,-0.00003276,-0.00
 002380,0.00022646,0.00019311,0.00006037,0.00038546,-0.00020624,0.00003
 223,-0.00013155,0.00000965,-0.00000367,0.00001515,0.00021260,0.0002295
 9,0.00037417,-0.00002100,0.00002430,-0.00010182,0.00003874,0.00000644,
 -0.00009005,-0.00014465,0.00003700,-0.00007567,-0.00013420,0.00012256,
 -0.00006724,-0.00003332,-0.00020779,-0.00027377,-0.00012320,0.03399657
 ,0.51166197,0.00006012,0.00007901,-0.00010482,0.00006200,0.00012961,-0
 .00008991,0.00005698,0.00008142,0.00003314,-0.00017597,-0.00011096,-0.
 00014479,0.00026773,-0.00004301,-0.00005745,-0.00041576,-0.00024391,0.
 00048627,0.00011929,-0.00006291,-0.00005891,-0.00093650,0.00047629,0.0
 0008266,0.00002573,-0.00010225,-0.00007139,0.00010496,-0.00013919,-0.0
 0005921,0.00007736,0.00000089,0.00007376,-0.08394636,0.00028426,-0.000
 67960,0.60632397,-0.00017898,-0.00001193,-0.00004543,0.00013025,-0.000
 07592,0.00001973,0.00001651,-0.00003973,0.00002365,-0.00000974,-0.0000
 8899,0.00002491,0.00013562,-0.00004568,0.00001368,-0.00020618,-0.00023
 583,0.00015120,0.00008073,-0.00006458,-0.00003829,0.00002416,0.0004090
 4,0.00010145,-0.00007372,-0.00003719,-0.00008297,0.00011354,-0.0001099
 6,-0.00000694,-0.00001008,0.00017162,-0.00009738,0.00013967,-0.1064484
 9,0.05220776,0.00221697,0.50212988,0.00021560,-0.00011351,-0.00024114,
 0.00009030,-0.00002039,0.00018551,0.00022295,0.00001779,0.00022602,-0.
 00021397,-0.00003500,-0.00009793,0.00022534,-0.00005690,-0.00001474,-0
 .00001264,-0.00012043,0.00030720,0.00021301,0.00001016,-0.00011605,-0.
 00026892,0.00042124,-0.00011502,-0.00000196,0.00002262,-0.00010735,-0.
 00010421,0.00000453,-0.00007783,-0.00008329,-0.00001187,-0.00012390,-0
 .00080862,0.05003813,-0.19297375,-0.00034634,0.03093181,0.53762037,-0.
 00005253,-0.00013096,0.00021654,0.00005974,-0.00017859,-0.00021574,0.0
 0014836,0.00009767,-0.00020916,0.00011387,0.00009122,0.00009432,-0.000
 10460,0.00005102,-0.00000349,0.00001850,0.00002940,-0.00020194,0.00004
 398,0.00007432,0.00008490,-0.00057197,-0.00020055,-0.00028140,0.000215
 59,0.00007980,0.00007054,-0.00011543,0.00008988,-0.00000946,-0.0001595
 8,-0.00022567,0.00019199,-0.00011842,0.00034048,-0.00000346,-0.0840019
 7,0.00264926,0.00007921,0.57938742,-0.00013098,-0.00003159,0.00000270,
 0.00007913,-0.00001201,0.00011277,-0.00008907,-0.00029292,0.00016817,-
 0.00001407,-0.00003775,-0.00002227,0.00003575,-0.00006259,0.00001174,0
 .00000037,-0.00004896,0.00007538,-0.00001028,-0.00005579,-0.00006087,0
 .00006398,0.00029589,0.00005054,-0.00016796,0.00000958,-0.00009068,0.0
 0006167,0.00000989,-0.00001150,-0.00007986,0.00015328,-0.00014504,0.00
 038687,-0.01940365,0.00318125,0.00287279,-0.21541097,-0.01049247,0.001
 44998,0.49733066,-0.00021659,-0.00000248,0.00006384,0.00010489,0.00004
 595,-0.00024236,-0.00013948,-0.00000695,-0.00037101,0.00007139,-0.0000
 4387,0.00002135,-0.00006622,-0.00006569,0.00002468,-0.00002309,0.00002
 747,-0.00009582,-0.00021267,-0.00008728,0.00005811,-0.00012436,0.00003
 935,0.00056223,-0.00011184,-0.00009688,0.00002632,0.00014359,-0.000064
 12,-0.00000856,0.00013571,0.00010001,-0.00005337,-0.00062001,0.0343710
 2,0.00215299,0.00034392,-0.01272853,-0.08378443,-0.00000466,-0.0093524
 0,0.58737247,-0.00011564,0.00006176,-0.00014349,0.00010516,0.00011352,
 0.00010398,0.00005343,-0.00005515,0.00013403,0.00001390,-0.00003179,0.
 00000515,0.00006865,-0.00003542,0.00003091,0.00000811,0.00007966,0.000
 09506,-0.00000403,-0.00010053,-0.00002682,-0.00001255,-0.00001894,0.00
 002000,-0.00007204,0.00002279,-0.00003501,-0.00002797,-0.00001322,-0.0
 0003721,0.00008067,-0.00001084,-0.00010893,-0.04955480,0.00109620,0.00
 015189,-0.00140804,0.00017238,-0.00001271,0.00052270,0.00003160,-0.000
 06576,0.04573005,0.00009009,0.00000974,0.00006413,-0.00013918,-0.00010
 995,-0.00000433,-0.00005337,0.00007507,-0.00012245,-0.00000306,0.00001
 745,0.00001155,-0.00002623,0.00003870,-0.00002395,0.00008557,-0.000146
 09,-0.00003510,0.00002254,0.00008086,0.00001177,0.00000367,0.00003034,
 -0.00006289,0.00006777,-0.00000816,0.00001138,-0.00001320,0.00003411,0
 .00002359,-0.00000381,-0.00003212,0.00010213,0.00129288,-0.31526438,-0
 .02641595,0.00008417,-0.01145104,-0.00358132,0.00000753,0.00012762,0.0
 0406003,-0.00137035,0.33681995,0.00000954,0.00001147,-0.00000842,0.000
 05894,0.00000679,-0.00007805,-0.00007620,0.00001174,-0.00006733,-0.000
 02935,0.00001315,-0.00002810,0.00003866,-0.00002895,0.00000439,-0.0000
 2662,-0.00001345,0.00006684,-0.00000160,0.00000076,0.00002977,-0.00000
 282,0.00002074,0.00002576,0.00003646,-0.00001380,0.00002507,0.00003725
 ,-0.00002357,0.00000496,-0.00003947,0.00001421,0.00003768,0.00022863,-
 0.02852355,-0.05134856,-0.00028344,0.03169839,0.00501487,-0.00001054,0
 .00144038,-0.00606247,-0.00009949,0.02615965,0.05345085,-0.00016051,-0
 .00007891,-0.00013608,0.00007741,-0.00000994,0.00008309,-0.00038116,0.
 00004617,0.00003345,-0.00003142,-0.00000908,-0.00001894,0.00001507,-0.
 00000025,0.00000473,-0.00029390,-0.00011004,-0.00018439,0.00002055,0.0
 0000801,-0.00003016,0.00001916,0.00005302,-0.00003041,-0.00003965,-0.0
 0000473,-0.00003119,0.00008086,-0.00000397,0.00003940,-0.00013733,0.00
 020496,-0.00005265,-0.22425793,0.05607971,0.11276373,0.00147413,-0.000
 28276,-0.00115332,0.00037894,-0.00006295,-0.00028296,0.00165307,-0.001
 02815,-0.00189179,0.23707491,-0.00022568,0.00015340,-0.00009970,0.0000
 0091,0.00017160,0.00001193,0.00031086,-0.00026657,0.00020740,0.0000902
 1,-0.00006843,0.00008258,0.00002839,-0.00003123,0.00001737,-0.00014762
 ,-0.00009895,-0.00024503,-0.00000625,-0.00012691,-0.00003025,-0.000025
 50,-0.00003035,0.00005411,-0.00013063,0.00003496,-0.00004944,-0.000010
 89,-0.00003209,-0.00001422,0.00020477,0.00012395,-0.00012480,0.0565228
 5,-0.06785578,-0.03737343,-0.01315042,0.00345619,0.00778109,-0.0012682
 8,0.00125460,0.00027102,0.02620156,-0.00524783,-0.01595434,-0.06132277
 ,0.06699502,-0.00019181,0.00014533,-0.00005298,-0.00007405,0.00009751,
 -0.00012394,-0.00019001,-0.00002437,-0.00027346,0.00015028,0.00000095,
 0.00012876,0.00012405,-0.00001648,0.00004703,-0.00035531,-0.00040011,-
 0.00027475,0.00008840,-0.00005234,0.00005004,-0.00000262,0.00001090,-0
 .00007330,0.00015687,-0.00002984,0.00004998,0.00010887,-0.00010214,0.0
 0003746,0.00005335,0.00012450,0.00046426,0.11168849,-0.03656562,-0.120
 25259,0.02560538,-0.00828162,-0.01591754,0.00007453,-0.00142461,0.0012
 3078,0.00125669,-0.00004852,-0.00172674,-0.12305668,0.03737547,0.13077
 901,0.00021544,-0.00016778,0.00011148,0.00002585,-0.00007361,0.0000018
 0,0.00012512,0.00004647,0.00014440,-0.00008590,0.00003411,-0.00006184,
 -0.00009434,0.00002680,-0.00003243,-0.00003311,0.00019596,-0.00002269,
 -0.00004236,0.00005186,-0.00001585,0.00001961,-0.00002144,0.00004640,-
 0.00005908,0.00000929,-0.00001446,-0.00007204,0.00006777,-0.00003632,-
 0.00003981,-0.00013054,-0.00015679,-0.22433883,-0.05793454,-0.11174650
 ,0.00137796,0.00015135,0.00128655,0.00031960,0.00010050,0.00032343,0.0
 0203426,0.00102651,0.00204991,-0.01775142,-0.00774193,-0.01388533,0.23
 603825,0.00007994,0.00000948,0.00009677,-0.00010227,-0.00003720,-0.000
 02247,0.00000431,0.00000001,-0.00003696,0.00000550,-0.00000875,0.00000
 386,-0.00002082,0.00001569,-0.00001471,-0.00001142,-0.00010013,-0.0000
 5389,0.00001530,0.00003885,-0.00000662,-0.00000494,0.00005331,-0.00001
 057,0.00000927,-0.00001662,-0.00000506,0.00002280,-0.00000816,0.000013
 76,-0.00000470,0.00003494,0.00002983,-0.05853422,-0.06920255,-0.038161
 57,0.01321555,0.00372105,0.00766486,0.00123993,0.00128074,0.00027208,-
 0.02620406,-0.00554697,-0.01570376,0.00756844,0.00215925,0.00576694,0.
 06339390,0.06813306,-0.00007065,0.00009083,0.00002636,0.00007119,0.000
 08307,-0.00010744,-0.00008477,-0.00004806,-0.00007577,0.00009967,0.000
 01793,0.00007002,-0.00002246,-0.00000221,0.00002395,-0.00003075,-0.000
 06454,-0.00014802,-0.00004079,-0.00001971,0.00004582,-0.00001475,-0.00
 012318,0.00004790,0.00001460,0.00000503,0.00004082,0.00003514,-0.00001
 148,0.00002507,0.00003132,0.00004960,0.00005017,-0.11062804,-0.0374718
 2,-0.11908848,-0.02554532,-0.00876889,-0.01592673,0.00000274,-0.001339
 89,0.00116617,-0.00126202,-0.00010943,-0.00167516,0.01399810,0.0059837
 9,0.00996750,0.12198168,0.03822214,0.12956581,-0.00057091,0.00006510,0
 .00012425,-0.00093684,0.00002528,0.00026910,0.00005009,0.00001294,-0.0
 0003882,0.00012546,0.00000188,0.00000789,-0.00006704,0.00003085,0.0000
 1970,-0.00011144,-0.00021485,0.00020947,0.00005825,-0.00002414,-0.0000
 3543,0.00030913,-0.00006114,-0.00010555,0.00001955,-0.00000488,0.00001
 481,-0.00001261,0.00000376,0.00000286,0.00001899,-0.00002545,0.0000025
 5,0.00121430,0.00061397,0.00115351,-0.21727921,-0.06517999,-0.10709119
 ,0.00205401,0.00107094,0.00160687,0.00006374,0.00041744,-0.00033159,0.
 00068542,0.00026526,-0.00022378,0.00146871,0.00018729,0.00046877,0.229
 26492,-0.00020028,0.00029637,-0.00003984,0.00047582,0.00040909,-0.0004
 2152,-0.00014715,-0.00017674,-0.00000631,-0.00001464,0.00001607,-0.000
 08371,-0.00000999,-0.00016644,0.00004114,-0.00007518,-0.00001009,0.000
 30082,-0.00023356,-0.00009447,0.00011478,-0.00006089,-0.00031725,0.000
 23543,-0.00002125,0.00005328,0.00012321,-0.00001896,0.00003033,-0.0000
 2071,0.00005308,-0.00003038,-0.00001098,0.01333685,0.00437591,0.008741
 48,-0.06436224,-0.07410855,-0.04289623,-0.02804170,-0.01183655,-0.0172
 3349,0.00048830,0.00049843,-0.00041173,-0.00047279,0.00023420,-0.00069
 897,-0.00012378,-0.00078829,0.00341584,0.07127211,0.08333375,0.0002827
 5,-0.00005069,0.00056109,-0.00008157,-0.00010103,-0.00011541,0.0000130
 0,-0.00002193,-0.00009004,0.00002530,-0.00004157,-0.00006185,-0.000317
 73,0.00008108,-0.00012123,0.00017866,0.00043542,-0.00055493,-0.0002059
 8,0.00007682,0.00006534,0.00010574,-0.00023558,0.00025556,-0.00004636,
 0.00001058,0.00004798,-0.00001994,0.00006288,0.00002579,0.00003034,-0.
 00005409,-0.00007337,-0.02488856,-0.00883579,-0.01630330,-0.10520688,-
 0.04278126,-0.11840260,-0.00082608,-0.00017622,-0.00077409,0.00014816,
 0.00011043,0.00118407,0.00024096,-0.00076421,0.00080548,0.00037215,0.0
 0311003,-0.00531592,0.11673464,0.04340985,0.12823833,0.00004416,-0.000
 01013,0.00021239,0.00011905,0.00008097,-0.00021332,0.00000420,-0.00006
 402,0.00002084,0.00002259,0.00001521,-0.00002316,-0.00013403,0.0000035
 5,-0.00002459,0.00004006,0.00019034,-0.00016784,-0.00015738,-0.0000049
 0,0.00005830,0.00005877,-0.00023380,0.00020596,-0.00004229,0.00001530,
 0.00004092,-0.00000399,0.00002252,0.00000164,0.00002049,-0.00000618,-0
 .00008837,0.00170077,-0.00056257,-0.00176828,-0.22333561,0.05920401,0.
 10773740,0.00093361,-0.00092267,-0.00094756,0.00005010,-0.00045703,0.0
 0035304,0.00147559,-0.00015708,-0.00054594,0.00085022,-0.00023900,0.00
 022344,-0.01860484,0.00730745,0.01316876,0.23461622,0.00007453,-0.0000
 5578,0.00008704,-0.00006295,-0.00006449,-0.00001007,0.00007355,0.00002
 624,-0.00002441,-0.00000305,0.00003563,-0.00000519,-0.00005133,0.00003
 776,-0.00002071,0.00004057,0.00009371,-0.00004279,-0.00000488,0.000031
 22,0.00000822,-0.00002415,-0.00009448,-0.00007681,0.00005190,0.0000388
 5,0.00001965,-0.00010055,0.00008088,-0.00000062,0.00000811,-0.00012694
 ,0.00005229,-0.01344122,0.00389567,0.00857695,0.05822519,-0.06910175,-
 0.03792412,0.02869273,-0.01079519,-0.01733299,-0.00046849,0.00043424,-
 0.00044519,0.00008978,-0.00080988,0.00335588,0.00042247,0.00030512,-0.
 00070512,-0.00814356,0.00278570,0.00605545,-0.06481969,0.07782454,-0.0
 0008485,0.00006094,0.00005779,0.00005860,0.00003828,-0.00011589,-0.000
 12167,-0.00000848,-0.00010170,0.00006031,0.00000982,0.00004184,-0.0000
 5150,-0.00000392,-0.00000166,0.00000171,0.00000383,-0.00011495,-0.0000
 5802,-0.00000822,0.00006222,0.00003561,-0.00011457,0.00006501,0.000015
 98,0.00000659,0.00004576,0.00002684,-0.00001180,0.00002972,0.00003021,
 0.00003020,0.00005014,0.02528824,-0.00801293,-0.01625607,0.10603324,-0
 .03793969,-0.11705304,0.00085932,-0.00021471,-0.00082568,-0.00014424,0
 .00011954,0.00113419,-0.00040092,0.00317013,-0.00533465,-0.00020466,-0
 .00082144,0.00084323,-0.01350200,0.00556150,0.00946206,-0.11750922,0.0
 3851218,0.12686862,-0.00010459,0.00003573,0.00006646,0.00026776,0.0001
 3572,-0.00022611,-0.00006607,-0.00008751,-0.00000950,0.00000852,-0.000
 01141,-0.00001446,-0.00002171,-0.00007024,0.00001568,0.00002360,0.0000
 2114,-0.00000800,-0.00013403,-0.00005135,0.00005172,-0.00006716,-0.000
 01027,0.00031788,-0.00009430,-0.00002079,0.00002260,0.00006855,-0.0000
 2617,-0.00003874,0.00001472,0.00002836,-0.00012396,0.00036019,0.000206
 32,0.00028190,0.00206909,0.00137591,0.00117688,-0.22368134,-0.07250123
 ,-0.10329950,0.00015559,0.00004494,0.00022940,-0.00011474,-0.00003009,
 -0.00007431,-0.00000424,-0.00048484,0.00033722,0.00144018,0.00059287,0
 .00007527,0.00085002,-0.00040561,0.00025391,0.23522196,0.00005115,-0.0
 0006256,0.00006550,-0.00004304,-0.00004567,0.00005711,0.00000816,0.000
 02776,0.00000366,0.00005847,0.00003118,0.00004163,-0.00007021,0.000063
 97,-0.00000863,-0.00001457,0.00005967,-0.00012810,0.00000358,0.0000377
 6,0.00000391,0.00003095,-0.00016638,-0.00008122,0.00002680,0.00001568,
 0.00000217,-0.00003537,0.00003868,0.00002899,-0.00000016,-0.00003122,0
 .00001644,-0.00067470,0.00165279,-0.00110042,-0.02863601,-0.01132866,-
 0.01656847,-0.07117572,-0.07760247,-0.04204144,0.00039033,0.00031894,-
 0.00007112,0.00004736,-0.00004298,0.00009686,0.00054555,-0.00012917,0.
 00086322,0.00054960,-0.00695347,-0.00016357,0.00029274,0.00135476,-0.0
 0009700,0.07883880,0.08530190,0.00000370,-0.00001179,0.00002457,0.0000
 5695,-0.00001393,-0.00001422,0.00001061,0.00000452,0.00001510,0.000015
 95,0.00002300,0.00000839,-0.00001566,0.00000874,0.00000568,-0.00000445
 ,0.00000287,-0.00002215,0.00002484,0.00002081,-0.00000180,-0.00001943,
 -0.00004097,-0.00012179,0.00003261,0.00001474,0.00002390,-0.00003099,0
 .00002397,0.00000449,-0.00000455,-0.00001740,0.00004717,0.00107019,0.0
 0052527,0.00077026,-0.00129044,-0.00057488,-0.00163192,-0.10320672,-0.
 04275424,-0.11130229,0.00004702,-0.00010278,-0.00003064,0.00005273,-0.
 00002990,-0.00000076,-0.00023997,-0.00010437,0.00031505,0.00040796,-0.
 00044687,0.00089532,-0.00010482,-0.00021080,-0.00022995,0.11286371,0.0
 4772137,0.11319906,0.00001891,0.00000025,0.00002299,-0.00041570,-0.000
 20700,0.00001439,-0.00036568,-0.00016990,-0.00021244,-0.00001607,0.000
 00710,-0.00000987,0.00002357,-0.00001435,0.00000437,0.00000506,0.00000
 500,0.00003459,0.00004054,0.00004090,-0.00000207,-0.00010681,-0.000074
 57,-0.00017758,-0.00003300,-0.00001149,0.00003065,0.00000768,0.0000857
 7,0.00002683,-0.00029436,-0.00014797,0.00035586,0.00035740,-0.00026370
 ,-0.00018653,0.00090499,-0.00059805,-0.00051554,-0.22567711,0.06583063
 ,0.10762759,0.00017149,-0.00006746,-0.00021402,0.00004780,0.00045837,-
 0.00035986,-0.00011633,0.00002217,0.00006762,0.00071914,0.00039217,-0.
 00028709,0.00146964,-0.00024214,-0.00011264,-0.01762098,0.00785889,0.0
 1362289,0.23839291,0.00002947,-0.00004892,-0.00002761,-0.00024411,-0.0
 0023618,0.00012174,-0.00020670,0.00042456,-0.00022992,0.00003601,0.000
 03009,0.00004740,0.00002114,0.00005970,-0.00000288,0.00000492,-0.00006
 082,-0.00002625,0.00019058,0.00009385,-0.00000419,-0.00021320,-0.00000
 920,-0.00043512,0.00019616,-0.00010028,0.00006439,0.00007976,-0.000146
 25,0.00001325,-0.00010949,-0.00009927,0.00040055,0.00065493,0.00174204
 ,-0.00117207,0.02878531,-0.01011740,-0.01690884,0.06440276,-0.07200400
 ,-0.03894865,-0.00037953,0.00031139,-0.00009803,-0.00053912,-0.0001246
 6,0.00086584,-0.00005167,-0.00004383,0.00010091,-0.00032747,0.00131343
 ,-0.00009717,-0.00016436,-0.00701656,-0.00020276,-0.00865259,0.0029390
 6,0.00671474,-0.07152011,0.07911907,0.00020198,-0.00007539,-0.00009626
 ,-0.00048610,-0.00015148,0.00030916,0.00043108,-0.00001212,0.00037386,
 -0.00000426,0.00002457,0.00002092,0.00000795,0.00012822,-0.00002215,-0
 .00003468,0.00002627,-0.00002615,0.00016798,0.00004290,-0.00011538,-0.
 00020722,-0.00029995,-0.00055472,0.00002259,0.00005390,-0.00014811,-0.
 00009487,0.00003484,0.00006691,0.00018509,0.00024563,-0.00027581,-0.00
 106427,0.00051888,0.00077972,0.00117959,-0.00036709,-0.00154074,0.1075
 2307,-0.03991192,-0.11562208,-0.00005165,-0.00011239,-0.00002772,0.000
 21179,-0.00005740,0.00032627,-0.00006181,-0.00003364,-0.00000101,0.000
 11216,-0.00015892,-0.00025652,-0.00039656,-0.00036737,0.00088995,-0.01
 350128,0.00598439,0.00919399,-0.11751469,0.04428078,0.11825344,0.00011
 371,-0.00001403,-0.00007154,-0.00017574,-0.00000994,0.00021422,0.00006
 199,-0.00007829,0.00020622,-0.00001801,-0.00001804,-0.00000506,0.00000
 852,0.00005845,-0.00001594,-0.00001605,0.00003596,0.00000431,0.0000226
 0,-0.00000300,-0.00006032,0.00012559,-0.00001451,-0.00002575,-0.000086
 01,0.00000552,-0.00009950,0.00001394,-0.00000308,0.00002931,-0.0000317
 6,0.00009014,-0.00015008,0.00052160,0.00014059,0.00006690,-0.00142491,
 0.00012914,-0.00063454,-0.04971338,0.00199487,-0.00424268,0.00048416,0
 .00001874,-0.00003491,0.00016515,0.00013398,-0.00034721,0.00016245,-0.
 00015813,0.00036807,0.00009101,-0.00013623,0.00050447,0.00002264,0.000
 08879,-0.00047424,0.00142899,0.01194738,-0.02329213,0.00248690,-0.0119
 9270,0.02337412,0.04575663,0.00009130,-0.00003777,0.00004372,-0.000110
 94,-0.00008896,0.00003515,0.00008346,0.00007902,-0.00003233,-0.0000180
 5,-0.00000401,-0.00000827,-0.00001144,0.00003120,-0.00002298,0.0000070
 3,0.00003010,-0.00002457,0.00001519,0.00003562,-0.00000984,0.00000193,
 0.00001603,0.00004163,0.00003408,-0.00000875,-0.00001800,-0.00003181,0
 .00001745,-0.00001310,-0.00000905,-0.00006841,-0.00000098,0.00014584,-
 0.00689638,-0.00259013,0.00039942,-0.01121110,0.03183732,0.00192546,-0
 .09286784,0.09881781,0.00003022,-0.00099029,0.00191021,-0.00017197,0.0
 0015251,-0.00019556,0.00017275,0.00013016,-0.00016805,-0.00053495,0.00
 113567,-0.00002944,0.00050934,0.00112075,-0.00007748,0.00107231,0.0045
 2043,-0.01075211,-0.00138450,0.00397420,-0.00979273,-0.00221562,0.1009
 3036,-0.00009444,0.00002227,0.00002162,0.00014496,-0.00002488,-0.00009
 839,-0.00009708,0.00009336,-0.00013180,0.00000509,0.00000829,0.0000061
 4,0.00001445,-0.00004171,0.00000838,0.00000994,-0.00004744,0.00002087,
 0.00002319,0.00000519,0.00004190,-0.00000810,0.00008380,-0.00006173,0.
 00006208,-0.00000389,0.00007009,-0.00000522,-0.00001154,-0.00002815,0.
 00001925,-0.00008276,0.00012893,0.00001808,0.00002542,0.00096839,0.000
 10056,-0.00345961,0.00477075,-0.00422453,0.10095390,-0.27353678,-0.000
 00554,-0.00005507,0.00007473,-0.00015847,-0.00021219,0.00014415,0.0001
 6087,-0.00020520,0.00015066,0.00019380,0.00048521,0.00052825,-0.000233
 03,0.00049852,0.00048305,0.00160325,0.00537470,-0.01114746,-0.00221543
 ,0.00554388,-0.01152755,0.00468630,-0.10895028,0.28911396\\0.00000030,
 0.00000004,-0.00000008,-0.00000010,0.00000045,-0.00000006,0.00000009,0
 .00000009,0.00000004,0.00000013,-0.00000013,-0.00000011,0.00000001,-0.
 00000019,0.,-0.00000021,-0.00000068,0.00000020,-0.00000012,-0.00000015
 ,0.00000001,0.00000037,-0.00000061,0.00000006,-0.00000014,-0.00000021,
 0.00000002,-0.00000015,-0.00000002,0.,-0.00000014,-0.00000048,-0.00000
 005,-0.00000022,-0.00000023,-0.00000007,-0.00000025,0.00000043,0.00000
 002,-0.00000046,0.,-0.00000034,0.00000014,0.00000001,-0.00000002,0.000
 00039,0.00000071,0.00000028,0.00000013,0.00000022,0.00000004,0.0000001
 7,-0.00000014,-0.00000040,0.00000012,0.00000014,-0.00000005,0.,0.00000
 012,0.00000006,0.,0.00000050,0.00000051,-0.00000008,0.00000016,-0.0000
 0007\\\@


 IT IS UNWORTHY OF EXCELLENT MEN TO LOSE HOURS LIKE SLAVES IN THE LABOR
 OF CALCULATION WHICH COULD BE SAFELY RELEGATED TO ANYONE ELSE
 IF A MACHINE WERE USED.
    -- G.W. VON LEIBNIZ
 File lengths (MBytes):  RWF=     40 Int=      0 D2E=      0 Chk=      3 Scr=      1
 Normal termination of Gaussian 16 at Sun Feb  5 15:40:21 2023.
real 1004.21
user 3722.18
sys 36.89
