 Entering Gaussian System, Link 0=g16
 Input=gaussian_test.inp
 Output=gaussian_test.log
 Initial command:
 /sw/restricted/lms/sw/Gaussian/g16_B01/g16/l1.exe "/scratch/user/peterchao1/peterchao1/6991778_1675632276000000710336866/Gau-64981.inp" -scrdir="/scratch/user/peterchao1/peterchao1/6991778_1675632276000000710336866/"
 Entering Link 1 = /sw/restricted/lms/sw/Gaussian/g16_B01/g16/l1.exe PID=     65012.
  
 Copyright (c) 1988-2017, Gaussian, Inc.  All Rights Reserved.
  
 This is part of the Gaussian(R) 16 program.  It is based on
 the Gaussian(R) 09 system (copyright 2009, Gaussian, Inc.),
 the Gaussian(R) 03 system (copyright 2003, Gaussian, Inc.),
 the Gaussian(R) 98 system (copyright 1998, Gaussian, Inc.),
 the Gaussian(R) 94 system (copyright 1995, Gaussian, Inc.),
 the Gaussian 92(TM) system (copyright 1992, Gaussian, Inc.),
 the Gaussian 90(TM) system (copyright 1990, Gaussian, Inc.),
 the Gaussian 88(TM) system (copyright 1988, Gaussian, Inc.),
 the Gaussian 86(TM) system (copyright 1986, Carnegie Mellon
 University), and the Gaussian 82(TM) system (copyright 1983,
 Carnegie Mellon University). Gaussian is a federally registered
 trademark of Gaussian, Inc.
  
 This software contains proprietary and confidential information,
 including trade secrets, belonging to Gaussian, Inc.
  
 This software is provided under written license and may be
 used, copied, transmitted, or stored only in accord with that
 written license.
  
 The following legend is applicable only to US Government
 contracts under FAR:
  
                    RESTRICTED RIGHTS LEGEND
  
 Use, reproduction and disclosure by the US Government is
 subject to restrictions as set forth in subparagraphs (a)
 and (c) of the Commercial Computer Software - Restricted
 Rights clause in FAR 52.227-19.
  
 Gaussian, Inc.
 340 Quinnipiac St., Bldg. 40, Wallingford CT 06492
  
  
 ---------------------------------------------------------------
 Warning -- This program may not be used in any manner that
 competes with the business of Gaussian, Inc. or will provide
 assistance to any competitor of Gaussian, Inc.  The licensee
 of this program is prohibited from giving any competitor of
 Gaussian, Inc. access to this program.  By using this program,
 the user acknowledges that Gaussian, Inc. is engaged in the
 business of creating and licensing software in the field of
 computational chemistry and represents and warrants to the
 licensee that it is not a competitor of Gaussian, Inc. and that
 it will not use this program in any manner prohibited above.
 ---------------------------------------------------------------
  

 Cite this work as:
 Gaussian 16, Revision B.01,
 M. J. Frisch, G. W. Trucks, H. B. Schlegel, G. E. Scuseria, 
 M. A. Robb, J. R. Cheeseman, G. Scalmani, V. Barone, 
 G. A. Petersson, H. Nakatsuji, X. Li, M. Caricato, A. V. Marenich, 
 J. Bloino, B. G. Janesko, R. Gomperts, B. Mennucci, H. P. Hratchian, 
 J. V. Ortiz, A. F. Izmaylov, J. L. Sonnenberg, D. Williams-Young, 
 F. Ding, F. Lipparini, F. Egidi, J. Goings, B. Peng, A. Petrone, 
 T. Henderson, D. Ranasinghe, V. G. Zakrzewski, J. Gao, N. Rega, 
 G. Zheng, W. Liang, M. Hada, M. Ehara, K. Toyota, R. Fukuda, 
 J. Hasegawa, M. Ishida, T. Nakajima, Y. Honda, O. Kitao, H. Nakai, 
 T. Vreven, K. Throssell, J. A. Montgomery, Jr., J. E. Peralta, 
 F. Ogliaro, M. J. Bearpark, J. J. Heyd, E. N. Brothers, K. N. Kudin, 
 V. N. Staroverov, T. A. Keith, R. Kobayashi, J. Normand, 
 K. Raghavachari, A. P. Rendell, J. C. Burant, S. S. Iyengar, 
 J. Tomasi, M. Cossi, J. M. Millam, M. Klene, C. Adamo, R. Cammi, 
 J. W. Ochterski, R. L. Martin, K. Morokuma, O. Farkas, 
 J. B. Foresman, and D. J. Fox, Gaussian, Inc., Wallingford CT, 2016.
 
 ******************************************
 Gaussian 16:  ES64L-G16RevB.01 20-Dec-2017
                 5-Feb-2023 
 ******************************************
 %nprocshared=4
 Will use up to    4 processors via shared memory.
 %mem=8000mb
 %chk=18.chk
 %nprocshared=4
 Will use up to    4 processors via shared memory.
 %mem=8000mb
 ----------------------------------------------------------------------
 #T wB97XD/def2svpp opt=tight freq int(grid=ultrafine) scf=(verytight,q
 c) Volume=tight
 ----------------------------------------------------------------------
 -----
 Dimer
 -----
 Symbolic Z-matrix:
 Charge =  0 Multiplicity = 1
 C                    -3.69018  -2.00881  -0.44811 
 C                    -2.97338  -0.67206  -0.67055 
 C                    -1.88356  -0.84923  -1.72759 
 C                    -3.98119   0.38499  -1.12379 
 C                    -2.35634  -0.28371   0.67046 
 Br                   -1.34617   1.37276   0.6022 
 H                    -2.98335  -2.7745   -0.13576 
 H                    -4.16314  -2.33431  -1.37123 
 H                    -4.45997  -1.91557   0.31569 
 H                    -1.38981   0.09735  -1.93702 
 H                    -2.31635  -1.21666  -2.65497 
 H                    -1.13586  -1.56315  -1.38716 
 H                    -3.49369   1.34575  -1.27911 
 H                    -4.76793   0.5132   -0.38166 
 H                    -4.44286   0.08597  -2.06189 
 H                    -1.65023  -1.0413    1.00905 
 H                    -3.12328  -0.12619   1.42896 
 C                     3.69421   2.00608  -0.44831 
 C                     2.97435   0.67097  -0.67062 
 C                     1.8837    0.85084  -1.72638 
 C                     3.97952  -0.38799  -1.12534 
 C                     2.35782   0.2833    0.67082 
 Br                    1.34527  -1.37173   0.60313 
 H                     4.46385   1.91119   0.31545 
 H                     2.98918   2.77346  -0.13605 
 H                     4.16789   2.33033  -1.3715 
 H                     2.31602   1.21919  -2.65359 
 H                     1.13704   1.56502  -1.38425 
 H                     1.38881  -0.09493  -1.93673 
 H                     4.76727  -0.51753  -0.38451 
 H                     4.44016  -0.08995  -2.06425 
 H                     3.49006  -1.3479   -1.27974 
 H                     1.65304   1.0418    1.01015 
 H                     3.1251    0.12448   1.4287 
 
 Add virtual bond connecting atoms H29        and H10        Dist= 5.26D+00.

 GradGradGradGradGradGradGradGradGradGradGradGradGradGradGradGradGradGrad
 Initialization pass.
                           ----------------------------
                           !    Initial Parameters    !
                           ! (Angstroms and Degrees)  !
 --------------------------                            --------------------------
 ! Name  Definition              Value          Derivative Info.                !
 --------------------------------------------------------------------------------
 ! R1    R(1,2)                  1.533          estimate D2E/DX2                !
 ! R2    R(1,7)                  1.0879         estimate D2E/DX2                !
 ! R3    R(1,8)                  1.0871         estimate D2E/DX2                !
 ! R4    R(1,9)                  1.0884         estimate D2E/DX2                !
 ! R5    R(2,3)                  1.5285         estimate D2E/DX2                !
 ! R6    R(2,4)                  1.5292         estimate D2E/DX2                !
 ! R7    R(2,5)                  1.5264         estimate D2E/DX2                !
 ! R8    R(3,10)                 1.088          estimate D2E/DX2                !
 ! R9    R(3,11)                 1.0874         estimate D2E/DX2                !
 ! R10   R(3,12)                 1.0884         estimate D2E/DX2                !
 ! R11   R(4,13)                 1.0885         estimate D2E/DX2                !
 ! R12   R(4,14)                 1.0891         estimate D2E/DX2                !
 ! R13   R(4,15)                 1.0875         estimate D2E/DX2                !
 ! R14   R(5,6)                  1.9414         estimate D2E/DX2                !
 ! R15   R(5,16)                 1.0896         estimate D2E/DX2                !
 ! R16   R(5,17)                 1.0901         estimate D2E/DX2                !
 ! R17   R(10,29)                2.7853         estimate D2E/DX2                !
 ! R18   R(18,19)                1.533          estimate D2E/DX2                !
 ! R19   R(18,24)                1.0884         estimate D2E/DX2                !
 ! R20   R(18,25)                1.0879         estimate D2E/DX2                !
 ! R21   R(18,26)                1.0871         estimate D2E/DX2                !
 ! R22   R(19,20)                1.5286         estimate D2E/DX2                !
 ! R23   R(19,21)                1.5292         estimate D2E/DX2                !
 ! R24   R(19,22)                1.5264         estimate D2E/DX2                !
 ! R25   R(20,27)                1.0873         estimate D2E/DX2                !
 ! R26   R(20,28)                1.0884         estimate D2E/DX2                !
 ! R27   R(20,29)                1.088          estimate D2E/DX2                !
 ! R28   R(21,30)                1.0891         estimate D2E/DX2                !
 ! R29   R(21,31)                1.0875         estimate D2E/DX2                !
 ! R30   R(21,32)                1.0885         estimate D2E/DX2                !
 ! R31   R(22,23)                1.9414         estimate D2E/DX2                !
 ! R32   R(22,33)                1.0896         estimate D2E/DX2                !
 ! R33   R(22,34)                1.0901         estimate D2E/DX2                !
 ! A1    A(2,1,7)              110.5845         estimate D2E/DX2                !
 ! A2    A(2,1,8)              109.9562         estimate D2E/DX2                !
 ! A3    A(2,1,9)              110.966          estimate D2E/DX2                !
 ! A4    A(7,1,8)              108.4062         estimate D2E/DX2                !
 ! A5    A(7,1,9)              108.5621         estimate D2E/DX2                !
 ! A6    A(8,1,9)              108.291          estimate D2E/DX2                !
 ! A7    A(1,2,3)              109.4293         estimate D2E/DX2                !
 ! A8    A(1,2,4)              109.7302         estimate D2E/DX2                !
 ! A9    A(1,2,5)              106.4627         estimate D2E/DX2                !
 ! A10   A(3,2,4)              110.1845         estimate D2E/DX2                !
 ! A11   A(3,2,5)              110.4151         estimate D2E/DX2                !
 ! A12   A(4,2,5)              110.5446         estimate D2E/DX2                !
 ! A13   A(2,3,10)             110.8456         estimate D2E/DX2                !
 ! A14   A(2,3,11)             110.193          estimate D2E/DX2                !
 ! A15   A(2,3,12)             110.4583         estimate D2E/DX2                !
 ! A16   A(10,3,11)            108.0862         estimate D2E/DX2                !
 ! A17   A(10,3,12)            108.6106         estimate D2E/DX2                !
 ! A18   A(11,3,12)            108.5746         estimate D2E/DX2                !
 ! A19   A(2,4,13)             110.9314         estimate D2E/DX2                !
 ! A20   A(2,4,14)             110.8235         estimate D2E/DX2                !
 ! A21   A(2,4,15)             110.2059         estimate D2E/DX2                !
 ! A22   A(13,4,14)            108.4724         estimate D2E/DX2                !
 ! A23   A(13,4,15)            108.0436         estimate D2E/DX2                !
 ! A24   A(14,4,15)            108.2711         estimate D2E/DX2                !
 ! A25   A(2,5,6)              113.3621         estimate D2E/DX2                !
 ! A26   A(2,5,16)             110.9826         estimate D2E/DX2                !
 ! A27   A(2,5,17)             111.3248         estimate D2E/DX2                !
 ! A28   A(6,5,16)             105.4846         estimate D2E/DX2                !
 ! A29   A(6,5,17)             105.501          estimate D2E/DX2                !
 ! A30   A(16,5,17)            109.8882         estimate D2E/DX2                !
 ! A31   A(3,10,29)            113.1203         estimate D2E/DX2                !
 ! A32   A(19,18,24)           110.969          estimate D2E/DX2                !
 ! A33   A(19,18,25)           110.5878         estimate D2E/DX2                !
 ! A34   A(19,18,26)           109.9515         estimate D2E/DX2                !
 ! A35   A(24,18,25)           108.5627         estimate D2E/DX2                !
 ! A36   A(24,18,26)           108.2885         estimate D2E/DX2                !
 ! A37   A(25,18,26)           108.4063         estimate D2E/DX2                !
 ! A38   A(18,19,20)           109.4338         estimate D2E/DX2                !
 ! A39   A(18,19,21)           109.728          estimate D2E/DX2                !
 ! A40   A(18,19,22)           106.4643         estimate D2E/DX2                !
 ! A41   A(20,19,21)           110.1883         estimate D2E/DX2                !
 ! A42   A(20,19,22)           110.407          estimate D2E/DX2                !
 ! A43   A(21,19,22)           110.545          estimate D2E/DX2                !
 ! A44   A(19,20,27)           110.1906         estimate D2E/DX2                !
 ! A45   A(19,20,28)           110.4615         estimate D2E/DX2                !
 ! A46   A(19,20,29)           110.8431         estimate D2E/DX2                !
 ! A47   A(27,20,28)           108.5736         estimate D2E/DX2                !
 ! A48   A(27,20,29)           108.0887         estimate D2E/DX2                !
 ! A49   A(28,20,29)           108.6109         estimate D2E/DX2                !
 ! A50   A(19,21,30)           110.8257         estimate D2E/DX2                !
 ! A51   A(19,21,31)           110.2046         estimate D2E/DX2                !
 ! A52   A(19,21,32)           110.9333         estimate D2E/DX2                !
 ! A53   A(30,21,31)           108.2712         estimate D2E/DX2                !
 ! A54   A(30,21,32)           108.4723         estimate D2E/DX2                !
 ! A55   A(31,21,32)           108.0407         estimate D2E/DX2                !
 ! A56   A(19,22,23)           113.3623         estimate D2E/DX2                !
 ! A57   A(19,22,33)           110.9872         estimate D2E/DX2                !
 ! A58   A(19,22,34)           111.3275         estimate D2E/DX2                !
 ! A59   A(23,22,33)           105.4831         estimate D2E/DX2                !
 ! A60   A(23,22,34)           105.4947         estimate D2E/DX2                !
 ! A61   A(33,22,34)           109.8879         estimate D2E/DX2                !
 ! A62   A(10,29,20)           113.1915         estimate D2E/DX2                !
 ! D1    D(7,1,2,3)             58.3518         estimate D2E/DX2                !
 ! D2    D(7,1,2,4)            179.363          estimate D2E/DX2                !
 ! D3    D(7,1,2,5)            -60.9841         estimate D2E/DX2                !
 ! D4    D(8,1,2,3)            -61.3313         estimate D2E/DX2                !
 ! D5    D(8,1,2,4)             59.6798         estimate D2E/DX2                !
 ! D6    D(8,1,2,5)            179.3328         estimate D2E/DX2                !
 ! D7    D(9,1,2,3)            178.8867         estimate D2E/DX2                !
 ! D8    D(9,1,2,4)            -60.1021         estimate D2E/DX2                !
 ! D9    D(9,1,2,5)             59.5508         estimate D2E/DX2                !
 ! D10   D(1,2,3,10)           177.3898         estimate D2E/DX2                !
 ! D11   D(1,2,3,11)            57.7865         estimate D2E/DX2                !
 ! D12   D(1,2,3,12)           -62.1775         estimate D2E/DX2                !
 ! D13   D(4,2,3,10)            56.6546         estimate D2E/DX2                !
 ! D14   D(4,2,3,11)           -62.9488         estimate D2E/DX2                !
 ! D15   D(4,2,3,12)           177.0873         estimate D2E/DX2                !
 ! D16   D(5,2,3,10)           -65.7426         estimate D2E/DX2                !
 ! D17   D(5,2,3,11)           174.654          estimate D2E/DX2                !
 ! D18   D(5,2,3,12)            54.6901         estimate D2E/DX2                !
 ! D19   D(1,2,4,13)           179.4933         estimate D2E/DX2                !
 ! D20   D(1,2,4,14)            58.9349         estimate D2E/DX2                !
 ! D21   D(1,2,4,15)           -60.8933         estimate D2E/DX2                !
 ! D22   D(3,2,4,13)           -59.9522         estimate D2E/DX2                !
 ! D23   D(3,2,4,14)           179.4894         estimate D2E/DX2                !
 ! D24   D(3,2,4,15)            59.6613         estimate D2E/DX2                !
 ! D25   D(5,2,4,13)            62.3687         estimate D2E/DX2                !
 ! D26   D(5,2,4,14)           -58.1897         estimate D2E/DX2                !
 ! D27   D(5,2,4,15)          -178.0178         estimate D2E/DX2                !
 ! D28   D(1,2,5,6)            178.3411         estimate D2E/DX2                !
 ! D29   D(1,2,5,16)            59.8424         estimate D2E/DX2                !
 ! D30   D(1,2,5,17)           -62.8987         estimate D2E/DX2                !
 ! D31   D(3,2,5,6)             59.6494         estimate D2E/DX2                !
 ! D32   D(3,2,5,16)           -58.8493         estimate D2E/DX2                !
 ! D33   D(3,2,5,17)           178.4097         estimate D2E/DX2                !
 ! D34   D(4,2,5,6)            -62.5363         estimate D2E/DX2                !
 ! D35   D(4,2,5,16)           178.9651         estimate D2E/DX2                !
 ! D36   D(4,2,5,17)            56.224          estimate D2E/DX2                !
 ! D37   D(2,3,10,29)          132.3936         estimate D2E/DX2                !
 ! D38   D(11,3,10,29)        -106.7483         estimate D2E/DX2                !
 ! D39   D(12,3,10,29)          10.8688         estimate D2E/DX2                !
 ! D40   D(3,10,29,20)        -155.7759         estimate D2E/DX2                !
 ! D41   D(24,18,19,20)        178.8189         estimate D2E/DX2                !
 ! D42   D(24,18,19,21)        -60.1638         estimate D2E/DX2                !
 ! D43   D(24,18,19,22)         59.4893         estimate D2E/DX2                !
 ! D44   D(25,18,19,20)         58.2791         estimate D2E/DX2                !
 ! D45   D(25,18,19,21)        179.2963         estimate D2E/DX2                !
 ! D46   D(25,18,19,22)        -61.0505         estimate D2E/DX2                !
 ! D47   D(26,18,19,20)        -61.4033         estimate D2E/DX2                !
 ! D48   D(26,18,19,21)         59.614          estimate D2E/DX2                !
 ! D49   D(26,18,19,22)        179.2671         estimate D2E/DX2                !
 ! D50   D(18,19,20,27)         57.7022         estimate D2E/DX2                !
 ! D51   D(18,19,20,28)        -62.2611         estimate D2E/DX2                !
 ! D52   D(18,19,20,29)        177.3054         estimate D2E/DX2                !
 ! D53   D(21,19,20,27)        -63.0356         estimate D2E/DX2                !
 ! D54   D(21,19,20,28)        177.0012         estimate D2E/DX2                !
 ! D55   D(21,19,20,29)         56.5677         estimate D2E/DX2                !
 ! D56   D(22,19,20,27)        174.5696         estimate D2E/DX2                !
 ! D57   D(22,19,20,28)         54.6064         estimate D2E/DX2                !
 ! D58   D(22,19,20,29)        -65.8271         estimate D2E/DX2                !
 ! D59   D(18,19,21,30)         58.881          estimate D2E/DX2                !
 ! D60   D(18,19,21,31)        -60.9478         estimate D2E/DX2                !
 ! D61   D(18,19,21,32)        179.442          estimate D2E/DX2                !
 ! D62   D(20,19,21,30)        179.4422         estimate D2E/DX2                !
 ! D63   D(20,19,21,31)         59.6133         estimate D2E/DX2                !
 ! D64   D(20,19,21,32)        -59.9969         estimate D2E/DX2                !
 ! D65   D(22,19,21,30)        -58.2444         estimate D2E/DX2                !
 ! D66   D(22,19,21,31)       -178.0733         estimate D2E/DX2                !
 ! D67   D(22,19,21,32)         62.3166         estimate D2E/DX2                !
 ! D68   D(18,19,22,23)        178.3874         estimate D2E/DX2                !
 ! D69   D(18,19,22,33)         59.8874         estimate D2E/DX2                !
 ! D70   D(18,19,22,34)        -62.8584         estimate D2E/DX2                !
 ! D71   D(20,19,22,23)         59.6938         estimate D2E/DX2                !
 ! D72   D(20,19,22,33)        -58.8062         estimate D2E/DX2                !
 ! D73   D(20,19,22,34)        178.448          estimate D2E/DX2                !
 ! D74   D(21,19,22,23)        -62.4914         estimate D2E/DX2                !
 ! D75   D(21,19,22,33)        179.0086         estimate D2E/DX2                !
 ! D76   D(21,19,22,34)         56.2628         estimate D2E/DX2                !
 ! D77   D(19,20,29,10)        132.4574         estimate D2E/DX2                !
 ! D78   D(27,20,29,10)       -106.6874         estimate D2E/DX2                !
 ! D79   D(28,20,29,10)         10.9301         estimate D2E/DX2                !
 --------------------------------------------------------------------------------
 Number of steps in this run=    184 maximum allowed number of steps=    204.
 GradGradGradGradGradGradGradGradGradGradGradGradGradGradGradGradGradGrad

                    Distance matrix (angstroms):
                    1          2          3          4          5
     1  C    0.000000
     2  C    1.533027   0.000000
     3  C    2.499106   1.528531   0.000000
     4  C    2.504295   1.529208   2.507573   0.000000
     5  C    2.450779   1.526392   2.508779   2.511303   0.000000
     6  Br   4.246475   2.906719   3.264038   3.301229   1.941387
     7  H    1.087861   2.169405   2.729484   3.457487   2.692056
     8  H    1.087099   2.160913   2.743891   2.736585   3.411451
     9  H    1.088424   2.174610   3.456865   2.755702   2.685903
    10  H    3.456078   2.168789   1.087971   2.731183   2.806843
    11  H    2.717557   2.160133   1.087354   2.771549   3.454052
    12  H    2.757707   2.164262   1.088409   3.458400   2.712996
    13  H    3.461539   2.170864   2.758911   1.088509   2.783801
    14  H    2.743450   2.169965   3.462273   1.089107   2.749149
    15  H    2.749344   2.160977   2.745244   1.087468   3.457743
    16  H    2.687156   2.169823   2.753278   3.466512   1.089578
    17  H    2.718279   2.174490   3.467491   2.741140   1.090109
    18  C    8.405268   7.188780   6.395380   7.873754   6.565358
    19  C    7.186562   6.097476   5.198800   6.976156   5.579083
    20  C    6.393721   5.198577   4.133098   5.914145   5.000999
    21  C    7.868291   6.973547   5.911956   7.998157   6.586267
    22  C    6.563843   5.579752   5.002427   6.588932   4.748134
    23  Br   5.183312   4.556589   4.016290   5.868518   3.858786
    24  H    9.079517   7.934593   7.216896   8.701694   7.173465
    25  H    8.220788   6.907203   6.276985   7.434150   6.210583
    26  H    9.023857   7.778391   6.845179   8.381720   7.319040
    27  H    7.166491   5.957103   4.772043   6.533846   5.927818
    28  H    6.078704   4.733861   3.882079   5.258956   4.454584
    29  H    5.628052   4.578747   3.364684   5.452346   4.567185
    30  H    8.588149   7.747467   6.793188   8.825906   7.205094
    31  H    8.508603   7.565831   6.378036   8.487005   7.328614
    32  H    7.258389   6.527164   5.415260   7.671169   6.254292
    33  H    6.323188   5.212082   4.855794   6.060499   4.236444
    34  H    7.383860   6.498674   5.999747   7.555294   5.548668
                    6          7          8          9         10
     6  Br   0.000000
     7  H    4.519366   0.000000
     8  H    5.056889   1.764100   0.000000
     9  H    4.537722   1.766905   1.763277   0.000000
    10  H    2.841870   3.745856   3.731554   4.307256   0.000000
    11  H    4.272643   3.036140   2.511531   3.729396   1.760836
    12  H    3.552654   2.539008   3.124000   3.751475   1.767520
    13  H    2.855161   4.306290   3.741589   3.756768   2.533311
    14  H    3.662695   3.748887   3.074624   2.545599   3.742167
    15  H    4.282845   3.744647   2.532386   3.107948   3.055628
    16  H    2.466910   2.468156   3.694909   3.023196   3.169183
    17  H    2.467492   3.079199   3.714587   2.495589   3.792725
    18  C    5.187490   8.218359   9.023788   9.080397   5.630872
    19  C    4.558448   6.903008   7.776013   7.932972   4.580251
    20  C    4.015812   6.273859   6.843655   7.215620   3.365703
    21  C    5.869207   7.426727   8.375658   8.696840   5.451983
    22  C    3.861493   6.207155   7.317429   7.172399   4.569476
    23  Br   3.843958   4.609847   5.930200   5.837734   4.011385
    24  H    5.841954   8.810226   9.761874   9.709716   6.529085
    25  H    4.615434   8.151747   8.875288   8.813675   5.438807
    26  H    5.934410   8.872798   9.548035   9.762896   6.016144
    27  H    4.902593   7.097351   7.500097   8.034763   3.937663
    28  H    3.185788   6.112917   6.580037   6.806671   2.973982
    29  H    4.010031   5.435006   6.013214   6.526579   2.785259
    30  H    6.474629   8.076375   9.166598   9.358770   6.379494
    31  H    6.536899   8.126154   8.918200   9.391978   5.834365
    32  H    5.859415   6.726732   7.717052   8.128379   5.131654
    33  H    3.044859   6.113374   7.134216   6.826207   4.340127
    34  H    4.715240   6.940087   8.185582   7.933083   5.631449
                   11         12         13         14         15
    11  H    0.000000
    12  H    1.766621   0.000000
    13  H    3.137683   3.746033   0.000000
    14  H    3.764386   4.302816   1.766990   0.000000
    15  H    2.563324   3.756477   1.760889   1.763908   0.000000
    16  H    3.728206   2.505742   3.785772   3.751086   4.301189
    17  H    4.303341   3.734333   3.104428   2.528251   3.737960
    18  C    7.168135   6.078688   7.265820   8.593078   8.514833
    19  C    5.957538   4.732713   6.531552   7.749283   7.569209
    20  C    4.772547   3.880744   5.418608   6.794594   6.381456
    21  C    6.531803   5.255160   7.673229   8.825147   8.487541
    22  C    5.929463   4.455383   6.258690   7.206728   7.331841
    23  Br   4.903740   3.186517   5.860295   6.472560   6.536793
    24  H    8.036037   6.806373   8.135405   9.363023   9.397485
    25  H    7.100327   6.114530   6.735919   8.083438   8.134297
    26  H    7.501582   6.579456   7.725134   9.172276   8.925179
    27  H    5.233759   4.610946   5.971432   7.472788   6.878725
    28  H    4.612847   3.866726   4.637110   6.081136   5.812237
    29  H    3.937295   2.971808   5.132913   6.379146   5.835815
    30  H    7.471368   6.078284   8.515605   9.590749   9.381059
    31  H    6.875233   5.806961   8.100845   9.379974   8.884766
    32  H    5.968486   4.632171   7.485219   8.512620   8.099318
    33  H    5.855743   4.506753   5.641091   6.591315   6.892825
    34  H    6.934287   5.378937   7.254800   8.107312   8.334252
                   16         17         18         19         20
    16  H    0.000000
    17  H    1.784275   0.000000
    18  C    6.322458   7.385726   0.000000
    19  C    5.209598   6.498065   1.533020   0.000000
    20  C    4.852985   5.998389   2.499199   1.528567   0.000000
    21  C    6.056117   7.552672   2.504270   1.529227   2.507676
    22  C    4.234786   5.548419   2.450792   1.526384   2.508677
    23  Br   3.040885   4.711830   4.246485   2.906704   3.264401
    24  H    6.824974   7.934447   1.088434   2.174648   3.456965
    25  H    6.114556   6.944024   1.087858   2.169438   2.729054
    26  H    7.133402   8.187689   1.087098   2.160848   2.744515
    27  H    5.852860   6.932775   2.716953   2.160122   1.087338
    28  H    4.504405   5.378167   2.758553   2.164329   1.088403
    29  H    4.336932   5.629191   3.456085   2.168777   1.087955
    30  H    6.587913   8.105714   2.743019   2.170006   3.462371
    31  H    6.887895   8.331238   2.749736   2.160971   2.744947
    32  H    5.635172   7.250239   3.461524   2.170899   2.759406
    33  H    3.905238   4.934861   2.687625   2.169877   2.752867
    34  H    4.933449   6.253410   2.717993   2.174512   3.467451
                   21         22         23         24         25
    21  C    0.000000
    22  C    2.511318   0.000000
    23  Br   3.300697   1.941376   0.000000
    24  H    2.756208   2.685460   4.537164   0.000000
    25  H    3.457491   2.692686   4.520110   1.766917   0.000000
    26  H    2.735944   3.411417   5.056834   1.763256   1.764098
    27  H    2.772335   3.453887   4.273340   3.729238   3.034290
    28  H    3.458471   2.712269   3.552113   3.751862   2.539440
    29  H    2.730579   2.807371   2.843055   4.307289   3.745842
    30  H    1.089102   2.749631   3.662666   2.545721   3.748856
    31  H    1.087459   3.457750   4.282076   3.109354   3.744651
    32  H    1.088501   2.783424   2.854100   3.756937   4.306333
    33  H    3.466575   1.089584   2.466882   3.023097   2.469350
    34  H    2.741490   1.090105   2.467389   2.494776   3.079607
                   26         27         28         29         30
    26  H    0.000000
    27  H    2.511531   0.000000
    28  H    3.126004   1.766592   0.000000
    29  H    3.731581   1.760839   1.767505   0.000000
    30  H    3.073069   3.764775   4.302912   3.741921   0.000000
    31  H    2.532158   2.563815   3.756590   3.054024   1.763898
    32  H    3.741293   3.139390   3.746029   2.533144   1.766978
    33  H    3.695542   3.727467   2.504623   3.169552   3.751667
    34  H    3.714068   4.303265   3.733658   3.793279   2.529152
                   31         32         33         34
    31  H    0.000000
    32  H    1.760843   0.000000
    33  H    4.301259   3.785356   0.000000
    34  H    3.738454   3.104314   1.784272   0.000000
 Framework group  C1[X(C10H22Br2)]
 Deg. of freedom    96
                         Standard orientation:                         
 ---------------------------------------------------------------------
 Center     Atomic      Atomic             Coordinates (Angstroms)
 Number     Number       Type             X           Y           Z
 ---------------------------------------------------------------------
      1          6           0       -3.808218    1.774935    0.353895
      2          6           0       -3.009533    0.485440    0.576332
      3          6           0       -1.932872    0.730157    1.633367
      4          6           0       -3.949539   -0.632342    1.029571
      5          6           0       -2.369499    0.136279   -0.764681
      6         35           0       -1.258093   -1.454036   -0.696422
      7          1           0       -3.150465    2.583167    0.041543
      8          1           0       -4.300543    2.070335    1.277008
      9          1           0       -4.570701    1.633919   -0.409912
     10          1           0       -1.381106   -0.183829    1.842803
     11          1           0       -2.387706    1.069908    2.560748
     12          1           0       -1.231099    1.489273    1.292938
     13          1           0       -3.403130   -1.560870    1.184894
     14          1           0       -4.726765   -0.809320    0.287444
     15          1           0       -4.428939   -0.362663    1.967672
     16          1           0       -1.711958    0.936387   -1.103274
     17          1           0       -3.125142   -0.068713   -1.523181
     18          6           0        3.811944   -1.772129    0.354095
     19          6           0        3.010311   -0.484451    0.576399
     20          6           0        1.932983   -0.731917    1.632164
     21          6           0        3.947560    0.635073    1.031116
     22          6           0        2.370825   -0.135943   -0.765036
     23         35           0        1.257139    1.452787   -0.697346
     24          1           0        4.574180   -1.629474   -0.409668
     25          1           0        3.156095   -2.581935    0.041828
     26          1           0        4.304903   -2.066241    1.277281
     27          1           0        2.387416   -1.072623    2.559372
     28          1           0        1.232265   -1.491231    1.290026
     29          1           0        1.380131    0.181185    1.842509
     30          1           0        4.725702    0.813433    0.290288
     31          1           0        4.425871    0.366308    1.970026
     32          1           0        3.399246    1.562621    1.185523
     33          1           0        1.714665   -0.936881   -1.104368
     34          1           0        3.126722    0.070362   -1.522919
 ---------------------------------------------------------------------
 Rotational constants (GHZ):           0.7123182           0.2655158           0.2355491
   248 basis functions,   498 primitive gaussians,   264 cartesian basis functions
    76 alpha electrons       76 beta electrons
       nuclear repulsion energy      1516.8920420304 Hartrees.
 NAtoms=   34 NActive=   34 NUniq=   34 SFac= 1.00D+00 NAtFMM=   60 NAOKFM=F Big=F
 Nuclear repulsion after empirical dispersion term =     1516.8634881940 Hartrees.
   1 Symmetry operations used in ECPInt.
 ECPInt:  NShTT=    8256 NPrTT=   36322 LenC2=    7834 LenP2D=   23763.
 LDataN:  DoStor=T MaxTD1= 4 Len=   56
 ExpMin= 1.22D-01 ExpMax= 1.13D+05 ExpMxC= 1.70D+04 IAcc=3 IRadAn=         5 AccDes= 0.00D+00
 Harris functional with IExCor= 4639 and IRadAn=       5 diagonalized for initial guess.
 HarFok:  IExCor= 4639 AccDes= 0.00D+00 IRadAn=         5 IDoV= 1 UseB2=F ITyADJ=14
 ICtDFT=  3500011 ScaDFX=  1.000000  1.000000  1.000000  1.000000
 FoFCou: FMM=F IPFlag=           0 FMFlag=      100000 FMFlg1=           0
         NFxFlg=           0 DoJE=T BraDBF=F KetDBF=T FulRan=T
         wScrn=  0.000000 ICntrl=       500 IOpCl=  0 I1Cent=   200000004 NGrid=           0
         NMat0=    1 NMatS0=      1 NMatT0=    0 NMatD0=    1 NMtDS0=    0 NMtDT0=    0
 Petite list used in FoFCou.
     Accept linear search using points  2 and  3.
     Accept linear search using points  2 and  3.
     Accept linear search using points  1 and  2.
     Accept linear search using points  1 and  2.
     Minimum is close to point  2 DX= -7.85D-05 DF=  0.00D+00 DXR=  7.85D-05 DFR=  0.00D+00 which will be used.
 SCF Done:  E(RwB97XD) =  -5541.70765366     a.u. after    8 cycles
            Convg  =    0.9834D-09                    43 Fock formations.
              S**2 =  0.0000                  -V/T =  2.0018

 **********************************************************************

            Population analysis using the SCF Density.

 **********************************************************************

 Orbital symmetries:
       Occupied  (A) (A) (A) (A) (A) (A) (A) (A) (A) (A) (A) (A)
                 (A) (A) (A) (A) (A) (A) (A) (A) (A) (A) (A) (A)
                 (A) (A) (A) (A) (A) (A) (A) (A) (A) (A) (A) (A)
                 (A) (A) (A) (A) (A) (A) (A) (A) (A) (A) (A) (A)
                 (A) (A) (A) (A) (A) (A) (A) (A) (A) (A) (A) (A)
                 (A) (A) (A) (A) (A) (A) (A) (A) (A) (A) (A) (A)
                 (A) (A) (A) (A)
       Virtual   (A) (A) (A) (A) (A) (A) (A) (A) (A) (A) (A) (A)
                 (A) (A) (A) (A) (A) (A) (A) (A) (A) (A) (A) (A)
                 (A) (A) (A) (A) (A) (A) (A) (A) (A) (A) (A) (A)
                 (A) (A) (A) (A) (A) (A) (A) (A) (A) (A) (A) (A)
                 (A) (A) (A) (A) (A) (A) (A) (A) (A) (A) (A) (A)
                 (A) (A) (A) (A) (A) (A) (A) (A) (A) (A) (A) (A)
                 (A) (A) (A) (A) (A) (A) (A) (A) (A) (A) (A) (A)
                 (A) (A) (A) (A) (A) (A) (A) (A) (A) (A) (A) (A)
                 (A) (A) (A) (A) (A) (A) (A) (A) (A) (A) (A) (A)
                 (A) (A) (A) (A) (A) (A) (A) (A) (A) (A) (A) (A)
                 (A) (A) (A) (A) (A) (A) (A) (A) (A) (A) (A) (A)
                 (A) (A) (A) (A) (A) (A) (A) (A) (A) (A) (A) (A)
                 (A) (A) (A) (A) (A) (A) (A) (A) (A) (A) (A) (A)
                 (A) (A) (A) (A) (A) (A) (A) (A) (A) (A) (A) (A)
                 (A) (A) (A) (A)
 The electronic state is 1-A.
 Alpha  occ. eigenvalues -- -483.04228-483.04225 -62.62428 -62.62426 -56.43187
 Alpha  occ. eigenvalues --  -56.43185 -56.42848 -56.42846 -56.42842 -56.42839
 Alpha  occ. eigenvalues --  -10.33612 -10.33609 -10.31488 -10.31486 -10.28315
 Alpha  occ. eigenvalues --  -10.28314 -10.27565 -10.27564 -10.27222 -10.27221
 Alpha  occ. eigenvalues --   -8.79368  -8.79365  -6.61869  -6.61867  -6.60628
 Alpha  occ. eigenvalues --   -6.60626  -6.60604  -6.60601  -2.72245  -2.72243
 Alpha  occ. eigenvalues --   -2.71894  -2.71892  -2.71874  -2.71872  -2.70885
 Alpha  occ. eigenvalues --   -2.70885  -2.70883  -2.70883  -0.94271  -0.94111
 Alpha  occ. eigenvalues --   -0.87380  -0.87120  -0.78412  -0.78379  -0.77934
 Alpha  occ. eigenvalues --   -0.77752  -0.75283  -0.75061  -0.62746  -0.62661
 Alpha  occ. eigenvalues --   -0.56118  -0.55763  -0.55483  -0.55154  -0.53470
 Alpha  occ. eigenvalues --   -0.53297  -0.50896  -0.50337  -0.49100  -0.48883
 Alpha  occ. eigenvalues --   -0.46218  -0.46014  -0.45215  -0.45175  -0.45089
 Alpha  occ. eigenvalues --   -0.44706  -0.42603  -0.42583  -0.41380  -0.40970
 Alpha  occ. eigenvalues --   -0.40697  -0.40326  -0.35390  -0.35153  -0.34950
 Alpha  occ. eigenvalues --   -0.34323
 Alpha virt. eigenvalues --    0.08409   0.09152   0.12554   0.14296   0.17345
 Alpha virt. eigenvalues --    0.17683   0.17744   0.18520   0.18574   0.19273
 Alpha virt. eigenvalues --    0.19595   0.20312   0.20424   0.21250   0.22376
 Alpha virt. eigenvalues --    0.22752   0.22899   0.24077   0.25633   0.25856
 Alpha virt. eigenvalues --    0.26178   0.26561   0.27047   0.27454   0.28109
 Alpha virt. eigenvalues --    0.29070   0.29252   0.29618   0.30438   0.31198
 Alpha virt. eigenvalues --    0.31979   0.32890   0.40802   0.43288   0.46511
 Alpha virt. eigenvalues --    0.46702   0.47875   0.48136   0.50115   0.50153
 Alpha virt. eigenvalues --    0.50552   0.52403   0.52674   0.53672   0.56013
 Alpha virt. eigenvalues --    0.57269   0.57496   0.59127   0.61608   0.62377
 Alpha virt. eigenvalues --    0.64478   0.65416   0.65480   0.66036   0.66762
 Alpha virt. eigenvalues --    0.67967   0.68274   0.68894   0.69352   0.71869
 Alpha virt. eigenvalues --    0.71959   0.72501   0.73838   0.74017   0.75899
 Alpha virt. eigenvalues --    0.76107   0.76872   0.77420   0.77547   0.78573
 Alpha virt. eigenvalues --    0.78603   0.79169   0.79706   0.80715   0.80772
 Alpha virt. eigenvalues --    0.81238   0.81891   0.82053   0.82668   0.82847
 Alpha virt. eigenvalues --    0.83462   0.83672   0.83808   0.84019   0.85740
 Alpha virt. eigenvalues --    0.86250   0.86584   0.87022   0.88058   0.88102
 Alpha virt. eigenvalues --    0.89017   0.89279   0.89630   0.90238   0.93384
 Alpha virt. eigenvalues --    0.93468   0.96175   0.97319   0.99920   1.00548
 Alpha virt. eigenvalues --    1.06997   1.07699   1.10505   1.11556   1.17342
 Alpha virt. eigenvalues --    1.18080   1.23830   1.24189   1.26635   1.27267
 Alpha virt. eigenvalues --    1.27428   1.29457   1.46638   1.46802   1.49338
 Alpha virt. eigenvalues --    1.51028   1.79318   1.79598   1.80352   1.80385
 Alpha virt. eigenvalues --    1.81742   1.82084   1.90323   1.90631   1.91785
 Alpha virt. eigenvalues --    1.91861   1.92332   1.92567   2.10131   2.10289
 Alpha virt. eigenvalues --    2.11796   2.12019   2.12527   2.12756   2.12954
 Alpha virt. eigenvalues --    2.13482   2.15408   2.15753   2.21102   2.22185
 Alpha virt. eigenvalues --    2.25791   2.25932   2.26328   2.26925   2.26957
 Alpha virt. eigenvalues --    2.27423   2.27845   2.27896   2.29046   2.30844
 Alpha virt. eigenvalues --    2.31297   2.31423   2.63052   2.63200   2.63602
 Alpha virt. eigenvalues --    2.63756   2.76466   2.76681   2.77096   2.77433
 Alpha virt. eigenvalues --    2.77536   2.77698   3.56588   3.57436   3.57991
 Alpha virt. eigenvalues --    3.58640   3.65833   3.66129   3.66378   3.66630
 Alpha virt. eigenvalues --    3.89906   3.90674
          Condensed to atoms (all electrons):
 Mulliken charges:
               1
     1  C   -0.248338
     2  C   -0.292127
     3  C   -0.260607
     4  C   -0.250969
     5  C   -0.170313
     6  Br  -0.135696
     7  H    0.115190
     8  H    0.119670
     9  H    0.111796
    10  H    0.134549
    11  H    0.109538
    12  H    0.117324
    13  H    0.128936
    14  H    0.108060
    15  H    0.111979
    16  H    0.153387
    17  H    0.147578
    18  C   -0.248337
    19  C   -0.292139
    20  C   -0.260568
    21  C   -0.251008
    22  C   -0.170256
    23  Br  -0.135694
    24  H    0.111798
    25  H    0.115202
    26  H    0.119673
    27  H    0.109539
    28  H    0.117324
    29  H    0.134538
    30  H    0.108067
    31  H    0.111986
    32  H    0.128963
    33  H    0.153371
    34  H    0.147582
 Sum of Mulliken charges =   0.00000
 Mulliken charges with hydrogens summed into heavy atoms:
               1
     1  C    0.098318
     2  C   -0.292127
     3  C    0.100804
     4  C    0.098006
     5  C    0.130653
     6  Br  -0.135696
    18  C    0.098336
    19  C   -0.292139
    20  C    0.100834
    21  C    0.098007
    22  C    0.130697
    23  Br  -0.135694
 Electronic spatial extent (au):  <R**2>=           4941.5217
 Charge=              0.0000 electrons
 Dipole moment (field-independent basis, Debye):
    X=              0.0029    Y=              0.0014    Z=              0.4226  Tot=              0.4226
 Evaluate density.
 Using the total density.
 Monte-Carlo method of calculating molar volume:
 based on  0.001 e/bohr**3 density envelope.
 Number of points per bohr**3 =  100 CutOff= 1.00D-04
 Using the SCF density.
 There are      2436 points.  Will hold      2436 in memory.
 LenV=  1047857296 MDV=  1048576000.
 Box volume =14472.083 fraction occupied=0.150
 Integrated density= 1.3024160277533457D+02 error=-2.1758397224665430D+01
 Molar volume = 2174.377 bohr**3/mol (194.039 cm**3/mol)
 Recommended a0 for SCRF calculation =  5.18 angstrom (  9.79 bohr)
   1 Symmetry operations used in ECPInt.
 ECPInt:  NShTT=    8256 NPrTT=   36322 LenC2=    7834 LenP2D=   23763.
 LDataN:  DoStor=T MaxTD1= 5 Len=  102
 Calling FoFJK, ICntrl=      2127 FMM=F ISym2X=0 I1Cent= 0 IOpClX= 0 NMat=1 NMatS=1 NMatT=0.

 GradGradGradGradGradGradGradGradGradGradGradGradGradGradGradGradGradGrad
 FormGI is forming the generalized inverse of G from B-inverse, IUseBI=4.
 Internal  Forces:  Max     0.011574076 RMS     0.004314572
 Step number   1 out of a maximum of  184
 All quantities printed in internal units (Hartrees-Bohrs-Radians)
 Mixed Optimization -- RFO/linear search
 Second derivative matrix not updated -- first step.
 ITU=  0
     Eigenvalues ---    0.00230   0.00262   0.00262   0.00329   0.00329
     Eigenvalues ---    0.00379   0.00380   0.00388   0.00389   0.00417
     Eigenvalues ---    0.00417   0.01038   0.04518   0.04518   0.04840
     Eigenvalues ---    0.04841   0.04867   0.04867   0.05227   0.05227
     Eigenvalues ---    0.05380   0.05380   0.05407   0.05407   0.05535
     Eigenvalues ---    0.05535   0.05549   0.05549   0.05641   0.05641
     Eigenvalues ---    0.05644   0.05644   0.05674   0.05675   0.11153
     Eigenvalues ---    0.11153   0.13713   0.13713   0.14215   0.14215
     Eigenvalues ---    0.14663   0.14663   0.16000   0.16000   0.16000
     Eigenvalues ---    0.16000   0.16000   0.16000   0.16000   0.16000
     Eigenvalues ---    0.16000   0.16000   0.16000   0.16000   0.16000
     Eigenvalues ---    0.16000   0.16000   0.16000   0.16000   0.16000
     Eigenvalues ---    0.16000   0.16000   0.16370   0.16370   0.22286
     Eigenvalues ---    0.22286   0.29146   0.29146   0.29495   0.29497
     Eigenvalues ---    0.29556   0.29559   0.29759   0.29760   0.34800
     Eigenvalues ---    0.34801   0.34861   0.34862   0.34916   0.34917
     Eigenvalues ---    0.34985   0.34986   0.34994   0.34995   0.34997
     Eigenvalues ---    0.34998   0.35048   0.35050   0.35061   0.35061
     Eigenvalues ---    0.35107   0.35108   0.35120   0.35122   0.35150
     Eigenvalues ---    0.35150
 Linear search not attempted -- first point.
 Iteration  1 RMS(Cart)=  0.26474133 RMS(Int)=  0.02202044
 Iteration  2 RMS(Cart)=  0.20576122 RMS(Int)=  0.00846210
 Iteration  3 RMS(Cart)=  0.01678299 RMS(Int)=  0.00013563
 Iteration  4 RMS(Cart)=  0.00009486 RMS(Int)=  0.00013148
 Iteration  5 RMS(Cart)=  0.00000001 RMS(Int)=  0.00013148
 Variable       Old X    -DE/DX   Delta X   Delta X   Delta X     New X
                                 (Linear)    (Quad)   (Total)
    R1        2.89700   0.00444   0.00000   0.01436   0.01436   2.91137
    R2        2.05576   0.01123   0.00000   0.03052   0.03052   2.08628
    R3        2.05432   0.01128   0.00000   0.03057   0.03057   2.08489
    R4        2.05682   0.01098   0.00000   0.02989   0.02989   2.08671
    R5        2.88851   0.00611   0.00000   0.01953   0.01953   2.90803
    R6        2.88978   0.00421   0.00000   0.01349   0.01349   2.90327
    R7        2.88446   0.00835   0.00000   0.02651   0.02651   2.91097
    R8        2.05597   0.00842   0.00000   0.02289   0.02289   2.07885
    R9        2.05480   0.01156   0.00000   0.03137   0.03137   2.08618
   R10        2.05680   0.01046   0.00000   0.02849   0.02849   2.08529
   R11        2.05698   0.00957   0.00000   0.02608   0.02608   2.08306
   R12        2.05811   0.01068   0.00000   0.02914   0.02914   2.08725
   R13        2.05502   0.01137   0.00000   0.03086   0.03086   2.08588
   R14        3.66869   0.00616   0.00000   0.03404   0.03404   3.70273
   R15        2.05900   0.00717   0.00000   0.01959   0.01959   2.07859
   R16        2.06001   0.00701   0.00000   0.01919   0.01919   2.07920
   R17        5.26338   0.00096   0.00000   0.03466   0.03466   5.29803
   R18        2.89699   0.00444   0.00000   0.01436   0.01436   2.91135
   R19        2.05684   0.01097   0.00000   0.02987   0.02987   2.08671
   R20        2.05575   0.01123   0.00000   0.03052   0.03052   2.08628
   R21        2.05432   0.01128   0.00000   0.03058   0.03058   2.08490
   R22        2.88857   0.00609   0.00000   0.01947   0.01947   2.90804
   R23        2.88982   0.00419   0.00000   0.01343   0.01343   2.90325
   R24        2.88445   0.00834   0.00000   0.02649   0.02649   2.91094
   R25        2.05477   0.01157   0.00000   0.03141   0.03141   2.08618
   R26        2.05678   0.01046   0.00000   0.02849   0.02849   2.08527
   R27        2.05594   0.00843   0.00000   0.02293   0.02293   2.07886
   R28        2.05810   0.01068   0.00000   0.02915   0.02915   2.08725
   R29        2.05500   0.01137   0.00000   0.03088   0.03088   2.08588
   R30        2.05697   0.00958   0.00000   0.02609   0.02609   2.08306
   R31        3.66867   0.00617   0.00000   0.03408   0.03408   3.70275
   R32        2.05901   0.00717   0.00000   0.01959   0.01959   2.07861
   R33        2.06000   0.00701   0.00000   0.01920   0.01920   2.07920
    A1        1.93006   0.00169   0.00000   0.00990   0.00987   1.93993
    A2        1.91910   0.00072   0.00000   0.00346   0.00345   1.92255
    A3        1.93672   0.00113   0.00000   0.00658   0.00655   1.94328
    A4        1.89205  -0.00130   0.00000  -0.00776  -0.00778   1.88427
    A5        1.89477  -0.00130   0.00000  -0.00618  -0.00623   1.88854
    A6        1.89003  -0.00107   0.00000  -0.00678  -0.00678   1.88325
    A7        1.90990  -0.00162   0.00000  -0.01512  -0.01507   1.89483
    A8        1.91515   0.00028   0.00000  -0.01051  -0.01057   1.90459
    A9        1.85812  -0.00077   0.00000  -0.00832  -0.00821   1.84991
   A10        1.92308  -0.00011   0.00000   0.00268   0.00238   1.92546
   A11        1.92711   0.00295   0.00000   0.03056   0.03052   1.95763
   A12        1.92937  -0.00077   0.00000  -0.00007  -0.00033   1.92903
   A13        1.93462   0.00304   0.00000   0.01947   0.01944   1.95406
   A14        1.92323  -0.00225   0.00000  -0.01108  -0.01110   1.91213
   A15        1.92786   0.00256   0.00000   0.01610   0.01617   1.94403
   A16        1.88646   0.00064   0.00000   0.00775   0.00775   1.89421
   A17        1.89561  -0.00377   0.00000  -0.02630  -0.02640   1.86921
   A18        1.89498  -0.00034   0.00000  -0.00685  -0.00683   1.88816
   A19        1.93612   0.00098   0.00000   0.00601   0.00600   1.94212
   A20        1.93424   0.00098   0.00000   0.00506   0.00505   1.93928
   A21        1.92346   0.00022   0.00000   0.00118   0.00117   1.92463
   A22        1.89320  -0.00102   0.00000  -0.00562  -0.00564   1.88756
   A23        1.88572  -0.00047   0.00000  -0.00178  -0.00179   1.88392
   A24        1.88969  -0.00078   0.00000  -0.00537  -0.00537   1.88432
   A25        1.97854   0.00951   0.00000   0.04194   0.04168   2.02023
   A26        1.93701   0.00051   0.00000   0.00867   0.00824   1.94526
   A27        1.94298  -0.00203   0.00000  -0.01570  -0.01555   1.92743
   A28        1.84105  -0.00307   0.00000   0.00106   0.00034   1.84140
   A29        1.84134  -0.00458   0.00000  -0.02588  -0.02562   1.81572
   A30        1.91791  -0.00070   0.00000  -0.01157  -0.01157   1.90634
   A31        1.97432  -0.00383   0.00000  -0.02159  -0.02159   1.95273
   A32        1.93678   0.00112   0.00000   0.00654   0.00651   1.94329
   A33        1.93012   0.00168   0.00000   0.00985   0.00982   1.93994
   A34        1.91902   0.00073   0.00000   0.00353   0.00352   1.92253
   A35        1.89478  -0.00130   0.00000  -0.00619  -0.00623   1.88855
   A36        1.88999  -0.00107   0.00000  -0.00675  -0.00676   1.88323
   A37        1.89205  -0.00130   0.00000  -0.00776  -0.00778   1.88427
   A38        1.90998  -0.00163   0.00000  -0.01521  -0.01516   1.89482
   A39        1.91511   0.00029   0.00000  -0.01047  -0.01053   1.90458
   A40        1.85815  -0.00077   0.00000  -0.00831  -0.00820   1.84995
   A41        1.92315  -0.00011   0.00000   0.00267   0.00236   1.92551
   A42        1.92697   0.00295   0.00000   0.03061   0.03057   1.95754
   A43        1.92938  -0.00078   0.00000  -0.00006  -0.00033   1.92905
   A44        1.92319  -0.00225   0.00000  -0.01105  -0.01107   1.91212
   A45        1.92792   0.00254   0.00000   0.01598   0.01606   1.94398
   A46        1.93458   0.00308   0.00000   0.01970   0.01967   1.95424
   A47        1.89497  -0.00034   0.00000  -0.00686  -0.00684   1.88813
   A48        1.88650   0.00062   0.00000   0.00773   0.00773   1.89423
   A49        1.89562  -0.00378   0.00000  -0.02642  -0.02652   1.86909
   A50        1.93427   0.00097   0.00000   0.00501   0.00501   1.93928
   A51        1.92343   0.00022   0.00000   0.00119   0.00118   1.92461
   A52        1.93615   0.00096   0.00000   0.00596   0.00594   1.94210
   A53        1.88969  -0.00077   0.00000  -0.00536  -0.00536   1.88433
   A54        1.89320  -0.00101   0.00000  -0.00560  -0.00561   1.88758
   A55        1.88567  -0.00047   0.00000  -0.00172  -0.00173   1.88393
   A56        1.97854   0.00948   0.00000   0.04182   0.04157   2.02011
   A57        1.93709   0.00050   0.00000   0.00861   0.00819   1.94528
   A58        1.94303  -0.00203   0.00000  -0.01570  -0.01555   1.92748
   A59        1.84103  -0.00305   0.00000   0.00115   0.00044   1.84147
   A60        1.84123  -0.00457   0.00000  -0.02582  -0.02556   1.81567
   A61        1.91791  -0.00069   0.00000  -0.01154  -0.01154   1.90637
   A62        1.97556  -0.00388   0.00000  -0.02186  -0.02186   1.95370
    D1        1.01843   0.00095   0.00000   0.01053   0.01051   1.02894
    D2        3.13047  -0.00003   0.00000  -0.00229  -0.00227   3.12821
    D3       -1.06437  -0.00124   0.00000  -0.01292  -0.01295  -1.07733
    D4       -1.07043   0.00103   0.00000   0.01169   0.01168  -1.05875
    D5        1.04161   0.00006   0.00000  -0.00112  -0.00109   1.04052
    D6        3.12995  -0.00116   0.00000  -0.01176  -0.01178   3.11817
    D7        3.12216   0.00118   0.00000   0.01370   0.01370   3.13586
    D8       -1.04898   0.00020   0.00000   0.00088   0.00092  -1.04806
    D9        1.03936  -0.00101   0.00000  -0.00975  -0.00977   1.02959
   D10        3.09604   0.00174   0.00000   0.05586   0.05585  -3.13130
   D11        1.00856   0.00045   0.00000   0.04092   0.04097   1.04953
   D12       -1.08520   0.00069   0.00000   0.04627   0.04637  -1.03883
   D13        0.98881   0.00249   0.00000   0.07682   0.07682   1.06563
   D14       -1.09866   0.00120   0.00000   0.06187   0.06194  -1.03672
   D15        3.09076   0.00144   0.00000   0.06722   0.06735  -3.12508
   D16       -1.14743   0.00155   0.00000   0.05458   0.05440  -1.09302
   D17        3.04829   0.00027   0.00000   0.03963   0.03952   3.08781
   D18        0.95452   0.00051   0.00000   0.04498   0.04493   0.99945
   D19        3.13275   0.00022   0.00000   0.00409   0.00411   3.13686
   D20        1.02861   0.00020   0.00000   0.00379   0.00380   1.03241
   D21       -1.06279   0.00040   0.00000   0.00648   0.00650  -1.05629
   D22       -1.04636  -0.00167   0.00000  -0.01967  -0.01963  -1.06599
   D23        3.13268  -0.00170   0.00000  -0.01997  -0.01994   3.11274
   D24        1.04129  -0.00150   0.00000  -0.01728  -0.01724   1.02405
   D25        1.08854   0.00145   0.00000   0.02065   0.02060   1.10913
   D26       -1.01560   0.00143   0.00000   0.02035   0.02029  -0.99531
   D27       -3.10700   0.00163   0.00000   0.02304   0.02299  -3.08401
   D28        3.11264   0.00214   0.00000   0.06771   0.06795  -3.10259
   D29        1.04445  -0.00067   0.00000   0.03216   0.03197   1.07642
   D30       -1.09779   0.00130   0.00000   0.05196   0.05189  -1.04590
   D31        1.04108   0.00293   0.00000   0.07416   0.07445   1.11553
   D32       -1.02711   0.00012   0.00000   0.03860   0.03847  -0.98864
   D33        3.11384   0.00209   0.00000   0.05841   0.05839  -3.11096
   D34       -1.09146   0.00160   0.00000   0.05013   0.05034  -1.04113
   D35        3.12353  -0.00121   0.00000   0.01458   0.01436   3.13789
   D36        0.98129   0.00076   0.00000   0.03438   0.03428   1.01557
   D37        2.31070   0.00373   0.00000   0.13860   0.13843   2.44913
   D38       -1.86311   0.00322   0.00000   0.14176   0.14181  -1.72130
   D39        0.18970   0.00110   0.00000   0.12357   0.12370   0.31340
   D40       -2.71880   0.00687   0.00000   0.35065   0.35065  -2.36815
   D41        3.12098   0.00118   0.00000   0.01385   0.01385   3.13483
   D42       -1.05006   0.00020   0.00000   0.00098   0.00102  -1.04904
   D43        1.03828  -0.00101   0.00000  -0.00962  -0.00963   1.02865
   D44        1.01716   0.00096   0.00000   0.01074   0.01073   1.02789
   D45        3.12931  -0.00002   0.00000  -0.00213  -0.00211   3.12721
   D46       -1.06553  -0.00124   0.00000  -0.01273  -0.01276  -1.07829
   D47       -1.07169   0.00104   0.00000   0.01190   0.01189  -1.05980
   D48        1.04046   0.00006   0.00000  -0.00098  -0.00095   1.03951
   D49        3.12880  -0.00116   0.00000  -0.01157  -0.01160   3.11720
   D50        1.00709   0.00046   0.00000   0.04125   0.04130   1.04839
   D51       -1.08666   0.00070   0.00000   0.04667   0.04678  -1.03988
   D52        3.09456   0.00175   0.00000   0.05634   0.05633  -3.13229
   D53       -1.10018   0.00121   0.00000   0.06223   0.06230  -1.03788
   D54        3.08925   0.00145   0.00000   0.06765   0.06778  -3.12616
   D55        0.98729   0.00250   0.00000   0.07732   0.07733   1.06462
   D56        3.04681   0.00027   0.00000   0.03996   0.03985   3.08666
   D57        0.95306   0.00052   0.00000   0.04538   0.04532   0.99838
   D58       -1.14890   0.00157   0.00000   0.05505   0.05487  -1.09403
   D59        1.02767   0.00020   0.00000   0.00393   0.00395   1.03161
   D60       -1.06374   0.00040   0.00000   0.00663   0.00665  -1.05709
   D61        3.13185   0.00022   0.00000   0.00420   0.00422   3.13607
   D62        3.13186  -0.00170   0.00000  -0.01993  -0.01989   3.11196
   D63        1.04045  -0.00150   0.00000  -0.01723  -0.01719   1.02326
   D64       -1.04714  -0.00168   0.00000  -0.01966  -0.01962  -1.06677
   D65       -1.01656   0.00143   0.00000   0.02046   0.02039  -0.99616
   D66       -3.10796   0.00163   0.00000   0.02316   0.02310  -3.08487
   D67        1.08763   0.00145   0.00000   0.02072   0.02066   1.10829
   D68        3.11345   0.00214   0.00000   0.06767   0.06791  -3.10183
   D69        1.04523  -0.00068   0.00000   0.03211   0.03192   1.07716
   D70       -1.09709   0.00130   0.00000   0.05192   0.05185  -1.04524
   D71        1.04185   0.00294   0.00000   0.07419   0.07448   1.11634
   D72       -1.02636   0.00012   0.00000   0.03863   0.03850  -0.98786
   D73        3.11450   0.00210   0.00000   0.05844   0.05842  -3.11026
   D74       -1.09068   0.00160   0.00000   0.05014   0.05035  -1.04033
   D75        3.12429  -0.00121   0.00000   0.01458   0.01436   3.13865
   D76        0.98197   0.00076   0.00000   0.03439   0.03429   1.01626
   D77        2.31182   0.00372   0.00000   0.13860   0.13842   2.45023
   D78       -1.86205   0.00322   0.00000   0.14192   0.14196  -1.72008
   D79        0.19077   0.00110   0.00000   0.12364   0.12377   0.31454
         Item               Value     Threshold  Converged?
 Maximum Force            0.011574     0.000015     NO 
 RMS     Force            0.004315     0.000010     NO 
 Maximum Displacement     1.459654     0.000060     NO 
 RMS     Displacement     0.457884     0.000040     NO 
 GradGradGradGradGradGradGradGradGradGradGradGradGradGradGradGradGradGrad

                    Distance matrix (angstroms):
                    1          2          3          4          5
     1  C    0.000000
     2  C    1.540628   0.000000
     3  C    2.500269   1.538864   0.000000
     4  C    2.506959   1.536345   2.523992   0.000000
     5  C    2.460505   1.540418   2.555300   2.528404   0.000000
     6  Br   4.296748   2.972332   3.430451   3.347523   1.959402
     7  H    1.104010   2.195395   2.745661   3.481517   2.719184
     8  H    1.103278   2.182205   2.744405   2.745036   3.439736
     9  H    1.104240   2.197981   3.479000   2.766995   2.698799
    10  H    3.480109   2.200997   1.100081   2.804112   2.854028
    11  H    2.730722   2.173518   1.103957   2.755920   3.504132
    12  H    2.753144   2.196396   1.103486   3.495179   2.804980
    13  H    3.481808   2.191901   2.794334   1.102309   2.819366
    14  H    2.755152   2.191532   3.494404   1.104525   2.765335
    15  H    2.753384   2.180345   2.760281   1.103798   3.490274
    16  H    2.721438   2.195965   2.800309   3.495930   1.099943
    17  H    2.691432   2.183326   3.508130   2.763464   1.100264
    18  C    8.226816   7.181880   6.312612   8.106620   6.606871
    19  C    7.180486   6.259640   5.212105   7.296758   5.925239
    20  C    6.311195   5.211663   4.088020   6.059328   5.077318
    21  C    8.103719   7.295390   6.058247   8.331720   7.179141
    22  C    6.605723   5.925641   5.078666   7.180549   5.426059
    23  Br   5.669499   5.378108   4.438067   6.782059   5.241833
    24  H    8.973132   8.031046   7.189753   9.045191   7.383716
    25  H    7.883135   6.779989   6.118242   7.652056   6.021926
    26  H    8.847255   7.699201   6.753942   8.474444   7.228714
    27  H    7.089692   5.891228   4.726527   6.529418   5.852360
    28  H    5.819469   4.603736   3.736791   5.398942   4.257668
    29  H    5.655759   4.682085   3.371856   5.587493   4.830966
    30  H    8.865856   8.140684   6.968138   9.256255   7.915806
    31  H    8.722101   7.795779   6.504118   8.680414   7.750830
    32  H    7.665137   6.995916   5.665198   8.072081   7.073813
    33  H    6.134430   5.403940   4.808129   6.645671   4.669254
    34  H    7.517326   6.932488   6.131928   8.226993   6.355903
                    6          7          8          9         10
     6  Br   0.000000
     7  H    4.597803   0.000000
     8  H    5.137317   1.785287   0.000000
     9  H    4.557283   1.788833   1.784814   0.000000
    10  H    3.028251   3.766377   3.765536   4.356569   0.000000
    11  H    4.432484   3.080755   2.510263   3.752244   1.789082
    12  H    3.784841   2.536123   3.102501   3.775351   1.772471
    13  H    2.918180   4.349939   3.765123   3.785310   2.624045
    14  H    3.663527   3.779941   3.092970   2.554477   3.827474
    15  H    4.365855   3.767823   2.529144   3.119347   3.137861
    16  H    2.490252   2.514017   3.746330   3.063750   3.186579
    17  H    2.468876   3.064538   3.706825   2.458430   3.862068
    18  C    5.671627   7.881947   8.846849   8.973698   5.657820
    19  C    5.378509   6.777634   7.697410   8.030035   4.683389
    20  C    4.436956   6.115996   6.752489   7.188577   3.372679
    21  C    6.781698   7.648371   8.470860   9.042698   5.587517
    22  C    5.242629   6.019809   7.227134   7.382850   4.833004
    23  Br   5.726617   4.912889   6.123935   6.539380   4.581074
    24  H    6.541439   8.526986   9.621519   9.700846   6.621305
    25  H    4.915755   7.597241   8.598299   8.528793   5.448363
    26  H    6.126609   8.597435   9.401427   9.622580   5.973160
    27  H    4.993457   7.003920   7.452524   7.973146   3.861402
    28  H    3.394754   5.709779   6.384602   6.591003   2.961218
    29  H    4.579130   5.445838   5.970972   6.619421   2.803598
    30  H    7.545649   8.315833   9.277580   9.773952   6.563412
    31  H    7.166483   8.373309   9.034915   9.677829   5.895029
    32  H    6.946962   7.174870   7.921903   8.660017   5.333967
    33  H    4.409170   5.595621   6.883784   6.798294   4.570814
    34  H    6.180445   6.845600   8.156976   8.256456   5.928173
                   11         12         13         14         15
    11  H    0.000000
    12  H    1.787935   0.000000
    13  H    3.133896   3.814001   0.000000
    14  H    3.765878   4.356111   1.787056   0.000000
    15  H    2.531206   3.775790   1.784108   1.786156   0.000000
    16  H    3.799686   2.598952   3.827262   3.784748   4.346079
    17  H    4.335514   3.809476   3.162473   2.541895   3.764691
    18  C    7.091128   5.820240   7.669134   8.868174   8.725539
    19  C    5.891960   4.603453   6.998247   8.141398   7.797801
    20  C    4.727056   3.735907   5.667008   6.968529   6.506229
    21  C    6.528540   5.396941   8.073040   9.255752   8.680976
    22  C    5.854114   4.258717   7.076216   7.916416   7.752728
    23  Br   4.995348   3.395545   6.948188   7.545230   7.167292
    24  H    7.974380   6.591575   8.663726   9.775823   9.680783
    25  H    7.006098   5.711651   7.179558   8.318933   8.377462
    26  H    7.453867   6.385151   7.926608   9.280718   9.039087
    27  H    5.240944   4.553394   5.996172   7.473652   6.906865
    28  H    4.554770   3.522195   4.948912   6.220734   5.992186
    29  H    3.861332   2.959452   5.334387   6.562828   5.896055
    30  H    7.473395   6.219618   9.033596  10.140923   9.644626
    31  H    6.904723   5.989130   8.309737   9.643700   8.983625
    32  H    5.994756   4.945945   7.923500   9.032110   8.309383
    33  H    5.724746   4.071462   6.533903   7.277815   7.340360
    34  H    6.892100   5.260746   8.144649   8.925338   8.813148
                   16         17         18         19         20
    16  H    0.000000
    17  H    1.793734   0.000000
    18  C    6.134827   7.518451   0.000000
    19  C    5.402894   6.931979   1.540621   0.000000
    20  C    4.806137   6.130505   2.500256   1.538870   0.000000
    21  C    6.643759   8.225547   2.506940   1.536335   2.524034
    22  C    4.668680   6.355624   2.460524   1.540402   2.555215
    23  Br   4.407905   6.179291   4.296687   2.972219   3.430731
    24  H    6.798409   8.257275   1.104239   2.197982   3.478993
    25  H    5.597062   6.847691   1.104010   2.195394   2.745156
    26  H    6.884486   8.158656   1.103279   2.182189   2.744881
    27  H    5.722455   6.890298   2.730150   2.173514   1.103958
    28  H    4.069467   5.259546   2.753574   2.196354   1.103478
    29  H    4.568413   5.926112   3.480184   2.201137   1.100087
    30  H    7.276776   8.924686   2.754759   2.191522   3.494425
    31  H    7.338017   8.811312   2.753735   2.180328   2.759958
    32  H    6.530989   8.142145   3.481776   2.191873   2.794723
    33  H    3.897019   5.520049   2.721853   2.195975   2.799885
    34  H    5.519840   7.223651   2.691176   2.183348   3.508083
                   21         22         23         24         25
    21  C    0.000000
    22  C    2.528397   0.000000
    23  Br   3.346859   1.959410   0.000000
    24  H    2.767443   2.698386   4.556694   0.000000
    25  H    3.481497   2.719696   4.598411   1.788839   0.000000
    26  H    2.744532   3.439729   5.137168   1.784803   1.785290
    27  H    2.756505   3.504035   4.433014   3.752059   3.079139
    28  H    3.495182   2.804353   3.784553   3.775408   2.536064
    29  H    2.803862   2.854541   3.029243   4.356683   3.766283
    30  H    1.104525   2.765715   3.663314   2.554568   3.779877
    31  H    1.103799   3.490278   4.365008   3.120605   3.767825
    32  H    1.102306   2.818946   2.916911   3.785445   4.349909
    33  H    3.495938   1.099951   2.490323   3.063664   2.515020
    34  H    2.763818   1.100264   2.468843   2.457681   3.064825
                   26         27         28         29         30
    26  H    0.000000
    27  H    2.510175   0.000000
    28  H    3.103964   1.787912   0.000000
    29  H    3.765702   1.789102   1.772395   0.000000
    30  H    3.091640   3.766106   4.356080   3.827520   0.000000
    31  H    2.529005   2.531461   3.775801   3.136747   1.786165
    32  H    3.764917   3.135312   3.814016   2.624158   1.787067
    33  H    3.746883   3.799075   2.597886   3.186751   3.785219
    34  H    3.706392   4.335465   3.808834   3.862659   2.542702
                   31         32         33         34
    31  H    0.000000
    32  H    1.784113   0.000000
    33  H    4.346105   3.826766   0.000000
    34  H    3.765186   3.162380   1.793753   0.000000
 Framework group  C1[X(C10H22Br2)]
 Deg. of freedom    96
                         Standard orientation:                         
 ---------------------------------------------------------------------
 Center     Atomic      Atomic             Coordinates (Angstroms)
 Number     Number       Type             X           Y           Z
 ---------------------------------------------------------------------
      1          6           0       -3.279296    2.482109   -0.076955
      2          6           0       -2.942515    1.066356    0.428770
      3          6           0       -1.690390    1.149216    1.319511
      4          6           0       -4.133699    0.522209    1.232102
      5          6           0       -2.704467    0.211400   -0.830305
      6         35           0       -2.316806   -1.682760   -0.512294
      7          1           0       -2.438137    2.911414   -0.648784
      8          1           0       -3.487530    3.150755    0.775555
      9          1           0       -4.171013    2.474658   -0.728208
     10          1           0       -1.393128    0.162369    1.704150
     11          1           0       -1.890596    1.814423    2.177497
     12          1           0       -0.827359    1.554238    0.763799
     13          1           0       -3.931863   -0.494252    1.607804
     14          1           0       -5.047493    0.484957    0.612772
     15          1           0       -4.337626    1.171616    2.101041
     16          1           0       -1.856342    0.590224   -1.419415
     17          1           0       -3.605952    0.197007   -1.460938
     18          6           0        3.281317   -2.481645   -0.076213
     19          6           0        2.942658   -1.066209    0.429122
     20          6           0        1.689607   -1.150245    1.318461
     21          6           0        4.132461   -0.520934    1.233715
     22          6           0        2.705089   -0.211472   -0.830173
     23         35           0        2.316629    1.682567   -0.512368
     24          1           0        4.173137   -2.473229   -0.727313
     25          1           0        2.440797   -2.912164   -0.648069
     26          1           0        3.490269   -3.149811    0.776499
     27          1           0        1.889104   -1.816192    2.176038
     28          1           0        0.827344   -1.555072    0.761432
     29          1           0        1.391421   -0.163898    1.703682
     30          1           0        5.047071   -0.483593    0.615597
     31          1           0        4.335540   -1.169691    2.103339
     32          1           0        3.929557    0.495653    1.608497
     33          1           0        1.857460   -0.590637   -1.419791
     34          1           0        3.606960   -0.196730   -1.460247
 ---------------------------------------------------------------------
 Rotational constants (GHZ):           0.5652523           0.2103568           0.1723776
   248 basis functions,   498 primitive gaussians,   264 cartesian basis functions
    76 alpha electrons       76 beta electrons
       nuclear repulsion energy      1396.9219386883 Hartrees.
 NAtoms=   34 NActive=   34 NUniq=   34 SFac= 1.00D+00 NAtFMM=   60 NAOKFM=F Big=F
 Nuclear repulsion after empirical dispersion term =     1396.8953893098 Hartrees.
   1 Symmetry operations used in ECPInt.
 ECPInt:  NShTT=    8256 NPrTT=   36322 LenC2=    7701 LenP2D=   23118.
 LDataN:  DoStor=T MaxTD1= 4 Len=   56
 Initial guess from the checkpoint file:  "18.chk"
 B after Tr=    -0.000000    0.000000    0.000000
         Rot=    0.993852   -0.000095    0.000044    0.110714 Ang= -12.71 deg.
 ExpMin= 1.22D-01 ExpMax= 1.13D+05 ExpMxC= 1.70D+04 IAcc=3 IRadAn=         5 AccDes= 0.00D+00
 Harris functional with IExCor= 4639 and IRadAn=       5 diagonalized for initial guess.
 HarFok:  IExCor= 4639 AccDes= 0.00D+00 IRadAn=         5 IDoV= 1 UseB2=F ITyADJ=14
 ICtDFT=  3500011 ScaDFX=  1.000000  1.000000  1.000000  1.000000
 FoFCou: FMM=F IPFlag=           0 FMFlag=      100000 FMFlg1=           0
         NFxFlg=           0 DoJE=T BraDBF=F KetDBF=T FulRan=T
         wScrn=  0.000000 ICntrl=       500 IOpCl=  0 I1Cent=   200000004 NGrid=           0
         NMat0=    1 NMatS0=      1 NMatT0=    0 NMatD0=    1 NMtDS0=    0 NMtDT0=    0
 Petite list used in FoFCou.
     Accept linear search using points  1 and  2.
     Minimum is close to point  2 DX= -4.19D-02 DF= -2.22D-05 DXR=  3.96D-02 DFR=  1.85D-03 which will be used.
     Accept linear search using points  1 and  2.
     Minimum is close to point  2 DX=  6.11D-02 DF= -1.03D-05 DXR=  6.35D-02 DFR=  4.05D-03 which will be used.
     Accept linear search using points  1 and  2.
     Minimum is close to point  2 DX= -6.86D-02 DF= -7.61D-06 DXR=  9.38D-02 DFR=  5.60D-03 which will be used.
     Accept linear search using points  1 and  2.
     Accept linear search using points  1 and  2.
     Accept linear search using points  2 and  3.
     Accept linear search using points  1 and  2.
     Minimum is close to point  2 DX=  2.36D-05 DF= -9.09D-13 DXR=  2.36D-05 DFR=  5.32D-09 which will be used.
 SCF Done:  E(RwB97XD) =  -5541.70950979     a.u. after   14 cycles
            Convg  =    0.8935D-08                    47 Fock formations.
              S**2 =  0.0000                  -V/T =  2.0019
   1 Symmetry operations used in ECPInt.
 ECPInt:  NShTT=    8256 NPrTT=   36322 LenC2=    7701 LenP2D=   23118.
 LDataN:  DoStor=T MaxTD1= 5 Len=  102
 Calling FoFJK, ICntrl=      2127 FMM=F ISym2X=0 I1Cent= 0 IOpClX= 0 NMat=1 NMatS=1 NMatT=0.

 GradGradGradGradGradGradGradGradGradGradGradGradGradGradGradGradGradGrad
 Using GEDIIS/GDIIS optimizer.
 FormGI is forming the generalized inverse of G from B-inverse, IUseBI=4.
 Internal  Forces:  Max     0.004483354 RMS     0.001394276
 Step number   2 out of a maximum of  184
 All quantities printed in internal units (Hartrees-Bohrs-Radians)
 Mixed Optimization -- RFO/linear search
 Trust test= 1.56D-01 RLast= 6.14D-01 DXMaxT set to 3.00D-01
 ITU=  0  0
 Use linear search instead of GDIIS.
     Eigenvalues ---    0.00239   0.00262   0.00329   0.00329   0.00329
     Eigenvalues ---    0.00379   0.00380   0.00388   0.00404   0.00417
     Eigenvalues ---    0.00690   0.01063   0.04320   0.04431   0.04707
     Eigenvalues ---    0.04726   0.04990   0.05008   0.05096   0.05228
     Eigenvalues ---    0.05300   0.05354   0.05361   0.05446   0.05449
     Eigenvalues ---    0.05494   0.05494   0.05589   0.05589   0.05607
     Eigenvalues ---    0.05610   0.05658   0.05707   0.05765   0.11276
     Eigenvalues ---    0.11328   0.13804   0.13847   0.14153   0.14524
     Eigenvalues ---    0.14637   0.14705   0.15220   0.16000   0.16000
     Eigenvalues ---    0.16000   0.16000   0.16000   0.16000   0.16000
     Eigenvalues ---    0.16000   0.16000   0.16000   0.16000   0.16000
     Eigenvalues ---    0.16000   0.16000   0.16000   0.16000   0.16000
     Eigenvalues ---    0.16000   0.16164   0.16370   0.16802   0.21927
     Eigenvalues ---    0.22253   0.26342   0.29146   0.29300   0.29496
     Eigenvalues ---    0.29558   0.29581   0.29694   0.29760   0.30824
     Eigenvalues ---    0.34800   0.34811   0.34861   0.34869   0.34916
     Eigenvalues ---    0.34933   0.34986   0.34989   0.34995   0.34997
     Eigenvalues ---    0.35000   0.35028   0.35049   0.35061   0.35071
     Eigenvalues ---    0.35107   0.35108   0.35121   0.35139   0.35142
     Eigenvalues ---    0.35150
 Quartic linear search produced a step of -0.52009.
 Iteration  1 RMS(Cart)=  0.29960275 RMS(Int)=  0.04074096
 Iteration  2 RMS(Cart)=  0.28999899 RMS(Int)=  0.02234114
 Iteration  3 RMS(Cart)=  0.16645805 RMS(Int)=  0.00531673
 Iteration  4 RMS(Cart)=  0.01057869 RMS(Int)=  0.00007866
 Iteration  5 RMS(Cart)=  0.00004814 RMS(Int)=  0.00007737
 Iteration  6 RMS(Cart)=  0.00000000 RMS(Int)=  0.00007737
 Variable       Old X    -DE/DX   Delta X   Delta X   Delta X     New X
                                 (Linear)    (Quad)   (Total)
    R1        2.91137  -0.00008  -0.00747   0.01805   0.01057   2.92194
    R2        2.08628   0.00037  -0.01587   0.03968   0.02380   2.11008
    R3        2.08489   0.00033  -0.01590   0.03969   0.02379   2.10868
    R4        2.08671   0.00039  -0.01554   0.03890   0.02335   2.11007
    R5        2.90803  -0.00448  -0.01016   0.01596   0.00581   2.91384
    R6        2.90327  -0.00115  -0.00701   0.01484   0.00783   2.91110
    R7        2.91097  -0.00422  -0.01379   0.02540   0.01161   2.92258
    R8        2.07885   0.00167  -0.01190   0.03207   0.02017   2.09902
    R9        2.08618  -0.00008  -0.01632   0.04003   0.02371   2.10989
   R10        2.08529   0.00103  -0.01482   0.03818   0.02336   2.10864
   R11        2.08306   0.00049  -0.01356   0.03420   0.02063   2.10370
   R12        2.08725   0.00030  -0.01515   0.03778   0.02263   2.10988
   R13        2.08588   0.00023  -0.01605   0.03988   0.02383   2.10970
   R14        3.70273  -0.00130  -0.01771   0.03668   0.01897   3.72170
   R15        2.07859   0.00021  -0.01019   0.02541   0.01522   2.09381
   R16        2.07920  -0.00008  -0.00998   0.02441   0.01443   2.09363
   R17        5.29803  -0.00191  -0.01802  -0.05339  -0.07141   5.22662
   R18        2.91135  -0.00007  -0.00747   0.01805   0.01058   2.92193
   R19        2.08671   0.00039  -0.01553   0.03887   0.02334   2.11005
   R20        2.08628   0.00037  -0.01587   0.03968   0.02381   2.11009
   R21        2.08490   0.00033  -0.01590   0.03970   0.02379   2.10869
   R22        2.90804  -0.00448  -0.01013   0.01588   0.00575   2.91380
   R23        2.90325  -0.00114  -0.00699   0.01479   0.00780   2.91106
   R24        2.91094  -0.00420  -0.01378   0.02541   0.01164   2.92257
   R25        2.08618  -0.00008  -0.01633   0.04007   0.02373   2.10991
   R26        2.08527   0.00103  -0.01482   0.03818   0.02336   2.10864
   R27        2.07886   0.00166  -0.01192   0.03211   0.02019   2.09905
   R28        2.08725   0.00030  -0.01516   0.03779   0.02263   2.10988
   R29        2.08588   0.00023  -0.01606   0.03990   0.02384   2.10972
   R30        2.08306   0.00049  -0.01357   0.03420   0.02064   2.10369
   R31        3.70275  -0.00130  -0.01772   0.03673   0.01901   3.72176
   R32        2.07861   0.00020  -0.01019   0.02540   0.01522   2.09382
   R33        2.07920  -0.00009  -0.00998   0.02442   0.01444   2.09363
    A1        1.93993   0.00049  -0.00513   0.01366   0.00852   1.94845
    A2        1.92255  -0.00005  -0.00179   0.00377   0.00198   1.92453
    A3        1.94328   0.00048  -0.00341   0.00974   0.00632   1.94960
    A4        1.88427  -0.00034   0.00405  -0.01092  -0.00688   1.87739
    A5        1.88854  -0.00035   0.00324  -0.00843  -0.00520   1.88333
    A6        1.88325  -0.00029   0.00353  -0.00928  -0.00575   1.87750
    A7        1.89483   0.00216   0.00784  -0.00629   0.00150   1.89633
    A8        1.90459  -0.00085   0.00550  -0.00313   0.00240   1.90699
    A9        1.84991  -0.00027   0.00427  -0.00977  -0.00556   1.84435
   A10        1.92546   0.00003  -0.00124   0.00208   0.00100   1.92646
   A11        1.95763  -0.00328  -0.01587   0.01066  -0.00520   1.95243
   A12        1.92903   0.00224   0.00017   0.00540   0.00572   1.93475
   A13        1.95406  -0.00298  -0.01011   0.01099   0.00089   1.95495
   A14        1.91213   0.00310   0.00577  -0.00055   0.00522   1.91735
   A15        1.94403  -0.00135  -0.00841   0.01296   0.00450   1.94854
   A16        1.89421  -0.00036  -0.00403   0.00653   0.00248   1.89670
   A17        1.86921   0.00214   0.01373  -0.02469  -0.01090   1.85831
   A18        1.88816  -0.00052   0.00355  -0.00622  -0.00270   1.88546
   A19        1.94212   0.00009  -0.00312   0.00742   0.00430   1.94642
   A20        1.93928   0.00014  -0.00263   0.00655   0.00393   1.94321
   A21        1.92463  -0.00001  -0.00061   0.00153   0.00092   1.92555
   A22        1.88756  -0.00018   0.00293  -0.00777  -0.00484   1.88273
   A23        1.88392   0.00004   0.00093  -0.00196  -0.00103   1.88290
   A24        1.88432  -0.00009   0.00279  -0.00657  -0.00377   1.88054
   A25        2.02023  -0.00241  -0.02168   0.04476   0.02318   2.04340
   A26        1.94526  -0.00076  -0.00429   0.00052  -0.00354   1.94172
   A27        1.92743   0.00107   0.00809  -0.00890  -0.00096   1.92647
   A28        1.84140   0.00018  -0.00018  -0.01293  -0.01271   1.82868
   A29        1.81572   0.00226   0.01332  -0.01433  -0.00124   1.81448
   A30        1.90634  -0.00013   0.00602  -0.01226  -0.00626   1.90008
   A31        1.95273  -0.00256   0.01123  -0.03512  -0.02389   1.92884
   A32        1.94329   0.00048  -0.00339   0.00969   0.00629   1.94958
   A33        1.93994   0.00049  -0.00511   0.01359   0.00848   1.94842
   A34        1.92253  -0.00005  -0.00183   0.00386   0.00203   1.92456
   A35        1.88855  -0.00035   0.00324  -0.00843  -0.00520   1.88335
   A36        1.88323  -0.00029   0.00351  -0.00925  -0.00574   1.87750
   A37        1.88427  -0.00034   0.00404  -0.01092  -0.00688   1.87739
   A38        1.89482   0.00217   0.00789  -0.00638   0.00146   1.89628
   A39        1.90458  -0.00086   0.00548  -0.00310   0.00241   1.90700
   A40        1.84995  -0.00028   0.00427  -0.00978  -0.00558   1.84438
   A41        1.92551   0.00003  -0.00123   0.00204   0.00097   1.92648
   A42        1.95754  -0.00328  -0.01590   0.01072  -0.00517   1.95237
   A43        1.92905   0.00225   0.00017   0.00545   0.00577   1.93482
   A44        1.91212   0.00312   0.00576  -0.00049   0.00526   1.91738
   A45        1.94398  -0.00134  -0.00835   0.01288   0.00448   1.94846
   A46        1.95424  -0.00301  -0.01023   0.01112   0.00091   1.95515
   A47        1.88813  -0.00053   0.00356  -0.00621  -0.00269   1.88545
   A48        1.89423  -0.00036  -0.00402   0.00649   0.00245   1.89669
   A49        1.86909   0.00215   0.01379  -0.02477  -0.01092   1.85817
   A50        1.93928   0.00014  -0.00260   0.00650   0.00390   1.94318
[...]
 01839,-0.00004040,0.00001578,0.00001074,0.00001948,0.00000560,0.000000
 63,0.00000733,0.00002460,-0.00003446,0.00000750,0.00006829,0.00002370,
 -0.00031423,0.00092631,-0.00030527,0.00092739,0.00187413,0.00049174,-0
 .05371997,-0.28133477,-0.07860534,0.00038058,0.00073619,0.00035496,-0.
 00052138,-0.00038490,-0.00024763,0.00014605,-0.00074293,0.00209400,-0.
 00006146,0.00006792,-0.00000642,0.00000917,0.00016311,0.00023371,0.000
 22858,0.00015757,0.00009323,-0.00116478,-0.01064118,-0.00485067,-0.004
 47332,-0.01064937,-0.00283515,0.05903593,0.29953509,0.00003701,-0.0000
 0975,0.00002440,-0.00002726,0.00006421,-0.00009054,0.00003777,-0.00017
 712,-0.00000252,-0.00001537,-0.00001042,0.00004077,0.00002822,-0.00016
 330,0.00002135,0.00002356,0.00008020,-0.00002443,-0.00000072,0.0000238
 3,-0.00000245,-0.00000979,0.00000854,-0.00000912,-0.00001332,0.0000011
 3,0.00000692,0.00000010,0.00002737,0.00001348,-0.00012360,0.00001507,-
 0.00002427,0.00025985,0.00010173,0.00008111,0.00000098,0.00000757,-0.0
 0000384,-0.00002087,0.00000883,0.00000550,-0.00000241,-0.00000283,-0.0
 0000463,0.00003182,0.00000755,-0.00004533,-0.00001821,0.00004319,-0.00
 000098,-0.00290929,0.00135256,-0.00468570,-0.00421355,-0.02500641,-0.0
 0731443,-0.01758389,-0.07626561,-0.07339676,0.00119185,-0.00051650,0.0
 0071743,-0.00045121,-0.00224120,0.00060594,0.00042848,0.00145013,-0.00
 037878,-0.00069680,-0.00159288,-0.00035418,0.00009006,0.00029275,0.000
 04454,-0.00015402,0.00003604,0.00022497,0.00388645,0.02240840,0.009101
 32,-0.00190300,-0.00475893,-0.00235287,0.02230679,0.08381548,0.0774447
 5,-0.00002096,0.00001699,0.00000987,0.00001773,-0.00002434,-0.00003686
 ,-0.00002176,0.00000949,0.00000833,-0.00000263,-0.00000061,0.00002361,
 -0.00000287,0.00005289,-0.00000877,-0.00001987,-0.00001916,0.00006025,
 0.00000324,-0.00000389,-0.00000480,0.00000396,-0.00000194,-0.00000084,
 -0.00000683,-0.00000774,0.00000921,0.00005159,-0.00004046,0.00002074,-
 0.00002073,-0.00001300,0.00000496,0.00001491,0.00006048,-0.00002952,0.
 00000589,-0.00000499,-0.00000197,-0.00001054,0.00000303,0.00000573,0.0
 0000442,-0.00000118,-0.00000194,-0.00001086,-0.00000722,-0.00001255,-0
 .00000464,-0.00001238,0.00000677,0.00073841,-0.00128940,-0.00054331,-0
 .01572769,-0.00089933,-0.02323732,-0.00462567,0.00329626,0.00276124,-0
 .13923395,0.00235081,-0.12482138,0.00068795,-0.00032330,-0.00175086,-0
 .00005679,-0.00006397,0.00014688,0.00037637,0.00060259,0.00048250,0.00
 012476,-0.00022224,0.00025866,-0.00002034,0.00004439,0.00011475,0.0002
 2192,0.00011199,-0.00004124,-0.00090451,0.00028323,-0.00160435,0.00024
 968,-0.00005325,0.00028254,0.15036243,0.00000234,-0.00000332,-0.000007
 26,-0.00000588,0.00000394,0.00001366,0.00001190,-0.00000427,0.00000738
 ,0.00000060,0.00000077,-0.00000530,-0.00000530,0.00001106,-0.00000391,
 0.00001249,-0.00001483,-0.00001970,-0.00000047,-0.00000171,-0.00000053
 ,0.00000095,-0.00000113,0.00000139,0.00000130,0.00000339,-0.00000235,-
 0.00002244,0.00001583,-0.00000879,0.00001493,0.00000507,-0.00000056,0.
 00000197,-0.00002298,-0.00000228,-0.00000177,0.00000039,0.00000128,0.0
 0000305,-0.00000044,-0.00000180,-0.00000024,0.00000028,0.00000089,0.00
 000284,-0.00000107,0.00000995,0.00000258,-0.00000226,-0.00000066,0.000
 48753,0.00068197,0.00134192,0.00838499,-0.00139172,0.01411339,0.002760
 31,-0.00159801,-0.00125313,0.00160299,-0.04927411,0.00259553,-0.000737
 65,0.00054896,0.00010554,0.00001932,-0.00020929,0.00008511,0.00013258,
 -0.00040516,-0.00055638,-0.00025186,0.00015553,-0.00009655,0.00000265,
 -0.00005497,0.00006735,-0.00014291,0.00002662,-0.00031054,0.00076323,0
 .00039121,0.00076246,0.00017519,0.00018248,0.00012721,-0.00569415,0.04
 728104,-0.00000120,0.00000081,0.00000166,0.00000581,0.00000298,-0.0000
 1182,0.00000350,-0.00001081,0.00000826,-0.00000232,-0.00000379,0.00000
 536,0.00000963,0.00001151,0.00000184,-0.00004034,0.00000401,0.00002049
 ,0.00000229,0.00000532,-0.00000352,-0.00000028,-0.00000108,-0.00000338
 ,-0.00000520,-0.00000005,0.00000634,0.00001073,-0.00001069,0.00000543,
 -0.00000696,-0.00000236,-0.00000072,0.00000192,0.00002161,-0.00001100,
 0.00000363,-0.00000126,0.00000050,-0.00000571,0.00000178,0.00000533,-0
 .00000053,-0.00000164,-0.00000353,0.00001254,0.00000466,-0.00000810,-0
 .00000639,-0.00000095,0.00000187,0.00046121,0.00002457,0.00049108,0.00
 491978,-0.00030888,0.00486382,0.00078497,-0.00025370,0.00069948,-0.126
 57859,0.00390343,-0.22348901,0.00083095,0.00006114,0.00100207,-0.00021
 899,-0.00012296,0.00005317,-0.00003811,0.00026628,0.00019746,0.0001036
 7,0.00016451,0.00018228,-0.00012592,-0.00004797,-0.00011503,0.00014591
 ,-0.00024514,0.00025534,0.00003814,-0.00008173,0.00043322,0.00020036,-
 0.00000009,-0.00004043,0.13647802,-0.00315660,0.23601947,0.00001632,-0
 .00001326,-0.00001279,-0.00000995,0.00003348,0.00003200,0.00001968,-0.
 00001677,-0.00001298,-0.00000233,-0.00000965,-0.00002553,0.00004892,-0
 .00003337,0.00000930,-0.00005117,0.00001647,-0.00003998,0.00000070,0.0
 0001251,0.00000472,-0.00000959,-0.00000227,-0.00000497,0.00000143,0.00
 000632,-0.00000145,-0.00001655,0.00001948,0.00000247,-0.00000805,0.000
 00030,-0.00000922,-0.00000237,-0.00001643,0.00003065,0.00000188,0.0000
 0261,0.00000656,0.00000442,-0.00000024,0.00000053,-0.00001089,-0.00000
 299,-0.00000475,0.00004805,0.00003971,0.00000153,-0.00001039,0.0000138
 5,-0.00000863,0.00079086,-0.00142411,-0.00027702,-0.01338143,-0.013511
 94,0.02052244,0.00084822,-0.00100204,0.00103312,-0.11361415,-0.0594649
 9,0.09753010,-0.00459559,0.00391804,0.00013478,0.00014169,0.00021625,-
 0.00015238,-0.00001096,0.00011749,-0.00008990,0.00007427,-0.00008499,-
 0.00034680,0.00036740,0.00071874,-0.00007893,-0.00036505,0.00054120,-0
 .00075696,0.00037733,0.00012671,-0.00015148,-0.00008553,-0.00003268,-0
 .00000841,0.01102643,0.00968877,-0.01392270,0.12211556,0.00001409,-0.0
 0001162,0.00000170,-0.00000132,0.00000117,0.00000304,0.00001607,-0.000
 00740,-0.00000767,0.00000207,-0.00000054,-0.00000135,0.00000146,-0.000
 01434,0.00001148,0.00000317,0.00001015,0.00000231,0.00000024,0.0000112
 4,0.00000117,-0.00000642,0.00000154,-0.00000451,-0.00000217,0.00000268
 ,0.00000115,-0.00000176,0.00000559,0.00000286,-0.00001282,-0.00000177,
 -0.00000338,0.00000153,0.00000066,0.00001738,0.00000066,0.00000290,0.0
 0000052,-0.00000118,0.00000028,0.00000165,-0.00000300,-0.00000189,-0.0
 0000275,-0.00000037,-0.00003149,-0.00001141,-0.00000556,0.00000155,-0.
 00000199,0.00057176,0.00117742,-0.00095061,0.00864927,0.00655281,-0.01
 333284,-0.00033826,0.00040789,-0.00044704,-0.06132770,-0.10237445,0.09
 075810,0.00300088,-0.00246880,-0.00073021,-0.00046754,0.00041245,0.000
 31779,-0.00006526,-0.00006112,-0.00002908,-0.00014357,0.00019197,0.000
 11024,0.00016504,-0.00037549,0.00016025,-0.00007054,0.00011662,0.00014
 660,-0.00013758,-0.00002215,-0.00021207,-0.00007750,-0.00009328,0.0001
 6548,0.00075569,-0.00027360,-0.00149598,0.06219819,0.10629581,-0.00000
 674,0.00000514,0.00000167,-0.00000046,-0.00001496,-0.00000250,-0.00000
 958,0.00001124,0.00000237,0.00000223,0.00000585,0.00000625,-0.00003249
 ,0.00001144,-0.00000683,0.00006093,-0.00002165,0.00000833,-0.00000149,
 -0.00000897,0.00000006,0.00000400,0.00000102,0.00000445,0.00000206,-0.
 00000192,-0.00000319,-0.00000288,-0.00000061,-0.00000462,0.00000916,0.
 00000212,0.00000442,0.00000127,-0.00000804,-0.00000728,-0.00000323,-0.
 00000067,-0.00000285,0.00000193,-0.00000088,-0.00000353,0.00000475,0.0
 0000273,0.00000405,-0.00002274,-0.00002056,0.00000729,0.00000573,-0.00
 000739,0.00000232,-0.00026007,0.00064245,-0.00002729,0.00184823,0.0028
 9865,-0.00545039,-0.00101963,-0.00008043,0.00059326,0.09896719,0.08934
 146,-0.19703926,0.00125657,-0.00169765,0.00040894,-0.00015234,0.000063
 77,0.00016088,0.00009055,0.00004877,-0.00009861,-0.00022139,-0.0001386
 2,0.00021460,0.00010955,-0.00069103,0.00015909,-0.00001895,0.00012556,
 0.00040273,-0.00003701,-0.00018280,0.00008662,0.00000724,-0.00009195,-
 0.00002577,0.01368369,0.01076602,-0.01567736,-0.10872446,-0.09692933,0
 .20743501,-0.00001579,0.00000801,-0.00001282,0.00000165,-0.00002299,0.
 00002220,-0.00002047,0.00001872,-0.00000550,0.00000322,0.00000477,-0.0
 0000595,-0.00001544,0.00007015,-0.00001288,0.00002438,-0.00004931,-0.0
 0000527,0.00000162,-0.00001161,0.00000085,0.00000395,-0.00000480,0.000
 00566,0.00000590,-0.00000175,-0.00000437,-0.00000084,-0.00000156,-0.00
 000098,0.00001322,-0.00000002,0.00000309,0.00000803,-0.00001351,-0.000
 00484,-0.00000083,-0.00000283,0.00000171,0.00000589,-0.00000177,-0.000
 00364,0.00000188,0.00000065,0.00000323,-0.00001778,-0.00000242,0.00000
 682,0.00000619,-0.00001848,0.00000101,-0.00502551,0.00208914,0.0011769
 3,0.00710476,0.02636602,0.00699581,0.00149742,0.00052205,0.00070790,-0
 .05945894,-0.05200240,-0.01593205,0.00134088,0.00085840,-0.00015732,-0
 .00142057,-0.00116736,0.00078622,-0.00001975,-0.00004542,0.00022328,0.
 00040890,0.00167487,0.00056430,-0.00008701,-0.00005626,-0.00022056,-0.
 00006762,-0.00008780,-0.00005673,0.00013297,-0.00024860,0.00015971,-0.
 00043448,-0.00016876,-0.00041243,-0.00326683,-0.01696303,-0.00276904,-
 0.00313681,-0.01327746,-0.00579365,0.06249557,0.00001610,-0.00000746,0
 .00002107,-0.00000332,0.00002478,-0.00003142,0.00001839,-0.00001753,0.
 00001385,-0.00000207,-0.00000217,0.00001016,-0.00000967,-0.00011194,0.
 00001667,0.00001636,0.00006891,0.00000454,-0.00000181,0.00000855,-0.00
 000266,0.00000090,0.00000873,-0.00000198,-0.00000421,-0.00000006,0.000
 00199,-0.00000279,0.00000177,-0.00000755,0.00000123,0.00000447,0.00000
 200,-0.00000294,0.00000557,-0.00000762,-0.00000283,0.00000400,-0.00000
 612,-0.00000499,0.00000039,0.00000126,0.00000263,0.00000290,0.00000069
 ,0.00001583,-0.00001317,-0.00000942,-0.00000144,0.00002417,0.00000027,
 0.00403750,-0.00072652,-0.00046951,-0.00393246,-0.01393670,-0.00386919
 ,-0.00098477,0.00038884,-0.00030426,-0.04995495,-0.28803710,-0.0694014
 5,-0.00060745,-0.00098415,0.00031193,-0.00138902,0.00056430,0.00105678
 ,-0.00009750,0.00017983,0.00000783,-0.00020612,-0.00095293,-0.00042697
 ,-0.00001479,0.00042395,0.00005438,0.00004377,-0.00009015,-0.00004456,
 0.00003279,0.00032884,0.00001913,0.00059934,0.00023176,0.00044406,0.00
 099118,0.00380740,0.00142831,-0.00135749,-0.00996136,-0.00440152,0.052
 67770,0.30874312,0.00002996,-0.00002194,0.00000462,-0.00000787,0.00002
 554,0.00001195,0.00002584,-0.00001553,-0.00001864,0.00000177,-0.000003
 41,-0.00001459,0.00002199,-0.00009206,0.00002562,0.00000052,0.00005359
 ,-0.00002167,-0.00000211,0.00001910,0.00000504,-0.00001096,0.00000551,
 -0.00000613,-0.00000103,0.00000530,-0.00000178,-0.00001772,0.00001841,
 -0.00000380,-0.00001356,0.00000354,-0.00000633,0.00000172,-0.00001423,
 0.00003802,-0.00000172,0.00000613,0.00000010,0.00000195,-0.00000128,0.
 00000050,-0.00000655,-0.00000050,-0.00000285,0.00002713,-0.00001208,-0
 .00001419,-0.00000946,0.00002040,-0.00000743,0.00158485,-0.00022841,-0
 .00019977,-0.00172793,-0.00533624,-0.00302513,-0.00013844,0.00100514,0
 .00016344,-0.01498381,-0.06893280,-0.06940554,-0.00051618,-0.00141191,
 -0.00013792,0.00057114,0.00084145,-0.00031058,0.00010220,0.00031470,0.
 00025283,-0.00001269,-0.00056723,0.00040760,-0.00015179,-0.00018450,0.
 00014069,0.00006383,0.00013008,-0.00001751,0.00007035,-0.00001972,-0.0
 0011893,-0.00026978,0.00004472,0.00029914,-0.00347505,-0.02441118,-0.0
 0515968,0.00385891,0.02309540,0.00852857,0.01493528,0.07557549,0.06854
 649,0.00004042,-0.00002357,0.00008996,0.00007864,-0.00017140,-0.000143
 34,0.00005024,0.00004063,0.00003484,0.00001840,0.00007309,0.00012092,-
 0.00104949,0.00018137,-0.00020740,-0.00092034,0.00054504,-0.00003505,0
 .00000144,0.00000672,-0.00000995,0.00002051,0.00003566,0.00000470,-0.0
 0000698,-0.00000116,-0.00000717,-0.00000818,0.00000743,-0.00003182,0.0
 0001321,0.00001238,0.00003448,0.00005866,-0.00004406,0.00003358,-0.000
 01780,0.00001591,-0.00002708,-0.00001086,0.00000287,-0.00001253,0.0000
 4806,-0.00000043,0.00002272,-0.00124862,-0.00106256,0.00006092,0.00018
 154,-0.00005612,0.00003535,0.00003499,0.00086858,-0.00012566,-0.011589
 34,0.00749913,0.00166336,0.00076612,-0.00018725,-0.00085879,-0.0003551
 1,-0.00227890,0.00261882,-0.24389949,0.12529519,0.04557196,0.00709208,
 -0.01390940,-0.00317767,-0.00007069,0.00005013,0.00003276,0.00021115,-
 0.00082217,0.00016308,0.00033829,-0.00009809,-0.00017130,0.00004693,-0
 .00010141,-0.00012352,0.00042878,-0.00002901,0.00033901,-0.00000857,-0
 .00004476,0.00002456,0.00038510,-0.00011084,-0.00007433,-0.00067699,0.
 00056649,0.00043111,0.00002974,0.00005198,0.00001962,0.26099728,0.0000
 0923,-0.00003077,-0.00000691,0.00006339,-0.00027588,-0.00001128,0.0000
 2997,0.00006728,-0.00000190,0.00004385,0.00010505,0.00008219,-0.000097
 77,0.00073070,-0.00009068,0.00052511,-0.00032491,-0.00000634,-0.000007
 63,-0.00002613,-0.00002171,0.00001063,-0.00000315,0.00000986,-0.000015
 00,0.00001075,-0.00000343,-0.00004203,0.00002453,-0.00000734,0.0000298
 2,-0.00000654,0.00002460,0.00001271,-0.00009508,-0.00000260,-0.0000024
 0,-0.00001323,0.00001208,-0.00000725,-0.00000103,-0.00000464,0.0000397
 3,-0.00003157,0.00002043,-0.00106237,-0.00088086,0.00003156,0.00011696
 ,-0.00015925,0.00002089,-0.00129440,0.00109976,0.00092008,-0.01009579,
 0.00670445,0.00274312,-0.00037719,0.00004732,-0.00031616,-0.00115625,-
 0.00099329,0.00226763,0.12965996,-0.11673534,-0.02962974,0.00888004,-0
 .02259093,-0.00498070,0.00009359,0.00000929,-0.00011817,-0.00009028,-0
 .00056003,0.00041129,-0.00002530,0.00006184,-0.00013939,-0.00006236,0.
 00001807,-0.00001000,0.00010160,0.00004921,-0.00005600,0.00007631,-0.0
 0000196,0.00005562,0.00013810,-0.00010886,-0.00003325,-0.00072733,0.00
 058078,0.00032282,-0.00006800,0.00001385,0.00011534,-0.12414779,0.1308
 6384,0.00002927,-0.00000992,0.00002017,-0.00008740,0.00007911,0.,-0.00
 005734,0.00008000,0.00005266,0.00001013,-0.00000295,-0.00002418,-0.000
 17266,-0.00023671,-0.00002533,0.00025163,0.00005854,-0.00026266,-0.000
 01842,-0.00001767,0.00001637,0.00000564,0.00001502,-0.00000047,0.00002
 298,0.00000371,-0.00001275,-0.00003275,0.00003465,-0.00004522,0.000082
 06,-0.00000058,0.00000960,0.00004657,-0.00012113,-0.00002945,-0.000006
 82,0.00000941,-0.00001411,0.00001253,-0.00000993,-0.00000814,-0.000001
 44,0.00001130,0.00000737,-0.00006293,-0.00003439,0.00037691,0.00015829
 ,-0.00001465,0.00001479,-0.00030021,-0.00106561,0.00059183,0.02184422,
 -0.01334292,-0.00460815,0.00091432,-0.00114410,0.00104360,0.00160873,0
 .00322159,-0.00382207,0.04607958,-0.02618202,-0.06254332,0.00171337,-0
 .00374349,0.00004513,-0.00012893,0.00017732,-0.00005328,-0.00006652,0.
 00063248,0.00033513,-0.00031981,-0.00015173,-0.00008240,-0.00020794,0.
 00011805,0.00034424,-0.00050651,0.00044166,-0.00063361,-0.00001758,0.0
 0004225,-0.00008209,0.00014782,0.00005913,0.00021272,0.00143606,-0.000
 72667,-0.00012967,-0.00027854,-0.00000271,0.00008208,-0.05163919,0.027
 93439,0.06175165,0.00001909,-0.00001695,-0.00001413,0.00001222,0.00001
 432,0.00002991,0.00003729,-0.00002602,-0.00000958,-0.00000577,-0.00000
 782,-0.00002295,0.00015366,0.00003025,0.00005812,-0.00028342,0.0000763
 3,0.00004049,0.00001600,0.00002458,-0.00001470,-0.00000912,-0.00000625
 ,-0.00000174,-0.00002025,0.00000868,0.00000642,-0.00000799,0.00000743,
 0.00001823,-0.00002512,-0.00000257,-0.00000679,0.00000532,0.00000382,0
 .00004999,0.00000619,-0.00000147,0.00000945,-0.00000464,0.00000256,0.0
 0000640,-0.00001039,-0.00000555,-0.00000574,0.00018144,0.00011738,-0.0
 0015806,-0.00009055,0.00002498,-0.00002267,0.00057727,0.00047419,0.000
 60439,0.00916123,-0.00043904,0.01367824,-0.00148714,-0.00141387,0.0023
 2535,0.00147441,-0.00008466,0.00094569,-0.14868145,0.00961236,-0.13431
 313,-0.00189830,-0.00336997,-0.00253711,0.00002165,-0.00011908,-0.0000
 8351,-0.00011560,-0.00006319,-0.00015557,0.00008192,0.00020438,0.00008
 791,0.00073595,-0.00008875,0.00074317,0.00011757,-0.00015241,0.0000775
 7,-0.00004928,0.00005632,-0.00006588,-0.00031731,-0.00013595,-0.000216
 44,0.00010464,-0.00000661,-0.00017907,-0.00009746,0.00007493,0.0000295
 8,-0.01097913,-0.00055186,-0.02045824,0.15137707,0.00012425,-0.0000942
 2,0.00008475,-0.00002620,-0.00000909,-0.00006708,0.00011825,0.00001123
 ,0.00000631,0.00001998,0.00003371,0.00003730,-0.00012471,-0.00027236,0
 .00000141,0.00025066,0.00008823,-0.00003849,0.00000137,0.00004470,-0.0
 0005120,-0.00000769,0.00003445,-0.00000902,-0.00003887,0.00002882,-0.0
 0000180,-0.00008259,0.00006847,-0.00004295,0.00001052,0.00001197,0.000
 00977,-0.00001360,-0.00015285,0.00006558,-0.00001849,0.00002423,-0.000
 02030,-0.00001236,-0.00000227,0.00000094,0.00001384,0.00000153,0.00000
 738,-0.00005602,-0.00015924,0.00001421,0.00002492,0.00003252,0.0000088
 7,0.00069235,0.00052270,0.00138973,0.00703473,0.00020775,0.00870167,-0
 .00187066,-0.00084853,0.00170198,-0.00000574,-0.00019994,-0.00066902,0
 .00871410,-0.03822848,0.00489012,-0.01784462,-0.01581565,-0.01837705,-
 0.00063562,-0.00045672,0.00012709,0.00006934,0.00002534,-0.00002482,0.
 00006086,-0.00001589,-0.00021371,0.00033112,0.00025516,0.00085709,-0.0
 0024366,0.00006719,-0.00027441,-0.00000277,-0.00000660,0.00020801,-0.0
 0003458,0.00025178,-0.00012200,0.00003042,-0.00007425,0.00004993,-0.00
 007432,0.00000513,-0.00002683,0.00783631,0.00245210,0.01388856,-0.0042
 4053,0.05216910,-0.00000089,0.00000551,0.00002209,0.00000104,-0.000016
 37,-0.00004546,-0.00001126,0.00000164,0.00001759,0.00000211,0.00000628
 ,0.00002614,-0.00004240,-0.00003791,-0.00000524,0.00007249,-0.00000055
 ,0.00001465,-0.00000194,-0.00000307,0.00000381,0.00000602,0.00000642,-
 0.00000040,-0.00000118,-0.00000565,0.00000340,0.00002786,-0.00002351,-
 0.00000118,-0.00000018,-0.00000236,0.00000749,0.00000942,0.00004525,-0
 .00003511,-0.00000107,-0.00000019,-0.00000749,-0.00000680,0.00000065,0
 .00000187,0.00000867,0.00000199,0.00000235,-0.00003559,-0.00002142,0.0
 0001488,0.00002279,-0.00000882,0.00001020,-0.00071298,-0.00104522,0.00
 052781,-0.01597246,0.00072604,-0.01927631,0.00413739,0.00267332,-0.002
 64936,-0.00137197,-0.00021592,0.00070389,-0.13240989,0.00958505,-0.233
 57959,0.00018671,-0.00030007,0.00123812,0.00044436,0.00068831,0.000520
 75,0.00011267,0.00000331,-0.00001212,0.00024737,-0.00019781,0.00032339
 ,-0.00087496,0.00004320,-0.00134682,0.00004709,0.00001838,0.00026676,0
 .00004619,-0.00016840,0.00020750,0.00106521,-0.00022070,0.00005642,0.0
 0002616,0.00008977,0.00044824,0.00008257,0.00001655,-0.00003422,0.0053
 4305,0.00046835,0.00747267,0.13955440,-0.01211202,0.24510330\\0.000000
 36,-0.00000047,-0.00000002,0.00000006,-0.00000049,0.00000002,0.0000000
 9,-0.00000030,-0.00000006,0.,-0.00000072,0.,-0.00000005,-0.00000042,0.
 ,-0.00000028,-0.00000026,-0.00000002,0.00000046,-0.00000042,0.,0.00000
 041,-0.00000068,-0.00000002,0.00000034,-0.00000069,0.00000004,-0.00000
 011,-0.00000032,0.00000005,0.00000016,-0.00000049,-0.00000003,0.000000
 28,-0.00000015,0.,-0.00000024,-0.00000067,0.,-0.00000010,-0.00000086,0
 .00000003,0.,-0.00000085,-0.00000004,0.00000005,-0.00000021,0.,-0.0000
 0005,-0.00000049,0.00000001,-0.00000039,0.00000048,0.,-0.00000009,0.00
 000052,-0.00000002,0.00000003,0.00000031,-0.00000011,0.00000002,0.0000
 0074,0.00000002,0.00000007,0.00000040,0.00000002,0.00000030,0.00000023
 ,0.,-0.00000033,0.00000069,0.00000004,-0.00000045,0.00000040,0.,-0.000
 00040,0.00000067,-0.00000002,-0.00000016,0.00000048,-0.00000003,-0.000
 00029,0.00000016,0.,0.,0.00000035,0.00000011,0.00000009,0.00000086,0.0
 0000003,0.,0.00000084,-0.00000004,0.00000022,0.00000067,0.,-0.00000006
 ,0.00000021,0.00000001,0.00000004,0.00000049,0.00000002\\\@


 GARLIC THEN HAVE POWER TO SAVE FROM DEATH
 BEAR WITH IT THOUGH IT MAKETH UNSAVORY BREATH,
 AND SCORN NOT GARLIC LIKE SOME THAT THINK
 IT ONLY MAKETH MEN WINK AND DRINK AND STINK.
   --  SIR JOHN HARRINGTON,
       "THE ENGLISHMAN'S DOCTOR", 1609
 File lengths (MBytes):  RWF=    295 Int=      0 D2E=      0 Chk=      6 Scr=      1
 Normal termination of Gaussian 16 at Sun Feb  5 17:02:22 2023.
real 5865.03
user 20811.50
sys 109.36
