 Entering Gaussian System, Link 0=g16
 Input=gaussian_test.inp
 Output=gaussian_test.log
 Initial command:
 /sw/restricted/lms/sw/Gaussian/g16_B01/g16/l1.exe "/scratch/user/peterchao1/peterchao1/6215252_1662009868000000180582487/Gau-115222.inp" -scrdir="/scratch/user/peterchao1/peterchao1/6215252_1662009868000000180582487/"
 Entering Link 1 = /sw/restricted/lms/sw/Gaussian/g16_B01/g16/l1.exe PID=    115223.
  
 Copyright (c) 1988-2017, Gaussian, Inc.  All Rights Reserved.
  
 This is part of the Gaussian(R) 16 program.  It is based on
 the Gaussian(R) 09 system (copyright 2009, Gaussian, Inc.),
 the Gaussian(R) 03 system (copyright 2003, Gaussian, Inc.),
 the Gaussian(R) 98 system (copyright 1998, Gaussian, Inc.),
 the Gaussian(R) 94 system (copyright 1995, Gaussian, Inc.),
 the Gaussian 92(TM) system (copyright 1992, Gaussian, Inc.),
 the Gaussian 90(TM) system (copyright 1990, Gaussian, Inc.),
 the Gaussian 88(TM) system (copyright 1988, Gaussian, Inc.),
 the Gaussian 86(TM) system (copyright 1986, Carnegie Mellon
 University), and the Gaussian 82(TM) system (copyright 1983,
 Carnegie Mellon University). Gaussian is a federally registered
 trademark of Gaussian, Inc.
  
 This software contains proprietary and confidential information,
 including trade secrets, belonging to Gaussian, Inc.
  
 This software is provided under written license and may be
 used, copied, transmitted, or stored only in accord with that
 written license.
  
 The following legend is applicable only to US Government
 contracts under FAR:
  
                    RESTRICTED RIGHTS LEGEND
  
 Use, reproduction and disclosure by the US Government is
 subject to restrictions as set forth in subparagraphs (a)
 and (c) of the Commercial Computer Software - Restricted
 Rights clause in FAR 52.227-19.
  
 Gaussian, Inc.
 340 Quinnipiac St., Bldg. 40, Wallingford CT 06492
  
  
 ---------------------------------------------------------------
 Warning -- This program may not be used in any manner that
 competes with the business of Gaussian, Inc. or will provide
 assistance to any competitor of Gaussian, Inc.  The licensee
 of this program is prohibited from giving any competitor of
 Gaussian, Inc. access to this program.  By using this program,
 the user acknowledges that Gaussian, Inc. is engaged in the
 business of creating and licensing software in the field of
 computational chemistry and represents and warrants to the
 licensee that it is not a competitor of Gaussian, Inc. and that
 it will not use this program in any manner prohibited above.
 ---------------------------------------------------------------
  

 Cite this work as:
 Gaussian 16, Revision B.01,
 M. J. Frisch, G. W. Trucks, H. B. Schlegel, G. E. Scuseria, 
 M. A. Robb, J. R. Cheeseman, G. Scalmani, V. Barone, 
 G. A. Petersson, H. Nakatsuji, X. Li, M. Caricato, A. V. Marenich, 
 J. Bloino, B. G. Janesko, R. Gomperts, B. Mennucci, H. P. Hratchian, 
 J. V. Ortiz, A. F. Izmaylov, J. L. Sonnenberg, D. Williams-Young, 
 F. Ding, F. Lipparini, F. Egidi, J. Goings, B. Peng, A. Petrone, 
 T. Henderson, D. Ranasinghe, V. G. Zakrzewski, J. Gao, N. Rega, 
 G. Zheng, W. Liang, M. Hada, M. Ehara, K. Toyota, R. Fukuda, 
 J. Hasegawa, M. Ishida, T. Nakajima, Y. Honda, O. Kitao, H. Nakai, 
 T. Vreven, K. Throssell, J. A. Montgomery, Jr., J. E. Peralta, 
 F. Ogliaro, M. J. Bearpark, J. J. Heyd, E. N. Brothers, K. N. Kudin, 
 V. N. Staroverov, T. A. Keith, R. Kobayashi, J. Normand, 
 K. Raghavachari, A. P. Rendell, J. C. Burant, S. S. Iyengar, 
 J. Tomasi, M. Cossi, J. M. Millam, M. Klene, C. Adamo, R. Cammi, 
 J. W. Ochterski, R. L. Martin, K. Morokuma, O. Farkas, 
 J. B. Foresman, and D. J. Fox, Gaussian, Inc., Wallingford CT, 2016.
 
 ******************************************
 Gaussian 16:  ES64L-G16RevB.01 20-Dec-2017
                 1-Sep-2022 
 ******************************************
 %nprocshared=4
 Will use up to    4 processors via shared memory.
 %mem=8000mb
 --------------------------------------------------------------
 #T wB97XD/def2svpp freq int(grid=ultrafine) scf=(verytight,qc)
 --------------------------------------------------------------
 -----
 dimer
 -----
 Symbolic Z-matrix:
 Charge =  0 Multiplicity = 1
 F                    -2.03574  -1.19771   0.54631 
 C                    -2.02095  -0.00158  -0.00074 
 F                    -1.57689  -0.08667  -1.23587 
 F                    -3.23931   0.49542  -0.00592 
 F                    -1.23051   0.79025   0.69627 
 F                     2.03034   0.65093   1.14359 
 C                     2.02057   0.00156   0.00018 
 F                     1.57683   0.79259  -0.9523 
 F                     3.24166  -0.39374  -0.2909 
 F                     1.23389  -1.05105   0.09919 
 

 GradGradGradGradGradGradGradGradGradGradGradGradGradGradGradGradGradGrad
 Initialization pass.
 Number of steps in this run=      2 maximum allowed number of steps=      2.
 GradGradGradGradGradGradGradGradGradGradGradGradGradGradGradGradGradGrad

                    Distance matrix (angstroms):
                    1          2          3          4          5
     1  F    0.000000
     2  C    1.315371   0.000000
     3  F    2.149672   1.315290   0.000000
     4  F    2.149468   1.315839   2.148314   0.000000
     5  F    2.150082   1.318180   2.149916   2.148314   0.000000
     6  F    4.506348   4.260066   4.383834   5.395805   3.294334
     7  C    4.264990   4.041520   3.804910   5.283015   3.417031
     8  F    4.388369   3.805288   3.286261   4.917233   3.255605
     9  F    5.403534   5.285170   4.919928   6.547881   4.730394
    10  F    3.303318   3.421312   3.257748   4.734147   3.133717
                    6          7          8          9         10
     6  F    0.000000
     7  C    1.314976   0.000000
     8  F    2.149066   1.315233   0.000000
     9  F    2.148578   1.316072   2.148598   0.000000
    10  F    2.149845   1.317825   2.149942   2.148336   0.000000
 Framework group  C1[X(C2F8)]
 Deg. of freedom    24
                         Standard orientation:                         
 ---------------------------------------------------------------------
 Center     Atomic      Atomic             Coordinates (Angstroms)
 Number     Number       Type             X           Y           Z
 ---------------------------------------------------------------------
      1          9           0       -2.035741    1.197945   -0.545782
      2          6           0       -2.020951    0.001577    0.000738
      3          9           0       -1.576894    0.086135    1.235910
      4          9           0       -3.239310   -0.495425    0.005700
      5          9           0       -1.230513   -0.789946   -0.696613
      6          9           0        2.030335   -0.650427   -1.143875
      7          6           0        2.020568   -0.001561   -0.000180
      8          9           0        1.576833   -0.793005    0.951952
      9          9           0        3.241656    0.393617    0.291067
     10          9           0        1.233890    1.051096   -0.098731
 ---------------------------------------------------------------------
 Rotational constants (GHZ):           2.8778549           0.5653092           0.5652634
   140 basis functions,   250 primitive gaussians,   150 cartesian basis functions
    42 alpha electrons       42 beta electrons
       nuclear repulsion energy       639.7550176471 Hartrees.
 NAtoms=   10 NActive=   10 NUniq=   10 SFac= 1.00D+00 NAtFMM=   60 NAOKFM=F Big=F
 Nuclear repulsion after empirical dispersion term =      639.7520985137 Hartrees.
   1 Symmetry operations used in ECPInt.
 ECPInt:  NShTT=    1830 NPrTT=    7390 LenC2=    1693 LenP2D=    4846.
 LDataN:  DoStor=T MaxTD1= 4 Len=   56
 ExpMin= 1.31D-01 ExpMax= 2.89D+03 ExpMxC= 4.35D+02 IAcc=3 IRadAn=         5 AccDes= 0.00D+00
 Harris functional with IExCor= 4639 and IRadAn=       5 diagonalized for initial guess.
 HarFok:  IExCor= 4639 AccDes= 0.00D+00 IRadAn=         5 IDoV= 1 UseB2=F ITyADJ=14
 ICtDFT=  3500011 ScaDFX=  1.000000  1.000000  1.000000  1.000000
 FoFCou: FMM=F IPFlag=           0 FMFlag=      100000 FMFlg1=           0
         NFxFlg=           0 DoJE=T BraDBF=F KetDBF=T FulRan=T
         wScrn=  0.000000 ICntrl=       500 IOpCl=  0 I1Cent=   200000004 NGrid=           0
         NMat0=    1 NMatS0=      1 NMatT0=    0 NMatD0=    1 NMtDS0=    0 NMtDT0=    0
 Petite list used in FoFCou.
     Accept linear search using points  1 and  2.
     Minimum is close to point  2 DX=  6.34D-04 DF= -2.07D-11 DXR=  6.34D-04 DFR=  4.04D-07 which will be used.
 SCF Done:  E(RwB97XD) =  -874.078788786     a.u. after    7 cycles
            Convg  =    0.5706D-08                    29 Fock formations.
              S**2 =  0.0000                  -V/T =  2.0054
 DoSCS=F DFT=T ScalE2(SS,OS)=  1.000000  1.000000
 NROrb=    140 NOA=    42 NOB=    42 NVA=    98 NVB=    98
   1 Symmetry operations used in ECPInt.
 ECPInt:  NShTT=    1830 NPrTT=    7390 LenC2=    1693 LenP2D=    4846.
 LDataN:  DoStor=T MaxTD1= 5 Len=  102
 Symmetrizing basis deriv contribution to polar:
 IMax=3 JMax=2 DiffMx= 0.00D+00
 Calling FoFCou, ICntrl=  3107 FMM=F I1Cent=   0 AccDes= 0.00D+00.
 End of G2Drv F.D. properties file   721 does not exist.
 End of G2Drv F.D. properties file   722 does not exist.
 End of G2Drv F.D. properties file   788 does not exist.
          IDoAtm=1111111111
 End of Minotr F.D. properties file   721 does not exist.
 End of Minotr F.D. properties file   722 does not exist.
 End of Minotr F.D. properties file   788 does not exist.

 **********************************************************************

            Population analysis using the SCF Density.

 **********************************************************************

 Orbital symmetries:
       Occupied  (A) (A) (A) (A) (A) (A) (A) (A) (A) (A) (A) (A)
                 (A) (A) (A) (A) (A) (A) (A) (A) (A) (A) (A) (A)
                 (A) (A) (A) (A) (A) (A) (A) (A) (A) (A) (A) (A)
                 (A) (A) (A) (A) (A) (A)
       Virtual   (A) (A) (A) (A) (A) (A) (A) (A) (A) (A) (A) (A)
                 (A) (A) (A) (A) (A) (A) (A) (A) (A) (A) (A) (A)
                 (A) (A) (A) (A) (A) (A) (A) (A) (A) (A) (A) (A)
                 (A) (A) (A) (A) (A) (A) (A) (A) (A) (A) (A) (A)
                 (A) (A) (A) (A) (A) (A) (A) (A) (A) (A) (A) (A)
                 (A) (A) (A) (A) (A) (A) (A) (A) (A) (A) (A) (A)
                 (A) (A) (A) (A) (A) (A) (A) (A) (A) (A) (A) (A)
                 (A) (A) (A) (A) (A) (A) (A) (A) (A) (A) (A) (A)
                 (A) (A)
 The electronic state is 1-A.
 Alpha  occ. eigenvalues --  -24.88317 -24.88306 -24.88215 -24.88212 -24.88196
 Alpha  occ. eigenvalues --  -24.88193 -24.88187 -24.88175 -10.64181 -10.64173
 Alpha  occ. eigenvalues --   -1.48075  -1.48005  -1.35722  -1.35718  -1.35703
 Alpha  occ. eigenvalues --   -1.35683  -1.35671  -1.35624  -0.82769  -0.82683
 Alpha  occ. eigenvalues --   -0.74512  -0.74457  -0.74365  -0.74335  -0.74318
 Alpha  occ. eigenvalues --   -0.74212  -0.60876  -0.60736  -0.60681  -0.60498
 Alpha  occ. eigenvalues --   -0.58425  -0.57843  -0.57823  -0.57786  -0.57774
 Alpha  occ. eigenvalues --   -0.57125  -0.53354  -0.53349  -0.53323  -0.53307
 Alpha  occ. eigenvalues --   -0.53273  -0.53255
 Alpha virt. eigenvalues --    0.24314   0.27095   0.27198   0.27354   0.27648
 Alpha virt. eigenvalues --    0.27851   0.28107   0.28873   0.38298   0.41264
 Alpha virt. eigenvalues --    0.47520   0.50387   0.50505   0.52359   0.52537
 Alpha virt. eigenvalues --    0.61748   1.07323   1.08795   1.09433   1.10549
 Alpha virt. eigenvalues --    1.14586   1.14685   1.15054   1.15229   1.16079
 Alpha virt. eigenvalues --    1.16203   1.17561   1.18481   1.37831   1.37975
 Alpha virt. eigenvalues --    1.38012   1.38431   1.38716   1.39022   1.47197
 Alpha virt. eigenvalues --    1.49281   1.49631   1.51105   1.51739   1.51811
 Alpha virt. eigenvalues --    1.59413   1.59686   1.59698   1.60548   1.79184
 Alpha virt. eigenvalues --    1.80134   1.81014   1.81980   1.86361   1.86662
 Alpha virt. eigenvalues --    1.99657   2.00104   2.02311   2.02546   2.02766
 Alpha virt. eigenvalues --    2.03132   2.07520   2.11066   3.05263   3.05271
 Alpha virt. eigenvalues --    3.05280   3.05308   3.05319   3.05334   3.08724
 Alpha virt. eigenvalues --    3.08727   3.08758   3.08796   3.09535   3.09547
 Alpha virt. eigenvalues --    3.09581   3.09588   3.09608   3.09622   3.10462
 Alpha virt. eigenvalues --    3.10482   3.10507   3.10533   3.10675   3.10747
 Alpha virt. eigenvalues --    3.40346   3.40397   3.40469   3.40958   3.41483
 Alpha virt. eigenvalues --    3.42874   3.70299   3.71383   3.71452   3.71570
 Alpha virt. eigenvalues --    3.71647   3.71943   3.93108   3.93530   3.93693
 Alpha virt. eigenvalues --    3.93815   3.93911   3.95746
          Condensed to atoms (all electrons):
 Mulliken charges:
               1
     1  F   -0.149215
     2  C    0.605477
     3  F   -0.150676
     4  F   -0.149922
     5  F   -0.155621
     6  F   -0.148950
     7  C    0.605120
     8  F   -0.150647
     9  F   -0.150297
    10  F   -0.155268
 Sum of Mulliken charges =   0.00000
 Mulliken charges with hydrogens summed into heavy atoms:
               1
     1  F   -0.149215
     2  C    0.605477
     3  F   -0.150676
     4  F   -0.149922
     5  F   -0.155621
     6  F   -0.148950
     7  C    0.605120
     8  F   -0.150647
     9  F   -0.150297
    10  F   -0.155268
 APT charges:
               1
     1  F   -0.535814
     2  C    2.169863
     3  F   -0.539311
     4  F   -0.546642
     5  F   -0.549119
     6  F   -0.535686
     7  C    2.170686
     8  F   -0.538849
     9  F   -0.546910
    10  F   -0.548219
 Sum of APT charges =   0.00000
 APT charges with hydrogens summed into heavy atoms:
               1
     1  F   -0.535814
     2  C    2.169863
     3  F   -0.539311
     4  F   -0.546642
     5  F   -0.549119
     6  F   -0.535686
     7  C    2.170686
     8  F   -0.538849
     9  F   -0.546910
    10  F   -0.548219
 Electronic spatial extent (au):  <R**2>=           1782.0241
 Charge=              0.0000 electrons
 Dipole moment (field-independent basis, Debye):
    X=             -0.0047    Y=             -0.0017    Z=              0.0081  Tot=              0.0095
  Exact polarizability:  25.758   0.084  23.455   0.024  -0.009  23.465
 Approx polarizability:  26.657   0.078  26.171   0.023  -0.003  26.162
   1 Symmetry operations used in ECPInt.
 ECPInt:  NShTT=    1830 NPrTT=    7390 LenC2=    1693 LenP2D=    4846.
 LDataN:  DoStor=T MaxTD1= 6 Len=  172
 Calling FoFJK, ICntrl=    100127 FMM=F ISym2X=0 I1Cent= 0 IOpClX= 0 NMat=1 NMatS=1 NMatT=0.
 Full mass-weighted force constant matrix:
 Low frequencies ---   -6.7755   -0.0017   -0.0014   -0.0009    2.8053    3.5899
 Low frequencies ---   18.2682   27.3007   28.1836
 Diagonal vibrational polarizability:
       17.2967028      13.4012484      13.3967733
 Harmonic frequencies (cm**-1), IR intensities (KM/Mole), Raman scattering
 activities (A**4/AMU), depolarization ratios for plane and unpolarized
 incident light, reduced masses (AMU), force constants (mDyne/A),
 and normal coordinates:
                      1                      2                      3
                      A                      A                      A
 Frequencies --     17.8232                27.0399                27.8429
 Red. masses --     18.8833                18.9471                18.7469
 Frc consts  --      0.0035                 0.0082                 0.0086
 IR Inten    --      0.0046                 0.0057                 0.0028
  Atom  AN      X      Y      Z        X      Y      Z        X      Y      Z
     1   9     0.49   0.07   0.28    -0.32   0.15   0.22    -0.26   0.11   0.19
     2   6     0.07  -0.05   0.04    -0.01   0.02  -0.06    -0.12   0.04   0.05
     3   9    -0.11  -0.42   0.13     0.05  -0.15  -0.06     0.04  -0.07   0.00
     4   9    -0.07   0.30  -0.26     0.11  -0.26  -0.10    -0.09  -0.03   0.16
     5   9    -0.04  -0.13   0.01     0.14   0.37  -0.28    -0.16   0.17  -0.15
     6   9    -0.02  -0.19   0.10    -0.27  -0.29   0.20     0.58  -0.17   0.03
     7   6    -0.07   0.05  -0.04     0.00  -0.02   0.06     0.12  -0.04  -0.05
     8   9     0.02   0.20   0.13     0.06   0.25   0.31    -0.12   0.01  -0.11
     9   9    -0.10   0.22  -0.13     0.11  -0.12  -0.24    -0.03   0.13   0.32
    10   9    -0.17  -0.05  -0.24     0.13   0.06  -0.05     0.03  -0.14  -0.44
                      4                      5                      6
                      A                      A                      A
 Frequencies --     55.6560                57.2467                68.0717
 Red. masses --     18.6505                18.6241                18.0794
 Frc consts  --      0.0340                 0.0360                 0.0494
 IR Inten    --      0.0018                 0.0058                 0.0003
  Atom  AN      X      Y      Z        X      Y      Z        X      Y      Z
     1   9     0.05  -0.12   0.04     0.03   0.03   0.10     0.16  -0.02  -0.01
     2   6    -0.10  -0.12   0.03     0.11   0.04   0.11     0.25  -0.03  -0.02
     3   9    -0.11  -0.18   0.04    -0.28   0.14   0.25     0.53  -0.05  -0.12
     4   9    -0.15   0.02   0.00     0.22  -0.22  -0.26     0.24   0.00   0.25
     5   9    -0.17  -0.20   0.04     0.48   0.19   0.35     0.07  -0.04  -0.22
     6   9    -0.03   0.11  -0.03     0.01  -0.03  -0.12    -0.17   0.02   0.03
     7   6     0.09   0.12  -0.03    -0.11  -0.04  -0.11    -0.25   0.03   0.02
     8   9    -0.30   0.30  -0.07    -0.30  -0.01  -0.18    -0.43   0.07  -0.02
     9   9     0.21  -0.34   0.10    -0.13  -0.12   0.07    -0.26  -0.07   0.18
    10   9     0.49   0.41  -0.12    -0.03   0.02  -0.22    -0.15   0.10  -0.09
                      7                      8                      9
                      A                      A                      A
 Frequencies --    443.4567               445.3074               445.3629
 Red. masses --     18.9982                18.9982                18.9983
 Frc consts  --      2.2012                 2.2196                 2.2202
 IR Inten    --      0.0197                 0.0077                 0.0131
  Atom  AN      X      Y      Z        X      Y      Z        X      Y      Z
     1   9    -0.34   0.05   0.10     0.12   0.20   0.43    -0.08  -0.03  -0.06
     2   6    -0.00   0.00  -0.00    -0.00  -0.00  -0.00    -0.00  -0.00   0.00
     3   9     0.33  -0.06  -0.12     0.11   0.48  -0.07     0.04  -0.10  -0.01
     4   9    -0.08   0.19  -0.29     0.14  -0.34  -0.31    -0.04   0.09   0.00
     5   9     0.09  -0.18   0.30    -0.37  -0.33  -0.05     0.08   0.03   0.06
     6   9    -0.34   0.08  -0.05     0.01  -0.07   0.04    -0.08  -0.42   0.24
     7   6    -0.00  -0.00   0.00     0.00   0.00   0.00    -0.00   0.00  -0.00
     8   9     0.32  -0.13   0.04    -0.05  -0.04  -0.06    -0.15  -0.32  -0.34
     9   9    -0.08   0.01   0.34    -0.01   0.08  -0.04    -0.12   0.46  -0.10
    10   9     0.10   0.04  -0.34     0.05   0.04   0.06     0.35   0.29   0.20
                     10                     11                     12
                      A                      A                      A
 Frequencies --    447.4984               640.8635               641.7271
 Red. masses --     18.9975                18.1495                18.1688
 Frc consts  --      2.2415                 4.3918                 4.4084
 IR Inten    --      0.0049                14.8437                 3.6873
  Atom  AN      X      Y      Z        X      Y      Z        X      Y      Z
     1   9    -0.34   0.03   0.07    -0.28  -0.11   0.00    -0.05   0.52  -0.16
     2   6     0.01   0.00   0.00     0.25  -0.03   0.06     0.04   0.25  -0.18
     3   9     0.32  -0.10  -0.11    -0.14   0.06   0.31    -0.18  -0.31  -0.18
     4   9    -0.08   0.22  -0.25     0.30   0.27  -0.07     0.30  -0.15   0.20
     5   9     0.12  -0.15   0.29    -0.04  -0.20  -0.27    -0.10  -0.22   0.26
     6   9     0.36  -0.01   0.01    -0.25  -0.04  -0.01    -0.07   0.16   0.14
     7   6    -0.01  -0.00  -0.00     0.23   0.02  -0.02     0.06  -0.00   0.13
     8   9    -0.31   0.19   0.02    -0.15   0.16  -0.19    -0.14  -0.12   0.00
     9   9     0.10  -0.09  -0.33     0.31   0.16   0.16     0.16   0.07  -0.09
    10   9    -0.17  -0.09   0.31    -0.05  -0.29   0.05     0.01  -0.10  -0.13
                     13                     14                     15
                      A                      A                      A
 Frequencies --    641.9528               642.5851               642.7629
 Red. masses --     18.1717                18.1926                18.1838
 Frc consts  --      4.4122                 4.4260                 4.4263
 IR Inten    --      5.7399                 8.2625                 4.5996
  Atom  AN      X      Y      Z        X      Y      Z        X      Y      Z
     1   9    -0.01  -0.20   0.11    -0.02   0.01   0.26    -0.04   0.09   0.27
     2   6     0.02  -0.13   0.04     0.01  -0.14  -0.18     0.04  -0.12  -0.22
     3   9     0.01   0.15   0.05    -0.19   0.13  -0.26    -0.24   0.10  -0.30
     4   9    -0.10   0.11  -0.04    -0.12   0.12   0.20    -0.07   0.13   0.25
     5   9     0.10   0.03  -0.14     0.31  -0.17  -0.09     0.33  -0.23  -0.08
     6   9     0.02   0.35   0.41    -0.03   0.13  -0.29     0.03  -0.18   0.19
     7   6    -0.02   0.07   0.31     0.03  -0.25   0.02    -0.02   0.21  -0.07
     8   9    -0.16  -0.40   0.05    -0.19   0.01   0.30     0.20   0.06  -0.28
     9   9     0.21  -0.02  -0.30    -0.15   0.25  -0.05     0.09  -0.22   0.10
    10   9    -0.05   0.03  -0.35     0.35  -0.23   0.02    -0.31   0.20   0.04
                     16                     17                     18
                      A                      A                      A
 Frequencies --    643.8476               937.1738               937.5789
 Red. masses --     18.2161                18.9978                18.9978
 Frc consts  --      4.4491                 9.8309                 9.8394
 IR Inten    --      0.0256                 0.0655                 0.0280
  Atom  AN      X      Y      Z        X      Y      Z        X      Y      Z
     1   9     0.25  -0.03   0.04    -0.00   0.45  -0.21    -0.00   0.07  -0.03
     2   6    -0.22  -0.04  -0.01    -0.01   0.01   0.01    -0.00   0.00   0.00
     3   9     0.18   0.02  -0.23     0.17   0.03   0.46     0.03   0.01   0.07
     4   9    -0.35  -0.20   0.01    -0.46  -0.19   0.00    -0.07  -0.03  -0.00
     5   9     0.07   0.24   0.18     0.30  -0.30  -0.26     0.05  -0.05  -0.04
     6   9    -0.27  -0.01   0.05    -0.00   0.04   0.07     0.00  -0.24  -0.43
     7   6     0.24   0.05   0.01    -0.00   0.00  -0.00     0.00  -0.01  -0.00
     8   9    -0.18   0.14  -0.23     0.03   0.05  -0.06    -0.17  -0.30   0.36
     9   9     0.38   0.16   0.15    -0.07  -0.02  -0.02     0.46   0.15   0.11
    10   9    -0.08  -0.32   0.02     0.05  -0.06   0.01    -0.30   0.39  -0.04
                     19                     20                     21
                      A                      A                      A
 Frequencies --   1318.1566              1320.1587              1327.1318
 Red. masses --     13.0382                13.0322                13.0363
 Frc consts  --     13.3475                13.3820                13.5280
 IR Inten    --    861.0764                55.4643               104.7349
  Atom  AN      X      Y      Z        X      Y      Z        X      Y      Z
     1   9    -0.04   0.03   0.01     0.00   0.16  -0.04    -0.01   0.11  -0.08
     2   6     0.60  -0.19  -0.27    -0.08  -0.58  -0.19     0.20  -0.15   0.61
     3   9    -0.03   0.01   0.04     0.03   0.04   0.08    -0.07  -0.00  -0.21
     4   9    -0.17  -0.04   0.02     0.08   0.07   0.01    -0.05  -0.00  -0.04
     5   9    -0.14   0.12   0.11    -0.06   0.10   0.07     0.01  -0.01  -0.05
     6   9    -0.04  -0.02  -0.05     0.02  -0.10  -0.11    -0.01   0.04   0.13
     7   6     0.59  -0.01   0.19    -0.22   0.65   0.11     0.21   0.23  -0.57
     8   9    -0.04  -0.01   0.00    -0.01  -0.08   0.04    -0.07  -0.12   0.17
     9   9    -0.19  -0.05  -0.05     0.01  -0.04  -0.01    -0.05  -0.03   0.03
    10   9    -0.10   0.09  -0.02     0.12  -0.18   0.01     0.00  -0.04   0.04
                     22                     23                     24
                      A                      A                      A
 Frequencies --   1348.5405              1349.3597              1352.4693
 Red. masses --     13.0132                13.0169                13.0205
 Frc consts  --     13.9432                13.9641                14.0325
 IR Inten    --    321.0023               723.2279               656.6692
  Atom  AN      X      Y      Z        X      Y      Z        X      Y      Z
     1   9     0.03  -0.02  -0.01    -0.02  -0.20   0.07    -0.02   0.10  -0.08
     2   6    -0.48   0.15   0.27     0.33   0.65  -0.05     0.33  -0.14   0.54
     3   9     0.02  -0.01  -0.05    -0.03  -0.04  -0.02    -0.08  -0.00  -0.20
     4   9     0.13   0.03  -0.02    -0.16  -0.10   0.00    -0.08  -0.02  -0.03
     5   9     0.12  -0.10  -0.09     0.01  -0.07  -0.02    -0.02   0.01  -0.04
     6   9    -0.03  -0.08  -0.14     0.01  -0.08  -0.08     0.02  -0.05  -0.14
     7   6     0.54   0.27   0.40    -0.17   0.54   0.05    -0.31  -0.13   0.57
     8   9    -0.04  -0.03  -0.01    -0.01  -0.07   0.05     0.08   0.11  -0.16
     9   9    -0.21  -0.07  -0.07     0.01  -0.04  -0.00     0.07   0.02  -0.02
    10   9    -0.06   0.01  -0.03     0.10  -0.15   0.01     0.03  -0.00  -0.04
 
 Temperature   298.150 Kelvin.  Pressure   1.00000 Atm.
 Zero-point correction=                           0.035949 (Hartree/Particle)
 Thermal correction to Energy=                    0.045943
 Thermal correction to Enthalpy=                  0.046888
 Thermal correction to Gibbs Free Energy=        -0.005279
 Sum of electronic and zero-point Energies=           -874.042840
 Sum of electronic and thermal Energies=              -874.032845
 Sum of electronic and thermal Enthalpies=            -874.031901
 Sum of electronic and thermal Free Energies=         -874.084068

 GradGradGradGradGradGradGradGradGradGradGradGradGradGradGradGradGradGrad
 Step number   1 out of a maximum of    2
 All quantities printed in internal units (Hartrees-Bohrs-Radians)
 Second derivative matrix not updated -- analytic derivatives used.
 ITU=  0
     Eigenvalues ---    0.00023   0.00052   0.00055   0.00218   0.00231
     Eigenvalues ---    0.00318   0.14139   0.14257   0.14260   0.14397
     Eigenvalues ---    0.28112   0.28223   0.28251   0.28339   0.28345
     Eigenvalues ---    0.28522   0.63143   0.63198   0.88951   0.89232
     Eigenvalues ---    0.90200   0.92927   0.93108   0.93570
 Angle between quadratic step and forces=  85.42 degrees.
 Linear search not attempted -- first point.
 B after Tr=    -0.000012   -0.000006   -0.000003
         Rot=    1.000000    0.000000   -0.000006   -0.000013 Ang=   0.00 deg.
 Variable       Old X    -DE/DX   Delta X   Delta X   Delta X     New X
                                 (Linear)    (Quad)   (Total)
    X1       -3.84699  -0.00006   0.00000   0.01978   0.01984  -3.82715
    Y1       -2.26334   0.00036   0.00000   0.00343   0.00333  -2.26001
    Z1        1.03237  -0.00018   0.00000  -0.00275  -0.00271   1.02966
    X2       -3.81904   0.00014   0.00000   0.00381   0.00380  -3.81524
    Y2       -0.00298  -0.00005   0.00000   0.00341   0.00331   0.00033
    Z2       -0.00139   0.00013   0.00000  -0.00138  -0.00134  -0.00274
    X3       -2.97990   0.00000   0.00000  -0.01017  -0.01020  -2.99010
    Y3       -0.16379  -0.00004   0.00000   0.00800   0.00792  -0.15587
    Z3       -2.33546   0.00008   0.00000  -0.00666  -0.00662  -2.34208
    X4       -6.12141  -0.00004   0.00000  -0.00078  -0.00082  -6.12222
    Y4        0.93621  -0.00012   0.00000  -0.00737  -0.00753   0.92868
    Z4       -0.01118   0.00007   0.00000   0.01424   0.01431   0.00313
    X5       -2.32533  -0.00005   0.00000   0.00572   0.00569  -2.31965
    Y5        1.49336  -0.00014   0.00000   0.00902   0.00896   1.50231
    Z5        1.31576  -0.00011   0.00000  -0.01059  -0.01057   1.30519
    X6        3.83678  -0.00008   0.00000  -0.01438  -0.01440   3.82238
    Y6        1.23007  -0.00005   0.00000  -0.00243  -0.00234   1.22773
    Z6        2.16107   0.00005   0.00000   0.00120   0.00115   2.16222
    X7        3.81832   0.00032   0.00000  -0.00315  -0.00316   3.81516
    Y7        0.00295   0.00009   0.00000  -0.00310  -0.00301  -0.00006
    Z7        0.00034   0.00006   0.00000   0.00156   0.00151   0.00185
    X8        2.97978  -0.00009   0.00000  -0.00248  -0.00255   2.97723
    Y8        1.49778  -0.00006   0.00000  -0.00708  -0.00701   1.49077
    Z8       -1.79958  -0.00005   0.00000  -0.00225  -0.00228  -1.80187
    X9        6.12584  -0.00008   0.00000   0.00041   0.00041   6.12625
    Y9       -0.74407   0.00001   0.00000   0.00338   0.00353  -0.74054
    Z9       -0.54971  -0.00002   0.00000   0.00914   0.00907  -0.54065
   X10        2.33171  -0.00006   0.00000   0.00135   0.00140   2.33311
   Y10       -1.98620  -0.00000   0.00000  -0.00720  -0.00714  -1.99335
   Z10        0.18744  -0.00002   0.00000  -0.00248  -0.00251   0.18493
         Item               Value     Threshold  Converged?
 Maximum Force            0.000363     0.000450     YES
 RMS     Force            0.000119     0.000300     YES
 Maximum Displacement     0.019840     0.001800     NO 
 RMS     Displacement     0.007273     0.001200     NO 
 GradGradGradGradGradGradGradGradGradGradGradGradGradGradGradGradGradGrad


 ----------------------------------------------------------------------

 Electric dipole moment (input orientation):
 (Debye = 10**-18 statcoulomb cm , SI units = C m)
                  (au)            (Debye)         (10**-30 SI)
   Tot        0.375136D-02      0.953501D-02      0.318054D-01
   x         -0.184748D-02     -0.469584D-02     -0.156636D-01
   y          0.650299D-03      0.165290D-02      0.551347D-02
   z         -0.319947D-02     -0.813225D-02     -0.271263D-01

 Dipole polarizability, Alpha (input orientation).
 (esu units = cm**3 , SI units = C**2 m**2 J**-1)
 Alpha(0;0):
               (au)            (10**-24 esu)      (10**-40 SI)
   iso        0.242258D+02      0.358989D+01      0.399430D+01
   aniso      0.230286D+01      0.341249D+00      0.379691D+00
   xx         0.257577D+02      0.381689D+01      0.424686D+01
   yx        -0.842969D-01     -0.124915D-01     -0.138987D-01
   yy         0.234547D+02      0.347563D+01      0.386716D+01
   zx        -0.239505D-01     -0.354910D-02     -0.394891D-02
   zy        -0.904715D-02     -0.134065D-02     -0.149167D-02
   zz         0.234650D+02      0.347716D+01      0.386886D+01

 ----------------------------------------------------------------------

 Dipole orientation:
     9         -3.95613404          2.22492146          0.62174259
     6         -3.31858734          0.17913660          1.88148751
     9         -1.44720422          0.70328537          3.43103180
     9         -5.27148217         -0.63704489          3.18652038
     9         -2.60013084         -1.59008275          0.28187539
     9          2.32693046         -1.76152519         -3.51946002
     6          3.31847623         -0.17889071         -1.88023697
     9          3.54500792         -1.29882155          0.32697930
     9          5.56041898          0.54504416         -2.67701906
     9          1.84266986          1.81406283         -1.65250362

 Electric dipole moment (dipole orientation):
 (Debye = 10**-18 statcoulomb cm , SI units = C m)
                  (au)            (Debye)         (10**-30 SI)
   Tot        0.375136D-02      0.953501D-02      0.318054D-01
   x          0.000000D+00      0.000000D+00      0.000000D+00
   y          0.000000D+00      0.000000D+00      0.000000D+00
   z          0.375136D-02      0.953501D-02      0.318054D-01

 Dipole polarizability, Alpha (dipole orientation).
 (esu units = cm**3 , SI units = C**2 m**2 J**-1)
 Alpha(0;0):
               (au)            (10**-24 esu)      (10**-40 SI)
   iso        0.242258D+02      0.358989D+01      0.399430D+01
   aniso      0.230286D+01      0.341249D+00      0.379691D+00
   xx         0.252109D+02      0.373587D+01      0.415671D+01
   yx        -0.203294D-01     -0.301251D-02     -0.335187D-02
   yy         0.234488D+02      0.347475D+01      0.386618D+01
   zx        -0.979077D+00     -0.145084D+00     -0.161428D+00
   zy         0.331330D-02      0.490981D-03      0.546290D-03
   zz         0.240177D+02      0.355906D+01      0.395999D+01

 ----------------------------------------------------------------------
 1\1\GINC-C346\Freq\RwB97XD\def2SVPP\C2F8\PETERCHAO1\01-Sep-2022\0\\#T 
 wB97XD/def2svpp freq int(grid=ultrafine) scf=(verytight,qc)\\dimer\\0,
 1\F,-2.035741,-1.197707,0.546305\C,-2.020951,-0.001577,-0.000737\F,-1.
 576894,-0.086674,-1.235872\F,-3.23931,0.495422,-0.005916\F,-1.230513,0
 .79025,0.696268\F,2.030335,0.650926,1.143591\C,2.020568,0.001561,0.000
 179\F,1.576833,0.792589,-0.952298\F,3.241656,-0.393744,-0.290896\F,1.2
 3389,-1.051053,0.099189\\Version=ES64L-G16RevB.01\State=1-A\HF=-874.07
 87888\RMSD=6.289e-11\RMSF=1.187e-04\ZeroPoint=0.0359486\Thermal=0.0459
 434\Dipole=-0.0018475,0.0006503,-0.0031995\DipoleDeriv=-0.3565308,-0.0
 101992,0.0044448,-0.0090226,-0.8162235,0.2222126,0.0033161,0.2222606,-
 0.4346867,2.2904804,-0.0067625,-0.0014262,0.0065883,2.1103216,-0.00589
 55,0.0069938,-0.0036829,2.1087879,-0.4376998,0.0131123,0.1799382,0.013
 8274,-0.3337296,-0.0352652,0.1942648,-0.0372066,-0.8465023,-0.8871353,
 0.2086225,-0.0016975,0.2164932,-0.4189291,0.0019259,-0.0038792,0.00152
 17,-0.3338607,-0.6123397,-0.2048463,-0.1807016,-0.2279268,-0.5407415,-
 0.1837254,-0.1994168,-0.1835773,-0.4942764,-0.3554006,-0.0047384,-0.00
 75261,-0.0037518,-0.4748729,-0.2513153,-0.0052044,-0.2511266,-0.776784
 5,2.2914306,-0.0061225,-0.00213,0.009449,2.1064669,0.0034914,-0.002136
 6,0.001035,2.1141595,-0.4361518,0.11551,-0.1390294,0.1242436,-0.543364
 7,0.253966,-0.1506464,0.2556289,-0.6370304,-0.8893846,0.1668861,0.1221
 09,0.1715356,-0.3870849,-0.0401037,0.128106,-0.0397313,-0.3642608,-0.6
 072685,-0.271462,0.0260189,-0.301436,-0.7018423,0.0347093,0.0286027,0.
 0348785,-0.3355456\Polar=25.7576582,-0.0842969,23.454701,-0.0239505,-0
 .0090472,23.4650462\Quadrupole=0.0845294,-0.0488267,-0.0357028,0.04154
 75,0.0142957,-0.0043514\PG=C01 [X(C2F8)]\NImag=0\\0.08787114,0.0035986
 0,0.40105282,-0.00168188,-0.14332261,0.15292246,-0.08956290,-0.0019878
 7,0.00106247,0.65119320,-0.00216593,-0.27390831,0.08439979,-0.00261497
 ,0.65184328,0.00111064,0.08467473,-0.12811974,-0.00260682,-0.00307554,
 0.65251339,0.01218571,-0.00915405,0.01648978,-0.11467369,0.00487823,0.
 07024367,0.13429637,-0.01586616,-0.00815679,0.05579694,0.00502213,-0.0
 9021915,-0.01350938,-0.00844662,0.08927516,0.01921859,0.03652945,-0.05
 399275,0.07083137,-0.01333966,-0.28592471,-0.11966330,0.02306544,0.421
 75067,-0.01315649,0.03814817,-0.01203508,-0.27969044,0.07783545,-0.000
 60057,-0.04479605,0.02200310,0.03848359,0.41208522,0.05668647,-0.04702
 774,0.01867518,0.07755557,-0.12107382,0.00045356,0.02059153,0.00934780
 ,-0.01336390,-0.13197818,0.14118821,-0.02043407,0.02195504,0.01037170,
 -0.00072216,0.00052125,-0.08939674,0.05761142,-0.02103762,-0.01474679,
 0.00135579,-0.00049141,0.08759630,0.00288959,-0.03098624,-0.00381709,-
 0.16636790,-0.07670889,-0.06748234,0.01654981,-0.00271723,-0.00852690,
 -0.07460096,-0.02303213,-0.03790156,0.22316347,-0.04229269,-0.07189197
 ,-0.01556000,-0.07762580,-0.16693631,-0.06863852,-0.00772230,0.0000539
 1,-0.03299716,-0.00600603,0.01760037,-0.00092109,0.13280026,0.22189759
 ,0.00180124,0.00023510,0.01879957,-0.06841150,-0.06871987,-0.14946853,
 -0.02414137,-0.04451741,-0.06678753,-0.02714073,-0.00524171,0.00625345
 ,0.11678530,0.11853704,0.19195437,-0.00031951,-0.00023512,-0.00003636,
 0.00225095,0.00074571,0.00097871,-0.00025589,-0.00006387,-0.00023459,-
 0.00074553,0.00009484,-0.00013328,-0.00143961,-0.00049524,-0.00065680,
 0.08800225,-0.00021495,0.00087218,-0.00000303,0.00040252,-0.00292588,-
 0.00142970,-0.00036509,0.00049552,0.00055054,-0.00012012,0.00041122,0.
 00019572,0.00057944,0.00109312,0.00071704,0.00098636,0.18012085,-0.000
 11016,0.00021495,0.00058440,0.00062395,-0.00180795,-0.00405096,-0.0008
 0963,0.00030735,0.00160734,-0.00014369,0.00031075,0.00050364,0.0005423
 9,0.00093159,0.00136312,0.00220391,0.16327381,0.37489805,0.00225219,0.
 00072460,-0.00028106,-0.01607732,-0.00112014,-0.00059320,0.00336614,-0
 .00006398,-0.00032041,0.00461179,-0.00099243,0.00013026,0.00510327,0.0
 0105650,0.00096957,-0.08928711,-0.00058607,-0.00123293,0.65015850,0.00
 120826,-0.00481807,0.00121749,-0.00120299,0.01409258,0.00007584,0.0004
 3349,-0.00248511,0.00008198,0.00031758,-0.00176749,-0.00011147,-0.0020
 2147,-0.00452388,-0.00131892,-0.00066589,-0.14375728,-0.09594796,-0.00
 294797,0.64963949,-0.00035901,0.00083616,-0.00212599,-0.00014884,0.000
 88493,0.01288263,0.00225899,-0.00008442,-0.00507529,-0.00016704,-0.000
 22039,-0.00159113,-0.00178776,-0.00149081,-0.00391455,-0.00137938,-0.0
 9623828,-0.25875561,0.00079076,0.00063393,0.65541508,-0.00025093,-0.00
 074739,0.00045721,0.00331589,0.00151514,-0.00175434,-0.00318242,-0.000
 87325,0.00064617,-0.00092205,0.00011461,0.00018282,-0.00218226,-0.0005
 3046,0.00097083,0.01232663,0.00222347,-0.01850229,-0.11465846,0.045040
 52,-0.05416143,0.13385986,-0.00019157,0.00127105,-0.00053286,-0.000242
 11,-0.00335435,0.00127304,-0.00042331,0.00048036,-0.00057368,0.0000154
 9,0.00038639,-0.00012743,0.00047721,0.00099720,-0.00009065,-0.00157111
 ,0.01994241,-0.00247771,0.04544532,-0.16992344,0.09731501,-0.07670556,
 0.22486040,0.00015245,-0.00078862,0.00081761,0.00023423,0.00117737,-0.
 00415744,-0.00087178,-0.00025603,0.00172487,-0.00005289,-0.00008826,0.
 00050508,0.00098610,0.00002069,0.00062723,-0.02472270,0.01684100,-0.08
 243665,-0.05448115,0.09705794,-0.20640687,0.09202511,-0.16515591,0.286
 72514,-0.00076114,-0.00019392,0.00005127,0.00461180,0.00017200,0.00031
 205,-0.00096107,-0.00000127,0.00004471,-0.00136035,0.00032284,-0.00005
 323,-0.00144784,-0.00032681,-0.00031263,-0.01372109,0.02411039,0.03233
 911,-0.27959778,0.06195565,0.04537839,-0.04494143,0.04018873,-0.018508
 81,0.41266180,-0.00000690,0.00067910,-0.00017976,-0.00072454,-0.001856
 27,0.00002058,0.00016451,0.00032294,-0.00005026,0.00022717,0.00016024,
 0.00001184,0.00052294,0.00061047,0.00021398,0.03420433,-0.00790860,-0.
 03185697,0.06170905,-0.10916063,-0.01479129,0.05027525,-0.01492389,0.0
 1307134,-0.10517367,0.12157360,0.00016483,-0.00006266,0.00023059,-0.00
 067686,-0.00009339,-0.00149686,-0.00007026,-0.00000111,0.00057264,0.00
 023013,-0.00003030,0.00018705,0.00040201,0.00021857,0.00047743,0.05003
 761,-0.03513421,-0.02854869,0.04530646,-0.01480675,-0.10029203,-0.0348
 6842,0.02064835,0.00956947,-0.07746106,0.02514609,0.10616448,-0.001147
 66,0.00083322,-0.00020926,0.00500042,-0.00253659,0.00039219,-0.0025288
 9,0.00100715,-0.00047924,-0.00142512,0.00063687,-0.00003599,-0.0016675
 7,0.00114256,0.00013609,0.00318892,-0.02701595,-0.01491064,-0.16587121
 ,-0.10211718,0.00957532,0.01663518,-0.00699310,0.00523945,-0.07448290,
 -0.04119814,0.01693554,0.22229882,-0.00075513,0.00192773,-0.00049114,0
 .00141806,-0.00566176,0.00015539,0.00004362,0.00088536,0.00009725,-0.0
 0044265,0.00077482,0.00000517,0.00108611,0.00109951,0.00018541,-0.0330
 0000,-0.04834354,-0.03294787,-0.10322489,-0.22729616,0.01315518,-0.020
 31234,-0.05973613,0.03812048,-0.02105394,0.01050304,0.00411540,0.17624
 116,0.32584713,0.00013737,-0.00027155,0.00051215,-0.00018584,0.0000530
 7,-0.00278105,-0.00104751,0.00023624,0.00087155,0.00007048,-0.00000352
 ,0.00031744,0.00079984,-0.00010031,0.00069544,-0.02605712,-0.04877289,
 -0.00516464,0.00971170,0.01311793,-0.09013625,0.01500434,0.04972183,-0
 .00696844,0.01821020,0.00841444,0.01313593,-0.01664346,-0.02239524,0.0
 8951786\\0.00005661,-0.00036325,0.00018480,-0.00014469,0.00005257,-0.0
 0012598,-0.00000124,0.00004206,-0.00008371,0.00004342,0.00011985,-0.00
 006849,0.00004921,0.00014150,0.00011100,0.00007586,0.00005016,-0.00004
 552,-0.00031764,-0.00009312,-0.00005657,0.00009160,0.00005976,0.000049
 93,0.00008265,-0.00001011,0.00001726,0.00006423,0.00000057,0.00001727\
 \\@


 Statistics are no substitute for judgment.
                            -- Henry Clay
 File lengths (MBytes):  RWF=     34 Int=      0 D2E=      0 Chk=      2 Scr=      1
 Normal termination of Gaussian 16 at Thu Sep  1 00:25:40 2022.
real 71.27
user 227.36
sys 1.89
