You are running Q-Chem version: 5.3.2

#
# job setting
#
local host:  c141.cluster
current dir: /scratch/user/peterchao1/peterchao1/10001427_1712072031000000125510767
input file:  qchem_test.inp
output file: 
nprocs     : 0
nthreads   : 8
#
# qchem installation setting
#
QC:          /sw/restricted/qchem/sw/5.3.2
QCAUX:       /sw/restricted/qchem/sw/5.3.2/qcaux
QCPROG:      /sw/restricted/qchem/sw/5.3.2/exe/qcprog.exe_s
QCPROG_S:    /sw/restricted/qchem/sw/5.3.2/exe/qcprog.exe_s
PARALLEL:    -DSERIAL
QCMPI:       seq
#
# qchem directory setting
#
qcrun:       qchem96028
QCSCRATCH:   /scratch/user/peterchao1/peterchao1/10001427_1712072031000000125510767
QCLOCALSCR:  
QCTMPDIR:    /scratch/user/peterchao1/peterchao1/10001427_1712072031000000125510767
QCFILEPREF:  /scratch/user/peterchao1/peterchao1/10001427_1712072031000000125510767/qchem96028
QCSAVEDIR:   
workdirs:    /scratch/user/peterchao1/peterchao1/10001427_1712072031000000125510767/qchem96028
workdir0:    /scratch/user/peterchao1/peterchao1/10001427_1712072031000000125510767/qchem96028
partmpdirs =  
#
# parallel setting
#
QCRSH:           ssh
QCMPI:           seq
QCMPIRUN:        
QCMACHINEFILE:   /scratch/user/peterchao1/peterchao1/10001427_1712072031000000125510767/qchem96028/hostfile

#
# env setting
#
exported envs:   QC QCAUX QCSCRATCH QCRUNNAME QCFILEPREF QCPROG QCPROG_S GUIFILE

Running Job 1 of 1 qchem_test.inp
qchem qchem_test.inp_96028.0 /scratch/user/peterchao1/peterchao1/10001427_1712072031000000125510767/qchem96028/ 0
/sw/restricted/qchem/sw/5.3.2/exe/qcprog.exe_s qchem_test.inp_96028.0 /scratch/user/peterchao1/peterchao1/10001427_1712072031000000125510767/qchem96028/
                  Welcome to Q-Chem
     A Quantum Leap Into The Future Of Chemistry


 Q-Chem 5.3, Q-Chem, Inc., Pleasanton, CA (2020)

 License issued to: MRG Daniel Tabor and Mike Hall, Texas A&M University

 Yihan Shao,  Zhengting Gan,  E. Epifanovsky,  A. T. B. Gilbert,  M. Wormit,  
 J. Kussmann,  A. W. Lange,  A. Behn,  Jia Deng,  Xintian Feng,  D. Ghosh,  
 M. Goldey,  P. R. Horn,  L. D. Jacobson,  I. Kaliman,  T. Kus,  A. Landau,  
 Jie Liu,  E. I. Proynov,  R. M. Richard,  R. P. Steele,  E. J. Sundstrom,  
 H. L. Woodcock III,  P. M. Zimmerman,  D. Zuev,  B. Alam,  B. Albrecht,  
 A. Aldossary,  E. Alguire,  S. A. Baeppler,  D. Barton,  Z. Benda,  
 Y. A. Bernard,  E. J. Berquist,  K. B. Bravaya,  H. Burton,  K. Carter-Fenk,  
 D. Casanova,  Chun-Min Chang,  Yunqing Chen,  A. Chien,  K. D. Closser,  
 M. P. Coons,  S. Coriani,  S. Dasgupta,  A. L. Dempwolff,  M. Diedenhofen,  
 Hainam Do,  R. G. Edgar,  Po-Tung Fang,  S. Faraji,  S. Fatehi,  
 Qingguo Feng,  J. Fosso-Tande,  J. Gayvert,  Qinghui Ge,  A. Ghysels,  
 G. Gidofalvi,  J. Gomes,  J. Gonthier,  S. Gulania,  A. Gunina,  D. Hait,  
 M. W. D. Hanson-Heine,  S. Hammes-Schiffer,  P. H. P. Harbach,  
 A. W. Hauser,  M. F. Herbst,  J. E. Herr,  E. G. Hohenstein,  Z. C. Holden,  
 S. Houck,  Kerwin Hui,  B. C. Huynh,  M. Ivanov,  T.-C. Jagau,  Hyunjun Ji,  
 B. Kaduk,  K. Khistyaev,  Jaehoon Kim,  P. Klunzinger,  K. Koh,  
 D. Kosenkov,  L. Koulias,  T. Kowalczyk,  C. M. Krauter,  A. Kunitsa,  
 Ka Un Lao,  A. Laurent,  K. V. Lawler,  Joonho Lee,  D. Lefrancois,  
 S. Lehtola,  D. S. Levine,  Yi-Pei Li,  You-Sheng Lin,  Fenglai Liu,  
 Kuan-Yu Liu,  E. Livshits,  M. Loipersberger,  A. Luenser,  A. Manjanath,  
 P. Manohar,  E. Mansoor,  S. F. Manzer,  Shan-Ping Mao,  Yuezhi Mao,  
 N. Mardirossian,  A. V. Marenich,  T. Markovich,  L. A. Martinez-Martinez,  
 S. A. Maurer,  N. J. Mayhall,  S. C. McKenzie,  J.-M. Mewes,  P. Morgante,  
 A. F. Morrison,  J. W. Mullinax,  K. Nanda,  T. S. Nguyen-Beck,  
 R. Olivares-Amaya,  K. J. Oosterbaan,  J. A. Parkhill,  S. K. Paul,  
 F. Pavosevic,  Zheng Pei,  T. M. Perrine,  F. Plasser,  P. Pokhilko,  
 S. Prager,  A. Prociuk,  E. Ramos,  B. Rana,  D. R. Rehn,  F. Rob,  
 E. Rossomme,  M. Scheurer,  M. Schneider,  N. Sergueev,  S. M. Sharada,  
 S. Sharma,  W. Skomorowski,  D. W. Small,  T. Stauch,  C. J. Stein,  
 T. Stein,  Yu-Chuan Su,  S. P. Veccham,  Zhen Tao,  A. J. W. Thom,  
 A. Tkatchenko,  T. Tsuchimochi,  N. M. Tubman,  L. Vogt,  M. L. Vidal,  
 O. Vydrov,  M. A. Watson,  J. Wenzel,  M. de Wergifosse,  T. A. Wesolowski,  
 A. White,  J. Witte,  A. Yamada,  Jun Yang,  K. Yao,  S. Yeganeh,  
 S. R. Yost,  Zhi-Qiang You,  A. Zech,  Igor Ying Zhang,  Xing Zhang,  
 Yan Zhao,  Ying Zhu,  B. R. Brooks,  G. K. L. Chan,  C. J. Cramer,  
 M. S. Gordon,  W. J. Hehre,  A. Klamt,  M. W. Schmidt,  C. D. Sherrill,  
 D. G. Truhlar,  A. Aspuru-Guzik,  R. Baer,  A. T. Bell,  N. A. Besley,  
 Jeng-Da Chai,  A. E. DePrince, III,  R. A. DiStasio Jr.,  A. Dreuw,  
 B. D. Dunietz,  T. R. Furlani,  Chao-Ping Hsu,  Yousung Jung,  Jing Kong,  
 D. S. Lambrecht,  WanZhen Liang,  C. Ochsenfeld,  V. A. Rassolov,  
 L. V. Slipchenko,  J. E. Subotnik,  T. Van Voorhis,  J. M. Herbert,  
 A. I. Krylov,  P. M. W. Gill,  M. Head-Gordon

 Contributors to earlier versions of Q-Chem not listed above: 
 R. D. Adamson,  B. Austin,  J. Baker,  G. J. O. Beran,  K. Brandhorst,  
 S. T. Brown,  E. F. C. Byrd,  A. K. Chakraborty,  C.-L. Cheng,  
 Siu Hung Chien,  D. M. Chipman,  D. L. Crittenden,  H. Dachsel,  
 R. J. Doerksen,  A. D. Dutoi,  L. Fusti-Molnar,  W. A. Goddard III,  
 A. Golubeva-Zadorozhnaya,  S. R. Gwaltney,  G. Hawkins,  A. Heyden,  
 S. Hirata,  G. Kedziora,  F. J. Keil,  C. Kelley,  Jihan Kim,  R. A. King,  
 R. Z. Khaliullin,  P. P. Korambath,  W. Kurlancheek,  A. M. Lee,  M. S. Lee,  
 S. V. Levchenko,  Ching Yeh Lin,  D. Liotard,  R. C. Lochan,  I. Lotan,  
 P. E. Maslen,  N. Nair,  D. P. O'Neill,  D. Neuhauser,  E. Neuscamman,  
 C. M. Oana,  R. Olson,  B. Peters,  R. Peverati,  P. A. Pieniazek,  
 Y. M. Rhee,  J. Ritchie,  M. A. Rohrdanz,  E. Rosta,  N. J. Russ,  
 H. F. Schaefer III,  N. E. Schultz,  N. Shenvi,  A. C. Simmonett,  A. Sodt,  
 D. Stuck,  K. S. Thanthiriwatte,  V. Vanovschi,  Tao Wang,  A. Warshel,  
 C. F. Williams,  Q. Wu,  X. Xu,  W. Zhang

 Please cite Q-Chem as follows:
 Y. Shao et al., Mol. Phys. 113, 184-215 (2015)
 DOI: 10.1080/00268976.2014.952696

 Q-Chem 5.3.2 for Intel X86 EM64T Linux

 Parts of Q-Chem use Armadillo 9.800.1 (Horizon Scraper).
 http://arma.sourceforge.net/

 Q-Chem begins on Tue Apr  2 10:33:51 2024  

Host: 
0

     Scratch files written to /scratch/user/peterchao1/peterchao1/10001427_1712072031000000125510767/qchem96028//
 Dec820 |scratch|qcdevops|jenkins|workspace|build_RNUM -1
Processing $rem in /sw/restricted/qchem/sw/5.3.2/config/preferences:
Processing $rem in /home/peterchao1/.qchemrc:

 Q-Chem warning in module libgen/rem_setup.C, line 2945:

 Neither GIA nor STOLL is specified by user. Use STOLL as the default


Checking the input file for inconsistencies... 	...done.

--------------------------------------------------------------
User input:
--------------------------------------------------------------
$molecule
0 1
--
0 1
C       -3.553142    0.149419   -1.261297
C       -2.698359    0.000024   -0.000024
C       -3.553174   -0.149320    1.261234
C       -1.726842   -1.185917   -0.118039
O       -1.113572   -1.209649   -1.290051
O       -1.478333   -1.957953    0.780041
C       -1.726775    1.185911    0.118011
O       -1.113485    1.209571    1.290015
O       -1.478243    1.957962   -0.780048
H       -4.186104   -0.743557   -1.395935
H       -2.928129    0.282463   -2.155154
H       -4.209720    1.029443   -1.163879
H       -4.186082    0.743696    1.395862
H       -2.928186   -0.282405    2.155102
H       -4.209807   -1.029301    1.163802
H       -0.343290   -1.826112   -1.258508
H       -0.343187    1.826015    1.258500
--
0 1
C        3.553150    0.148840    1.261354
C        2.698360   -0.000025    0.000023
C        3.553168   -0.148946   -1.261289
C        1.726768   -1.185952    0.117589
O        1.113469   -1.210065    1.289579
O        1.478245   -1.957659   -0.780769
C        1.726850    1.185965   -0.117563
O        1.113588    1.210132   -1.289571
O        1.478328    1.957665    0.780803
H        4.186053   -0.744228    1.395656
H        2.928144    0.281588    2.155260
H        4.209786    1.028857    1.164268
H        4.186137    0.744077   -1.395575
H        2.928174   -0.281649   -2.155210
H        4.209739   -1.029010   -1.164189
H        0.343169   -1.826495    1.257817
H        0.343310    1.826588   -1.257808
$end

$rem
JOBTYPE           eda
EDA2              2
METHOD            wB97x-D
BASIS             def2-SV(P)
SCF_CONVERGENCE   8
THRESH            14
SYMMETRY          false
DISP_FREE_X       wB97X-D
DISP_FREE_C       none
EDA_BSSE          true
$end
--------------------------------------------------------------
 ----------------------------------------------------------------
             Standard Nuclear Orientation (Angstroms)
    I     Atom           X                Y                Z
 ----------------------------------------------------------------
    1      C      -3.5531534457    -0.1491797904     1.2612931805
    2      C      -2.6983590501    -0.0000240123    -0.0000004089
    3      C      -3.5531626546     0.1490807762    -1.2612944337
    4      C      -1.7268431091     1.1859393451     0.1177984381
    5      O      -1.1135836973     1.2098936280     1.2898114564
    6      O      -1.4783259909     1.9578049986    -0.7804257264
    7      C      -1.7267739910    -1.1859333819    -0.1178017117
    8      O      -1.1134734029    -1.2098156686    -1.2897956625
    9      O      -1.4782501090    -1.9578140415     0.7804059461
   10      H      -4.1861166566     0.7438217320     1.3957560962
   11      H      -2.9281485219    -0.2820542602     2.1551810443
   12      H      -4.2097305709    -1.0292222482     1.1640361576
   13      H      -4.1860694437    -0.7439607388    -1.3957587780
   14      H      -2.9281665784     0.2819962384    -2.1551820124
   15      H      -4.2097965295     1.0290802424    -1.1640352665
   16      H      -0.3433014086     1.8263506311     1.2581584964
   17      H      -0.3431756914    -1.8262536837    -1.2581567880
   18      C       3.5531613444    -0.1490792722    -1.2612936835
   19      C       2.6983599501     0.0000249553     0.0000013373
   20      C       3.5531565559     0.1491851717     1.2612927925
   21      C       1.7267690195     1.1859296404    -0.1177983634
   22      O       1.1134806077     1.2098203608    -1.2897984563
   23      O       1.4782379081     1.9578070119     0.7804110118
   24      C       1.7268488806    -1.1859427176     0.1178034954
   25      O       1.1135762922    -1.2098874292     1.2898105174
   26      O       1.4783349920    -1.9578130884    -0.7804183716
   27      H       4.1860655631     0.7439632370    -1.3957593442
   28      H       2.9281634194    -0.2819968069    -2.1551801366
   29      H       4.2097964619    -1.0290778457    -1.1640348473
   30      H       4.1861243373    -0.7438123461     1.3957538809
   31      H       2.9281544808     0.2820577148     2.1551829613
   32      H       4.2097284385     1.0292307368     1.1640318113
   33      H       0.3431803246     1.8262563771    -1.2581603292
   34      H       0.3432985755    -1.8263494390     1.2581574773
 ----------------------------------------------------------------
 Molecular Point Group                 C1    NOp =  1
 Largest Abelian Subgroup              C1    NOp =  1
 Nuclear Repulsion Energy =        1567.83677617 hartrees
 There are       70 alpha and       70 beta electrons
 Requested basis set is def2-SV(P)
 There are 140 shells and 284 basis functions

 Total QAlloc Memory Limit   7500 MB
 Mega-Array Size       188 MB
 MEM_STATIC part       192 MB
 A cutoff of  1.0D-14 yielded   8624 shell pairs
 There are     35040 function pairs (     39294 Cartesian)
 Smallest overlap matrix eigenvalue = 1.15E-03

 Scale SEOQF with 1.000000e-01/1.000000e-01/1.000000e-01

 Standard Electronic Orientation quadrupole field applied
 Nucleus-field energy     =     0.0000000267 hartrees

 -----------------------------------------------------------------------
  General SCF calculation program by
  Eric Jon Sundstrom, Paul Horn, Yuezhi Mao, Dmitri Zuev, Alec White,
  David Stuck, Shaama M.S., Shane Yost, Joonho Lee, David Small,
  Daniel Levine, Susi Lehtola, Hugh Burton, Evgeny Epifanovsky,
  Bang C. Huynh
 -----------------------------------------------------------------------
================================================================
                 ALMO-EDA with the EDA2 driver                  
================================================================
 The second-generation ALMO-EDA (for DFT):                      
 P. R. Horn, Y. Mao and M. Head-Gordon, PCCP, 18, 23067 (2016)  
 Decomposition of the frozen energy:                            
 P. R. Horn, Y. Mao and M. Head-Gordon, JCP, 144, 114107 (2016) 
Using eda2 option set 2
Option set summary: Frozen orbital wavefunction, initial wavefunction decomposition, and traditional AO-based POL.
--------------------------------
Printing EDA Options
--------------------------------
eda_child_super_basis      0
fragmo_guess_mode          0
child_mp                   0
child_mp_orders            0
cls_elec                   1
cls_disp                   0
scfmi_mode                 1
scfmi_occs                 0
scfmi_virts                0
frz_relax                  0
frz_relax_method           0
dc_pen_start               0
dc_pen_conv                0
dc_pen_increment           0
dc_pen_steps               0
dc_pen_thresh_factor       0
dc_pen_pre_newton_thresh   0
frz_ortho_decomp           1
frz_ortho_decomp_conv      6
plot_mo_ortho_frz          0
frgm_method                2
scfmi_freeze_ss            0
separate_rehyb             0
plot_diff_den              0
eda_nocv                   0
eda_vct_relax              1
disp_free_x                -110
disp_free_c                0
eda_bsse                   1
eda_pct_a                  0
eda_covp                   0
--------------------------------
Attempting to make child job directory: /scratch/user/peterchao1/peterchao1/10001427_1712072031000000125510767/qchem96028//Frg1/
Attempting to make child job directory: /scratch/user/peterchao1/peterchao1/10001427_1712072031000000125510767/qchem96028//Frg2/
Creating input file /scratch/user/peterchao1/peterchao1/10001427_1712072031000000125510767/qchem96028/Frg1.input
using default PutDataFrgm: nothing
calling putenv with: QCSCRATCH=/scratch/user/peterchao1/peterchao1/10001427_1712072031000000125510767/qchem96028/ 
Spawning Job For Fragment 0
Done Job For Fragment 0
calling putenv with: QCSCRATCH=/scratch/user/peterchao1/peterchao1/10001427_1712072031000000125510767 
calling putenv with: QCTHREADS=8 
Creating input file /scratch/user/peterchao1/peterchao1/10001427_1712072031000000125510767/qchem96028/Frg2.input
using default PutDataFrgm: nothing
calling putenv with: QCSCRATCH=/scratch/user/peterchao1/peterchao1/10001427_1712072031000000125510767/qchem96028/ 
Spawning Job For Fragment 1
Done Job For Fragment 1
calling putenv with: QCSCRATCH=/scratch/user/peterchao1/peterchao1/10001427_1712072031000000125510767 
calling putenv with: QCTHREADS=8 
Doing General SCFMI
 Exchange:     0.2220 Hartree-Fock + 1.0000 wB97X-D + LR-HF
 Correlation:  1.0000 wB97X-D
 Using SG-2 standard quadrature grid
 Dispersion:   Grimme D
performing fock build before subrot guess so that all methods have access
Printing subrot_rss_gen Method Specification:
Occupied Subspace Method is 0
Virtual Subspace Method is 0
Energy of the unrelaxed supersystem initial determinant -991.460502627290
write pseudocanon occs and virts to disk
write pseudocanon orbital energies to disk
Tolerance of ortho_decomp_scf: 1.00e-06
GDM subspace size: 20
Beginning the Orthogonal Decomposition of the Initial Supersystem Wavefunction
    1    -991.3248491855      5.27e-02     ortho_decomp Preconditoned Steepest Descent
    2    -991.3357255011      8.02e-04     ortho_decomp BFGS Step
    3    -991.3357394284      5.29e-05     ortho_decomp BFGS Step
    4    -991.3357394590      1.88e-06     ortho_decomp BFGS Step
    5    -991.3357394591      5.65e-08     ortho_decomp 00000 Convergence criterion met
 Exchange:     0.2220 Hartree-Fock + 1.0000 wB97X-D + LR-HF
 Correlation:  1.0000 wB97X-D
 Using SG-2 standard quadrature grid
 Dispersion:   Grimme D
 Long-range K will be added via erf
 Coulomb attenuation parameter = 0.2 bohr**(-1)
 Exchange:     0.2220 Hartree-Fock + 1.0000 wB97X-D + LR-HF
 Correlation:  1.0000 wB97X-D
 Using SG-2 standard quadrature grid
 Dispersion:   Grimme D
 Long-range K will be added via erf
 Coulomb attenuation parameter = 0.2 bohr**(-1)
 Exchange:     0.2220 Hartree-Fock + 1.0000 wB97X-D + LR-HF
 Correlation:  1.0000 wB97X-D
 Using SG-2 standard quadrature grid
 Dispersion:   Grimme D
 Long-range K will be added via erf
 Coulomb attenuation parameter = 0.2 bohr**(-1)
Doing General SCFMI
 Exchange:     0.2220 Hartree-Fock + 1.0000 wB97X-D + LR-HF
 Correlation:  1.0000 wB97X-D
 Using SG-2 standard quadrature grid
 Dispersion:   Grimme D
performing fock build at end of subrot_r(subrot) constructor so that all methods have access
<S^2> of initial wavefunction before polarization iterations 0.0000000000
Beginning iterations for the determination of the polarized wavefunction
Energy prior to optimization (guess energy) = -991.460502627289
Begin Timing: Total SCF Calculation
begin iterations for algorithm: DIIS         
the SCF tolerance is set to 1.00e-08
    1    -991.4605026273      4.55e-04     00000 
    2    -991.4682006977      2.65e-04     00000 
    3    -991.4689564670      1.84e-04     00000 
    4    -991.4695672385      4.98e-05     00000 
    5    -991.4696242594      1.21e-05     00000 
    6    -991.4696291727      6.41e-06     00000 
    7    -991.4696300481      1.71e-06     00000 
    8    -991.4696301063      4.02e-07     00000 
    9    -991.4696301125      1.35e-07     00000 
   10    -991.4696301134      3.84e-08     00000 
   11    -991.4696301135      1.62e-08     00000 
   12    -991.4696301135      3.74e-09     00000 Convergence criterion met
write pseudocanon occs and virts to disk
write pseudocanon orbital energies to disk
Timing for Total SCF: 123.00s (wall), 334.37s (cpu)
<S^2> of polarized wavefunction after polarization iterations 0.0000000000
relaxing scfmi constraint to allow all rotations in the entire AO span
Doing General SCFMI
 Exchange:     0.2220 Hartree-Fock + 1.0000 wB97X-D + LR-HF
 Correlation:  1.0000 wB97X-D
 Using SG-2 standard quadrature grid
 Dispersion:   Grimme D
performing fock build at end of subrot_r(subrot) constructor so that all methods have access
<S^2> of polarized wavefunction before ct-allowed iterations 0.0000000000
Beginning iterations for the determination of the CT-Allowed wavefunction
Energy prior to optimization (guess energy) = -991.469630113501
Begin Timing: Total SCF Calculation
begin iterations for algorithm: DIIS         
the SCF tolerance is set to 1.00e-08
    1    -991.4696301135      6.09e-04     00000 
    2    -991.4971924381      1.24e-04     00000 
    3    -991.4986651506      7.74e-05     00000 
    4    -991.4988326708      3.40e-05     00000 
    5    -991.4988789114      9.11e-06     00000 
    6    -991.4988827088      1.69e-06     00000 
    7    -991.4988829370      6.68e-07     00000 
    8    -991.4988829675      2.27e-07     00000 
    9    -991.4988829712      1.01e-07     00000 
   10    -991.4988829721      3.36e-08     00000 
   11    -991.4988829722      9.51e-09     00000 Convergence criterion met
write pseudocanon occs and virts to disk
write pseudocanon orbital energies to disk
Timing for Total SCF: 114.00s (wall), 311.11s (cpu)
<S^2> of ct_allowed wavefunction after ct-allowed iterations 0.0000000000
Attempting to make child job directory: /scratch/user/peterchao1/peterchao1/10001427_1712072031000000125510767/qchem96028//FrgBSSE1/
Attempting to make child job directory: /scratch/user/peterchao1/peterchao1/10001427_1712072031000000125510767/qchem96028//FrgBSSE2/
Creating input file /scratch/user/peterchao1/peterchao1/10001427_1712072031000000125510767/qchem96028/FrgBSSE1.input
calling putenv with: QCSCRATCH=/scratch/user/peterchao1/peterchao1/10001427_1712072031000000125510767/qchem96028/ 
Spawning Job For Fragment 0
Done Job For Fragment 0
calling putenv with: QCSCRATCH=/scratch/user/peterchao1/peterchao1/10001427_1712072031000000125510767 
calling putenv with: QCTHREADS=8 
Creating input file /scratch/user/peterchao1/peterchao1/10001427_1712072031000000125510767/qchem96028/FrgBSSE2.input
calling putenv with: QCSCRATCH=/scratch/user/peterchao1/peterchao1/10001427_1712072031000000125510767/qchem96028/ 
Spawning Job For Fragment 1
Done Job For Fragment 1
calling putenv with: QCSCRATCH=/scratch/user/peterchao1/peterchao1/10001427_1712072031000000125510767 
calling putenv with: QCTHREADS=8 
====================================================================
   Evaluating the BSSE with fragment SCF in the supersystem basis
   Fragment contributions (kJ/mol) 
   Frgm 1: 16.2215
   Frgm 2: 16.2215
   BSSE (kJ/mol) = 32.4430
====================================================================

================================
        Results of EDA2         
================================
Basic EDA Quantities
--------------------
Fragment Energies (Ha):
1 -495.7254562550
2 -495.7254562547
--------------------
  E_prp (kJ/mol) = 0.0000
  E_frz (kJ/mol) = -25.1792
  E_pol (kJ/mol) = -23.9645
  E_vct (kJ/mol) = -44.3613 (CP-corrected)
  E_int (kJ/mol) = -93.5049 (CP-corrected)
--------------------


Decomposition of frozen interaction energy
--------------------
  --------------------
  Orthogonal Frozen Decomposition:
  --------------------
     E_elec   (ELEC)   (kJ/mol) = -234.8838
     E_pauli  (PAULI)  (kJ/mol) = 232.0572
     E_disp   (DISP)   (kJ/mol) = -22.3526
  --------------------
  Classical Frozen Decomposition:
  --------------------
     E_cls_elec  (CLS ELEC)  (kJ/mol) = -124.0232
     E_mod_pauli (MOD PAULI) (kJ/mol) = 121.1967 (FRZ - CLS ELEC - DISP)
     E_disp      (DISP)      (kJ/mol) = -22.3526
  --------------------
--------------------

Simplified EDA Summary (kJ/mol)
--------------------
 PREPARATION      0.0000
 FROZEN           -25.1792 (ELEC + PAULI + DISP)
[ELEC + PAULI = -2.8265, DISP = -22.3526]
 POLARIZATION    -23.9645
 CHARGE TRANSFER -44.3613     (counterpoise-corrected)
 TOTAL           -93.5049     (PRP + FRZ + POL + CT)
--------------------
 
 --------------------------------------------------------------
 
                    Orbital Energies (a.u.)
 --------------------------------------------------------------
 
 Alpha MOs
 -- Occupied --
-19.3159 -19.3159 -19.3158 -19.3158 -19.2710 -19.2709 -19.2709 -19.2709
-10.4569 -10.4569 -10.4569 -10.4568 -10.3501 -10.3501 -10.2994 -10.2994
-10.2994 -10.2993  -1.2360  -1.2259  -1.2247  -1.2156  -1.1363  -1.1323
 -1.1259  -1.1226  -0.9389  -0.9356  -0.7967  -0.7966  -0.7881  -0.7833
 -0.7615  -0.7451  -0.6823  -0.6816  -0.6408  -0.6294  -0.6045  -0.6044
 -0.6013  -0.5935  -0.5913  -0.5827  -0.5653  -0.5475  -0.5465  -0.5387
 -0.5276  -0.5118  -0.5110  -0.5034  -0.4988  -0.4969  -0.4871  -0.4865
 -0.4658  -0.4631  -0.4622  -0.4596  -0.4459  -0.4428  -0.4414  -0.4276
 -0.4214  -0.4179  -0.3949  -0.3907  -0.3822  -0.3696
 -- Virtual --
  0.0228   0.0377   0.0928   0.0935   0.1311   0.1460   0.1680   0.1731
  0.1750   0.1815   0.1972   0.2020   0.2027   0.2080   0.2136   0.2264
  0.2378   0.2408   0.2409   0.2438   0.2465   0.2695   0.2832   0.2879
  0.2954   0.3009   0.3190   0.3285   0.3497   0.3630   0.3961   0.4021
  0.4124   0.4201   0.4226   0.4359   0.4790   0.4801   0.4953   0.4960
  0.4978   0.5327   0.5379   0.5423   0.5857   0.5936   0.6009   0.6018
  0.6205   0.6347   0.6448   0.6614   0.6777   0.6927   0.6934   0.6950
  0.6952   0.7051   0.7076   0.7082   0.7135   0.7418   0.7501   0.7531
  0.7559   0.7570   0.7626   0.7671   0.7705   0.7862   0.7950   0.7981
  0.7996   0.8101   0.8107   0.8115   0.8182   0.8352   0.8528   0.8571
  0.8774   0.8823   0.8867   0.9148   0.9325   0.9525   0.9642   0.9748
  0.9809   0.9949   1.0161   1.0353   1.0520   1.0817   1.1129   1.1428
  1.1476   1.1489   1.1599   1.1729   1.1765   1.1851   1.1901   1.2315
  1.2758   1.2768   1.2793   1.2830   1.3107   1.3289   1.3515   1.3598
  1.4002   1.4095   1.4225   1.4426   1.4711   1.4971   1.4987   1.5269
  1.5751   1.6166   1.6314   1.6471   1.6498   1.6639   1.6666   1.7178
  1.7185   1.7196   1.7824   1.8218   1.8418   1.8583   1.8711   1.8768
  1.8875   1.8941   1.9396   1.9407   1.9662   1.9701   1.9821   1.9869
  2.0620   2.0667   2.0725   2.0955   2.1069   2.1151   2.1332   2.1436
  2.1612   2.1763   2.1986   2.1998   2.2348   2.2386   2.2392   2.2568
  2.2612   2.2954   2.3693   2.3904   2.4867   2.4884   2.5065   2.5115
  2.6155   2.6219   2.6296   2.6431   2.6432   2.6488   2.6582   2.6705
  2.6713   2.6795   2.7247   2.7252   2.7276   2.7350   2.7559   2.7561
  2.7774   2.7943   2.9285   2.9483   2.9571   2.9688   2.9911   3.0207
  3.0255   3.0298   3.1331   3.1468   3.1545   3.1715   3.2592   3.2611
  3.2632   3.2660   3.3752   3.3856   3.3886   3.3898   3.6601   3.6628
  3.6690   3.6696   3.7071   3.7206   3.7282   3.7534
 --------------------------------------------------------------
 
          Ground-State Mulliken Net Atomic Charges

     Atom                 Charge (a.u.)
  ----------------------------------------
      1 C                    -0.244327
      2 C                    -0.352332
      3 C                    -0.244329
      4 C                     0.260658
      5 O                    -0.360714
      6 O                    -0.264144
      7 C                     0.260657
      8 O                    -0.360717
      9 O                    -0.264139
     10 H                     0.126536
     11 H                     0.157572
     12 H                     0.132302
     13 H                     0.126536
     14 H                     0.157573
     15 H                     0.132302
     16 H                     0.368283
     17 H                     0.368284
     18 C                    -0.244328
     19 C                    -0.352332
     20 C                    -0.244327
     21 C                     0.260659
     22 O                    -0.360717
     23 O                    -0.264141
     24 C                     0.260658
     25 O                    -0.360715
     26 O                    -0.264144
     27 H                     0.126536
     28 H                     0.157573
     29 H                     0.132302
     30 H                     0.126536
     31 H                     0.157572
     32 H                     0.132302
     33 H                     0.368284
     34 H                     0.368283
  ----------------------------------------
  Sum of atomic charges =     0.000000

 -----------------------------------------------------------------
                    Cartesian Multipole Moments
 -----------------------------------------------------------------
    Charge (ESU x 10^10)
                 0.0000
    Dipole Moment (Debye)
         X       0.0000      Y       0.0000      Z       0.0000
       Tot       0.0000
    Quadrupole Moments (Debye-Ang)
        XX     -91.3371     XY       0.0003     YY    -111.0457
        XZ       0.0001     YZ      -0.0000     ZZ    -110.0940
    Octopole Moments (Debye-Ang^2)
       XXX       0.0002    XXY       0.0001    XYY       0.0000
       YYY       0.0003    XXZ       0.0001    XYZ     -14.0717
       YYZ       0.0009    XZZ       0.0000    YZZ      -0.0001
       ZZZ      -0.0001
    Hexadecapole Moments (Debye-Ang^3)
      XXXX   -3424.0956   XXXY      -0.0009   XXYY    -787.8168
      XYYY      -0.0011   YYYY   -1060.2169   XXXZ       0.0005
      XXYZ       0.0000   XYYZ       0.0003   YYYZ      -0.0001
      XXZZ    -747.2765   XYZZ       0.0001   YYZZ    -294.5925
      XZZZ       0.0000   YZZZ      -0.0000   ZZZZ    -743.5514
 -----------------------------------------------------------------
Archival summary:
1\1\c141.cluster\SP\ProcedureUnspecified\BasisUnspecified\81016\petercha\TueApr210:45:522024TueApr210:45:522024\0\\#,ProcedureUnspecified,BasisUnspecified,\\0,1\O\H,1,0.987094\C,1,1.32298,2,110.16\O,3,1.2101,1,123.424,2,-9.71959,0\C,3,1.53761,1,112.007,2,165.643,0\C,5,1.53094,3,109.925,1,170.316,0\H,6,1.09878,5,111.372,3,54.0036,0\H,6,1.10228,5,109.735,3,-65.9086,0\H,6,1.1028,5,110,3,174.939,0\C,5,1.53094,3,111.396,1,45.4169,0\H,10,1.09878,5,111.372,3,-57.8499,0\H,10,1.10228,5,109.735,3,-177.762,0\H,10,1.1028,5,110,3,63.0857,0\C,5,1.5376,3,101.625,1,-71.6018,0\O,14,1.2101,5,124.393,3,103.705,0\O,14,1.32298,5,112.007,3,-71.6046,0\H,16,0.987095,14,110.159,5,165.641,0\H,15,1.8877,14,109.973,5,-116.298,0\O,18,0.987095,15,143.575,14,28.7806,0\C,19,1.32298,18,110.16,15,-84.5505,0\O,20,1.2101,19,123.424,18,-9.72003,0\C,20,1.53761,19,112.007,18,165.644,0\C,22,1.53094,20,109.925,19,170.315,0\H,23,1.09878,22,111.372,20,54.0036,0\H,23,1.10228,22,109.735,20,-65.9086,0\H,23,1.1028,22,110,20,174.939,0\C,22,1.53094,20,111.396,19,45.4159,0\H,27,1.09878,22,111.372,20,-57.8497,0\H,27,1.10228,22,109.735,20,-177.762,0\H,27,1.1028,22,110,20,63.0858,0\C,22,1.53761,20,101.625,19,-71.6028,0\O,31,1.2101,22,124.393,20,103.705,0\O,31,1.32298,22,112.007,20,-71.6036,0\H,33,0.987094,31,110.159,22,165.641,0\\\@

 Total job time:  720.41s(wall), 1266.57s(cpu) 
 Tue Apr  2 10:45:52 2024

        *************************************************************
        *                                                           *
        *  Thank you very much for using Q-Chem.  Have a nice day.  *
        *                                                           *
        *************************************************************


remove work dirs /scratch/user/peterchao1/peterchao1/10001427_1712072031000000125510767/qchem96028.0 -- /scratch/user/peterchao1/peterchao1/10001427_1712072031000000125510767/qchem96028.-1
rm -rf /scratch/user/peterchao1/peterchao1/10001427_1712072031000000125510767/qchem96028
real 721.26
user 1845.64
sys 145.10
