 Entering Gaussian System, Link 0=g16
 Input=gaussian_test.inp
 Output=gaussian_test.log
 Initial command:
 /sw/restricted/lms/sw/Gaussian/g16_B01/g16/l1.exe "/scratch/user/peterchao1/peterchao1/9982568_1711744467000000612169570/Gau-113417.inp" -scrdir="/scratch/user/peterchao1/peterchao1/9982568_1711744467000000612169570/"
 Entering Link 1 = /sw/restricted/lms/sw/Gaussian/g16_B01/g16/l1.exe PID=    113427.
  
 Copyright (c) 1988-2017, Gaussian, Inc.  All Rights Reserved.
  
 This is part of the Gaussian(R) 16 program.  It is based on
 the Gaussian(R) 09 system (copyright 2009, Gaussian, Inc.),
 the Gaussian(R) 03 system (copyright 2003, Gaussian, Inc.),
 the Gaussian(R) 98 system (copyright 1998, Gaussian, Inc.),
 the Gaussian(R) 94 system (copyright 1995, Gaussian, Inc.),
 the Gaussian 92(TM) system (copyright 1992, Gaussian, Inc.),
 the Gaussian 90(TM) system (copyright 1990, Gaussian, Inc.),
 the Gaussian 88(TM) system (copyright 1988, Gaussian, Inc.),
 the Gaussian 86(TM) system (copyright 1986, Carnegie Mellon
 University), and the Gaussian 82(TM) system (copyright 1983,
 Carnegie Mellon University). Gaussian is a federally registered
 trademark of Gaussian, Inc.
  
 This software contains proprietary and confidential information,
 including trade secrets, belonging to Gaussian, Inc.
  
 This software is provided under written license and may be
 used, copied, transmitted, or stored only in accord with that
 written license.
  
 The following legend is applicable only to US Government
 contracts under FAR:
  
                    RESTRICTED RIGHTS LEGEND
  
 Use, reproduction and disclosure by the US Government is
 subject to restrictions as set forth in subparagraphs (a)
 and (c) of the Commercial Computer Software - Restricted
 Rights clause in FAR 52.227-19.
  
 Gaussian, Inc.
 340 Quinnipiac St., Bldg. 40, Wallingford CT 06492
  
  
 ---------------------------------------------------------------
 Warning -- This program may not be used in any manner that
 competes with the business of Gaussian, Inc. or will provide
 assistance to any competitor of Gaussian, Inc.  The licensee
 of this program is prohibited from giving any competitor of
 Gaussian, Inc. access to this program.  By using this program,
 the user acknowledges that Gaussian, Inc. is engaged in the
 business of creating and licensing software in the field of
 computational chemistry and represents and warrants to the
 licensee that it is not a competitor of Gaussian, Inc. and that
 it will not use this program in any manner prohibited above.
 ---------------------------------------------------------------
  

 Cite this work as:
 Gaussian 16, Revision B.01,
 M. J. Frisch, G. W. Trucks, H. B. Schlegel, G. E. Scuseria, 
 M. A. Robb, J. R. Cheeseman, G. Scalmani, V. Barone, 
 G. A. Petersson, H. Nakatsuji, X. Li, M. Caricato, A. V. Marenich, 
 J. Bloino, B. G. Janesko, R. Gomperts, B. Mennucci, H. P. Hratchian, 
 J. V. Ortiz, A. F. Izmaylov, J. L. Sonnenberg, D. Williams-Young, 
 F. Ding, F. Lipparini, F. Egidi, J. Goings, B. Peng, A. Petrone, 
 T. Henderson, D. Ranasinghe, V. G. Zakrzewski, J. Gao, N. Rega, 
 G. Zheng, W. Liang, M. Hada, M. Ehara, K. Toyota, R. Fukuda, 
 J. Hasegawa, M. Ishida, T. Nakajima, Y. Honda, O. Kitao, H. Nakai, 
 T. Vreven, K. Throssell, J. A. Montgomery, Jr., J. E. Peralta, 
 F. Ogliaro, M. J. Bearpark, J. J. Heyd, E. N. Brothers, K. N. Kudin, 
 V. N. Staroverov, T. A. Keith, R. Kobayashi, J. Normand, 
 K. Raghavachari, A. P. Rendell, J. C. Burant, S. S. Iyengar, 
 J. Tomasi, M. Cossi, J. M. Millam, M. Klene, C. Adamo, R. Cammi, 
 J. W. Ochterski, R. L. Martin, K. Morokuma, O. Farkas, 
 J. B. Foresman, and D. J. Fox, Gaussian, Inc., Wallingford CT, 2016.
 
 ******************************************
 Gaussian 16:  ES64L-G16RevB.01 20-Dec-2017
                29-Mar-2024 
 ******************************************
 %nprocshared=4
 Will use up to    4 processors via shared memory.
 %mem=8000mb
 %chk=monomer.chk
 %nprocshared=4
 Will use up to    4 processors via shared memory.
 %mem=8000mb
 ----------------------------------------------------------------------
 #T wB97XD/def2svpp opt=tight freq int(grid=ultrafine) scf=(verytight,q
 c) Volume=tight
 ----------------------------------------------------------------------
 -------
 Monomer
 -------
 Symbolic Z-matrix:
 Charge =  0 Multiplicity = 1
 C                    -1.80439   0.71101  -0.02787 
 C                    -0.50195  -0.0026    0.34154 
 N                    -0.43014  -1.38552  -0.11914 
 C                     0.71538   0.72357  -0.24586 
 O                     1.91      0.08133   0.10911 
 H                    -1.91653   0.75515  -1.11034 
 H                    -1.80502   1.72576   0.36048 
 H                    -2.65917   0.18075   0.38844 
 H                    -0.39348  -0.02766   1.43213 
 H                    -1.13803  -1.95185   0.33415 
 H                    -0.59831  -1.42459  -1.12059 
 H                     0.77599   1.74551   0.13428 
 H                     0.61467   0.76403  -1.34308 
 H                     1.73758  -0.8685    0.04001 
 

 GradGradGradGradGradGradGradGradGradGradGradGradGradGradGradGradGradGrad
 Initialization pass.
                           ----------------------------
                           !    Initial Parameters    !
                           ! (Angstroms and Degrees)  !
 --------------------------                            --------------------------
 ! Name  Definition              Value          Derivative Info.                !
 --------------------------------------------------------------------------------
 ! R1    R(1,2)                  1.5304         estimate D2E/DX2                !
 ! R2    R(1,6)                  1.0892         estimate D2E/DX2                !
 ! R3    R(1,7)                  1.0865         estimate D2E/DX2                !
 ! R4    R(1,8)                  1.0886         estimate D2E/DX2                !
 ! R5    R(2,3)                  1.4594         estimate D2E/DX2                !
 ! R6    R(2,4)                  1.5344         estimate D2E/DX2                !
 ! R7    R(2,9)                  1.0963         estimate D2E/DX2                !
 ! R8    R(3,10)                 1.0136         estimate D2E/DX2                !
 ! R9    R(3,11)                 1.0162         estimate D2E/DX2                !
 ! R10   R(4,5)                  1.402          estimate D2E/DX2                !
 ! R11   R(4,12)                 1.092          estimate D2E/DX2                !
 ! R12   R(4,13)                 1.1026         estimate D2E/DX2                !
 ! R13   R(5,14)                 0.9678         estimate D2E/DX2                !
 ! A1    A(2,1,6)              110.2687         estimate D2E/DX2                !
 ! A2    A(2,1,7)              110.4693         estimate D2E/DX2                !
 ! A3    A(2,1,8)              110.4138         estimate D2E/DX2                !
 ! A4    A(6,1,7)              108.5013         estimate D2E/DX2                !
 ! A5    A(6,1,8)              108.6            estimate D2E/DX2                !
 ! A6    A(7,1,8)              108.5286         estimate D2E/DX2                !
 ! A7    A(1,2,3)              114.0503         estimate D2E/DX2                !
 ! A8    A(1,2,4)              111.2305         estimate D2E/DX2                !
 ! A9    A(1,2,9)              109.5732         estimate D2E/DX2                !
 ! A10   A(3,2,4)              106.7733         estimate D2E/DX2                !
 ! A11   A(3,2,9)              106.7079         estimate D2E/DX2                !
 ! A12   A(4,2,9)              108.2504         estimate D2E/DX2                !
 ! A13   A(2,3,10)             110.7282         estimate D2E/DX2                !
 ! A14   A(2,3,11)             109.8383         estimate D2E/DX2                !
 ! A15   A(10,3,11)            107.6779         estimate D2E/DX2                !
 ! A16   A(2,4,5)              111.2415         estimate D2E/DX2                !
 ! A17   A(2,4,12)             110.7116         estimate D2E/DX2                !
 ! A18   A(2,4,13)             109.0181         estimate D2E/DX2                !
 ! A19   A(5,4,12)             107.0531         estimate D2E/DX2                !
 ! A20   A(5,4,13)             110.2793         estimate D2E/DX2                !
 ! A21   A(12,4,13)            108.4905         estimate D2E/DX2                !
 ! A22   A(4,5,14)             106.2422         estimate D2E/DX2                !
 ! D1    D(6,1,2,3)            -61.2953         estimate D2E/DX2                !
 ! D2    D(6,1,2,4)             59.5288         estimate D2E/DX2                !
 ! D3    D(6,1,2,9)            179.1793         estimate D2E/DX2                !
 ! D4    D(7,1,2,3)            178.7763         estimate D2E/DX2                !
 ! D5    D(7,1,2,4)            -60.3996         estimate D2E/DX2                !
 ! D6    D(7,1,2,9)             59.2509         estimate D2E/DX2                !
 ! D7    D(8,1,2,3)             58.7203         estimate D2E/DX2                !
 ! D8    D(8,1,2,4)            179.5444         estimate D2E/DX2                !
 ! D9    D(8,1,2,9)            -60.8051         estimate D2E/DX2                !
 ! D10   D(1,2,3,10)           -64.3178         estimate D2E/DX2                !
 ! D11   D(1,2,3,11)            54.4783         estimate D2E/DX2                !
 ! D12   D(4,2,3,10)           172.4056         estimate D2E/DX2                !
 ! D13   D(4,2,3,11)           -68.7982         estimate D2E/DX2                !
 ! D14   D(9,2,3,10)            56.8125         estimate D2E/DX2                !
 ! D15   D(9,2,3,11)           175.6087         estimate D2E/DX2                !
 ! D16   D(1,2,4,5)            179.1143         estimate D2E/DX2                !
 ! D17   D(1,2,4,12)            60.2103         estimate D2E/DX2                !
 ! D18   D(1,2,4,13)           -59.0618         estimate D2E/DX2                !
 ! D19   D(3,2,4,5)            -55.8747         estimate D2E/DX2                !
 ! D20   D(3,2,4,12)          -174.7786         estimate D2E/DX2                !
 ! D21   D(3,2,4,13)            65.9492         estimate D2E/DX2                !
 ! D22   D(9,2,4,5)             58.6802         estimate D2E/DX2                !
 ! D23   D(9,2,4,12)           -60.2238         estimate D2E/DX2                !
 ! D24   D(9,2,4,13)          -179.496          estimate D2E/DX2                !
 ! D25   D(2,4,5,14)            40.5637         estimate D2E/DX2                !
 ! D26   D(12,4,5,14)          161.6365         estimate D2E/DX2                !
 ! D27   D(13,4,5,14)          -80.5241         estimate D2E/DX2                !
 --------------------------------------------------------------------------------
 Number of steps in this run=     72 maximum allowed number of steps=    100.
 GradGradGradGradGradGradGradGradGradGradGradGradGradGradGradGradGradGrad

                    Distance matrix (angstroms):
                    1          2          3          4          5
     1  C    0.000000
     2  C    1.530377   0.000000
     3  N    2.508452   1.459402   0.000000
     4  C    2.529218   1.534361   2.403445   0.000000
     5  O    3.769877   2.424578   2.771283   1.401993   0.000000
     6  H    1.089155   2.164061   2.788239   2.770432   4.072274
     7  H    1.086526   2.164618   3.435170   2.779291   4.070468
     8  H    1.088644   2.165506   2.771171   3.476294   4.578782
     9  H    2.160537   1.096257   2.061926   2.146994   2.658625
    10  H    2.768739   2.050420   1.013556   3.305964   3.670820
    11  H    2.685051   2.041862   1.016230   2.665625   3.173575
    12  H    2.784760   2.175314   3.364869   1.092037   2.013976
    13  H    2.753991   2.161600   2.685186   1.102578   2.062233
    14  H    3.878795   2.419965   2.234203   1.913453   0.967824
                    6          7          8          9         10
     6  H    0.000000
     7  H    1.765741   0.000000
     8  H    1.768554   1.765628   0.000000
     9  H    3.065391   2.493067   2.503216   0.000000
    10  H    3.165505   3.737698   2.620072   2.337175   0.000000
    11  H    2.547368   3.684357   3.016863   2.917150   1.638772
    12  H    3.127235   2.590982   3.783315   2.489225   4.168200
    13  H    2.541897   3.111587   3.749192   3.056952   3.641569
    14  H    4.160776   4.402606   4.533628   2.680756   3.086955
                   11         12         13         14
    11  H    0.000000
    12  H    3.676002   0.000000
    13  H    2.512145   1.780996   0.000000
    14  H    2.666946   2.786863   2.416401   0.000000
 Framework group  C1[X(C3H9NO)]
 Deg. of freedom    36
                         Standard orientation:                         
 ---------------------------------------------------------------------
 Center     Atomic      Atomic             Coordinates (Angstroms)
 Number     Number       Type             X           Y           Z
 ---------------------------------------------------------------------
      1          6           0       -1.754151   -0.666884    0.023538
      2          6           0       -0.439708    0.022032   -0.350207
      3          7           0       -0.339471    1.402707    0.111904
      4          6           0        0.765766   -0.728191    0.231396
      5          8           0        1.971091   -0.108574   -0.127563
      6          1           0       -1.862799   -0.710287    1.106391
      7          1           0       -1.775848   -1.680920   -0.366074
      8          1           0       -2.600226   -0.119724   -0.388675
      9          1           0       -0.335125    0.046455   -1.441191
     10          1           0       -1.038132    1.983144   -0.337830
     11          1           0       -0.502856    1.443681    1.114076
     12          1           0        0.805190   -1.750604   -0.150260
     13          1           0        0.668673   -0.768154    1.328963
     14          1           0        1.817255    0.844306   -0.056579
 ---------------------------------------------------------------------
 Rotational constants (GHZ):           8.0754375           3.6496520           2.7708507
    88 basis functions,   161 primitive gaussians,    93 cartesian basis functions
    21 alpha electrons       21 beta electrons
       nuclear repulsion energy       195.8775213073 Hartrees.
 NAtoms=   14 NActive=   14 NUniq=   14 SFac= 1.00D+00 NAtFMM=   60 NAOKFM=F Big=F
 Nuclear repulsion after empirical dispersion term =      195.8706849642 Hartrees.
   1 Symmetry operations used in ECPInt.
 ECPInt:  NShTT=    1176 NPrTT=    4748 LenC2=    1175 LenP2D=    4026.
 LDataN:  DoStor=T MaxTD1= 4 Len=   56
 ExpMin= 1.22D-01 ExpMax= 2.27D+03 ExpMxC= 3.41D+02 IAcc=3 IRadAn=         5 AccDes= 0.00D+00
 Harris functional with IExCor= 4639 and IRadAn=       5 diagonalized for initial guess.
 HarFok:  IExCor= 4639 AccDes= 0.00D+00 IRadAn=         5 IDoV= 1 UseB2=F ITyADJ=14
 ICtDFT=  3500011 ScaDFX=  1.000000  1.000000  1.000000  1.000000
 FoFCou: FMM=F IPFlag=           0 FMFlag=      100000 FMFlg1=           0
         NFxFlg=           0 DoJE=T BraDBF=F KetDBF=T FulRan=T
         wScrn=  0.000000 ICntrl=       500 IOpCl=  0 I1Cent=   200000004 NGrid=           0
         NMat0=    1 NMatS0=      1 NMatT0=    0 NMatD0=    1 NMtDS0=    0 NMtDT0=    0
 Petite list used in FoFCou.
     Minimum is close to point  3 DX=  5.47D-02 DF= -2.20D-04 DXR=  8.35D-02 DFR=  6.98D-03 which will be used.
     Accept linear search using points  2 and  3.
     Minimum is close to point  2 DX=  3.74D-02 DF= -1.40D-06 DXR=  5.07D-02 DFR=  2.58D-03 which will be used.
     Accept linear search using points  1 and  2.
     Minimum is close to point  2 DX=  2.76D-04 DF= -1.93D-12 DXR=  2.76D-04 DFR=  7.60D-08 which will be used.
 SCF Done:  E(RwB97XD) =  -249.416425017     a.u. after    7 cycles
            Convg  =    0.4338D-09                    33 Fock formations.
              S**2 =  0.0000                  -V/T =  2.0086

 **********************************************************************

            Population analysis using the SCF Density.

 **********************************************************************

 Orbital symmetries:
       Occupied  (A) (A) (A) (A) (A) (A) (A) (A) (A) (A) (A) (A)
                 (A) (A) (A) (A) (A) (A) (A) (A) (A)
       Virtual   (A) (A) (A) (A) (A) (A) (A) (A) (A) (A) (A) (A)
                 (A) (A) (A) (A) (A) (A) (A) (A) (A) (A) (A) (A)
                 (A) (A) (A) (A) (A) (A) (A) (A) (A) (A) (A) (A)
                 (A) (A) (A) (A) (A) (A) (A) (A) (A) (A) (A) (A)
                 (A) (A) (A) (A) (A) (A) (A) (A) (A) (A) (A) (A)
                 (A) (A) (A) (A) (A) (A) (A)
 The electronic state is 1-A.
 Alpha  occ. eigenvalues --  -19.22539 -14.42815 -10.32521 -10.32275 -10.28464
 Alpha  occ. eigenvalues --   -1.09633  -0.98777  -0.84288  -0.76297  -0.68490
 Alpha  occ. eigenvalues --   -0.61796  -0.55774  -0.54637  -0.52241  -0.50362
 Alpha  occ. eigenvalues --   -0.48258  -0.47092  -0.43559  -0.39401  -0.34259
 Alpha  occ. eigenvalues --   -0.32961
 Alpha virt. eigenvalues --    0.12504   0.16393   0.17037   0.18578   0.21044
 Alpha virt. eigenvalues --    0.22052   0.22555   0.23711   0.25690   0.30569
 Alpha virt. eigenvalues --    0.30740   0.32390   0.33078   0.53001   0.53550
 Alpha virt. eigenvalues --    0.54365   0.58251   0.59973   0.63880   0.69499
 Alpha virt. eigenvalues --    0.72512   0.73543   0.74031   0.76997   0.77897
 Alpha virt. eigenvalues --    0.78261   0.79901   0.80079   0.80755   0.82515
 Alpha virt. eigenvalues --    0.83795   0.86339   0.92142   0.97786   1.03698
 Alpha virt. eigenvalues --    1.10725   1.14874   1.15973   1.27386   1.32125
 Alpha virt. eigenvalues --    1.35269   1.56234   1.57096   1.67003   1.81250
 Alpha virt. eigenvalues --    1.87005   1.92809   1.98675   2.02078   2.07796
 Alpha virt. eigenvalues --    2.19965   2.21170   2.22189   2.25583   2.32688
 Alpha virt. eigenvalues --    2.36399   2.52166   2.59383   2.60958   2.73796
 Alpha virt. eigenvalues --    2.78968   2.79154   2.97438   3.03465   3.08901
 Alpha virt. eigenvalues --    3.12372   3.49208
          Condensed to atoms (all electrons):
 Mulliken charges:
               1
     1  C   -0.281400
     2  C   -0.139224
     3  N   -0.523057
     4  C    0.072876
     5  O   -0.501940
     6  H    0.103791
     7  H    0.118000
     8  H    0.113505
     9  H    0.103196
    10  H    0.227110
    11  H    0.219427
    12  H    0.101257
    13  H    0.068204
    14  H    0.318254
 Sum of Mulliken charges =   0.00000
 Mulliken charges with hydrogens summed into heavy atoms:
               1
     1  C    0.053896
     2  C   -0.036028
     3  N   -0.076520
     4  C    0.242337
     5  O   -0.183685
 Electronic spatial extent (au):  <R**2>=            486.2440
 Charge=              0.0000 electrons
 Dipole moment (field-independent basis, Debye):
    X=             -3.0020    Y=              0.7271    Z=              0.6149  Tot=              3.1494
 Evaluate density.
 Using the total density.
 Monte-Carlo method of calculating molar volume:
 based on  0.001 e/bohr**3 density envelope.
 Number of points per bohr**3 =  100 CutOff= 1.00D-04
 Using the SCF density.
 There are      1612 points.  Will hold      1612 in memory.
 LenV=  1048411349 MDV=  1048576000.
 Box volume = 4192.075 fraction occupied=0.194
 Integrated density= 5.3414967409530696D+01 error= 1.1414967409530696D+01
 Molar volume =  813.970 bohr**3/mol ( 72.638 cm**3/mol)
 Recommended a0 for SCRF calculation =  3.87 angstrom (  7.32 bohr)
   1 Symmetry operations used in ECPInt.
 ECPInt:  NShTT=    1176 NPrTT=    4748 LenC2=    1175 LenP2D=    4026.
 LDataN:  DoStor=T MaxTD1= 5 Len=  102
 Calling FoFJK, ICntrl=      2127 FMM=F ISym2X=0 I1Cent= 0 IOpClX= 0 NMat=1 NMatS=1 NMatT=0.

 GradGradGradGradGradGradGradGradGradGradGradGradGradGradGradGradGradGrad
 FormGI is forming the generalized inverse of G from B-inverse, IUseBI=4.
 Internal  Forces:  Max     0.012100520 RMS     0.003393500
 Step number   1 out of a maximum of   72
 All quantities printed in internal units (Hartrees-Bohrs-Radians)
 Mixed Optimization -- RFO/linear search
 Second derivative matrix not updated -- first step.
 ITU=  0
     Eigenvalues ---    0.00311   0.00364   0.00906   0.01665   0.04000
     Eigenvalues ---    0.04288   0.04564   0.04995   0.05626   0.05644
     Eigenvalues ---    0.05783   0.06135   0.11611   0.13898   0.16000
     Eigenvalues ---    0.16000   0.16000   0.16000   0.16000   0.16000
     Eigenvalues ---    0.16447   0.18212   0.22054   0.29024   0.29389
     Eigenvalues ---    0.33399   0.34099   0.34578   0.34911   0.34970
     Eigenvalues ---    0.35217   0.37039   0.44945   0.45292   0.45382
     Eigenvalues ---    0.53824
 Linear search not attempted -- first point.
 Iteration  1 RMS(Cart)=  0.03536945 RMS(Int)=  0.00081747
 Iteration  2 RMS(Cart)=  0.00083987 RMS(Int)=  0.00010239
 Iteration  3 RMS(Cart)=  0.00000041 RMS(Int)=  0.00010239
 Variable       Old X    -DE/DX   Delta X   Delta X   Delta X     New X
                                 (Linear)    (Quad)   (Total)
    R1        2.89199   0.00131   0.00000   0.00440   0.00440   2.89639
    R2        2.05820   0.01085   0.00000   0.03083   0.03083   2.08904
    R3        2.05324   0.01210   0.00000   0.03408   0.03408   2.08732
    R4        2.05724   0.01031   0.00000   0.02925   0.02925   2.08649
    R5        2.75787   0.00373   0.00000   0.01000   0.01000   2.76787
    R6        2.89952  -0.00358   0.00000  -0.01220  -0.01220   2.88732
    R7        2.07163   0.00495   0.00000   0.01438   0.01438   2.08601
    R8        1.91534   0.00507   0.00000   0.01109   0.01109   1.92644
    R9        1.92040   0.00525   0.00000   0.01161   0.01161   1.93200
   R10        2.64938  -0.00280   0.00000  -0.00614  -0.00614   2.64325
   R11        2.06365   0.00712   0.00000   0.02043   0.02043   2.08408
   R12        2.08357   0.00720   0.00000   0.02138   0.02138   2.10495
   R13        1.82892   0.00458   0.00000   0.00846   0.00846   1.83738
    A1        1.92455   0.00063   0.00000   0.00343   0.00341   1.92796
    A2        1.92805   0.00240   0.00000   0.01592   0.01586   1.94392
    A3        1.92708   0.00099   0.00000   0.00530   0.00527   1.93235
    A4        1.89370  -0.00139   0.00000  -0.00705  -0.00710   1.88661
    A5        1.89543  -0.00110   0.00000  -0.00907  -0.00907   1.88636
    A6        1.89418  -0.00166   0.00000  -0.00935  -0.00941   1.88478
    A7        1.99055   0.00090   0.00000   0.01706   0.01690   2.00745
    A8        1.94134   0.00248   0.00000   0.01952   0.01939   1.96073
    A9        1.91241  -0.00059   0.00000  -0.00428  -0.00410   1.90831
   A10        1.86355  -0.00166   0.00000  -0.00184  -0.00229   1.86125
   A11        1.86240   0.00032   0.00000  -0.00453  -0.00465   1.85775
   A12        1.88933  -0.00170   0.00000  -0.02931  -0.02929   1.86004
   A13        1.93257   0.00299   0.00000   0.02099   0.02088   1.95345
   A14        1.91704   0.00123   0.00000   0.01023   0.01012   1.92716
   A15        1.87933  -0.00163   0.00000  -0.00480  -0.00502   1.87431
   A16        1.94153  -0.00321   0.00000  -0.01078  -0.01074   1.93079
   A17        1.93228   0.00068   0.00000   0.00025   0.00024   1.93252
   A18        1.90273  -0.00133   0.00000  -0.01540  -0.01540   1.88732
   A19        1.86843   0.00190   0.00000   0.01744   0.01741   1.88584
   A20        1.92474   0.00312   0.00000   0.02430   0.02423   1.94897
   A21        1.89352  -0.00103   0.00000  -0.01519  -0.01544   1.87808
   A22        1.85428  -0.00391   0.00000  -0.02400  -0.02400   1.83028
    D1       -1.06981   0.00027   0.00000  -0.00364  -0.00375  -1.07355
    D2        1.03897   0.00061   0.00000   0.02088   0.02099   1.05997
    D3        3.12727  -0.00032   0.00000  -0.00607  -0.00604   3.12123
    D4        3.12023   0.00005   0.00000  -0.00728  -0.00740   3.11283
    D5       -1.05417   0.00040   0.00000   0.01724   0.01734  -1.03683
    D6        1.03412  -0.00053   0.00000  -0.00971  -0.00969   1.02443
    D7        1.02486  -0.00007   0.00000  -0.00933  -0.00947   1.01540
    D8        3.13364   0.00028   0.00000   0.01519   0.01528  -3.13427
    D9       -1.06125  -0.00065   0.00000  -0.01176  -0.01175  -1.07300
   D10       -1.12256  -0.00010   0.00000  -0.04785  -0.04793  -1.17048
   D11        0.95083   0.00052   0.00000  -0.03432  -0.03428   0.91654
   D12        3.00905  -0.00264   0.00000  -0.08254  -0.08258   2.92646
   D13       -1.20076  -0.00202   0.00000  -0.06901  -0.06894  -1.26970
   D14        0.99157  -0.00005   0.00000  -0.04584  -0.04588   0.94568
   D15        3.06495   0.00057   0.00000  -0.03231  -0.03224   3.03271
   D16        3.12613  -0.00049   0.00000   0.01932   0.01927  -3.13778
   D17        1.05087  -0.00124   0.00000   0.00428   0.00428   1.05515
   D18       -1.03082   0.00045   0.00000   0.03245   0.03240  -0.99842
   D19       -0.97520   0.00109   0.00000   0.05187   0.05179  -0.92340
   D20       -3.05046   0.00034   0.00000   0.03683   0.03680  -3.01366
   D21        1.15103   0.00203   0.00000   0.06500   0.06492   1.21595
   D22        1.02416  -0.00019   0.00000   0.03157   0.03165   1.05581
   D23       -1.05110  -0.00093   0.00000   0.01653   0.01666  -1.03444
   D24       -3.13280   0.00075   0.00000   0.04470   0.04478  -3.08802
   D25        0.70797  -0.00112   0.00000  -0.03063  -0.03066   0.67731
   D26        2.82109  -0.00097   0.00000  -0.02556  -0.02570   2.79539
   D27       -1.40541   0.00059   0.00000  -0.02044  -0.02027  -1.42568
         Item               Value     Threshold  Converged?
 Maximum Force            0.012101     0.000015     NO 
 RMS     Force            0.003393     0.000010     NO 
 Maximum Displacement     0.130363     0.000060     NO 
 RMS     Displacement     0.035430     0.000040     NO 
 GradGradGradGradGradGradGradGradGradGradGradGradGradGradGradGradGradGrad

                    Distance matrix (angstroms):
                    1          2          3          4          5
     1  C    0.000000
     2  C    1.532705   0.000000
     3  N    2.528504   1.464696   0.000000
     4  C    2.542446   1.527903   2.400345   0.000000
     5  O    3.769884   2.407633   2.724210   1.398746   0.000000
     6  H    1.105472   2.180827   2.822681   2.808668   4.092761
     7  H    1.104562   2.191687   3.475008   2.811839   4.102797
     8  H    1.104123   2.183004   2.801427   3.500415   4.583298
     9  H    2.165234   1.103868   2.068595   2.124883   2.631217
    10  H    2.831485   2.073547   1.019427   3.309688   3.607464
    11  H    2.706674   2.058010   1.022373   2.707751   3.172821
    12  H    2.808137   2.177937   3.371853   1.102849   2.031930
    13  H    2.746397   2.152847   2.705649   1.113891   2.085132
    14  H    3.836705   2.369418   2.141752   1.897300   0.972299
                    6          7          8          9         10
     6  H    0.000000
     7  H    1.789025   0.000000
     8  H    1.788511   1.786746   0.000000
     9  H    3.087836   2.514679   2.522467   0.000000
    10  H    3.247856   3.812948   2.694985   2.345072   0.000000
    11  H    2.580946   3.731090   3.033082   2.934082   1.645442
    12  H    3.181412   2.626650   3.815006   2.460584   4.182045
    13  H    2.550653   3.110618   3.761150   3.044739   3.678247
    14  H    4.136857   4.397974   4.491588   2.633800   2.970400
                   11         12         13         14
    11  H    0.000000
    12  H    3.730072   0.000000
    13  H    2.577803   1.788902   0.000000
    14  H    2.618183   2.792195   2.432051   0.000000
 Framework group  C1[X(C3H9NO)]
 Deg. of freedom    36
                         Standard orientation:                         
 ---------------------------------------------------------------------
 Center     Atomic      Atomic             Coordinates (Angstroms)
 Number     Number       Type             X           Y           Z
 ---------------------------------------------------------------------
      1          6           0       -1.775812   -0.635390    0.022111
      2          6           0       -0.437422    0.019633   -0.336836
      3          7           0       -0.286138    1.405732    0.111691
      4          6           0        0.756016   -0.753771    0.221768
      5          8           0        1.956346   -0.123303   -0.122045
      6          1           0       -1.904235   -0.676077    1.119343
      7          1           0       -1.837101   -1.666594   -0.368938
      8          1           0       -2.618053   -0.059861   -0.400365
      9          1           0       -0.319032    0.031683   -1.434270
     10          1           0       -0.922987    2.035153   -0.375634
     11          1           0       -0.487334    1.481146    1.111230
     12          1           0        0.780534   -1.779349   -0.183034
     13          1           0        0.633329   -0.830338    1.326231
     14          1           0        1.770383    0.827708   -0.042296
 ---------------------------------------------------------------------
 Rotational constants (GHZ):           8.0264481           3.6725604           2.7738850
    88 basis functions,   161 primitive gaussians,    93 cartesian basis functions
    21 alpha electrons       21 beta electrons
       nuclear repulsion energy       195.6415000991 Hartrees.
 NAtoms=   14 NActive=   14 NUniq=   14 SFac= 1.00D+00 NAtFMM=   60 NAOKFM=F Big=F
 Nuclear repulsion after empirical dispersion term =      195.6346920367 Hartrees.
   1 Symmetry operations used in ECPInt.
 ECPInt:  NShTT=    1176 NPrTT=    4748 LenC2=    1175 LenP2D=    4023.
 LDataN:  DoStor=T MaxTD1= 4 Len=   56
 Initial guess from the checkpoint file:  "monomer.chk"
 B after Tr=    -0.000000    0.000000   -0.000000
         Rot=    0.999949   -0.000764    0.000835    0.010084 Ang=  -1.16 deg.
 ExpMin= 1.22D-01 ExpMax= 2.27D+03 ExpMxC= 3.41D+02 IAcc=3 IRadAn=         5 AccDes= 0.00D+00
 Harris functional with IExCor= 4639 and IRadAn=       5 diagonalized for initial guess.
 HarFok:  IExCor= 4639 AccDes= 0.00D+00 IRadAn=         5 IDoV= 1 UseB2=F ITyADJ=14
 ICtDFT=  3500011 ScaDFX=  1.000000  1.000000  1.000000  1.000000
 FoFCou: FMM=F IPFlag=           0 FMFlag=      100000 FMFlg1=           0
         NFxFlg=           0 DoJE=T BraDBF=F KetDBF=T FulRan=T
         wScrn=  0.000000 ICntrl=       500 IOpCl=  0 I1Cent=   200000004 NGrid=           0
         NMat0=    1 NMatS0=      1 NMatT0=    0 NMatD0=    1 NMtDS0=    0 NMtDT0=    0
 Petite list used in FoFCou.
     Accept linear search using points  3 and  4.
     Minimum is close to point  4 DX= -9.69D-02 DF= -3.55D-06 DXR=  8.78D-02 DFR=  2.47D-03 which will be used.
     Minimum is close to point  2 DX=  1.96D-02 DF= -4.12D-08 DXR=  1.92D-02 DFR=  3.68D-04 which will be used.
     Accept linear search using points  1 and  2.
     Accept linear search using points  1 and  2.
     Minimum is close to point  2 DX= -1.11D-04 DF= -6.82D-13 DXR=  1.11D-04 DFR=  1.25D-08 which will be used.
 SCF Done:  E(RwB97XD) =  -249.417939561     a.u. after    7 cycles
            Convg  =    0.2206D-08                    31 Fock formations.
              S**2 =  0.0000                  -V/T =  2.0091
   1 Symmetry operations used in ECPInt.
 ECPInt:  NShTT=    1176 NPrTT=    4748 LenC2=    1175 LenP2D=    4023.
 LDataN:  DoStor=T MaxTD1= 5 Len=  102
 Calling FoFJK, ICntrl=      2127 FMM=F ISym2X=0 I1Cent= 0 IOpClX= 0 NMat=1 NMatS=1 NMatT=0.

 GradGradGradGradGradGradGradGradGradGradGradGradGradGradGradGradGradGrad
 Using GEDIIS/GDIIS optimizer.
 FormGI is forming the generalized inverse of G from B-inverse, IUseBI=4.
 Internal  Forces:  Max     0.002774971 RMS     0.000751901
 Step number   2 out of a maximum of   72
 All quantities printed in internal units (Hartrees-Bohrs-Radians)
 Mixed Optimization -- En-DIIS/RFO-DIIS
 Trust test= 1.01D+00 RLast= 2.10D-01 DXMaxT set to 5.05D-01
 ITU=  1  0
 Use linear search instead of GDIIS.
     Eigenvalues ---    0.00321   0.00364   0.00840   0.01625   0.03873
     Eigenvalues ---    0.04110   0.04607   0.05041   0.05504   0.05600
     Eigenvalues ---    0.05801   0.06346   0.11579   0.13967   0.15491
     Eigenvalues ---    0.16000   0.16000   0.16000   0.16000   0.16140
     Eigenvalues ---    0.16802   0.18268   0.21845   0.29041   0.29247
     Eigenvalues ---    0.32966   0.34047   0.34591   0.34879   0.35027
     Eigenvalues ---    0.35575   0.38428   0.44561   0.45191   0.46496
     Eigenvalues ---    0.53513
 Quartic linear search produced a step of  0.07394.
 Iteration  1 RMS(Cart)=  0.02005387 RMS(Int)=  0.00049919
 Iteration  2 RMS(Cart)=  0.00050219 RMS(Int)=  0.00000709
 Iteration  3 RMS(Cart)=  0.00000033 RMS(Int)=  0.00000709
 Variable       Old X    -DE/DX   Delta X   Delta X   Delta X     New X
                                 (Linear)    (Quad)   (Total)
    R1        2.89639  -0.00264   0.00033  -0.00945  -0.00913   2.88726
    R2        2.08904   0.00025   0.00228   0.00180   0.00408   2.09312
    R3        2.08732  -0.00025   0.00252   0.00039   0.00291   2.09023
    R4        2.08649  -0.00005   0.00216   0.00083   0.00299   2.08948
    R5        2.76787  -0.00160   0.00074  -0.00428  -0.00354   2.76434
    R6        2.88732   0.00160  -0.00090   0.00547   0.00457   2.89189
    R7        2.08601   0.00041   0.00106   0.00178   0.00284   2.08885
    R8        1.92644  -0.00038   0.00082  -0.00053   0.00029   1.92673
    R9        1.93200   0.00008   0.00086   0.00059   0.00145   1.93345
   R10        2.64325  -0.00277  -0.00045  -0.00677  -0.00722   2.63602
   R11        2.08408   0.00012   0.00151   0.00106   0.00257   2.08665
   R12        2.10495   0.00105   0.00158   0.00407   0.00566   2.11060
   R13        1.83738   0.00227   0.00063   0.00481   0.00543   1.84281
    A1        1.92796   0.00065   0.00025   0.00469   0.00493   1.93289
    A2        1.94392  -0.00020   0.00117  -0.00122  -0.00005   1.94387
    A3        1.93235   0.00034   0.00039   0.00269   0.00307   1.93542
    A4        1.88661  -0.00028  -0.00052  -0.00254  -0.00307   1.88353
    A5        1.88636  -0.00044  -0.00067  -0.00244  -0.00312   1.88324
    A6        1.88478  -0.00012  -0.00070  -0.00147  -0.00217   1.88261
    A7        2.00745  -0.00077   0.00125  -0.00684  -0.00560   2.00185
    A8        1.96073   0.00094   0.00143   0.00634   0.00776   1.96848
    A9        1.90831  -0.00014  -0.00030   0.00003  -0.00029   1.90802
   A10        1.86125  -0.00027  -0.00017  -0.00268  -0.00287   1.85838
   A11        1.85775   0.00025  -0.00034  -0.00102  -0.00138   1.85637
   A12        1.86004   0.00000  -0.00217   0.00463   0.00245   1.86249
   A13        1.95345  -0.00017   0.00154  -0.00033   0.00120   1.95465
   A14        1.92716   0.00010   0.00075   0.00106   0.00180   1.92896
   A15        1.87431   0.00005  -0.00037   0.00031  -0.00008   1.87424
   A16        1.93079  -0.00044  -0.00079  -0.00126  -0.00205   1.92874
   A17        1.93252  -0.00014   0.00002  -0.00208  -0.00206   1.93047
   A18        1.88732   0.00093  -0.00114   0.00699   0.00585   1.89317
   A19        1.88584   0.00037   0.00129   0.00270   0.00399   1.88983
   A20        1.94897  -0.00014   0.00179   0.00124   0.00303   1.95199
   A21        1.87808  -0.00060  -0.00114  -0.00789  -0.00904   1.86904
   A22        1.83028  -0.00086  -0.00177  -0.00658  -0.00836   1.82192
    D1       -1.07355  -0.00006  -0.00028   0.00328   0.00300  -1.07055
    D2        1.05997  -0.00026   0.00155  -0.00053   0.00102   1.06099
    D3        3.12123   0.00023  -0.00045   0.00916   0.00872   3.12995
    D4        3.11283  -0.00001  -0.00055   0.00415   0.00360   3.11644
    D5       -1.03683  -0.00021   0.00128   0.00033   0.00162  -1.03521
    D6        1.02443   0.00028  -0.00072   0.01003   0.00932   1.03375
    D7        1.01540   0.00004  -0.00070   0.00501   0.00431   1.01971
    D8       -3.13427  -0.00016   0.00113   0.00119   0.00233  -3.13194
    D9       -1.07300   0.00033  -0.00087   0.01089   0.01002  -1.06298
   D10       -1.17048  -0.00014  -0.00354  -0.05113  -0.05467  -1.22516
   D11        0.91654  -0.00012  -0.00253  -0.05024  -0.05276   0.86378
   D12        2.92646  -0.00062  -0.00611  -0.05254  -0.05866   2.86780
   D13       -1.26970  -0.00061  -0.00510  -0.05165  -0.05675  -1.32644
   D14        0.94568  -0.00062  -0.00339  -0.05613  -0.05953   0.88615
   D15        3.03271  -0.00060  -0.00238  -0.05524  -0.05762   2.97509
   D16       -3.13778   0.00025   0.00142  -0.00802  -0.00659   3.13882
   D17        1.05515   0.00015   0.00032  -0.00923  -0.00891   1.04624
   D18       -0.99842   0.00041   0.00240  -0.00268  -0.00028  -0.99870
   D19       -0.92340  -0.00030   0.00383  -0.01441  -0.01059  -0.93399
   D20       -3.01366  -0.00039   0.00272  -0.01562  -0.01291  -3.02657
   D21        1.21595  -0.00014   0.00480  -0.00908  -0.00428   1.21168
   D22        1.05581  -0.00013   0.00234  -0.01469  -0.01235   1.04346
   D23       -1.03444  -0.00022   0.00123  -0.01590  -0.01467  -1.04911
   D24       -3.08802   0.00003   0.00331  -0.00935  -0.00604  -3.09405
   D25        0.67731  -0.00021  -0.00227  -0.03121  -0.03347   0.64383
   D26        2.79539  -0.00041  -0.00190  -0.03281  -0.03472   2.76067
   D27       -1.42568  -0.00099  -0.00150  -0.04005  -0.04153  -1.46721
         Item               Value     Threshold  Converged?
 Maximum Force            0.002775     0.000015     NO 
 RMS     Force            0.000752     0.000010     NO 
 Maximum Displacement     0.097436     0.000060     NO 
 RMS     Displacement     0.020041     0.000040     NO 
 GradGradGradGradGradGradGradGradGradGradGradGradGradGradGradGradGradGrad

                    Distance matrix (angstroms):
                    1          2          3          4          5
     1  C    0.000000
     2  C    1.527874   0.000000
     3  N    2.518326   1.462825   0.000000
     4  C    2.547027   1.530322   2.398260   0.000000
     5  O    3.766709   2.404887   2.723828   1.394924   0.000000
     6  H    1.107630   2.181785   2.815462   2.819900   4.099869
     7  H    1.106103   2.188560   3.468015   2.817323   4.100456
     8  H    1.105706   2.182165   2.795294   3.506705   4.580646
     9  H    2.161903   1.105370   2.067057   2.129937   2.626177
    10  H    2.845508   2.072801   1.019582   3.303192   3.582292
    11  H    2.677322   2.058155   1.023140   2.734737   3.216403
    12  H    2.810295   2.179602   3.370966   1.104210   2.032561
    13  H    2.760578   2.161559   2.707625   1.116884   2.086257
    14  H    3.816000   2.346194   2.127094   1.890191   0.975174
                    6          7          8          9         10
     6  H    0.000000
     7  H    1.790022   0.000000
     8  H    1.789511   1.787863   0.000000
     9  H    3.089885   2.514907   2.518277   0.000000
    10  H    3.273808   3.823610   2.716482   2.323573   0.000000
    11  H    2.553482   3.709782   2.993406   2.932013   1.646138
    12  H    3.187246   2.629067   3.819205   2.470206   4.176905
    13  H    2.571581   3.123503   3.777849   3.054918   3.689391
    14  H    4.135337   4.377915   4.467110   2.595316   2.919750
                   11         12         13         14
    11  H    0.000000
    12  H    3.749492   0.000000
    13  H    2.612239   1.786470   0.000000
    14  H    2.663778   2.786570   2.445064   0.000000
 Framework group  C1[X(C3H9NO)]
 Deg. of freedom    36
                         Standard orientation:                         
 ---------------------------------------------------------------------
 Center     Atomic      Atomic             Coordinates (Angstroms)
 Number     Number       Type             X           Y           Z
 ---------------------------------------------------------------------
      1          6           0       -1.771563   -0.637550    0.015553
      2          6           0       -0.435713    0.016388   -0.334118
      3          7           0       -0.294196    1.399129    0.121793
      4          6           0        0.764219   -0.750402    0.226311
      5          8           0        1.956249   -0.115725   -0.123065
      6          1           0       -1.911610   -0.681125    1.113429
      7          1           0       -1.829629   -1.670333   -0.376177
      8          1           0       -2.614977   -0.064599   -0.412192
      9          1           0       -0.314971    0.036817   -1.432684
     10          1           0       -0.893634    2.036861   -0.401198
     11          1           0       -0.550354    1.479253    1.109101
     12          1           0        0.789389   -1.779202   -0.173961
     13          1           0        0.646054   -0.831992    1.333926
     14          1           0        1.747457    0.835608   -0.074748
 ---------------------------------------------------------------------
 Rotational constants (GHZ):           8.0528684           3.6720556           2.7789187
    88 basis functions,   161 primitive gaussians,    93 cartesian basis functions
    21 alpha electrons       21 beta electrons
       nuclear repulsion energy       195.7456938771 Hartrees.
 NAtoms=   14 NActive=   14 NUniq=   14 SFac= 1.00D+00 NAtFMM=   60 NAOKFM=F Big=F
 Nuclear repulsion after empirical dispersion term =      195.7388992934 Hartrees.
   1 Symmetry operations used in ECPInt.
 ECPInt:  NShTT=    1176 NPrTT=    4748 LenC2=    1175 LenP2D=    4022.
 LDataN:  DoStor=T MaxTD1= 4 Len=   56
 Initial guess from the checkpoint file:  "monomer.chk"
 B after Tr=    -0.000000   -0.000000   -0.000000
         Rot=    0.999997   -0.000410    0.000992   -0.002029 Ang=  -0.26 deg.
 ExpMin= 1.22D-01 ExpMax= 2.27D+03 ExpMxC= 3.41D+02 IAcc=3 IRadAn=         5 AccDes= 0.00D+00
 Harris functional with IExCor= 4639 and IRadAn=       5 diagonalized for initial guess.
 HarFok:  IExCor= 4639 AccDes= 0.00D+00 IRadAn=         5 IDoV= 1 UseB2=F ITyADJ=14
 ICtDFT=  3500011 ScaDFX=  1.000000  1.000000  1.000000  1.000000
 FoFCou: FMM=F IPFlag=           0 FMFlag=      100000 FMFlg1=           0
         NFxFlg=           0 DoJE=T BraDBF=F KetDBF=T FulRan=T
         wScrn=  0.000000 ICntrl=       500 IOpCl=  0 I1Cent=   200000004 NGrid=           0
         NMat0=    1 NMatS0=      1 NMatT0=    0 NMatD0=    1 NMtDS0=    0 NMtDT0=    0
 Petite list used in FoFCou.
     Minimum is close to point  4 DX=  6.52D-02 DF= -1.58D-06 DXR=  5.15D-02 DFR=  2.66D-03 which will be used.
     Accept linear search using points  2 and  3.
     Accept linear search using points  1 and  2.
     Minimum is close to point  2 DX= -6.59D-05 DF= -4.55D-13 DXR=  6.59D-05 DFR=  4.23D-09 which will be used.
 SCF Done:  E(RwB97XD) =  -249.418107605     a.u. after    5 cycles
            Convg  =    0.3440D-08                    29 Fock formations.
              S**2 =  0.0000                  -V/T =  2.0091
   1 Symmetry operations used in ECPInt.
 ECPInt:  NShTT=    1176 NPrTT=    4748 LenC2=    1175 LenP2D=    4022.
 LDataN:  DoStor=T MaxTD1= 5 Len=  102
 Calling FoFJK, ICntrl=      2127 FMM=F ISym2X=0 I1Cent= 0 IOpClX= 0 NMat=1 NMatS=1 NMatT=0.

 GradGradGradGradGradGradGradGradGradGradGradGradGradGradGradGradGradGrad
 Using GEDIIS/GDIIS optimizer.
 FormGI is forming the generalized inverse of G from B-inverse, IUseBI=4.
 Internal  Forces:  Max     0.001121477 RMS     0.000393304
 Step number   3 out of a maximum of   72
 All quantities printed in internal units (Hartrees-Bohrs-Radians)
 Mixed Optimization -- En-DIIS/RFO-DIIS
 Swapping is turned off.
 Trust test= 9.38D-01 RLast= 1.59D-01 DXMaxT set to 5.05D-01
 ITU=  1  1  0
     Eigenvalues ---    0.00270   0.00366   0.00797   0.01877   0.03891
     Eigenvalues ---    0.04081   0.04545   0.05175   0.05490   0.05561
     Eigenvalues ---    0.05792   0.06406   0.11609   0.13661   0.15640
     Eigenvalues ---    0.16000   0.16000   0.16000   0.16128   0.16180
     Eigenvalues ---    0.17090   0.18509   0.21703   0.29024   0.29309
     Eigenvalues ---    0.33477   0.34156   0.34581   0.34934   0.35115
     Eigenvalues ---    0.37712   0.38955   0.44427   0.45208   0.46799
     Eigenvalues ---    0.52910
 En-DIIS/RFO-DIIS/Sim-DIIS IScMMF=       -3 using points:     3    2
 RFO step:  Lambda=-2.62929766D-04.
 DidBck=F Rises=F RFO-DIIS coefs:    1.54584   -0.54584
 Iteration  1 RMS(Cart)=  0.04724465 RMS(Int)=  0.00108465
 Iteration  2 RMS(Cart)=  0.00136775 RMS(Int)=  0.00000620
 Iteration  3 RMS(Cart)=  0.00000088 RMS(Int)=  0.00000617
 Variable       Old X    -DE/DX   Delta X   Delta X   Delta X     New X
                                 (Linear)    (Quad)   (Total)
    R1        2.88726  -0.00049  -0.00498  -0.00284  -0.00782   2.87944
    R2        2.09312  -0.00106   0.00223  -0.00073   0.00149   2.09461
    R3        2.09023  -0.00112   0.00159  -0.00091   0.00068   2.09092
    R4        2.08948  -0.00105   0.00163  -0.00094   0.00070   2.09018
    R5        2.76434   0.00036  -0.00193   0.00081  -0.00112   2.76322
    R6        2.89189   0.00029   0.00250   0.00110   0.00359   2.89548
    R7        2.08885  -0.00054   0.00155  -0.00033   0.00122   2.09006
    R8        1.92673  -0.00057   0.00016  -0.00060  -0.00044   1.92629
    R9        1.93345  -0.00084   0.00079  -0.00098  -0.00019   1.93326
   R10        2.63602  -0.00047  -0.00394  -0.00245  -0.00640   2.62963
   R11        2.08665  -0.00034   0.00140   0.00046   0.00186   2.08852
   R12        2.11060  -0.00071   0.00309  -0.00007   0.00302   2.11363
   R13        1.84281   0.00047   0.00297   0.00211   0.00508   1.84789
    A1        1.93289   0.00005   0.00269   0.00110   0.00378   1.93667
    A2        1.94387   0.00011  -0.00003   0.00135   0.00132   1.94519
    A3        1.93542  -0.00006   0.00167   0.00056   0.00223   1.93765
    A4        1.88353  -0.00012  -0.00168  -0.00190  -0.00358   1.87995
    A5        1.88324   0.00001  -0.00170  -0.00084  -0.00255   1.88069
    A6        1.88261   0.00001  -0.00118  -0.00043  -0.00162   1.88099
    A7        2.00185   0.00031  -0.00306   0.00257  -0.00049   2.00136
    A8        1.96848  -0.00022   0.00423   0.00219   0.00642   1.97490
    A9        1.90802   0.00004  -0.00016  -0.00046  -0.00065   1.90737
   A10        1.85838   0.00006  -0.00157   0.00066  -0.00090   1.85748
   A11        1.85637  -0.00027  -0.00075  -0.00412  -0.00487   1.85150
   A12        1.86249   0.00007   0.00134  -0.00145  -0.00013   1.86236
   A13        1.95465  -0.00024   0.00066   0.00087   0.00152   1.95617
   A14        1.92896   0.00041   0.00098   0.00425   0.00523   1.93419
   A15        1.87424   0.00009  -0.00004   0.00236   0.00230   1.87653
   A16        1.92874  -0.00015  -0.00112  -0.00146  -0.00258   1.92616
   A17        1.93047  -0.00043  -0.00112  -0.00195  -0.00308   1.92739
   A18        1.89317   0.00032   0.00319   0.00055   0.00374   1.89691
   A19        1.88983   0.00068   0.00218   0.00850   0.01068   1.90051
   A20        1.95199  -0.00043   0.00165  -0.00362  -0.00197   1.95002
   A21        1.86904   0.00001  -0.00494  -0.00210  -0.00703   1.86201
   A22        1.82192   0.00025  -0.00456  -0.00101  -0.00557   1.81635
    D1       -1.07055  -0.00010   0.00164  -0.00119   0.00045  -1.07010
    D2        1.06099   0.00005   0.00056   0.00349   0.00404   1.06502
    D3        3.12995   0.00002   0.00476   0.00273   0.00749   3.13743
    D4        3.11644  -0.00005   0.00197  -0.00042   0.00155   3.11799
    D5       -1.03521   0.00010   0.00088   0.00426   0.00514  -1.03007
    D6        1.03375   0.00006   0.00508   0.00350   0.00859   1.04234
    D7        1.01971  -0.00010   0.00235  -0.00115   0.00120   1.02091
    D8       -3.13194   0.00005   0.00127   0.00352   0.00479  -3.12715
    D9       -1.06298   0.00002   0.00547   0.00277   0.00824  -1.05474
   D10       -1.22516  -0.00026  -0.02984  -0.02381  -0.05367  -1.27882
   D11        0.86378  -0.00002  -0.02880  -0.01737  -0.04616   0.81762
   D12        2.86780  -0.00023  -0.03202  -0.02895  -0.06097   2.80683
   D13       -1.32644   0.00001  -0.03097  -0.02250  -0.05347  -1.37992
   D14        0.88615  -0.00021  -0.03249  -0.02574  -0.05824   0.82791
   D15        2.97509   0.00003  -0.03145  -0.01930  -0.05074   2.92435
   D16        3.13882   0.00048  -0.00360   0.08601   0.08242  -3.06195
   D17        1.04624   0.00002  -0.00486   0.07760   0.07274   1.11899
   D18       -0.99870   0.00006  -0.00015   0.08093   0.08078  -0.91792
   D19       -0.93399   0.00078  -0.00578   0.09129   0.08551  -0.84848
   D20       -3.02657   0.00031  -0.00704   0.08288   0.07583  -2.95073
   D21        1.21168   0.00035  -0.00234   0.08620   0.08387   1.29555
   D22        1.04346   0.00053  -0.00674   0.08625   0.07950   1.12296
   D23       -1.04911   0.00006  -0.00801   0.07784   0.06983  -0.97928
   D24       -3.09405   0.00010  -0.00330   0.08117   0.07786  -3.01619
   D25        0.64383   0.00031  -0.01827   0.00462  -0.01365   0.63018
   D26        2.76067   0.00011  -0.01895   0.00674  -0.01220   2.74847
   D27       -1.46721   0.00030  -0.02267   0.00738  -0.01529  -1.48250
         Item               Value     Threshold  Converged?
 Maximum Force            0.001121     0.000015     NO 
 RMS     Force            0.000393     0.000010     NO 
 Maximum Displacement     0.154636     0.000060     NO 
 RMS     Displacement     0.047268     0.000040     NO 
 GradGradGradGradGradGradGradGradGradGradGradGradGradGradGradGradGradGrad

                    Distance matrix (angstroms):
                    1          2          3          4          5
     1  C    0.000000
     2  C    1.523736   0.000000
     3  N    2.513921   1.462231   0.000000
     4  C    2.550585   1.532224   2.398524   0.000000
     5  O    3.761599   2.401624   2.674696   1.391540   0.000000
     6  H    1.108419   2.181479   2.814337   2.829743   4.077904
     7  H    1.106465   2.186133   3.465134   2.820784   4.120210
     8  H    1.106074   2.180411   2.793306   3.510663   4.575496
     9  H    2.158280   1.106014   2.063356   2.131957   2.660138
    10  H    2.865986   2.073107   1.019349   3.296511   3.520692
    11  H    2.661044   2.061107   1.023039   2.764923   3.181938
    12  H    2.846849   2.179783   3.365726   1.105196   2.038067
    13  H    2.735037   2.167205   2.755091   1.118482   2.083207
    14  H    3.781536   2.331815   2.052720   1.885250   0.977862
                    6          7          8          9         10
     6  H    0.000000
     7  H    1.788615   0.000000
     8  H    1.788783   1.787399   0.000000
     9  H    3.089666   2.515364   2.513297   0.000000
    10  H    3.305971   3.838927   2.745298   2.300842   0.000000
    11  H    2.542516   3.699561   2.964747   2.928305   1.647257
    12  H    3.248129   2.670640   3.845261   2.443511   4.159152
    13  H    2.552723   3.071707   3.764282   3.057666   3.736576
    14  H    4.072641   4.371666   4.434137   2.638193   2.838879
                   11         12         13         14
    11  H    0.000000
    12  H    3.787831   0.000000
    13  H    2.699322   1.783895   0.000000
    14  H    2.583814   2.788187   2.445521   0.000000
 Framework group  C1[X(C3H9NO)]
 Deg. of freedom    36
                         Standard orientation:                         
 ---------------------------------------------------------------------
 Center     Atomic      Atomic             Coordinates (Angstroms)
 Number     Number       Type             X           Y           Z
 ---------------------------------------------------------------------
      1          6           0       -1.781176   -0.608642    0.035760
      2          6           0       -0.441488    0.013091   -0.339016
      3          7           0       -0.259635    1.390948    0.115472
      4          6           0        0.759095   -0.779246    0.188727
      5          8           0        1.944742   -0.108978   -0.096524
      6          1           0       -1.904175   -0.651972    1.136481
      7          1           0       -1.871684   -1.640237   -0.353962
      8          1           0       -2.621391   -0.017797   -0.374535
      9          1           0       -0.346099    0.038703   -1.440612
     10          1           0       -0.816475    2.050092   -0.427234
     11          1           0       -0.534561    1.489733    1.095914
     12          1           0        0.794060   -1.781581   -0.275557
     13          1           0        0.627845   -0.938903    1.287948
     14          1           0        1.713405    0.835939    0.002619
 ---------------------------------------------------------------------
 Rotational constants (GHZ):           8.1057748           3.6996433           2.7915128
    88 basis functions,   161 primitive gaussians,    93 cartesian basis functions
    21 alpha electrons       21 beta electrons
       nuclear repulsion energy       196.0794091900 Hartrees.
 NAtoms=   14 NActive=   14 NUniq=   14 SFac= 1.00D+00 NAtFMM=   60 NAOKFM=F Big=F
 Nuclear repulsion after empirical dispersion term =      196.0726226261 Hartrees.
   1 Symmetry operations used in ECPInt.
 ECPInt:  NShTT=    1176 NPrTT=    4748 LenC2=    1175 LenP2D=    4023.
 LDataN:  DoStor=T MaxTD1= 4 Len=   56
 Initial guess from the checkpoint file:  "monomer.chk"
 B after Tr=     0.000000    0.000000    0.000000
         Rot=    0.999974   -0.004087   -0.000925    0.005875 Ang=  -0.83 deg.
 ExpMin= 1.22D-01 ExpMax= 2.27D+03 ExpMxC= 3.41D+02 IAcc=3 IRadAn=         5 AccDes= 0.00D+00
 Harris functional with IExCor= 4639 and IRadAn=       5 diagonalized for initial guess.
 HarFok:  IExCor= 4639 AccDes= 0.00D+00 IRadAn=         5 IDoV= 1 UseB2=F ITyADJ=14
 ICtDFT=  3500011 ScaDFX=  1.000000  1.000000  1.000000  1.000000
 FoFCou: FMM=F IPFlag=           0 FMFlag=      100000 FMFlg1=           0
         NFxFlg=           0 DoJE=T BraDBF=F KetDBF=T FulRan=T
         wScrn=  0.000000 ICntrl=       500 IOpCl=  0 I1Cent=   200000004 NGrid=           0
         NMat0=    1 NMatS0=      1 NMatT0=    0 NMatD0=    1 NMtDS0=    0 NMtDT0=    0
 Petite list used in FoFCou.
     Minimum is close to point  4 DX=  1.20D-01 DF= -1.74D-05 DXR=  9.07D-02 DFR=  8.29D-03 which will be used.
     Accept linear search using points  2 and  3.
     Accept linear search using points  1 and  2.
     Accept linear search using points  1 and  2.
     Accept linear search using points  1 and  2.
     Minimum is close to point  2 DX= -1.86D-04 DF= -3.01D-12 DXR=  1.86D-04 DFR=  3.47D-08 which will be used.
 SCF Done:  E(RwB97XD) =  -249.418096446     a.u. after    7 cycles
            Convg  =    0.2602D-08                    33 Fock formations.
              S**2 =  0.0000                  -V/T =  2.0091
   1 Symmetry operations used in ECPInt.
 ECPInt:  NShTT=    1176 NPrTT=    4748 LenC2=    1175 LenP2D=    4023.
 LDataN:  DoStor=T MaxTD1= 5 Len=  102
 Calling FoFJK, ICntrl=      2127 FMM=F ISym2X=0 I1Cent= 0 IOpClX= 0 NMat=1 NMatS=1 NMatT=0.

 GradGradGradGradGradGradGradGradGradGradGradGradGradGradGradGradGradGrad
 Using GEDIIS/GDIIS optimizer.
 FormGI is forming the generalized inverse of G from B-inverse, IUseBI=4.
 Internal  Forces:  Max     0.001673857 RMS     0.000678006
 Step number   4 out of a maximum of   72
 All quantities printed in internal units (Hartrees-Bohrs-Radians)
 Mixed Optimization -- En-DIIS/RFO-DIIS
 Swapping is turned off.
 Trust test=-7.90D-02 RLast= 2.74D-01 DXMaxT set to 2.52D-01
 ITU= -1  1  1  0
     Eigenvalues ---    0.00326   0.00401   0.00776   0.01889   0.03891
     Eigenvalues ---    0.04030   0.04645   0.05392   0.05469   0.05537
     Eigenvalues ---    0.05739   0.06699   0.11558   0.14147   0.15391
     Eigenvalues ---    0.16000   0.16000   0.16007   0.16047   0.16196
     Eigenvalues ---    0.17283   0.19382   0.22310   0.29087   0.29783
     Eigenvalues ---    0.33379   0.34154   0.34518   0.34938   0.35105
     Eigenvalues ---    0.35496   0.39483   0.44748   0.45234   0.45617
     Eigenvalues ---    0.52900
 En-DIIS/RFO-DIIS/Sim-DIIS IScMMF=       -3 using points:     4    3    2
 RFO step:  Lambda=-1.91294221D-04.
 EnCoef did     3 forward-backward iterations
 DidBck=T Rises=T En-DIIS coefs:    0.47693    0.28686    0.23622
 Iteration  1 RMS(Cart)=  0.02070590 RMS(Int)=  0.00020179
 Iteration  2 RMS(Cart)=  0.00026586 RMS(Int)=  0.00000407
 Iteration  3 RMS(Cart)=  0.00000002 RMS(Int)=  0.00000407
 Variable       Old X    -DE/DX   Delta X   Delta X   Delta X     New X
                                 (Linear)    (Quad)   (Total)
    R1        2.87944   0.00099   0.00625  -0.00287   0.00337   2.88282
    R2        2.09461  -0.00152  -0.00174  -0.00127  -0.00302   2.09159
    R3        2.09092  -0.00125  -0.00105  -0.00127  -0.00231   2.08860
    R4        2.09018  -0.00126  -0.00107  -0.00135  -0.00242   2.08775
    R5        2.76322   0.00167   0.00142   0.00205   0.00347   2.76669
    R6        2.89548   0.00125  -0.00296   0.00419   0.00123   2.89671
    R7        2.09006  -0.00092  -0.00131  -0.00066  -0.00197   2.08810
    R8        1.92629  -0.00065   0.00016  -0.00097  -0.00081   1.92548
    R9        1.93326  -0.00079  -0.00024  -0.00108  -0.00132   1.93194
   R10        2.62963   0.00083   0.00505  -0.00297   0.00208   2.63171
   R11        2.08852  -0.00078  -0.00158   0.00014  -0.00144   2.08708
   R12        2.11363  -0.00131  -0.00292  -0.00022  -0.00314   2.11049
   R13        1.84789  -0.00081  -0.00394   0.00241  -0.00153   1.84637
    A1        1.93667  -0.00040  -0.00314   0.00085  -0.00229   1.93438
    A2        1.94519  -0.00009  -0.00068   0.00077   0.00010   1.94529
    A3        1.93765  -0.00019  -0.00189   0.00091  -0.00098   1.93667
    A4        1.87995   0.00019   0.00260  -0.00211   0.00049   1.88044
    A5        1.88069   0.00036   0.00207  -0.00026   0.00181   1.88251
    A6        1.88099   0.00018   0.00136  -0.00031   0.00105   1.88204
    A7        2.00136  -0.00049   0.00158  -0.00146   0.00013   2.00149
    A8        1.97490  -0.00121  -0.00519  -0.00050  -0.00569   1.96922
    A9        1.90737   0.00029   0.00041  -0.00138  -0.00096   1.90641
   A10        1.85748   0.00135   0.00115   0.00350   0.00465   1.86213
   A11        1.85150   0.00007   0.00287   0.00007   0.00295   1.85445
   A12        1.86236   0.00011  -0.00051  -0.00006  -0.00057   1.86178
   A13        1.95617   0.00002  -0.00108   0.00155   0.00048   1.95665
   A14        1.93419   0.00010  -0.00316   0.00434   0.00119   1.93537
   A15        1.87653   0.00000  -0.00118   0.00208   0.00091   1.87744
   A16        1.92616   0.00113   0.00183   0.00064   0.00247   1.92864
   A17        1.92739  -0.00014   0.00210  -0.00331  -0.00121   1.92618
   A18        1.89691  -0.00083  -0.00334   0.00040  -0.00294   1.89397
   A19        1.90051  -0.00098  -0.00653   0.00254  -0.00399   1.89652
   A20        1.95002   0.00030   0.00032   0.00185   0.00217   1.95219
   A21        1.86201   0.00048   0.00581  -0.00231   0.00350   1.86551
   A22        1.81635   0.00053   0.00489  -0.00170   0.00319   1.81953
    D1       -1.07010  -0.00018  -0.00094   0.00513   0.00419  -1.06592
    D2        1.06502   0.00029  -0.00235   0.00832   0.00597   1.07099
    D3        3.13743  -0.00015  -0.00597   0.00699   0.00102   3.13845
    D4        3.11799  -0.00008  -0.00166   0.00671   0.00504   3.12303
    D5       -1.03007   0.00038  -0.00307   0.00990   0.00683  -1.02325
    D6        1.04234  -0.00006  -0.00669   0.00857   0.00188   1.04422
    D7        1.02091  -0.00012  -0.00165   0.00596   0.00431   1.02522
    D8       -3.12715   0.00034  -0.00306   0.00915   0.00609  -3.12106
    D9       -1.05474  -0.00010  -0.00668   0.00782   0.00114  -1.05359
   D10       -1.27882  -0.00045   0.04099  -0.04098   0.00001  -1.27881
   D11        0.81762  -0.00037   0.03661  -0.03430   0.00232   0.81993
   D12        2.80683   0.00041   0.04575  -0.04205   0.00370   2.81053
   D13       -1.37992   0.00050   0.04137  -0.03536   0.00601  -1.37391
   D14        0.82791  -0.00034   0.04453  -0.04357   0.00096   0.82887
   D15        2.92435  -0.00025   0.04015  -0.03688   0.00327   2.92762
   D16       -3.06195  -0.00069  -0.04156   0.00303  -0.03852  -3.10047
   D17        1.11899  -0.00011  -0.03595   0.00159  -0.03436   1.08463
   D18       -0.91792  -0.00013  -0.04219   0.00601  -0.03618  -0.95410
   D19       -0.84848  -0.00113  -0.04223   0.00345  -0.03878  -0.88727
   D20       -2.95073  -0.00055  -0.03662   0.00201  -0.03461  -2.98535
   D21        1.29555  -0.00057  -0.04286   0.00643  -0.03644   1.25911
   D22        1.12296  -0.00039  -0.03867   0.00508  -0.03359   1.08938
   D23       -0.97928   0.00018  -0.03306   0.00364  -0.02942  -1.00870
   D24       -3.01619   0.00016  -0.03930   0.00806  -0.03124  -3.04743
   D25        0.63018  -0.00042   0.01505  -0.01799  -0.00294   0.62724
   D26        2.74847  -0.00051   0.01458  -0.02004  -0.00546   2.74301
   D27       -1.48250  -0.00035   0.01781  -0.02018  -0.00237  -1.48487
         Item               Value     Threshold  Converged?
 Maximum Force            0.001674     0.000015     NO 
 RMS     Force            0.000678     0.000010     NO 
 Maximum Displacement     0.076755     0.000060     NO 
 RMS     Displacement     0.020707     0.000040     NO 
 GradGradGradGradGradGradGradGradGradGradGradGradGradGradGradGradGradGrad

                    Distance matrix (angstroms):
                    1          2          3          4          5
     1  C    0.000000
     2  C    1.525522   0.000000
     3  N    2.517072   1.464069   0.000000
     4  C    2.547818   1.532875   2.404665   0.000000
     5  O    3.764122   2.405107   2.704989   1.392639   0.000000
     6  H    1.106822   2.180186   2.812735   2.825716   4.088370
     7  H    1.105241   2.186846   3.467196   2.813215   4.107309
     8  H    1.104792   2.180306   2.796598   3.507492   4.578814
     9  H    2.158359   1.104974   2.066389   2.131330   2.647260
    10  H    2.869114   2.074742   1.018922   3.301931   3.546208
    11  H    2.665673   2.063015   1.022339   2.768979   3.218753
    12  H    2.825544   2.178899   3.372274   1.104433   2.035576
    13  H    2.742906   2.164335   2.739431   1.116821   2.084364
    14  H    3.797726   2.337885   2.093221   1.887863   0.977055
                    6          7          8          9         10
     6  H    0.000000
     7  H    1.786658   0.000000
     8  H    1.787640   1.786060   0.000000
     9  H    3.086999   2.515772   2.511632   0.000000
    10  H    3.303651   3.842262   2.749431   2.305395   0.000000
    11  H    2.543037   3.701819   2.971370   2.930564   1.646898
    12  H    3.219995   2.641618   3.826127   2.452722   4.166823
    13  H    2.559737   3.084485   3.768066   3.055178   3.722379
    14  H    4.102656   4.371306   4.450909   2.616494   2.869162
                   11         12         13         14
    11  H    0.000000
    12  H    3.784950   0.000000
    13  H    2.680793   1.784269   0.000000
    14  H    2.642054   2.786502   2.449624   0.000000
 Framework group  C1[X(C3H9NO)]
 Deg. of freedom    36
                         Standard orientation:                         
 ---------------------------------------------------------------------
 Center     Atomic      Atomic             Coordinates (Angstroms)
 Number     Number       Type             X           Y           Z
 ---------------------------------------------------------------------
      1          6           0       -1.773956   -0.627405    0.025836
      2          6           0       -0.438735    0.015565   -0.336091
      3          7           0       -0.282055    1.397653    0.120838
      4          6           0        0.763771   -0.766043    0.204994
      5          8           0        1.952108   -0.110220   -0.106767
      6          1           0       -1.906540   -0.667851    1.123944
      7          1           0       -1.842823   -1.660819   -0.360005
      8          1           0       -2.617170   -0.051756   -0.396283
      9          1           0       -0.332524    0.039477   -1.435689
     10          1           0       -0.843090    2.048502   -0.426736
     11          1           0       -0.565502    1.492706    1.098488
     12          1           0        0.793180   -1.778784   -0.234623
     13          1           0        0.636567   -0.894377    1.307101
     14          1           0        1.728940    0.838397   -0.036355
 ---------------------------------------------------------------------
 Rotational constants (GHZ):           8.0521051           3.6860576           2.7807975
    88 basis functions,   161 primitive gaussians,    93 cartesian basis functions
    21 alpha electrons       21 beta electrons
       nuclear repulsion energy       195.8266919740 Hartrees.
 NAtoms=   14 NActive=   14 NUniq=   14 SFac= 1.00D+00 NAtFMM=   60 NAOKFM=F Big=F
 Nuclear repulsion after empirical dispersion term =      195.8199076321 Hartrees.
   1 Symmetry operations used in ECPInt.
 ECPInt:  NShTT=    1176 NPrTT=    4748 LenC2=    1175 LenP2D=    4024.
 LDataN:  DoStor=T MaxTD1= 4 Len=   56
 Initial guess from the checkpoint file:  "monomer.chk"
 B after Tr=     0.000000   -0.000000   -0.000000
         Rot=    0.999991    0.001821    0.000844   -0.003848 Ang=   0.50 deg.
 ExpMin= 1.22D-01 ExpMax= 2.27D+03 ExpMxC= 3.41D+02 IAcc=3 IRadAn=         5 AccDes= 0.00D+00
 Harris functional with IExCor= 4639 and IRadAn=       5 diagonalized for initial guess.
 HarFok:  IExCor= 4639 AccDes= 0.00D+00 IRadAn=         5 IDoV= 1 UseB2=F ITyADJ=14
 ICtDFT=  3500011 ScaDFX=  1.000000  1.000000  1.000000  1.000000
 FoFCou: FMM=F IPFlag=           0 FMFlag=      100000 FMFlg1=           0
         NFxFlg=           0 DoJE=T BraDBF=F KetDBF=T FulRan=T
         wScrn=  0.000000 ICntrl=       500 IOpCl=  0 I1Cent=   200000004 NGrid=           0
         NMat0=    1 NMatS0=      1 NMatT0=    0 NMatD0=    1 NMtDS0=    0 NMtDT0=    0
 Petite list used in FoFCou.
     Minimum is close to point  4 DX=  1.11D-01 DF= -2.99D-06 DXR=  8.46D-02 DFR=  7.21D-03 which will be used.
     Accept linear search using points  2 and  3.
     Minimum is close to point  2 DX=  5.50D-05 DF= -2.27D-13 DXR=  5.50D-05 DFR=  3.31D-09 which will be used.
 SCF Done:  E(RwB97XD) =  -249.418192592     a.u. after    5 cycles
            Convg  =    0.1134D-08                    29 Fock formations.
              S**2 =  0.0000                  -V/T =  2.0091
   1 Symmetry operations used in ECPInt.
 ECPInt:  NShTT=    1176 NPrTT=    4748 LenC2=    1175 LenP2D=    4024.
 LDataN:  DoStor=T MaxTD1= 5 Len=  102
 Calling FoFJK, ICntrl=      2127 FMM=F ISym2X=0 I1Cent= 0 IOpClX= 0 NMat=1 NMatS=1 NMatT=0.

 GradGradGradGradGradGradGradGradGradGradGradGradGradGradGradGradGradGrad
 Using GEDIIS/GDIIS optimizer.
 FormGI is forming the generalized inverse of G from B-inverse, IUseBI=4.
 Internal  Forces:  Max     0.000599781 RMS     0.000227441
 Step number   5 out of a maximum of   72
 All quantities printed in internal units (Hartrees-Bohrs-Radians)
 Mixed Optimization -- En-DIIS/RFO-DIIS
 Swapping is turned off.
 Trust test= 1.01D+00 RLast= 1.07D-01 DXMaxT set to 3.21D-01
 ITU=  1 -1  1  1  0
     Eigenvalues ---    0.00333   0.00419   0.00823   0.02135   0.03889
     Eigenvalues ---    0.04047   0.04745   0.05348   0.05473   0.05544
     Eigenvalues ---    0.05879   0.06656   0.11602   0.14190   0.15700
     Eigenvalues ---    0.15964   0.16000   0.16006   0.16047   0.16318
     Eigenvalues ---    0.17607   0.18913   0.22192   0.29335   0.30293
     Eigenvalues ---    0.33202   0.34075   0.34602   0.34913   0.35041
     Eigenvalues ---    0.35690   0.40411   0.44814   0.44905   0.45491
     Eigenvalues ---    0.53268
 En-DIIS/RFO-DIIS/Sim-DIIS IScMMF=       -3 using points:     5    4    3    2
 RFO step:  Lambda=-1.54962051D-05.
 DidBck=F Rises=F RFO-DIIS coefs:    1.14139   -0.08107   -0.15065    0.09033
 Iteration  1 RMS(Cart)=  0.00255672 RMS(Int)=  0.00000484
 Iteration  2 RMS(Cart)=  0.00000492 RMS(Int)=  0.00000119
 Iteration  3 RMS(Cart)=  0.00000000 RMS(Int)=  0.00000119
 Variable       Old X    -DE/DX   Delta X   Delta X   Delta X     New X
                                 (Linear)    (Quad)   (Total)
    R1        2.88282   0.00044   0.00083   0.00116   0.00199   2.88481
    R2        2.09159  -0.00053  -0.00071  -0.00093  -0.00163   2.08996
    R3        2.08860  -0.00052  -0.00055  -0.00098  -0.00153   2.08708
    R4        2.08775  -0.00047  -0.00057  -0.00083  -0.00140   2.08635
    R5        2.76669  -0.00042   0.00074  -0.00170  -0.00096   2.76573
    R6        2.89671  -0.00018  -0.00002  -0.00058  -0.00060   2.89611
    R7        2.08810  -0.00029  -0.00046  -0.00050  -0.00096   2.08714
    R8        1.92548  -0.00030  -0.00017  -0.00051  -0.00068   1.92481
    R9        1.93194  -0.00043  -0.00033  -0.00064  -0.00096   1.93098
   R10        2.63171   0.00034   0.00056   0.00052   0.00108   2.63279
   R11        2.08708  -0.00034  -0.00032  -0.00077  -0.00109   2.08598
   R12        2.11049  -0.00054  -0.00077  -0.00106  -0.00183   2.10866
   R13        1.84637  -0.00060  -0.00040  -0.00099  -0.00139   1.84498
    A1        1.93438  -0.00013  -0.00054  -0.00059  -0.00113   1.93325
    A2        1.94529  -0.00016   0.00010  -0.00132  -0.00123   1.94406
    A3        1.93667  -0.00008  -0.00028  -0.00017  -0.00045   1.93622
    A4        1.88044   0.00013   0.00013   0.00062   0.00075   1.88119
    A5        1.88251   0.00013   0.00038   0.00084   0.00123   1.88373
    A6        1.88204   0.00013   0.00025   0.00075   0.00099   1.88304
    A7        2.00149   0.00018   0.00049  -0.00057  -0.00008   2.00141
    A8        1.96922  -0.00032  -0.00112  -0.00177  -0.00289   1.96633
    A9        1.90641   0.00008  -0.00015   0.00159   0.00144   1.90785
   A10        1.86213   0.00000   0.00086  -0.00150  -0.00064   1.86149
   A11        1.85445  -0.00012   0.00025  -0.00016   0.00009   1.85454
   A12        1.86178   0.00019  -0.00031   0.00271   0.00240   1.86419
   A13        1.95665  -0.00027   0.00005  -0.00153  -0.00147   1.95517
   A14        1.93537   0.00000   0.00032  -0.00029   0.00003   1.93540
   A15        1.87744   0.00018   0.00027   0.00117   0.00144   1.87888
   A16        1.92864   0.00005   0.00038  -0.00041  -0.00003   1.92860
   A17        1.92618  -0.00018  -0.00017  -0.00094  -0.00111   1.92507
   A18        1.89397   0.00008  -0.00072   0.00120   0.00048   1.89445
   A19        1.89652   0.00002  -0.00028  -0.00109  -0.00137   1.89515
   A20        1.95219  -0.00017  -0.00009  -0.00102  -0.00110   1.95109
   A21        1.86551   0.00019   0.00089   0.00231   0.00320   1.86871
   A22        1.81953   0.00021   0.00087   0.00071   0.00158   1.82111
    D1       -1.06592   0.00003   0.00035   0.00291   0.00325  -1.06266
    D2        1.07099  -0.00008   0.00100  -0.00101  -0.00001   1.07098
    D3        3.13845   0.00001  -0.00019   0.00234   0.00215   3.14060
    D4        3.12303   0.00006   0.00048   0.00340   0.00388   3.12691
    D5       -1.02325  -0.00005   0.00113  -0.00051   0.00062  -1.02263
    D6        1.04422   0.00004  -0.00006   0.00284   0.00278   1.04699
    D7        1.02522   0.00006   0.00029   0.00346   0.00376   1.02897
    D8       -3.12106  -0.00005   0.00094  -0.00045   0.00049  -3.12057
    D9       -1.05359   0.00004  -0.00025   0.00290   0.00265  -1.05095
   D10       -1.27881  -0.00015   0.00170  -0.00241  -0.00071  -1.27952
   D11        0.81993  -0.00010   0.00231  -0.00215   0.00015   0.82009
   D12        2.81053   0.00014   0.00214   0.00147   0.00361   2.81414
   D13       -1.37391   0.00018   0.00275   0.00172   0.00447  -1.36944
   D14        0.82887  -0.00003   0.00200  -0.00087   0.00113   0.83000
   D15        2.92762   0.00002   0.00261  -0.00061   0.00199   2.92961
   D16       -3.10047   0.00006   0.00012   0.00160   0.00172  -3.09876
   D17        1.08463   0.00012   0.00033   0.00382   0.00416   1.08879
   D18       -0.95410  -0.00006  -0.00022   0.00086   0.00064  -0.95345
   D19       -0.88727   0.00008   0.00063  -0.00148  -0.00085  -0.88811
   D20       -2.98535   0.00013   0.00085   0.00075   0.00160  -2.98375
   D21        1.25911  -0.00004   0.00029  -0.00221  -0.00192   1.25719
   D22        1.08938   0.00003   0.00116  -0.00111   0.00006   1.08944
   D23       -1.00870   0.00009   0.00138   0.00112   0.00250  -1.00620
   D24       -3.04743  -0.00009   0.00083  -0.00184  -0.00102  -3.04845
   D25        0.62724   0.00017   0.00178   0.00370   0.00548   0.63272
   D26        2.74301  -0.00000   0.00163   0.00159   0.00322   2.74622
   D27       -1.48487   0.00015   0.00249   0.00314   0.00564  -1.47924
         Item               Value     Threshold  Converged?
 Maximum Force            0.000600     0.000015     NO 
 RMS     Force            0.000227     0.000010     NO 
 Maximum Displacement     0.009409     0.000060     NO 
 RMS     Displacement     0.002556     0.000040     NO 
 GradGradGradGradGradGradGradGradGradGradGradGradGradGradGradGradGradGrad

                    Distance matrix (angstroms):
                    1          2          3          4          5
     1  C    0.000000
     2  C    1.526576   0.000000
     3  N    2.517481   1.463561   0.000000
     4  C    2.545982   1.532557   2.403431   0.000000
     5  O    3.763765   2.405273   2.704387   1.393212   0.000000
     6  H    1.105957   2.179644   2.810511   2.822010   4.085201
     7  H    1.104433   2.186281   3.466165   2.809131   4.104819
     8  H    1.104051   2.180349   2.798002   3.505335   4.578644
     9  H    2.159968   1.104466   2.065648   2.132511   2.649215
    10  H    2.868384   2.073036   1.018564   3.300445   3.546452
    11  H    2.665704   2.062205   1.021829   2.765244   3.215036
    12  H    2.823579   2.177377   3.370048   1.103856   2.034649
    13  H    2.739887   2.163700   2.737126   1.115853   2.083339
    14  H    3.800516   2.341382   2.095628   1.888946   0.976319
                    6          7          8          9         10
     6  H    0.000000
     7  H    1.785792   0.000000
     8  H    1.787139   1.785454   0.000000
     9  H    3.086757   2.517294   2.511842   0.000000
    10  H    3.300272   3.841018   2.749996   2.303739   0.000000
    11  H    2.540545   3.699929   2.973601   2.929512   1.647065
    12  H    3.217811   2.637543   3.822958   2.452160   4.164006
    13  H    2.555066   3.079208   3.764762   3.055239   3.719356
    14  H    4.101059   4.372147   4.454918   2.622557   2.873444
                   11         12         13         14
    11  H    0.000000
    12  H    3.781185   0.000000
    13  H    2.675838   1.785140   0.000000
    14  H    2.639634   2.786341   2.447142   0.000000
 Framework group  C1[X(C3H9NO)]
 Deg. of freedom    36
                         Standard orientation:                         
 ---------------------------------------------------------------------
 Center     Atomic      Atomic             Coordinates (Angstroms)
 Number     Number       Type             X           Y           Z
 ---------------------------------------------------------------------
      1          6           0       -1.774102   -0.626991    0.026965
      2          6           0       -0.438822    0.016709   -0.337881
      3          7           0       -0.280805    1.397613    0.120535
      4          6           0        0.761870   -0.766244    0.204385
      5          8           0        1.951827   -0.111578   -0.106189
      6          1           0       -1.903985   -0.665423    1.124596
      7          1           0       -1.841323   -1.660326   -0.357057
      8          1           0       -2.617310   -0.052769   -0.395170
      9          1           0       -0.333697    0.041866   -1.437045
     10          1           0       -0.843032    2.048061   -0.425624
     11          1           0       -0.561335    1.491192    1.098635
     12          1           0        0.790911   -1.777355   -0.237553
     13          1           0        0.634423   -0.893644    1.305591
     14          1           0        1.732688    0.836887   -0.031414
 ---------------------------------------------------------------------
 Rotational constants (GHZ):           8.0535285           3.6876149           2.7820990
    88 basis functions,   161 primitive gaussians,    93 cartesian basis functions
    21 alpha electrons       21 beta electrons
       nuclear repulsion energy       195.8609381677 Hartrees.
 NAtoms=   14 NActive=   14 NUniq=   14 SFac= 1.00D+00 NAtFMM=   60 NAOKFM=F Big=F
 Nuclear repulsion after empirical dispersion term =      195.8541504470 Hartrees.
   1 Symmetry operations used in ECPInt.
 ECPInt:  NShTT=    1176 NPrTT=    4748 LenC2=    1175 LenP2D=    4024.
 LDataN:  DoStor=T MaxTD1= 4 Len=   56
 Initial guess from the checkpoint file:  "monomer.chk"
 B after Tr=    -0.000000    0.000000    0.000000
         Rot=    1.000000   -0.000063   -0.000066    0.000306 Ang=  -0.04 deg.
     Accept linear search using points  1 and  2.
     Minimum is close to point  2 DX= -1.22D-05 DF=  0.00D+00 DXR=  1.22D-05 DFR=  0.00D+00 which will be used.
 SCF Done:  E(RwB97XD) =  -249.418201223     a.u. after    3 cycles
            Convg  =    0.1974D-09                    21 Fock formations.
              S**2 =  0.0000                  -V/T =  2.0091
   1 Symmetry operations used in ECPInt.
 ECPInt:  NShTT=    1176 NPrTT=    4748 LenC2=    1175 LenP2D=    4024.
 LDataN:  DoStor=T MaxTD1= 5 Len=  102
 Calling FoFJK, ICntrl=      2127 FMM=F ISym2X=0 I1Cent= 0 IOpClX= 0 NMat=1 NMatS=1 NMatT=0.

 GradGradGradGradGradGradGradGradGradGradGradGradGradGradGradGradGradGrad
 Using GEDIIS/GDIIS optimizer.
 FormGI is forming the generalized inverse of G from B-inverse, IUseBI=4.
 Internal  Forces:  Max     0.000115634 RMS     0.000040133
 Step number   6 out of a maximum of   72
 All quantities printed in internal units (Hartrees-Bohrs-Radians)
 Mixed Optimization -- En-DIIS/RFO-DIIS
 Swapping is turned off.
 Trust test= 1.12D+00 RLast= 1.65D-02 DXMaxT set to 3.21D-01
 ITU=  1  1 -1  1  1  0
     Eigenvalues ---    0.00324   0.00420   0.00819   0.02062   0.03889
     Eigenvalues ---    0.04166   0.04761   0.05428   0.05474   0.05572
     Eigenvalues ---    0.05666   0.06660   0.11631   0.14206   0.15062
     Eigenvalues ---    0.15850   0.16001   0.16006   0.16240   0.16475
     Eigenvalues ---    0.17507   0.18666   0.22044   0.28453   0.30446
     Eigenvalues ---    0.33053   0.34070   0.34602   0.34920   0.35100
     Eigenvalues ---    0.37376   0.40763   0.44467   0.45033   0.45918
     Eigenvalues ---    0.52963
 En-DIIS/RFO-DIIS/Sim-DIIS IScMMF=       -3 using points:     6    5    4    3    2
 RFO step:  Lambda=-8.77327781D-07.
 DidBck=F Rises=F RFO-DIIS coefs:    1.05582    0.05861   -0.05542   -0.08459    0.02557
 Iteration  1 RMS(Cart)=  0.00101379 RMS(Int)=  0.00000066
 Iteration  2 RMS(Cart)=  0.00000065 RMS(Int)=  0.00000038
 Variable       Old X    -DE/DX   Delta X   Delta X   Delta X     New X
                                 (Linear)    (Quad)   (Total)
    R1        2.88481   0.00007   0.00027   0.00007   0.00034   2.88515
    R2        2.08996  -0.00002  -0.00045   0.00029  -0.00016   2.08980
    R3        2.08708  -0.00001  -0.00038   0.00027  -0.00011   2.08696
    R4        2.08635  -0.00000  -0.00039   0.00030  -0.00009   2.08626
    R5        2.76573   0.00003   0.00037  -0.00038  -0.00001   2.76572
    R6        2.89611   0.00009   0.00020   0.00012   0.00032   2.89643
    R7        2.08714  -0.00004  -0.00028   0.00012  -0.00016   2.08697
    R8        1.92481   0.00001  -0.00016   0.00011  -0.00005   1.92476
    R9        1.93098  -0.00002  -0.00025   0.00014  -0.00012   1.93086
   R10        2.63279   0.00008   0.00011   0.00006   0.00017   2.63296
   R11        2.08598  -0.00001  -0.00018   0.00010  -0.00009   2.08590
   R12        2.10866  -0.00007  -0.00043   0.00013  -0.00029   2.10836
[...]
 ! A19   A(5,4,12)             108.5684         -DE/DX =    0.0                 !
 ! A20   A(5,4,13)             111.7638         -DE/DX =    0.0                 !
 ! A21   A(12,4,13)            107.0915         -DE/DX =    0.0                 !
 ! A22   A(4,5,14)             104.3195         -DE/DX =    0.0                 !
 ! D1    D(6,1,2,3)            -60.882          -DE/DX =    0.0                 !
 ! D2    D(6,1,2,4)             61.4043         -DE/DX =    0.0                 !
 ! D3    D(6,1,2,9)            179.9635         -DE/DX =    0.0                 !
 ! D4    D(7,1,2,3)            179.1773         -DE/DX =    0.0                 !
 ! D5    D(7,1,2,4)            -58.5364         -DE/DX =    0.0                 !
 ! D6    D(7,1,2,9)             60.0227         -DE/DX =    0.0                 !
 ! D7    D(8,1,2,3)             58.9608         -DE/DX =    0.0                 !
 ! D8    D(8,1,2,4)           -178.7528         -DE/DX =    0.0                 !
 ! D9    D(8,1,2,9)            -60.1937         -DE/DX =    0.0                 !
 ! D10   D(1,2,3,10)           -73.5132         -DE/DX =    0.0                 !
 ! D11   D(1,2,3,11)            46.8431         -DE/DX =    0.0                 !
 ! D12   D(4,2,3,10)           161.0342         -DE/DX =    0.0                 !
 ! D13   D(4,2,3,11)           -78.6095         -DE/DX =    0.0                 !
 ! D14   D(9,2,3,10)            47.3271         -DE/DX =    0.0                 !
 ! D15   D(9,2,3,11)           167.6834         -DE/DX =    0.0                 !
 ! D16   D(1,2,4,5)           -177.514          -DE/DX =    0.0                 !
 ! D17   D(1,2,4,12)            62.4109         -DE/DX =    0.0                 !
 ! D18   D(1,2,4,13)           -54.6378         -DE/DX =    0.0                 !
 ! D19   D(3,2,4,5)            -50.8416         -DE/DX =    0.0                 !
 ! D20   D(3,2,4,12)          -170.9166         -DE/DX =    0.0                 !
 ! D21   D(3,2,4,13)            72.0346         -DE/DX =    0.0                 !
 ! D22   D(9,2,4,5)             62.4858         -DE/DX =    0.0                 !
 ! D23   D(9,2,4,12)           -57.5892         -DE/DX =    0.0                 !
 ! D24   D(9,2,4,13)          -174.638          -DE/DX =    0.0                 !
 ! D25   D(2,4,5,14)            36.3349         -DE/DX =    0.0                 !
 ! D26   D(12,4,5,14)          157.4633         -DE/DX =    0.0                 !
 ! D27   D(13,4,5,14)          -84.6357         -DE/DX =    0.0                 !
 --------------------------------------------------------------------------------
 GradGradGradGradGradGradGradGradGradGradGradGradGradGradGradGradGradGrad


 ----------------------------------------------------------------------

 Electric dipole moment (input orientation):
 (Debye = 10**-18 statcoulomb cm , SI units = C m)
                  (au)            (Debye)         (10**-30 SI)
   Tot        0.131381D+01      0.333936D+01      0.111389D+02
   x         -0.126722D+01     -0.322095D+01     -0.107439D+02
   y         -0.313356D+00     -0.796472D+00     -0.265674D+01
   z         -0.148491D+00     -0.377425D+00     -0.125896D+01

 Dipole polarizability, Alpha (input orientation).
 (esu units = cm**3 , SI units = C**2 m**2 J**-1)
 Alpha(0;0):
               (au)            (10**-24 esu)      (10**-40 SI)
   iso        0.428047D+02      0.634301D+01      0.705755D+01
   aniso      0.481369D+01      0.713316D+00      0.793671D+00
   xx         0.444215D+02      0.658259D+01      0.732412D+01
   yx        -0.873369D-01     -0.129420D-01     -0.143999D-01
   yy         0.443738D+02      0.657552D+01      0.731625D+01
   zx         0.159078D+00      0.235730D-01      0.262285D-01
   zy        -0.279440D+00     -0.414088D-01     -0.460735D-01
   zz         0.396189D+02      0.587091D+01      0.653227D+01

 ----------------------------------------------------------------------

 Dipole orientation:
     6         -0.74487580         -2.00556378          2.97345229
     6         -0.73910022         -0.07096938          0.83295072
     7          0.65576709          2.25323872          1.38150778
     6          0.35314424         -1.13566286         -1.62916910
     8          0.41665467          0.72548396         -3.49074923
     1          1.20204765         -2.61874889          3.42192868
     1         -1.84627699         -3.70280056          2.46157524
     1         -1.57961200         -1.19778127          4.70649072
     1         -2.70148941          0.50851727          0.42198128
     1         -0.28762789          3.38748273          2.61768657
     1          2.38177942          1.85612194          2.15058050
     1         -0.81599561         -2.72123978         -2.31473158
     1          2.27382055         -1.90889713         -1.23092063
     1          0.83390838          2.27204840         -2.57567803

 Electric dipole moment (dipole orientation):
 (Debye = 10**-18 statcoulomb cm , SI units = C m)
                  (au)            (Debye)         (10**-30 SI)
   Tot        0.131381D+01      0.333936D+01      0.111389D+02
   x          0.000000D+00      0.000000D+00      0.000000D+00
   y          0.000000D+00      0.000000D+00      0.000000D+00
   z          0.131381D+01      0.333936D+01      0.111389D+02

 Dipole polarizability, Alpha (dipole orientation).
 (esu units = cm**3 , SI units = C**2 m**2 J**-1)
 Alpha(0;0):
               (au)            (10**-24 esu)      (10**-40 SI)
   iso        0.428047D+02      0.634301D+01      0.705755D+01
   aniso      0.481369D+01      0.713316D+00      0.793671D+00
   xx         0.397955D+02      0.589709D+01      0.656140D+01
   yx         0.845367D+00      0.125270D+00      0.139382D+00
   yy         0.442818D+02      0.656188D+01      0.730107D+01
   zx        -0.465682D+00     -0.690070D-01     -0.767806D-01
   zy        -0.113592D-01     -0.168327D-02     -0.187289D-02
   zz         0.443369D+02      0.657005D+01      0.731017D+01

 ----------------------------------------------------------------------
 1\1\GINC-C200\Freq\RwB97XD\def2SVPP\C3H9N1O1\PETERCHAO1\29-Mar-2024\0\
 \#T Geom=AllCheck Guess=TCheck SCRF=Check GenChk RwB97XD/def2SVPP Freq
 \\Monomer\\0,1\C,-1.8017468814,0.7132356831,-0.0507761155\C,-0.4971062
 982,0.0113460256,0.3184708202\N,-0.4017309147,-1.3775117303,-0.1329485
 467\C,0.7380067396,0.7372496339,-0.226146621\O,1.8972633691,0.03072161
 54,0.0876794929\H,-1.9286216713,0.7515830276,-1.148726689\H,-1.8217790
 621,1.7505440076,0.3277931445\H,-2.6704613024,0.1801899475,0.373585817
 5\H,-0.3944046461,-0.0131226021,1.417818828\H,-0.9905721467,-1.9998884
 305,0.4177950758\H,-0.6877968138,-1.4639602162,-1.1100469964\H,0.81295
 53351,1.7478206707,0.2114783719\H,0.6169835967,0.8651728772,-1.3278966
 774\H,1.6355978987,-0.9069885924,0.0151762527\\Version=ES64L-G16RevB.0
 1\State=1-A\HF=-249.4182017\RMSD=3.860e-10\RMSF=1.326e-06\ZeroPoint=0.
 1276508\Thermal=0.1337466\Dipole=-1.2672202,-0.3133561,-0.1484906\Dipo
 leDeriv=-0.0776195,0.0854392,-0.0101693,0.0215246,-0.0472064,-0.011895
 1,-0.0116502,0.0097017,0.0752618,0.3063212,0.0263187,0.0459033,-0.1535
 922,0.5422053,0.0609655,0.0516481,0.093426,0.1457166,-0.6444953,0.1778
 395,-0.0096236,0.1401319,-0.7205418,-0.0482129,0.0231688,-0.0639354,-0
 .21838,0.602367,-0.256307,0.1388354,-0.1447985,0.3963378,-0.08637,0.06
 55812,-0.057976,0.4815456,-0.960568,0.2155012,-0.0654928,0.1897657,-0.
 5808967,0.0990126,-0.0031865,0.0911739,-0.5282424,0.0388615,0.0193258,
 0.018538,0.0175095,0.0607137,-0.022178,-0.0471927,0.0148891,-0.1374631
 ,0.049148,0.0004428,-0.0178319,0.0452223,-0.1223957,-0.0561787,-0.0066
 646,-0.0651706,0.0514348,-0.0932767,-0.043217,0.0395941,-0.0939312,0.0
 099558,0.0539349,0.0565524,0.0482232,0.0398677,0.0072721,0.0163167,-0.
 0255535,0.0071826,-0.0155977,0.0326563,-0.0181556,0.0063334,-0.1465556
 ,0.1294611,-0.1764084,0.0836181,-0.053606,0.1685157,-0.0313359,0.04685
 67,-0.0264462,0.1410527,0.2304898,-0.0824761,-0.1088809,-0.0190489,0.1
 59985,0.0592352,-0.0561955,-0.0085436,0.0529105,0.0159298,-0.0080443,0
 .0016631,0.003894,-0.1394123,-0.0440789,-0.0133955,-0.0919501,0.007757
 5,-0.05315,0.0335954,-0.0642944,0.008751,-0.0047734,0.007757,-0.043597
 8,0.075073,-0.2532375,0.4492589,-0.0083264,-0.0263056,0.0309952,0.2931
 109,-0.0133121,-0.0437687,-0.0247984,0.2883315\Polar=44.4215499,-0.087
 3369,44.3737773,0.1590784,-0.2794401,39.6188681\Quadrupole=-3.6114785,
 2.2942442,1.3172342,0.6310568,-0.4740536,0.2693269\PG=C01 [X(C3H9N1O1)
 ]\NImag=0\\0.52172541,0.04093272,0.56860179,-0.02178727,0.01299238,0.5
 7473188,-0.17845818,0.03734234,-0.03141191,0.51509365,0.04418078,-0.10
 119939,0.01793839,-0.00606227,0.50791357,-0.02793569,0.01468212,-0.097
 28845,0.01281686,-0.00777357,0.64399806,0.00059052,0.03546586,0.011719
 72,-0.06898587,-0.01712022,-0.00017771,0.29360169,0.00417172,-0.033118
 41,-0.01078126,0.02749012,-0.21552385,-0.03116244,0.17176599,0.5390504
 2,0.00104663,0.00311872,0.00389616,0.01815500,-0.03926688,-0.12129474,
 -0.03113021,-0.04271052,0.67580226,-0.02719735,-0.00680932,0.00926187,
 -0.13720359,-0.05194305,0.03706287,-0.00828492,-0.00975878,-0.00204484
 ,0.48906294,0.01324917,0.01161888,-0.00608930,-0.03590366,-0.10263923,
 0.01968655,-0.02437831,-0.03840473,0.01505203,-0.01418303,0.64193582,-
 0.00891512,-0.00587038,0.00373367,0.03680646,0.02766740,-0.10786006,-0
 .00885917,-0.00946296,0.00598952,0.02347596,0.03510405,0.57572664,-0.0
 0579427,-0.00738605,0.00337227,-0.04958568,0.02214137,-0.01070001,-0.0
 0177780,-0.00051502,-0.00075136,-0.21911647,0.04896632,-0.04123172,0.3
 7352758,-0.00138476,0.00128376,0.00060349,0.00017105,0.00134130,-0.002
 99482,-0.01305730,-0.00315715,-0.00094740,0.09815249,-0.14699306,0.023
 01583,0.00359694,0.58322803,0.00195764,0.00179016,0.00061885,0.0086750
 8,-0.00699181,0.00489172,-0.00087361,-0.00027517,0.00480803,-0.0455060
 1,0.01733108,-0.08660554,0.08177217,-0.00512445,0.08092245,-0.05127431
 ,0.00081895,-0.02606770,-0.00313661,0.00002758,-0.03092001,0.00126407,
 -0.00218607,0.00063607,0.00114440,0.00058449,-0.00235304,0.00005681,-0
 .00029720,0.00105405,0.05365299,-0.00007581,-0.04967955,0.00728993,0.0
 0200001,-0.00140215,0.01587727,-0.00114673,0.00158041,0.00092993,-0.00
 098645,-0.00002654,-0.00042471,-0.00001225,-0.00024473,-0.00013753,-0.
 00331628,0.04722136,-0.02690103,0.00726358,-0.30925097,-0.00087825,-0.
 00120308,-0.00915380,0.00041561,0.00031704,0.00230213,0.00110204,0.000
 39899,0.00003685,-0.00005091,-0.00001805,0.00059423,0.03166845,-0.0093
 8441,0.33078965,-0.04994065,0.00145661,0.00031607,0.00450252,0.0244745
 0,0.01253510,-0.00576902,0.00536849,-0.00120056,0.00007119,0.00062590,
 0.00058903,0.00071526,-0.00101249,-0.00014387,-0.00093951,-0.00292760,
 -0.00071898,0.04917639,0.00318565,-0.28421206,-0.08716731,-0.00381565,
 -0.01167776,-0.00579954,0.00503573,-0.00234368,0.00080064,-0.00060470,
 -0.00033113,-0.00022055,0.00018648,0.00067913,0.00021670,-0.00007403,0
 .00390537,0.00192111,-0.00494753,0.30392062,0.00102605,-0.08790092,-0.
 08208099,0.00124503,0.00864829,0.00229554,-0.00220298,0.00139375,0.000
 97386,0.00008461,-0.00036673,0.00014398,0.00019821,0.00017866,-0.00016
 787,0.00057316,-0.02969675,-0.00755406,-0.00015110,0.09462737,0.080851
 18,-0.21050814,-0.10279231,0.08223910,-0.02275681,-0.01659183,0.012262
 01,0.00350474,-0.00063087,-0.00044332,-0.00145376,0.00486349,-0.003280
 70,-0.00273955,0.00015396,0.00065971,0.00409479,0.00323020,-0.00227876
 ,0.00186743,0.00179623,-0.00140875,0.22736798,-0.10450476,-0.11325199,
 0.05158680,0.01464856,0.00702751,-0.00776654,-0.00091719,0.00242024,-0
 .00026895,0.00147143,-0.00213468,0.00097096,0.00141294,0.00026407,-0.0
 0008570,0.00118732,-0.00037970,-0.00084242,-0.02247137,-0.01135137,0.0
 1296025,0.10970612,0.11658519,0.08276668,0.05186365,-0.09019478,-0.008
 92281,-0.00537812,0.00351269,0.00015663,-0.00085870,-0.00033288,-0.000
 72925,0.00128509,-0.00052647,-0.00082085,0.00007057,0.00059284,0.02473
 306,0.01553963,-0.00923300,-0.01039134,-0.00527778,0.00476713,-0.08754
 845,-0.05662527,0.09055055,-0.00385809,0.00226456,-0.02943087,-0.05247
 952,0.00168748,-0.02481815,0.00060155,-0.00083682,0.00205628,0.0005686
 7,-0.00245346,0.02866777,0.00236828,-0.00013018,-0.00205294,-0.0047149
 2,0.00286497,-0.00160966,0.00096173,-0.00003986,0.00054233,0.00093233,
 -0.00087883,0.00009573,0.05784818,0.00104967,-0.00002050,0.01448119,0.
 00099098,-0.04997040,0.01379933,-0.00197649,-0.00682992,-0.03906391,0.
 00081767,-0.00180216,0.01957932,0.00126425,0.00042283,-0.00197436,0.00
 279906,-0.00086025,0.00094704,-0.00046239,0.00020388,0.00010440,-0.000
 12976,0.00044703,-0.00070488,-0.00125942,0.06455242,-0.00026157,0.0009
 2204,-0.00581466,-0.02323766,0.00573949,-0.30689041,-0.00022317,-0.002
 07549,-0.01069469,-0.00165559,0.00205470,-0.01425439,-0.00036223,-0.00
 085693,0.00296754,-0.00095860,0.00066807,0.00109517,-0.00028997,0.0004
 1081,0.00020620,-0.00035088,-0.00022755,0.00051091,0.02511430,-0.00538
 974,0.33094566,0.00166438,0.00127276,-0.00050728,-0.00235031,0.0091255
 8,-0.00268046,-0.15850926,-0.16818863,0.14348031,-0.00138407,-0.001356
 30,-0.00095034,-0.00040349,-0.00259005,-0.00080726,-0.00004204,0.00000
 829,-0.00003040,-0.00047387,-0.00005399,0.00023023,-0.00035796,-0.0000
 5890,0.00040244,0.00024954,-0.00039614,-0.00038749,0.15491777,-0.00058
 619,0.00055707,0.00056154,-0.02315244,-0.02103016,0.02073611,-0.132990
 59,-0.18151935,0.11217774,0.00251528,-0.00631115,-0.00373598,0.0010289
 3,0.00163407,0.00052451,0.00003021,-0.00002336,-0.00010010,0.00015784,
 0.00043768,-0.00037470,0.00101536,-0.00021140,-0.00000845,-0.00017157,
 0.00137750,-0.00032794,0.15163806,0.20259532,-0.00027298,-0.00042898,-
 0.00066702,-0.00867150,-0.00991305,0.00867079,0.11584908,0.11764433,-0
 .17137795,0.00008224,-0.00319216,-0.00049524,-0.00037191,-0.00046205,-
 0.00020245,0.00006311,0.00011501,-0.00007280,-0.00002513,-0.00020310,0
 .00008678,-0.00001679,0.00038328,0.00016671,-0.00078755,-0.00068884,0.
 00050393,-0.13044827,-0.12635122,0.17992815,0.00061728,-0.00110303,0.0
 0197817,-0.00159867,0.00606494,0.00538842,-0.05712885,-0.02703196,-0.1
 3209310,0.00023478,-0.00013432,-0.00234595,-0.00162565,-0.00059203,0.0
 0176512,0.00036137,0.00033570,-0.00033547,0.00000965,-0.00042676,-0.00
 030263,-0.00033750,0.00013193,0.00026247,0.00073732,0.00041284,0.00036
 603,0.00425605,0.00307289,0.02448527,0.05388117,-0.00052821,0.00221388
 ,-0.00118365,-0.01020447,-0.00296950,-0.03935419,-0.02011530,-0.061516
 53,-0.01255924,0.00000486,0.00138179,-0.00160416,0.00052045,-0.0002681
 0,0.00019313,0.00059009,-0.00050632,0.00101234,-0.00037108,0.00038372,
 0.00042280,0.00017866,-0.00005489,0.00017562,0.00009736,-0.00662394,-0
 .00220732,0.01035630,0.00328906,0.02363262,0.01976501,0.06486222,0.000
 32335,0.00211076,0.00235600,-0.00520322,-0.00038234,-0.01259749,-0.087
 27369,-0.02432328,-0.38588013,-0.00003285,-0.00030517,0.00124791,0.000
 02263,0.00014639,-0.00031733,0.00075827,-0.00064860,-0.00003606,-0.000
 43539,0.00059330,0.00022377,0.00025853,-0.00020589,-0.00022083,-0.0000
 3887,-0.00285729,0.00116452,-0.01019904,-0.00299209,-0.01744186,0.1028
 7344,0.02944236,0.41173186,0.00044083,-0.00015710,-0.00029507,0.001518
 55,-0.02082891,-0.01351116,-0.00304474,-0.00444805,0.00365626,-0.05346
 442,-0.03041416,-0.01228705,-0.00237777,0.03794592,0.00794946,-0.00007
 789,-0.00002247,0.00008585,-0.00076339,0.00026801,0.00015889,0.0002200
 9,0.00022458,0.00016957,0.00105200,0.00055577,0.00012704,-0.00049639,-
 0.00143064,-0.00065230,-0.00005438,0.00015388,-0.00004027,0.06109188,0
 .00027774,-0.00007693,0.00008069,0.00059722,-0.01152857,-0.00724201,-0
 .00258655,-0.00104457,0.00199544,-0.02386192,-0.26278673,-0.09708959,0
 .00565562,-0.01967899,-0.00090833,-0.00002694,0.00002257,0.00010606,-0
 .00034976,0.00056349,-0.00000386,-0.00012759,0.00028812,0.00022124,0.0
 0039748,0.00022505,0.00017388,-0.00019573,-0.00054880,-0.00048616,0.00
 002086,0.00002605,0.00003059,0.01714515,0.29035283,-0.00052190,-0.0001
 6461,0.00002593,0.00194295,0.01222140,0.00453053,0.00149623,0.00165940
 ,0.00004659,-0.01128275,-0.10486207,-0.10111875,0.00099777,0.01124262,
 0.00760224,0.00012027,-0.00008509,0.00003642,-0.00016480,-0.00001854,0
 .00023178,-0.00014745,0.00011157,-0.00006761,-0.00053323,0.00037502,0.
 00093932,0.00019727,0.00068740,0.00042032,0.00052515,0.00056064,0.0000
 0914,0.01276132,0.10358874,0.09912728,0.00181337,-0.00027028,0.0009894
 0,0.00024485,-0.00224857,0.02859806,0.00156308,0.00162552,-0.00083594,
 -0.04963035,-0.00182414,-0.01108208,-0.01453812,0.01481034,-0.03465242
 ,-0.00048480,-0.00006532,-0.00058453,-0.00000498,0.00009143,0.00001542
 ,0.00024330,-0.00002928,-0.00024478,-0.00414459,-0.00318786,0.00208517
 ,0.00017608,0.00025259,-0.00010942,-0.00001682,-0.00019778,-0.00046004
 ,0.00205398,-0.00068454,-0.00420355,0.06389698,0.00077985,-0.00000535,
 -0.00009666,-0.00148983,-0.00093657,0.01726442,0.00059823,0.00151643,0
 .00039608,-0.00185844,-0.05856049,0.01320673,0.01175284,-0.00304230,0.
 02176956,-0.00006671,0.00024869,-0.00035433,-0.00016370,0.00002253,-0.
 00008901,0.00003255,-0.00008681,-0.00024065,-0.00198262,-0.00095570,0.
 00145328,0.00016972,0.00015962,-0.00017843,-0.00055699,-0.00021999,-0.
 00025761,-0.00117727,0.00448032,-0.02813388,-0.00653132,0.05666634,-0.
 00062071,0.00023420,0.00029844,-0.00125601,-0.00073657,-0.01552377,0.0
 0039987,-0.00028135,0.00214711,-0.00991677,0.01386994,-0.27819404,-0.0
 1349680,0.01077985,0.00004389,0.00091819,-0.00018209,0.00063123,0.0000
 2382,0.00009242,-0.00001415,0.00021202,-0.00006934,0.00053578,0.002052
 97,0.00166791,0.00024106,-0.00004135,0.00005815,0.00030577,0.00062046,
 0.00116828,-0.00023208,0.00083453,0.00102880,-0.01193248,0.02132279,-0
 .02631331,0.30263842,0.00017920,-0.00103572,-0.00037651,-0.00480433,0.
 00709261,0.00207986,0.00237480,0.00317437,-0.00053121,0.00665294,0.042
 35800,0.00176593,-0.07870914,-0.13576669,-0.01979712,0.00009565,0.0001
 1374,0.00011603,0.00058723,-0.00060100,-0.00000847,-0.00007693,0.00007
 744,0.00007090,-0.00012250,-0.00047818,0.00003462,0.00275359,-0.001379
 72,0.00087615,0.00066424,-0.00024979,-0.00055285,-0.00609836,0.0037389
 7,-0.00118727,-0.00117196,0.00049371,-0.00105301,0.07767558,-0.0007475
 8,-0.00271119,-0.00021621,-0.00261197,0.00259520,0.00004731,0.00142286
 ,-0.00110931,0.00034633,0.00704396,-0.03494658,-0.00113596,-0.08861281
 ,-0.41546884,-0.02632779,-0.00007047,0.00014419,-0.00006375,0.00062257
 ,-0.00020041,0.00009646,-0.00070421,0.00043869,-0.00006196,0.00044092,
 -0.00016583,-0.00033731,0.00026902,-0.00040609,0.00012874,0.00004093,0
 .00000257,-0.00035113,0.00218530,-0.00029384,0.00281741,-0.00174080,0.
 00071330,-0.00131688,0.08246229,0.45140814,0.00009592,-0.00061271,-0.0
 0036405,-0.00006002,-0.00056956,0.00270940,0.00070340,0.00091666,-0.00
 638527,0.00009846,0.01003299,0.00217593,-0.01857726,-0.03563370,-0.015
 74860,-0.00022529,0.00013934,-0.00018498,0.00005711,0.00002448,0.00003
 685,-0.00015627,0.00007881,-0.00006103,0.00074190,-0.00027520,-0.00092
 015,0.00174166,-0.00085498,0.00017488,-0.00318738,0.00030078,-0.000007
 40,0.00104294,-0.00149548,0.00014931,-0.00083810,0.00157382,-0.0009451
 8,0.01856294,0.02637475,0.01937030\\0.00000073,0.00000191,-0.00000033,
 0.00000064,-0.00000239,-0.00000080,-0.00000228,0.00000163,0.00000033,0
 .,-0.00000143,0.00000049,0.00000077,-0.00000211,-0.00000196,0.00000045
 ,0.00000146,0.00000007,0.00000211,0.00000135,-0.00000023,0.00000026,0.
 00000262,0.00000020,-0.00000061,0.00000041,0.00000011,-0.00000196,0.00
 000070,-0.00000020,-0.00000139,0.00000029,-0.00000003,0.00000200,-0.00
 000169,0.00000089,0.00000120,-0.00000014,0.00000020,-0.00000189,-0.000
 00259,0.00000126\\\@


 IF I HAVE SEEN FARTHER, IT IS BY STANDING ON THE
 SHOULDERS OF GIANTS. -- SIR ISAAC NEWTON
 File lengths (MBytes):  RWF=     18 Int=      0 D2E=      0 Chk=      2 Scr=      1
 Normal termination of Gaussian 16 at Fri Mar 29 15:37:58 2024.
real 209.84
user 788.41
sys 9.62
