 Entering Gaussian System, Link 0=g16
 Input=gaussian_test.inp
 Output=gaussian_test.log
 Initial command:
 /sw/restricted/lms/sw/Gaussian/g16_B01/g16/l1.exe "/scratch/user/peterchao1/peterchao1/8495865_1687879436000000962928857/Gau-271698.inp" -scrdir="/scratch/user/peterchao1/peterchao1/8495865_1687879436000000962928857/"
 Entering Link 1 = /sw/restricted/lms/sw/Gaussian/g16_B01/g16/l1.exe PID=    271700.
  
 Copyright (c) 1988-2017, Gaussian, Inc.  All Rights Reserved.
  
 This is part of the Gaussian(R) 16 program.  It is based on
 the Gaussian(R) 09 system (copyright 2009, Gaussian, Inc.),
 the Gaussian(R) 03 system (copyright 2003, Gaussian, Inc.),
 the Gaussian(R) 98 system (copyright 1998, Gaussian, Inc.),
 the Gaussian(R) 94 system (copyright 1995, Gaussian, Inc.),
 the Gaussian 92(TM) system (copyright 1992, Gaussian, Inc.),
 the Gaussian 90(TM) system (copyright 1990, Gaussian, Inc.),
 the Gaussian 88(TM) system (copyright 1988, Gaussian, Inc.),
 the Gaussian 86(TM) system (copyright 1986, Carnegie Mellon
 University), and the Gaussian 82(TM) system (copyright 1983,
 Carnegie Mellon University). Gaussian is a federally registered
 trademark of Gaussian, Inc.
  
 This software contains proprietary and confidential information,
 including trade secrets, belonging to Gaussian, Inc.
  
 This software is provided under written license and may be
 used, copied, transmitted, or stored only in accord with that
 written license.
  
 The following legend is applicable only to US Government
 contracts under FAR:
  
                    RESTRICTED RIGHTS LEGEND
  
 Use, reproduction and disclosure by the US Government is
 subject to restrictions as set forth in subparagraphs (a)
 and (c) of the Commercial Computer Software - Restricted
 Rights clause in FAR 52.227-19.
  
 Gaussian, Inc.
 340 Quinnipiac St., Bldg. 40, Wallingford CT 06492
  
  
 ---------------------------------------------------------------
 Warning -- This program may not be used in any manner that
 competes with the business of Gaussian, Inc. or will provide
 assistance to any competitor of Gaussian, Inc.  The licensee
 of this program is prohibited from giving any competitor of
 Gaussian, Inc. access to this program.  By using this program,
 the user acknowledges that Gaussian, Inc. is engaged in the
 business of creating and licensing software in the field of
 computational chemistry and represents and warrants to the
 licensee that it is not a competitor of Gaussian, Inc. and that
 it will not use this program in any manner prohibited above.
 ---------------------------------------------------------------
  

 Cite this work as:
 Gaussian 16, Revision B.01,
 M. J. Frisch, G. W. Trucks, H. B. Schlegel, G. E. Scuseria, 
 M. A. Robb, J. R. Cheeseman, G. Scalmani, V. Barone, 
 G. A. Petersson, H. Nakatsuji, X. Li, M. Caricato, A. V. Marenich, 
 J. Bloino, B. G. Janesko, R. Gomperts, B. Mennucci, H. P. Hratchian, 
 J. V. Ortiz, A. F. Izmaylov, J. L. Sonnenberg, D. Williams-Young, 
 F. Ding, F. Lipparini, F. Egidi, J. Goings, B. Peng, A. Petrone, 
 T. Henderson, D. Ranasinghe, V. G. Zakrzewski, J. Gao, N. Rega, 
 G. Zheng, W. Liang, M. Hada, M. Ehara, K. Toyota, R. Fukuda, 
 J. Hasegawa, M. Ishida, T. Nakajima, Y. Honda, O. Kitao, H. Nakai, 
 T. Vreven, K. Throssell, J. A. Montgomery, Jr., J. E. Peralta, 
 F. Ogliaro, M. J. Bearpark, J. J. Heyd, E. N. Brothers, K. N. Kudin, 
 V. N. Staroverov, T. A. Keith, R. Kobayashi, J. Normand, 
 K. Raghavachari, A. P. Rendell, J. C. Burant, S. S. Iyengar, 
 J. Tomasi, M. Cossi, J. M. Millam, M. Klene, C. Adamo, R. Cammi, 
 J. W. Ochterski, R. L. Martin, K. Morokuma, O. Farkas, 
 J. B. Foresman, and D. J. Fox, Gaussian, Inc., Wallingford CT, 2016.
 
 ******************************************
 Gaussian 16:  ES64L-G16RevB.01 20-Dec-2017
                27-Jun-2023 
 ******************************************
 %chk=43.chk
 %nprocshared=4
 Will use up to    4 processors via shared memory.
 %mem=8000mb
 ----------------------------------------------------------------------
 #T wB97XD/def2svpp opt=tight freq int(grid=ultrafine) scf=(verytight,q
 c)
 ----------------------------------------------------------------------
 --------------
 Comment gs min
 --------------
 Symbolic Z-matrix:
 Charge =  0 Multiplicity = 1
 C                     1.89274  -0.00338   1.74762 
 C                     2.33266  -0.00433   0.30758 
 N                     1.88624   1.27987  -0.42043 
 O                     2.19275   2.28983   0.12718 
 O                     1.31085   1.13075  -1.45665 
 N                     3.87502  -0.05668   0.17796 
 O                     4.45645  -0.60596   1.05924 
 O                     4.3113    0.45978  -0.80736 
 N                     1.78191  -1.20115  -0.44191 
 O                     2.5793   -1.97086  -0.88747 
 O                     0.58618  -1.25562  -0.50772 
 H                     2.51017  -0.69262   2.32296 
 H                     0.84848  -0.30203   1.83255 
 H                     2.00213   0.99824   2.1616 
 C                    -1.89317   0.00514  -1.74785 
 C                    -2.3328    0.00475  -0.30774 
 N                    -1.88605  -1.28007   0.41903 
 O                    -1.31057  -1.13163   1.45533 
 O                    -2.1925   -2.28961  -0.12931 
 N                    -1.78191   1.20073   0.44294 
 O                    -0.58612   1.25616   0.50699 
 O                    -2.57926   1.96873   0.89151 
 N                    -3.87514   0.05694  -0.17775 
 O                    -4.45652   0.60868  -1.05754 
 O                    -4.3114   -0.46194   0.80628 
 H                    -2.00245  -0.99615  -2.16266 
 H                    -0.84897   0.30402  -1.83272 
 H                    -2.51083   0.69478  -2.32245 
 
 Add virtual bond connecting atoms O18        and H13        Dist= 4.43D+00.
 Add virtual bond connecting atoms O21        and H13        Dist= 4.72D+00.
 Add virtual bond connecting atoms H27        and O5         Dist= 4.43D+00.
 Add virtual bond connecting atoms H27        and O11        Dist= 4.72D+00.

 GradGradGradGradGradGradGradGradGradGradGradGradGradGradGradGradGradGrad
 Initialization pass.
                           ----------------------------
                           !    Initial Parameters    !
                           ! (Angstroms and Degrees)  !
 --------------------------                            --------------------------
 ! Name  Definition              Value          Derivative Info.                !
 --------------------------------------------------------------------------------
 ! R1    R(1,2)                  1.5057         estimate D2E/DX2                !
 ! R2    R(1,12)                 1.0896         estimate D2E/DX2                !
 ! R3    R(1,13)                 1.0894         estimate D2E/DX2                !
 ! R4    R(1,14)                 1.0893         estimate D2E/DX2                !
 ! R5    R(2,3)                  1.5422         estimate D2E/DX2                !
 ! R6    R(2,6)                  1.5487         estimate D2E/DX2                !
 ! R7    R(2,9)                  1.5157         estimate D2E/DX2                !
 ! R8    R(3,4)                  1.1891         estimate D2E/DX2                !
 ! R9    R(3,5)                  1.1946         estimate D2E/DX2                !
 ! R10   R(5,27)                 2.343          estimate D2E/DX2                !
 ! R11   R(6,7)                  1.1901         estimate D2E/DX2                !
 ! R12   R(6,8)                  1.195          estimate D2E/DX2                !
 ! R13   R(9,10)                 1.1945         estimate D2E/DX2                !
 ! R14   R(9,11)                 1.1988         estimate D2E/DX2                !
 ! R15   R(11,27)                2.4996         estimate D2E/DX2                !
 ! R16   R(13,18)                2.3435         estimate D2E/DX2                !
 ! R17   R(13,21)                2.4986         estimate D2E/DX2                !
 ! R18   R(15,16)                1.5057         estimate D2E/DX2                !
 ! R19   R(15,26)                1.0893         estimate D2E/DX2                !
 ! R20   R(15,27)                1.0894         estimate D2E/DX2                !
 ! R21   R(15,28)                1.0896         estimate D2E/DX2                !
 ! R22   R(16,17)                1.5422         estimate D2E/DX2                !
 ! R23   R(16,20)                1.5157         estimate D2E/DX2                !
 ! R24   R(16,23)                1.5487         estimate D2E/DX2                !
 ! R25   R(17,18)                1.1946         estimate D2E/DX2                !
 ! R26   R(17,19)                1.189          estimate D2E/DX2                !
 ! R27   R(20,21)                1.1988         estimate D2E/DX2                !
 ! R28   R(20,22)                1.1945         estimate D2E/DX2                !
 ! R29   R(23,24)                1.1901         estimate D2E/DX2                !
 ! R30   R(23,25)                1.1949         estimate D2E/DX2                !
 ! A1    A(2,1,12)             109.8174         estimate D2E/DX2                !
 ! A2    A(2,1,13)             110.7587         estimate D2E/DX2                !
 ! A3    A(2,1,14)             109.5543         estimate D2E/DX2                !
 ! A4    A(12,1,13)            109.1825         estimate D2E/DX2                !
 ! A5    A(12,1,14)            108.9084         estimate D2E/DX2                !
 ! A6    A(13,1,14)            108.5839         estimate D2E/DX2                !
 ! A7    A(1,2,3)              111.4908         estimate D2E/DX2                !
 ! A8    A(1,2,6)              111.7798         estimate D2E/DX2                !
 ! A9    A(1,2,9)              111.5452         estimate D2E/DX2                !
 ! A10   A(3,2,6)              106.0768         estimate D2E/DX2                !
 ! A11   A(3,2,9)              108.5962         estimate D2E/DX2                !
 ! A12   A(6,2,9)              107.0855         estimate D2E/DX2                !
 ! A13   A(2,3,4)              114.5358         estimate D2E/DX2                !
 ! A14   A(2,3,5)              116.4203         estimate D2E/DX2                !
 ! A15   A(4,3,5)              129.0255         estimate D2E/DX2                !
 ! A16   A(3,5,27)             128.8489         estimate D2E/DX2                !
 ! A17   A(2,6,7)              116.1145         estimate D2E/DX2                !
 ! A18   A(2,6,8)              114.7092         estimate D2E/DX2                !
 ! A19   A(7,6,8)              129.1747         estimate D2E/DX2                !
 ! A20   A(2,9,10)             116.7876         estimate D2E/DX2                !
 ! A21   A(2,9,11)             115.1798         estimate D2E/DX2                !
 ! A22   A(10,9,11)            128.0321         estimate D2E/DX2                !
 ! A23   A(9,11,27)            124.9914         estimate D2E/DX2                !
 ! A24   A(1,13,21)            109.7572         estimate D2E/DX2                !
 ! A25   A(18,13,21)            66.8215         estimate D2E/DX2                !
 ! A26   A(16,15,26)           109.5536         estimate D2E/DX2                !
 ! A27   A(16,15,27)           110.7586         estimate D2E/DX2                !
 ! A28   A(16,15,28)           109.8168         estimate D2E/DX2                !
 ! A29   A(26,15,27)           108.5824         estimate D2E/DX2                !
 ! A30   A(26,15,28)           108.9104         estimate D2E/DX2                !
 ! A31   A(27,15,28)           109.1836         estimate D2E/DX2                !
 ! A32   A(15,16,17)           111.4904         estimate D2E/DX2                !
 ! A33   A(15,16,20)           111.5531         estimate D2E/DX2                !
 ! A34   A(15,16,23)           111.78           estimate D2E/DX2                !
 ! A35   A(17,16,20)           108.583          estimate D2E/DX2                !
 ! A36   A(17,16,23)           106.0817         estimate D2E/DX2                !
 ! A37   A(20,16,23)           107.0857         estimate D2E/DX2                !
 ! A38   A(16,17,18)           116.4118         estimate D2E/DX2                !
 ! A39   A(16,17,19)           114.5414         estimate D2E/DX2                !
 ! A40   A(18,17,19)           129.0282         estimate D2E/DX2                !
 ! A41   A(13,18,17)           128.8606         estimate D2E/DX2                !
 ! A42   A(16,20,21)           115.1819         estimate D2E/DX2                !
 ! A43   A(16,20,22)           116.7886         estimate D2E/DX2                !
 ! A44   A(21,20,22)           128.0291         estimate D2E/DX2                !
 ! A45   A(13,21,20)           124.9063         estimate D2E/DX2                !
 ! A46   A(16,23,24)           116.1087         estimate D2E/DX2                !
 ! A47   A(16,23,25)           114.7135         estimate D2E/DX2                !
 ! A48   A(24,23,25)           129.1762         estimate D2E/DX2                !
 ! A49   A(5,27,11)             66.7846         estimate D2E/DX2                !
 ! A50   A(11,27,15)           109.7451         estimate D2E/DX2                !
 ! A51   L(1,13,18,21,-1)      176.5787         estimate D2E/DX2                !
 ! A52   L(5,27,15,11,-1)      176.5297         estimate D2E/DX2                !
 ! A53   L(1,13,18,21,-2)      164.7052         estimate D2E/DX2                !
 ! A54   L(5,27,15,11,-2)      164.7799         estimate D2E/DX2                !
 ! D1    D(12,1,2,3)          -158.7386         estimate D2E/DX2                !
 ! D2    D(12,1,2,6)           -40.1958         estimate D2E/DX2                !
 ! D3    D(12,1,2,9)            79.6658         estimate D2E/DX2                !
 ! D4    D(13,1,2,3)            80.5907         estimate D2E/DX2                !
 ! D5    D(13,1,2,6)          -160.8665         estimate D2E/DX2                !
 ! D6    D(13,1,2,9)           -41.0049         estimate D2E/DX2                !
 ! D7    D(14,1,2,3)           -39.1653         estimate D2E/DX2                !
 ! D8    D(14,1,2,6)            79.3774         estimate D2E/DX2                !
 ! D9    D(14,1,2,9)          -160.761          estimate D2E/DX2                !
 ! D10   D(2,1,13,21)          -58.5599         estimate D2E/DX2                !
 ! D11   D(12,1,13,21)        -179.6069         estimate D2E/DX2                !
 ! D12   D(14,1,13,21)          61.7761         estimate D2E/DX2                !
 ! D13   D(2,1,18,17)           -8.6958         estimate D2E/DX2                !
 ! D14   D(12,1,18,17)        -125.3934         estimate D2E/DX2                !
 ! D15   D(14,1,18,17)         109.4513         estimate D2E/DX2                !
 ! D16   D(1,2,3,4)             52.2857         estimate D2E/DX2                !
 ! D17   D(1,2,3,5)           -129.1341         estimate D2E/DX2                !
 ! D18   D(6,2,3,4)            -69.6161         estimate D2E/DX2                !
 ! D19   D(6,2,3,5)            108.9641         estimate D2E/DX2                !
 ! D20   D(9,2,3,4)            175.5766         estimate D2E/DX2                !
 ! D21   D(9,2,3,5)             -5.8433         estimate D2E/DX2                !
 ! D22   D(1,2,6,7)             29.1131         estimate D2E/DX2                !
 ! D23   D(1,2,6,8)           -151.2897         estimate D2E/DX2                !
 ! D24   D(3,2,6,7)            150.8301         estimate D2E/DX2                !
 ! D25   D(3,2,6,8)            -29.5727         estimate D2E/DX2                !
 ! D26   D(9,2,6,7)            -93.335          estimate D2E/DX2                !
 ! D27   D(9,2,6,8)             86.2623         estimate D2E/DX2                !
 ! D28   D(1,2,9,10)          -117.7557         estimate D2E/DX2                !
 ! D29   D(1,2,9,11)            62.0031         estimate D2E/DX2                !
 ! D30   D(3,2,9,10)           118.9861         estimate D2E/DX2                !
 ! D31   D(3,2,9,11)           -61.2551         estimate D2E/DX2                !
 ! D32   D(6,2,9,10)             4.8385         estimate D2E/DX2                !
 ! D33   D(6,2,9,11)          -175.4027         estimate D2E/DX2                !
 ! D34   D(2,3,5,27)            70.7178         estimate D2E/DX2                !
 ! D35   D(4,3,5,27)          -110.9449         estimate D2E/DX2                !
 ! D36   D(3,5,27,11)          -54.9329         estimate D2E/DX2                !
 ! D37   D(2,9,11,27)           68.9811         estimate D2E/DX2                !
 ! D38   D(10,9,11,27)        -111.2923         estimate D2E/DX2                !
 ! D39   D(9,11,27,5)          -17.448          estimate D2E/DX2                !
 ! D40   D(9,11,27,15)         177.7721         estimate D2E/DX2                !
 ! D41   D(21,13,18,17)         54.8263         estimate D2E/DX2                !
 ! D42   D(1,13,21,20)        -177.725          estimate D2E/DX2                !
 ! D43   D(18,13,21,20)         17.5698         estimate D2E/DX2                !
 ! D44   D(26,15,16,17)         39.1612         estimate D2E/DX2                !
 ! D45   D(26,15,16,20)        160.745          estimate D2E/DX2                !
 ! D46   D(26,15,16,23)        -79.3876         estimate D2E/DX2                !
 ! D47   D(27,15,16,17)        -80.5924         estimate D2E/DX2                !
 ! D48   D(27,15,16,20)         40.9914         estimate D2E/DX2                !
 ! D49   D(27,15,16,23)        160.8588         estimate D2E/DX2                !
 ! D50   D(28,15,16,17)        158.736          estimate D2E/DX2                !
 ! D51   D(28,15,16,20)        -79.6802         estimate D2E/DX2                !
 ! D52   D(28,15,16,23)         40.1872         estimate D2E/DX2                !
 ! D53   D(16,15,27,11)         58.5456         estimate D2E/DX2                !
 ! D54   D(26,15,27,11)        -61.7885         estimate D2E/DX2                !
 ! D55   D(28,15,27,11)        179.5924         estimate D2E/DX2                !
 ! D56   D(15,16,17,18)        129.1397         estimate D2E/DX2                !
 ! D57   D(15,16,17,19)        -52.2863         estimate D2E/DX2                !
 ! D58   D(20,16,17,18)          5.8484         estimate D2E/DX2                !
 ! D59   D(20,16,17,19)       -175.5776         estimate D2E/DX2                !
 ! D60   D(23,16,17,18)       -108.9553         estimate D2E/DX2                !
 ! D61   D(23,16,17,19)         69.6186         estimate D2E/DX2                !
 ! D62   D(15,16,20,21)        -61.8987         estimate D2E/DX2                !
 ! D63   D(15,16,20,22)        117.8871         estimate D2E/DX2                !
 ! D64   D(17,16,20,21)         61.355          estimate D2E/DX2                !
 ! D65   D(17,16,20,22)       -118.8592         estimate D2E/DX2                !
 ! D66   D(23,16,20,21)        175.5019         estimate D2E/DX2                !
 ! D67   D(23,16,20,22)         -4.7123         estimate D2E/DX2                !
 ! D68   D(15,16,23,24)        -29.2141         estimate D2E/DX2                !
 ! D69   D(15,16,23,25)        151.1968         estimate D2E/DX2                !
 ! D70   D(17,16,23,24)       -150.9338         estimate D2E/DX2                !
 ! D71   D(17,16,23,25)         29.4771         estimate D2E/DX2                !
 ! D72   D(20,16,23,24)         93.244          estimate D2E/DX2                !
 ! D73   D(20,16,23,25)        -86.3452         estimate D2E/DX2                !
 ! D74   D(16,17,18,13)        -70.632          estimate D2E/DX2                !
 ! D75   D(19,17,18,13)        111.0379         estimate D2E/DX2                !
 ! D76   D(16,20,21,13)        -69.1516         estimate D2E/DX2                !
 ! D77   D(22,20,21,13)        111.0911         estimate D2E/DX2                !
 --------------------------------------------------------------------------------
 Number of steps in this run=    168 maximum allowed number of steps=    168.
 GradGradGradGradGradGradGradGradGradGradGradGradGradGradGradGradGradGrad

                    Distance matrix (angstroms):
                    1          2          3          4          5
     1  C    0.000000
     2  C    1.505740   0.000000
     3  N    2.519360   1.542221   0.000000
     4  O    2.823939   2.305490   1.189051   0.000000
     5  O    3.448504   2.333456   1.194599   2.151678   0.000000
     6  N    2.529055   1.548678   2.469752   2.887683   3.264491
     7  O    2.722052   2.331826   3.514502   3.791918   4.386417
     8  O    3.548498   2.318073   2.589047   2.951384   3.142365
     9  N    2.498193   1.515731   2.483302   3.560840   2.586380
    10  O    3.359469   2.314346   3.356436   4.396859   3.398955
    11  O    2.891667   2.297962   2.850693   3.943901   2.668404
    12  H    1.089627   2.137057   3.436007   3.717149   4.364457
    13  H    1.089438   2.148711   2.941976   3.381283   3.617386
    14  H    1.089306   2.133494   2.599921   2.417313   3.686074
    15  C    5.152806   4.699202   4.203675   5.042843   3.408451
    16  C    4.698903   4.705871   4.408956   5.088353   3.982972
    17  N    4.204083   4.408796   4.635528   5.428256   4.421586
    18  O    3.408745   3.982621   4.421918   5.073819   4.524362
    19  O    5.043698   5.088270   5.427894   6.345668   5.072888
    20  N    4.081065   4.289546   3.769214   4.133254   3.630222
    21  O    3.044723   3.185581   2.640692   2.989130   2.733157
    22  O    4.961945   5.325501   4.704936   4.843496   4.620505
    23  N    6.081041   6.227046   5.894734   6.472870   5.448223
    24  O    6.968262   6.952152   6.409920   6.960081   5.804696
    25  O    6.291879   6.678452   6.553583   7.094888   6.266359
    26  H    5.607884   5.087140   4.830892   5.800061   4.000014
    27  H    4.519987   3.846914   3.229274   4.127553   2.343018
    28  H    6.036910   5.555650   4.826412   5.537920   3.942709
                    6          7          8          9         10
     6  N    0.000000
     7  O    1.190138   0.000000
     8  O    1.194953   2.154312   0.000000
     9  N    2.464784   3.124240   3.047958   0.000000
    10  O    2.545211   3.029249   2.985671   1.194489   0.000000
    11  O    3.567078   4.225681   4.112036   1.198772   2.151343
    12  H    2.620740   2.322175   3.790906   2.904043   3.456233
    13  H    3.458006   3.702403   4.420469   2.617799   3.630321
    14  H    2.924965   3.132463   3.799592   3.415270   4.294822
    15  C    6.081489   6.969274   6.291787   4.082494   4.964646
    16  C    6.227091   6.952369   6.678372   4.289870   5.326141
    17  N    5.894466   6.410271   6.552726   3.768471   4.703560
    18  O    5.447706   5.804451   6.265595   3.628737   4.617796
    19  O    6.472648   6.961023   7.093536   4.132599   4.842153
    20  N    5.801047   6.523882   6.264137   4.387797   5.554193
    21  O    4.661934   5.403701   5.132882   3.542083   4.730544
    22  O    6.802147   7.493887   7.255543   5.553911   6.730217
    23  N    7.759148   8.448958   8.220486   5.801270   6.802602
    24  O    8.448893   9.241060   8.772655   6.524761   7.495712
    25  O    8.220494   8.772680   8.820676   6.263611   7.254471
    26  H    6.395759   7.228435   6.619664   4.162255   4.854746
    27  H    5.146747   6.110562   5.263456   3.334878   4.221560
    28  H    6.898973   7.853072   6.992294   5.055550   5.922346
                   11         12         13         14         15
    11  O    0.000000
    12  H    3.468635   0.000000
    13  H    2.540669   1.776023   0.000000
    14  H    3.769621   1.772892   1.769143   0.000000
    15  C    3.045421   6.037190   4.519980   5.607435   0.000000
    16  C    3.185744   5.555284   3.846488   5.086866   1.505721
    17  N    2.640344   4.826672   3.229901   4.831682   2.519359
    18  O    2.732507   3.942526   2.343508   4.001140   3.448480
    19  O    2.988882   5.538871   4.128796   5.801132   2.824027
    20  N    3.541928   5.053826   3.332904   4.160977   2.498271
    21  O    2.951774   4.084419   2.498626   3.082740   2.890972
    22  O    4.730147   5.918959   4.217973   4.852226   3.360451
    23  N    4.662090   6.898369   5.146139   6.395376   2.529051
    24  O    5.404332   7.852130   6.109428   7.226951   2.722424
    25  O    5.132530   6.991947   5.263383   6.620398   3.548181
    26  H    3.083371   6.369980   4.956948   6.222013   1.089304
    27  H    2.499554   5.435694   4.084465   4.956338   1.089443
    28  H    4.085192   6.979621   5.435312   6.369110   1.089626
                   16         17         18         19         20
    16  C    0.000000
    17  N    1.542247   0.000000
    18  O    2.333394   1.194623   0.000000
    19  O    2.305561   1.189023   2.151698   0.000000
    20  N    1.515703   2.483094   2.585927   3.560692   0.000000
    21  O    2.297971   2.851311   2.669402   3.944338   1.198781
    22  O    2.314334   3.355356   3.397015   4.396032   1.194492
    23  N    1.548688   2.469859   3.264459   2.887895   2.464772
    24  O    2.331771   3.514962   4.386373   3.793086   3.123385
    25  O    2.318126   2.588747   3.142416   2.950502   3.048740
    26  H    2.133467   2.599870   3.686047   2.417375   3.415268
    27  H    2.148696   2.941986   3.617384   3.381365   2.617841
    28  H    2.137030   3.435998   4.364404   3.717226   2.904251
                   21         22         23         24         25
    21  O    0.000000
    22  O    2.151327   0.000000
    23  N    3.567155   2.545098   0.000000
    24  O    4.224571   3.028640   1.190149   0.000000
    25  O    4.113286   2.985917   1.194940   2.154324   0.000000
    26  H    3.769074   4.295483   2.925038   3.133567   3.798851
    27  H    2.539670   3.631338   3.457988   3.702457   4.420348
    28  H    3.467764   3.457913   2.620666   2.322309   3.790644
                   26         27         28
    26  H    0.000000
    27  H    1.769129   0.000000
    28  H    1.772910   1.776039   0.000000
 Framework group  C1[X(C4H6N6O12)]
 Deg. of freedom    78
                         Standard orientation:                         
 ---------------------------------------------------------------------
 Center     Atomic      Atomic             Coordinates (Angstroms)
 Number     Number       Type             X           Y           Z
 ---------------------------------------------------------------------
      1          6           0       -1.910764    0.003573    1.727897
      2          6           0       -2.335733    0.004374    0.283372
      3          7           0       -1.881780   -1.279897   -0.439830
      4          8           0       -2.193954   -2.289803    0.104670
      5          8           0       -1.295678   -1.130889   -1.470047
      6          7           0       -3.876662    0.056708    0.137758
      7          8           0       -4.467198    0.606074    1.012911
      8          8           0       -4.302696   -0.459856   -0.851973
      9          7           0       -1.777236    1.201117   -0.460488
     10          8           0       -2.569963    1.970776   -0.914376
     11          8           0       -0.580894    1.255583   -0.513901
     12          1           0       -2.534127    0.692870    2.296734
     13          1           0       -0.867445    0.302233    1.823622
     14          1           0       -2.024439   -0.998004    2.140825
     15          6           0        1.911185   -0.005294   -1.728118
     16          6           0        2.335858   -0.004756   -0.283526
     17          7           0        1.881597    1.280134    0.438439
     18          8           0        1.295396    1.131808    1.468726
     19          8           0        2.193713    2.289624   -0.106804
     20          7           0        1.777218   -1.200658    0.461520
     21          8           0        0.580834   -1.256084    0.513177
     22          8           0        2.569878   -1.968605    0.918419
     23          7           0        3.876768   -0.056931   -0.137547
     24          8           0        4.467249   -0.608754   -1.011205
     25          8           0        4.302803    0.462056    0.850900
     26          1           0        2.024761    0.995946   -2.141884
     27          1           0        0.867924   -0.304192   -1.823787
     28          1           0        2.534779   -0.694993   -2.296211
 ---------------------------------------------------------------------
 Rotational constants (GHZ):           0.6616256           0.1815989           0.1683590
   320 basis functions,   574 primitive gaussians,   342 cartesian basis functions
    84 alpha electrons       84 beta electrons
       nuclear repulsion energy      2163.9156886010 Hartrees.
 NAtoms=   28 NActive=   28 NUniq=   28 SFac= 1.00D+00 NAtFMM=   60 NAOKFM=F Big=F
 Nuclear repulsion after empirical dispersion term =     2163.8943645149 Hartrees.
   1 Symmetry operations used in ECPInt.
 ECPInt:  NShTT=   10440 NPrTT=   41920 LenC2=    9361 LenP2D=   25258.
 LDataN:  DoStor=T MaxTD1= 4 Len=   56
 ExpMin= 1.22D-01 ExpMax= 2.27D+03 ExpMxC= 3.41D+02 IAcc=3 IRadAn=         5 AccDes= 0.00D+00
 Harris functional with IExCor= 4639 and IRadAn=       5 diagonalized for initial guess.
 HarFok:  IExCor= 4639 AccDes= 0.00D+00 IRadAn=         5 IDoV= 1 UseB2=F ITyADJ=14
 ICtDFT=  3500011 ScaDFX=  1.000000  1.000000  1.000000  1.000000
 FoFCou: FMM=F IPFlag=           0 FMFlag=      100000 FMFlg1=           0
         NFxFlg=           0 DoJE=T BraDBF=F KetDBF=T FulRan=T
         wScrn=  0.000000 ICntrl=       500 IOpCl=  0 I1Cent=   200000004 NGrid=           0
         NMat0=    1 NMatS0=      1 NMatT0=    0 NMatD0=    1 NMtDS0=    0 NMtDT0=    0
 Petite list used in FoFCou.
     Accept linear search using points  3 and  4.
     Accept linear search using points  1 and  2.
     Accept linear search using points  1 and  2.
     Accept linear search using points  1 and  2.
     Minimum is close to point  2 DX= -1.93D-04 DF= -2.73D-12 DXR=  1.94D-04 DFR=  3.76D-08 which will be used.
 SCF Done:  E(RwB97XD) =  -1385.08474006     a.u. after    9 cycles
            Convg  =    0.9806D-10                    50 Fock formations.
              S**2 =  0.0000                  -V/T =  2.0062

 **********************************************************************

            Population analysis using the SCF Density.

 **********************************************************************

 Orbital symmetries:
       Occupied  (A) (A) (A) (A) (A) (A) (A) (A) (A) (A) (A) (A)
                 (A) (A) (A) (A) (A) (A) (A) (A) (A) (A) (A) (A)
                 (A) (A) (A) (A) (A) (A) (A) (A) (A) (A) (A) (A)
                 (A) (A) (A) (A) (A) (A) (A) (A) (A) (A) (A) (A)
                 (A) (A) (A) (A) (A) (A) (A) (A) (A) (A) (A) (A)
                 (A) (A) (A) (A) (A) (A) (A) (A) (A) (A) (A) (A)
                 (A) (A) (A) (A) (A) (A) (A) (A) (A) (A) (A) (A)
       Virtual   (A) (A) (A) (A) (A) (A) (A) (A) (A) (A) (A) (A)
                 (A) (A) (A) (A) (A) (A) (A) (A) (A) (A) (A) (A)
                 (A) (A) (A) (A) (A) (A) (A) (A) (A) (A) (A) (A)
                 (A) (A) (A) (A) (A) (A) (A) (A) (A) (A) (A) (A)
                 (A) (A) (A) (A) (A) (A) (A) (A) (A) (A) (A) (A)
                 (A) (A) (A) (A) (A) (A) (A) (A) (A) (A) (A) (A)
                 (A) (A) (A) (A) (A) (A) (A) (A) (A) (A) (A) (A)
                 (A) (A) (A) (A) (A) (A) (A) (A) (A) (A) (A) (A)
                 (A) (A) (A) (A) (A) (A) (A) (A) (A) (A) (A) (A)
                 (A) (A) (A) (A) (A) (A) (A) (A) (A) (A) (A) (A)
                 (A) (A) (A) (A) (A) (A) (A) (A) (A) (A) (A) (A)
                 (A) (A) (A) (A) (A) (A) (A) (A) (A) (A) (A) (A)
                 (A) (A) (A) (A) (A) (A) (A) (A) (A) (A) (A) (A)
                 (A) (A) (A) (A) (A) (A) (A) (A) (A) (A) (A) (A)
                 (A) (A) (A) (A) (A) (A) (A) (A) (A) (A) (A) (A)
                 (A) (A) (A) (A) (A) (A) (A) (A) (A) (A) (A) (A)
                 (A) (A) (A) (A) (A) (A) (A) (A) (A) (A) (A) (A)
                 (A) (A) (A) (A) (A) (A) (A) (A) (A) (A) (A) (A)
                 (A) (A) (A) (A) (A) (A) (A) (A) (A) (A) (A) (A)
                 (A) (A) (A) (A) (A) (A) (A) (A)
 The electronic state is 1-A.
 Alpha  occ. eigenvalues --  -19.35383 -19.35381 -19.35111 -19.35110 -19.34792
 Alpha  occ. eigenvalues --  -19.34790 -19.34709 -19.34709 -19.34598 -19.34596
 Alpha  occ. eigenvalues --  -19.34387 -19.34386 -14.75171 -14.75169 -14.74669
 Alpha  occ. eigenvalues --  -14.74668 -14.74436 -14.74435 -10.49270 -10.49268
 Alpha  occ. eigenvalues --  -10.34708 -10.34707  -1.42268  -1.42112  -1.40328
 Alpha  occ. eigenvalues --   -1.40181  -1.39934  -1.39891  -1.23907  -1.23694
 Alpha  occ. eigenvalues --   -1.23230  -1.23201  -1.23188  -1.23121  -1.04048
 Alpha  occ. eigenvalues --   -1.03954  -0.86634  -0.86289  -0.85616  -0.85579
 Alpha  occ. eigenvalues --   -0.84455  -0.84260  -0.73997  -0.72653  -0.72270
 Alpha  occ. eigenvalues --   -0.72197  -0.71435  -0.71132  -0.69775  -0.69604
 Alpha  occ. eigenvalues --   -0.68887  -0.68114  -0.67501  -0.67300  -0.66043
 Alpha  occ. eigenvalues --   -0.65986  -0.65660  -0.65435  -0.65334  -0.65270
 Alpha  occ. eigenvalues --   -0.59104  -0.58919  -0.55437  -0.55316  -0.54845
 Alpha  occ. eigenvalues --   -0.54722  -0.48549  -0.47359  -0.47005  -0.46850
 Alpha  occ. eigenvalues --   -0.46177  -0.46073  -0.45857  -0.44915  -0.44891
 Alpha  occ. eigenvalues --   -0.44825  -0.44218  -0.44101  -0.43703  -0.43639
 Alpha  occ. eigenvalues --   -0.43547  -0.43396  -0.43172  -0.43046
 Alpha virt. eigenvalues --   -0.05502  -0.05030  -0.04514  -0.04330  -0.03742
 Alpha virt. eigenvalues --   -0.03531   0.11874   0.12104   0.13437   0.13939
 Alpha virt. eigenvalues --    0.15446   0.15989   0.18392   0.18582   0.20575
 Alpha virt. eigenvalues --    0.20959   0.22109   0.22680   0.22853   0.25611
 Alpha virt. eigenvalues --    0.30582   0.32164   0.32900   0.33166   0.34912
 Alpha virt. eigenvalues --    0.36250   0.41949   0.43371   0.44220   0.45525
 Alpha virt. eigenvalues --    0.45911   0.46515   0.47752   0.48402   0.49610
 Alpha virt. eigenvalues --    0.50841   0.51607   0.53818   0.54643   0.55221
 Alpha virt. eigenvalues --    0.57141   0.57174   0.58329   0.59250   0.65153
 Alpha virt. eigenvalues --    0.65176   0.66620   0.66787   0.68304   0.68450
 Alpha virt. eigenvalues --    0.71975   0.72521   0.72947   0.73477   0.74361
 Alpha virt. eigenvalues --    0.74563   0.75402   0.77079   0.77206   0.78131
 Alpha virt. eigenvalues --    0.78654   0.80572   0.82994   0.83107   0.86909
 Alpha virt. eigenvalues --    0.87417   0.90122   0.90893   0.92331   0.93710
 Alpha virt. eigenvalues --    0.94355   0.94925   0.95199   0.95685   0.96006
 Alpha virt. eigenvalues --    0.96371   0.96755   0.96955   0.98531   0.98652
 Alpha virt. eigenvalues --    1.00703   1.02241   1.02905   1.03359   1.05801
 Alpha virt. eigenvalues --    1.06439   1.07395   1.07970   1.09303   1.09738
 Alpha virt. eigenvalues --    1.10249   1.11310   1.11600   1.12000   1.13011
 Alpha virt. eigenvalues --    1.14303   1.14717   1.16411   1.18667   1.18754
 Alpha virt. eigenvalues --    1.19787   1.20707   1.21364   1.21371   1.23072
 Alpha virt. eigenvalues --    1.25683   1.26945   1.31859   1.33306   1.33586
 Alpha virt. eigenvalues --    1.34261   1.35028   1.38554   1.39099   1.40117
 Alpha virt. eigenvalues --    1.43983   1.45539   1.46039   1.47454   1.50164
 Alpha virt. eigenvalues --    1.51372   1.53454   1.53982   1.54319   1.68412
 Alpha virt. eigenvalues --    1.69223   1.72336   1.73525   1.74581   1.77100
 Alpha virt. eigenvalues --    1.79195   1.79869   1.79960   1.80622   1.82289
 Alpha virt. eigenvalues --    1.82846   1.83437   1.83636   1.83696   1.83983
 Alpha virt. eigenvalues --    1.88892   1.90231   2.04407   2.04578   2.06148
 Alpha virt. eigenvalues --    2.06449   2.11767   2.12966   2.16664   2.16914
 Alpha virt. eigenvalues --    2.17228   2.17482   2.30610   2.31622   2.34473
 Alpha virt. eigenvalues --    2.34969   2.36877   2.36922   2.38733   2.38838
 Alpha virt. eigenvalues --    2.41091   2.41437   2.43148   2.45111   2.48545
 Alpha virt. eigenvalues --    2.49376   2.51630   2.52287   2.55074   2.55324
 Alpha virt. eigenvalues --    2.56883   2.56939   2.60401   2.60717   2.63401
 Alpha virt. eigenvalues --    2.63738   2.64205   2.64704   2.64938   2.65021
 Alpha virt. eigenvalues --    2.65346   2.65648   2.67544   2.67644   2.69256
 Alpha virt. eigenvalues --    2.70210   2.70606   2.71246   2.72996   2.73189
 Alpha virt. eigenvalues --    2.73306   2.73588   2.78078   2.78092   2.80918
 Alpha virt. eigenvalues --    2.81239   2.83400   2.83768   2.87341   2.87396
 Alpha virt. eigenvalues --    3.08191   3.08601   3.09350   3.09718   3.11579
 Alpha virt. eigenvalues --    3.11723   3.21237   3.22066   3.24891   3.25285
 Alpha virt. eigenvalues --    3.28590   3.29433   3.36803   3.37708   3.39307
 Alpha virt. eigenvalues --    3.39337   3.39441   3.39789   3.44114   3.44319
 Alpha virt. eigenvalues --    3.49190   3.49269   3.50683   3.51352   3.76649
 Alpha virt. eigenvalues --    3.76818   3.77491   3.78308   3.79649   3.79902
 Alpha virt. eigenvalues --    3.86561   3.88064   3.88189   3.88274   3.90893
 Alpha virt. eigenvalues --    3.91103
          Condensed to atoms (all electrons):
 Mulliken charges:
               1
     1  C   -0.273522
     2  C    0.129462
     3  N    0.259864
     4  O   -0.179969
     5  O   -0.205454
     6  N    0.242193
     7  O   -0.185256
     8  O   -0.194286
     9  N    0.245256
    10  O   -0.184552
    11  O   -0.220196
    12  H    0.183664
    13  H    0.202311
    14  H    0.180477
    15  C   -0.273712
    16  C    0.129589
    17  N    0.259875
    18  O   -0.205533
    19  O   -0.179884
    20  N    0.245231
    21  O   -0.220220
    22  O   -0.184525
    23  N    0.242203
    24  O   -0.185284
    25  O   -0.194256
    26  H    0.180459
    27  H    0.202403
    28  H    0.183663
 Sum of Mulliken charges =   0.00000
 Mulliken charges with hydrogens summed into heavy atoms:
               1
     1  C    0.292929
     2  C    0.129462
     3  N    0.259864
     4  O   -0.179969
     5  O   -0.205454
     6  N    0.242193
     7  O   -0.185256
     8  O   -0.194286
     9  N    0.245256
    10  O   -0.184552
    11  O   -0.220196
    15  C    0.292814
    16  C    0.129589
    17  N    0.259875
    18  O   -0.205533
    19  O   -0.179884
    20  N    0.245231
    21  O   -0.220220
    22  O   -0.184525
    23  N    0.242203
    24  O   -0.185284
    25  O   -0.194256
 Electronic spatial extent (au):  <R**2>=           6233.5503
 Charge=              0.0000 electrons
 Dipole moment (field-independent basis, Debye):
    X=              0.0016    Y=             -0.0026    Z=             -0.0010  Tot=              0.0031
   1 Symmetry operations used in ECPInt.
 ECPInt:  NShTT=   10440 NPrTT=   41920 LenC2=    9361 LenP2D=   25258.
 LDataN:  DoStor=T MaxTD1= 5 Len=  102
 Calling FoFJK, ICntrl=      2127 FMM=F ISym2X=0 I1Cent= 0 IOpClX= 0 NMat=1 NMatS=1 NMatT=0.

 GradGradGradGradGradGradGradGradGradGradGradGradGradGradGradGradGradGrad
 FormGI is forming the generalized inverse of G from B-inverse, IUseBI=4.
 Internal  Forces:  Max     0.015096232 RMS     0.004295030
 Step number   1 out of a maximum of  168
 All quantities printed in internal units (Hartrees-Bohrs-Radians)
 Mixed Optimization -- RFO/linear search
 Second derivative matrix not updated -- first step.
 ITU=  0
     Eigenvalues ---    0.00230   0.00230   0.00230   0.00230   0.00362
     Eigenvalues ---    0.00486   0.00931   0.01053   0.01227   0.01243
     Eigenvalues ---    0.01732   0.01856   0.02003   0.02102   0.02265
     Eigenvalues ---    0.02523   0.02956   0.03215   0.03525   0.03823
     Eigenvalues ---    0.04389   0.04464   0.04763   0.05097   0.05368
     Eigenvalues ---    0.05698   0.05998   0.06291   0.06556   0.07956
     Eigenvalues ---    0.08236   0.08330   0.08600   0.08700   0.09118
     Eigenvalues ---    0.10612   0.11208   0.11780   0.14060   0.15737
     Eigenvalues ---    0.16049   0.17218   0.19123   0.19502   0.24992
     Eigenvalues ---    0.24993   0.25000   0.25000   0.25000   0.25000
     Eigenvalues ---    0.25000   0.25000   0.27254   0.27660   0.27763
     Eigenvalues ---    0.27764   0.29448   0.29516   0.30844   0.31784
     Eigenvalues ---    0.33279   0.34856   0.34856   0.34874   0.34893
     Eigenvalues ---    0.34893   0.94469   0.95167   1.00980   1.03503
     Eigenvalues ---    1.07401   1.07407   1.07640   1.07642   1.09933
     Eigenvalues ---    1.09939   1.10523   1.10538
 Linear search not attempted -- first point.
 Iteration  1 RMS(Cart)=  0.07090125 RMS(Int)=  0.00156180
 Iteration  2 RMS(Cart)=  0.00206168 RMS(Int)=  0.00065866
 Iteration  3 RMS(Cart)=  0.00000230 RMS(Int)=  0.00065866
 Iteration  4 RMS(Cart)=  0.00000000 RMS(Int)=  0.00065866
 Variable       Old X    -DE/DX   Delta X   Delta X   Delta X     New X
                                 (Linear)    (Quad)   (Total)
    R1        2.84544   0.00230   0.00000   0.00696   0.00696   2.85240
    R2        2.05910   0.00657   0.00000   0.01819   0.01819   2.07729
    R3        2.05874   0.01119   0.00000   0.03093   0.03091   2.08965
    R4        2.05849   0.00707   0.00000   0.01957   0.01957   2.07806
    R5        2.91438  -0.00290   0.00000  -0.00819  -0.00819   2.90618
    R6        2.92658  -0.00215   0.00000  -0.00740  -0.00740   2.91918
    R7        2.86432   0.00308   0.00000   0.01095   0.01077   2.87509
    R8        2.24698   0.01509   0.00000   0.01350   0.01350   2.26048
    R9        2.25747   0.01062   0.00000   0.00976   0.00988   2.26734
   R10        4.42766   0.00316   0.00000   0.05832   0.05855   4.48621
   R11        2.24903   0.01436   0.00000   0.01292   0.01292   2.26195
   R12        2.25813   0.01239   0.00000   0.01141   0.01141   2.26954
   R13        2.25726   0.01139   0.00000   0.01046   0.01046   2.26772
   R14        2.26535   0.00471   0.00000   0.00528   0.00508   2.27043
   R15        4.72347   0.00267   0.00000   0.07912   0.07911   4.80258
   R16        4.42859   0.00309   0.00000   0.05887   0.05917   4.48776
   R17        4.72172   0.00275   0.00000   0.07885   0.07879   4.80050
   R18        2.84540   0.00230   0.00000   0.00696   0.00696   2.85236
   R19        2.05849   0.00707   0.00000   0.01958   0.01958   2.07807
   R20        2.05875   0.01116   0.00000   0.03090   0.03091   2.08966
   R21        2.05909   0.00657   0.00000   0.01820   0.01820   2.07729
   R22        2.91442  -0.00279   0.00000  -0.00828  -0.00841   2.90602
   R23        2.86426   0.00314   0.00000   0.01098   0.01073   2.87499
   R24        2.92660  -0.00215   0.00000  -0.00742  -0.00742   2.91918
   R25        2.25751   0.01056   0.00000   0.00976   0.00994   2.26745
   R26        2.24693   0.01510   0.00000   0.01351   0.01351   2.26043
   R27        2.26537   0.00477   0.00000   0.00528   0.00501   2.27038
   R28        2.25726   0.01139   0.00000   0.01046   0.01046   2.26772
   R29        2.24906   0.01435   0.00000   0.01291   0.01291   2.26196
   R30        2.25811   0.01239   0.00000   0.01141   0.01141   2.26952
    A1        1.91668  -0.00357   0.00000  -0.03113  -0.03110   1.88557
    A2        1.93310   0.00341   0.00000   0.03339   0.03433   1.96744
    A3        1.91208  -0.00180   0.00000  -0.01512  -0.01601   1.89607
    A4        1.90559   0.00119   0.00000  -0.00004   0.00012   1.90571
    A5        1.90081   0.00150   0.00000   0.00495   0.00455   1.90536
    A6        1.89515  -0.00071   0.00000   0.00808   0.00774   1.90289
    A7        1.94588   0.00168   0.00000   0.02166   0.02159   1.96747
    A8        1.95093   0.00323   0.00000   0.02401   0.02397   1.97490
    A9        1.94683   0.00050   0.00000   0.01928   0.02021   1.96704
   A10        1.85139  -0.00326   0.00000  -0.03952  -0.03930   1.81209
   A11        1.89536  -0.00071   0.00000  -0.00930  -0.01100   1.88436
   A12        1.86900  -0.00182   0.00000  -0.02120  -0.02203   1.84696
   A13        1.99903   0.00119   0.00000   0.00040   0.00075   1.99978
   A14        2.03192   0.00342   0.00000   0.02203   0.02058   2.05250
   A15        2.25192  -0.00459   0.00000  -0.02146  -0.02109   2.23083
   A16        2.24884  -0.00615   0.00000  -0.04854  -0.04945   2.19939
   A17        2.02658   0.00301   0.00000   0.01126   0.00973   2.03631
   A18        2.00205   0.00379   0.00000   0.01421   0.01268   2.01474
   A19        2.25452  -0.00681   0.00000  -0.02617  -0.02771   2.22681
   A20        2.03833   0.00410   0.00000   0.01251   0.01263   2.05096
   A21        2.01027  -0.00210   0.00000  -0.00175  -0.00206   2.00821
   A22        2.23458  -0.00201   0.00000  -0.01080  -0.01068   2.22390
   A23        2.18151   0.00023   0.00000  -0.01792  -0.02022   2.16129
   A24        1.91563   0.00069   0.00000   0.03333   0.03334   1.94896
   A25        1.16626   0.00114   0.00000   0.00545   0.00430   1.17055
   A26        1.91207  -0.00181   0.00000  -0.01420  -0.01490   1.89717
   A27        1.93310   0.00336   0.00000   0.03348   0.03440   1.96751
   A28        1.91666  -0.00370   0.00000  -0.03137  -0.03155   1.88511
   A29        1.89512  -0.00053   0.00000   0.00796   0.00748   1.90260
   A30        1.90085   0.00159   0.00000   0.00451   0.00413   1.90497
   A31        1.90561   0.00112   0.00000  -0.00025   0.00006   1.90567
   A32        1.94587   0.00177   0.00000   0.02159   0.02143   1.96731
   A33        1.94697   0.00049   0.00000   0.01927   0.02021   1.96718
   A34        1.95093   0.00320   0.00000   0.02396   0.02393   1.97486
   A35        1.89513  -0.00075   0.00000  -0.00930  -0.01096   1.88417
   A36        1.85148  -0.00333   0.00000  -0.03936  -0.03906   1.81241
   A37        1.86900  -0.00177   0.00000  -0.02124  -0.02211   1.84689
   A38        2.03177   0.00329   0.00000   0.02221   0.02094   2.05270
   A39        1.99912   0.00126   0.00000   0.00033   0.00059   1.99971
   A40        2.25197  -0.00452   0.00000  -0.02156  -0.02129   2.23068
   A41        2.24904  -0.00622   0.00000  -0.04829  -0.04915   2.19989
   A42        2.01030  -0.00217   0.00000  -0.00177  -0.00203   2.00827
   A43        2.03835   0.00414   0.00000   0.01253   0.01263   2.05097
   A44        2.23453  -0.00198   0.00000  -0.01080  -0.01070   2.22383
   A45        2.18003   0.00027   0.00000  -0.01773  -0.02002   2.16000
   A46        2.02648   0.00300   0.00000   0.01120   0.00969   2.03617
   A47        2.00213   0.00381   0.00000   0.01428   0.01277   2.01490
   A48        2.25455  -0.00681   0.00000  -0.02620  -0.02772   2.22683
   A49        1.16561   0.00122   0.00000   0.00540   0.00416   1.16978
   A50        1.91541   0.00074   0.00000   0.03351   0.03357   1.94898
   A51        3.08188   0.00183   0.00000   0.03878   0.03763   3.11951
   A52        3.08102   0.00196   0.00000   0.03891   0.03773   3.11876
   A53        2.87465   0.00269   0.00000   0.04079   0.04141   2.91606
   A54        2.87595   0.00240   0.00000   0.04091   0.04172   2.91767
    D1       -2.77051   0.00006   0.00000  -0.01094  -0.01144  -2.78195
    D2       -0.70155  -0.00079   0.00000  -0.03050  -0.03060  -0.73215
    D3        1.39043  -0.00056   0.00000  -0.02786  -0.02776   1.36267
    D4        1.40657  -0.00129   0.00000  -0.01201  -0.01266   1.39392
    D5       -2.80765  -0.00214   0.00000  -0.03157  -0.03182  -2.83947
    D6       -0.71567  -0.00191   0.00000  -0.02893  -0.02897  -0.74464
    D7       -0.68356  -0.00139   0.00000  -0.03325  -0.03348  -0.71704
    D8        1.38540  -0.00224   0.00000  -0.05281  -0.05264   1.33276
    D9       -2.80581  -0.00201   0.00000  -0.05017  -0.04980  -2.85561
   D10       -1.02206  -0.00124   0.00000  -0.05891  -0.05881  -1.08087
   D11       -3.13473   0.00025   0.00000  -0.04136  -0.04190   3.10656
   D12        1.07820  -0.00183   0.00000  -0.05198  -0.05200   1.02620
   D13       -0.15177  -0.00104   0.00000  -0.00743  -0.00730  -0.15907
   D14       -2.18853   0.00007   0.00000   0.00027   0.00088  -2.18765
   D15        1.91029  -0.00037   0.00000   0.01510   0.01565   1.92594
   D16        0.91256   0.00032   0.00000   0.01209   0.01149   0.92405
   D17       -2.25382   0.00137   0.00000   0.04868   0.04874  -2.20508
   D18       -1.21503  -0.00252   0.00000  -0.00453  -0.00464  -1.21967
   D19        1.90178  -0.00147   0.00000   0.03207   0.03261   1.93439
   D20        3.06439   0.00157   0.00000   0.04429   0.04394   3.10833
   D21       -0.10198   0.00262   0.00000   0.08089   0.08119  -0.02080
   D22        0.50812   0.00052   0.00000   0.04839   0.04867   0.55678
   D23       -2.64050  -0.00088   0.00000  -0.04683  -0.04645  -2.68695
   D24        2.63248   0.00235   0.00000   0.06341   0.06313   2.69561
   D25       -0.51614   0.00096   0.00000  -0.03182  -0.03199  -0.54813
   D26       -1.62900  -0.00088   0.00000   0.02379   0.02363  -1.60537
   D27        1.50556  -0.00228   0.00000  -0.07144  -0.07148   1.43408
   D28       -2.05523  -0.00085   0.00000  -0.05079  -0.05092  -2.10615
   D29        1.08216  -0.00213   0.00000  -0.06232  -0.06172   1.02044
   D30        2.07670  -0.00281   0.00000  -0.08443  -0.08420   1.99250
   D31       -1.06910  -0.00408   0.00000  -0.09596  -0.09500  -1.16410
   D32        0.08445   0.00225   0.00000  -0.02322  -0.02351   0.06093
   D33       -3.06135   0.00097   0.00000  -0.03475  -0.03431  -3.09567
   D34        1.23426  -0.00145   0.00000  -0.02199  -0.02290   1.21136
   D35       -1.93635  -0.00009   0.00000   0.02139   0.02047  -1.91588
   D36       -0.95876   0.00081   0.00000  -0.04616  -0.04607  -1.00483
   D37        1.20395  -0.00084   0.00000  -0.04611  -0.04729   1.15666
   D38       -1.94242  -0.00227   0.00000  -0.05910  -0.05928  -2.00170
   D39       -0.30452   0.00461   0.00000   0.09942   0.09911  -0.20541
   D40        3.10271   0.00220   0.00000   0.05851   0.05739  -3.12308
   D41        0.95690  -0.00038   0.00000   0.04567   0.04520   1.00210
   D42       -3.10189  -0.00208   0.00000  -0.05824  -0.05717   3.12413
   D43        0.30665  -0.00477   0.00000  -0.09903  -0.09858   0.20807
   D44        0.68349   0.00134   0.00000   0.03399   0.03431   0.71780
   D45        2.80553   0.00197   0.00000   0.05086   0.05056   2.85609
   D46       -1.38557   0.00224   0.00000   0.05341   0.05329  -1.33228
   D47       -1.40660   0.00105   0.00000   0.01225   0.01300  -1.39360
   D48        0.71544   0.00168   0.00000   0.02912   0.02926   0.74469
   D49        2.80752   0.00195   0.00000   0.03168   0.03198   2.83950
   D50        2.77047  -0.00010   0.00000   0.01154   0.01212   2.78259
   D51       -1.39068   0.00053   0.00000   0.02841   0.02838  -1.36230
   D52        0.70140   0.00080   0.00000   0.03097   0.03111   0.73250
   D53        1.02181   0.00157   0.00000   0.05857   0.05832   1.08013
   D54       -1.07841   0.00208   0.00000   0.05054   0.05024  -1.02817
   D55        3.13448  -0.00017   0.00000   0.04064   0.04084  -3.10786
   D56        2.25391  -0.00135   0.00000  -0.04901  -0.04910   2.20482
   D57       -0.91257  -0.00040   0.00000  -0.01170  -0.01103  -0.92360
   D58        0.10207  -0.00262   0.00000  -0.08115  -0.08146   0.02061
   D59       -3.06441  -0.00167   0.00000  -0.04385  -0.04340  -3.10781
   D60       -1.90163   0.00146   0.00000  -0.03238  -0.03293  -1.93456
   D61        1.21507   0.00241   0.00000   0.00492   0.00513   1.22020
   D62       -1.08034   0.00208   0.00000   0.06257   0.06201  -1.01833
   D63        2.05752   0.00084   0.00000   0.05064   0.05079   2.10831
   D64        1.07085   0.00412   0.00000   0.09611   0.09511   1.16596
   D65       -2.07448   0.00288   0.00000   0.08419   0.08389  -1.99059
   D66        3.06309  -0.00102   0.00000   0.03509   0.03469   3.09778
   D67       -0.08225  -0.00226   0.00000   0.02317   0.02348  -0.05877
   D68       -0.50988  -0.00050   0.00000  -0.04809  -0.04838  -0.55827
   D69        2.63888   0.00089   0.00000   0.04667   0.04628   2.68516
   D70       -2.63429  -0.00239   0.00000  -0.06311  -0.06279  -2.69709
   D71        0.51447  -0.00100   0.00000   0.03166   0.03187   0.54634
   D72        1.62741   0.00091   0.00000  -0.02356  -0.02342   1.60399
   D73       -1.50701   0.00230   0.00000   0.07121   0.07124  -1.43577
   D74       -1.23276   0.00106   0.00000   0.02264   0.02389  -1.20887
   D75        1.93798  -0.00017   0.00000  -0.02156  -0.02042   1.91756
   D76       -1.20692   0.00092   0.00000   0.04582   0.04695  -1.15998
   D77        1.93891   0.00232   0.00000   0.05927   0.05941   1.99832
         Item               Value     Threshold  Converged?
 Maximum Force            0.015096     0.000015     NO 
 RMS     Force            0.004295     0.000010     NO 
 Maximum Displacement     0.277106     0.000060     NO 
 RMS     Displacement     0.070954     0.000040     NO 
 GradGradGradGradGradGradGradGradGradGradGradGradGradGradGradGradGradGrad

                    Distance matrix (angstroms):
                    1          2          3          4          5
     1  C    0.000000
     2  C    1.509425   0.000000
     3  N    2.537158   1.537887   0.000000
     4  O    2.855439   2.307887   1.196195   0.000000
     5  O    3.462554   2.348273   1.199825   2.151849   0.000000
     6  N    2.549171   1.544764   2.426263   2.844793   3.252823
     7  O    2.776388   2.340738   3.500927   3.789776   4.390016
     8  O    3.584861   2.328589   2.556794   2.930134   3.129193
     9  N    2.523052   1.521432   2.474522   3.563482   2.591761
    10  O    3.413289   2.332711   3.324237   4.374111   3.378899
    11  O    2.892358   2.303669   2.887663   3.991433   2.717416
    12  H    1.099253   2.124650   3.442813   3.747463   4.370793
    13  H    1.105796   2.188786   2.991338   3.435077   3.655644
    14  H    1.099661   2.132721   2.626168   2.452688   3.709218
    15  C    5.090642   4.706039   4.233395   5.052020   3.463448
    16  C    4.705861   4.788940   4.528452   5.183291   4.121084
    17  N    4.234293   4.528417   4.775919   5.541028   4.581691
    18  O    3.464037   4.120593   4.582158   5.208900   4.696591
    19  O    5.053355   5.183053   5.540153   6.438058   5.207034
    20  N    4.145307   4.444021   3.985541   4.316351   3.862583
    21  O    3.122547   3.364347   2.868017   3.154988   2.967373
    22  O    5.052534   5.500917   4.960226   5.083632   4.885924
    23  N    6.101213   6.312501   6.023692   6.587790   5.587210
    24  O    6.988268   7.041317   6.537306   7.067071   5.945675
    25  O    6.331164   6.783765   6.696785   7.219850   6.419828
    26  H    5.562623   5.109538   4.866838   5.821123   4.055292
    27  H    4.439047   3.827281   3.228807   4.109909   2.373999
    28  H    5.973943   5.558491   4.846731   5.532969   3.983635
                    6          7          8          9         10
     6  N    0.000000
     7  O    1.196973   0.000000
     8  O    1.200988   2.151472   0.000000
     9  N    2.445963   3.103149   3.002333   0.000000
    10  O    2.533517   3.008632   2.906446   1.200025   0.000000
    11  O    3.554611   4.204323   4.089536   1.201461   2.153086
    12  H    2.634230   2.368889   3.816259   2.897412   3.487631
    13  H    3.506530   3.779860   4.478176   2.697145   3.739369
    14  H    2.915019   3.161583   3.822716   3.443083   4.334004
    15  C    6.101461   6.989280   6.330593   4.147006   5.055500
    16  C    6.312526   7.041685   6.783433   4.444515   5.501766
    17  N    6.023633   6.538064   6.695808   3.984745   4.958842
    18  O    5.586642   5.945474   6.418785   3.860442   4.882568
    19  O    6.587513   7.068290   7.217927   4.315259   5.081854
    20  N    5.948210   6.675334   6.446476   4.604175   5.779290
    21  O    4.825979   5.574850   5.329507   3.783670   4.976501
    22  O    6.970141   7.666035   7.467844   5.778977   6.962646
    23  N    7.844379   8.540002   8.324362   5.948663   6.970911
    24  O    8.539692   9.337515   8.884463   6.676377   7.668077
    25  O    8.324674   8.885015   8.941232   6.446216   7.467142
    26  H    6.438931   7.266334   6.673822   4.235294   4.965261
    27  H    5.142358   6.106058   5.280864   3.361904   4.270719
    28  H    6.911791   7.869656   7.025056   5.114647   6.003270
                   11         12         13         14         15
    11  O    0.000000
    12  H    3.430874   0.000000
    13  H    2.584093   1.797283   0.000000
    14  H    3.802148   1.792055   1.795807   0.000000
    15  C    3.123606   5.974820   4.439231   5.560924   0.000000
    16  C    3.364641   5.558682   3.827145   5.108497   1.509402
    17  N    2.867431   4.848045   3.229996   4.867712   2.536926
    18  O    2.965797   3.984005   2.374818   4.056905   3.462415
    19  O    3.154124   5.535241   4.111717   5.822278   2.854891
    20  N    3.783475   5.112743   3.359862   4.232889   2.523104
    21  O    3.212375   4.163462   2.540318   3.143559   2.891547
    22  O    4.976041   5.999568   4.267142   4.961737   3.414146
    23  N    4.826326   6.911849   5.142159   6.437924   2.549124
    24  O    5.575668   7.869175   6.105181   7.263825   2.776608
    25  O    5.329278   7.025583   5.281408   6.674569   3.584552
    26  H    3.145578   6.319604   4.893103   6.194395   1.099665
    27  H    2.541416   5.356244   3.992851   4.890985   1.105799
    28  H    4.164562   6.920155   5.355529   6.316616   1.099255
                   16         17         18         19         20
    16  C    0.000000
    17  N    1.537799   0.000000
    18  O    2.348387   1.199885   0.000000
    19  O    2.307740   1.196170   2.151803   0.000000
    20  N    1.521378   2.474238   2.591647   3.563185   0.000000
    21  O    2.303642   2.888334   2.718773   3.991737   1.201432
    22  O    2.332673   3.323158   3.377538   4.373294   1.200025
    23  N    1.544763   2.426504   3.253294   2.845300   2.445852
    24  O    2.340643   3.501353   4.390356   3.790934   3.102255
    25  O    2.328694   2.556767   3.129977   2.929817   3.003218
    26  H    2.133511   2.627252   3.710303   2.453376   3.443705
    27  H    2.188816   2.991003   3.655335   3.434260   2.697339
    28  H    2.124287   3.442481   4.370478   3.747139   2.896937
                   21         22         23         24         25
    21  O    0.000000
    22  O    2.153022   0.000000
    23  N    3.554559   2.533295   0.000000
    24  O    4.202998   3.008037   1.196980   0.000000
    25  O    4.090945   2.906848   1.200976   2.151476   0.000000
    26  H    3.802228   4.335067   2.915612   3.162492   3.822729
    27  H    2.583151   3.740443   3.506530   3.779883   4.478129
    28  H    3.429144   3.488465   2.633851   2.368688   3.815778
                   26         27         28
    26  H    0.000000
    27  H    1.795628   0.000000
    28  H    1.791811   1.797261   0.000000
 Framework group  C1[X(C4H6N6O12)]
 Deg. of freedom    78
                         Standard orientation:                         
 ---------------------------------------------------------------------
 Center     Atomic      Atomic             Coordinates (Angstroms)
 Number     Number       Type             X           Y           Z
 ---------------------------------------------------------------------
      1          6           0       -1.867318   -0.013257    1.729422
      2          6           0       -2.374504   -0.001977    0.307804
      3          7           0       -1.970791   -1.261363   -0.477090
      4          8           0       -2.258810   -2.293093    0.055322
      5          8           0       -1.403973   -1.106488   -1.523183
      6          7           0       -3.916282    0.013581    0.213079
      7          8           0       -4.502717    0.580732    1.088966
      8          8           0       -4.375998   -0.453751   -0.793218
      9          7           0       -1.898452    1.212100   -0.475871
     10          8           0       -2.735803    1.941742   -0.930324
     11          8           0       -0.705515    1.333272   -0.551544
     12          1           0       -2.478248    0.688905    2.314307
     13          1           0       -0.803712    0.279462    1.805866
     14          1           0       -1.990583   -1.026534    2.138483
     15          6           0        1.867702    0.011133   -1.729431
     16          6           0        2.374709    0.001505   -0.307761
     17          7           0        1.970764    1.261796    0.475385
     18          8           0        1.403472    1.108465    1.521518
     19          8           0        2.258399    2.292802   -0.058578
     20          7           0        1.898418   -1.211383    0.477505
     21          8           0        0.705499   -1.333546    0.551395
     22          8           0        2.735632   -1.939325    0.934928
     23          7           0        3.916474   -0.014299   -0.212882
     24          8           0        4.502641   -0.584067   -1.087259
     25          8           0        4.376455    0.455883    0.791951
     26          1           0        1.991229    1.023387   -2.140947
     27          1           0        0.804029   -0.281394   -1.805709
     28          1           0        2.478574   -0.692284   -2.312871
 ---------------------------------------------------------------------
 Rotational constants (GHZ):           0.6518031           0.1738400           0.1622848
   320 basis functions,   574 primitive gaussians,   342 cartesian basis functions
    84 alpha electrons       84 beta electrons
       nuclear repulsion energy      2138.3534718134 Hartrees.
 NAtoms=   28 NActive=   28 NUniq=   28 SFac= 1.00D+00 NAtFMM=   60 NAOKFM=F Big=F
 Nuclear repulsion after empirical dispersion term =     2138.3325151323 Hartrees.
   1 Symmetry operations used in ECPInt.
 ECPInt:  NShTT=   10440 NPrTT=   41920 LenC2=    9285 LenP2D=   25025.
 LDataN:  DoStor=T MaxTD1= 4 Len=   56
 Initial guess from the checkpoint file:  "43.chk"
 B after Tr=    -0.000000    0.000000    0.000000
         Rot=    0.999963   -0.005473   -0.006264   -0.002396 Ang=  -0.99 deg.
 ExpMin= 1.22D-01 ExpMax= 2.27D+03 ExpMxC= 3.41D+02 IAcc=3 IRadAn=         5 AccDes= 0.00D+00
 Harris functional with IExCor= 4639 and IRadAn=       5 diagonalized for initial guess.
 HarFok:  IExCor= 4639 AccDes= 0.00D+00 IRadAn=         5 IDoV= 1 UseB2=F ITyADJ=14
 ICtDFT=  3500011 ScaDFX=  1.000000  1.000000  1.000000  1.000000
 FoFCou: FMM=F IPFlag=           0 FMFlag=      100000 FMFlg1=           0
         NFxFlg=           0 DoJE=T BraDBF=F KetDBF=T FulRan=T
         wScrn=  0.000000 ICntrl=       500 IOpCl=  0 I1Cent=   200000004 NGrid=           0
         NMat0=    1 NMatS0=      1 NMatT0=    0 NMatD0=    1 NMtDS0=    0 NMtDT0=    0
 Petite list used in FoFCou.
     Minimum is close to point  4 DX=  2.54D-02 DF= -4.87D-06 DXR=  2.07D-02 DFR=  4.28D-04 which will be used.
     Accept linear search using points  1 and  2.
     Minimum is close to point  2 DX= -1.03D-02 DF= -1.25D-07 DXR=  1.04D-02 DFR=  1.08D-04 which will be used.
     Accept linear search using points  1 and  2.
     Accept linear search using points  1 and  2.
     Accept linear search using points  1 and  2.
 Restarting incremental Fock formation.
     Accept linear search using points  1 and  2.
     Accept linear search using points  1 and  2.
     Minimum is close to point  2 DX= -2.73D-04 DF= -1.23D-11 DXR=  2.73D-04 DFR=  7.42D-08 which will be used.
 SCF Done:  E(RwB97XD) =  -1385.08961543     a.u. after   13 cycles
            Convg  =    0.7668D-09                    58 Fock formations.
              S**2 =  0.0000                  -V/T =  2.0064
   1 Symmetry operations used in ECPInt.
 ECPInt:  NShTT=   10440 NPrTT=   41920 LenC2=    9285 LenP2D=   25025.
 LDataN:  DoStor=T MaxTD1= 5 Len=  102
 Calling FoFJK, ICntrl=      2127 FMM=F ISym2X=0 I1Cent= 0 IOpClX= 0 NMat=1 NMatS=1 NMatT=0.

 GradGradGradGradGradGradGradGradGradGradGradGradGradGradGradGradGradGrad
 Using GEDIIS/GDIIS optimizer.
 FormGI is forming the generalized inverse of G from B-inverse, IUseBI=4.
 Internal  Forces:  Max     0.006760690 RMS     0.001903979
 Step number   2 out of a maximum of  168
 All quantities printed in internal units (Hartrees-Bohrs-Radians)
 Mixed Optimization -- RFO/linear search
 Trust test= 6.41D-01 RLast= 4.89D-01 DXMaxT set to 5.05D-01
 ITU=  1  0
 Use linear search instead of GDIIS.
     Eigenvalues ---    0.00230   0.00230   0.00289   0.00290   0.00455
     Eigenvalues ---    0.00491   0.00965   0.01064   0.01212   0.01254
     Eigenvalues ---    0.01758   0.01864   0.01969   0.02268   0.02301
     Eigenvalues ---    0.02518   0.02920   0.03274   0.03466   0.03954
     Eigenvalues ---    0.04216   0.04494   0.04723   0.05180   0.05379
     Eigenvalues ---    0.05520   0.05933   0.06337   0.06610   0.07755
     Eigenvalues ---    0.08253   0.08643   0.08730   0.09257   0.09550
     Eigenvalues ---    0.10786   0.11180   0.11991   0.14067   0.15768
     Eigenvalues ---    0.16094   0.17327   0.19427   0.19696   0.24587
     Eigenvalues ---    0.24997   0.24998   0.24999   0.24999   0.25000
     Eigenvalues ---    0.25000   0.25441   0.27224   0.27634   0.27740
     Eigenvalues ---    0.27763   0.29269   0.29464   0.30914   0.32158
     Eigenvalues ---    0.33252   0.34466   0.34856   0.34878   0.34893
     Eigenvalues ---    0.37062   0.94481   0.95675   0.97263   1.01142
     Eigenvalues ---    1.05128   1.07404   1.07579   1.07641   1.08816
     Eigenvalues ---    1.09936   1.10258   1.10530
 Quartic linear search produced a step of -0.15249.
 Iteration  1 RMS(Cart)=  0.06981822 RMS(Int)=  0.00881147
 Iteration  2 RMS(Cart)=  0.00909745 RMS(Int)=  0.00509949
 Iteration  3 RMS(Cart)=  0.00013387 RMS(Int)=  0.00509828
 Iteration  4 RMS(Cart)=  0.00000191 RMS(Int)=  0.00509828
 Iteration  5 RMS(Cart)=  0.00000004 RMS(Int)=  0.00509828
 Variable       Old X    -DE/DX   Delta X   Delta X   Delta X     New X
                                 (Linear)    (Quad)   (Total)
    R1        2.85240  -0.00676  -0.00106  -0.01001  -0.01105   2.84135
    R2        2.07729   0.00082  -0.00277   0.02056   0.01778   2.09507
    R3        2.08965  -0.00428  -0.00471   0.02182   0.01712   2.10677
    R4        2.07806   0.00018  -0.00298   0.02050   0.01751   2.09557
    R5        2.90618  -0.00205   0.00125  -0.01401  -0.01263   2.89356
    R6        2.91918  -0.00276   0.00113  -0.01552  -0.01440   2.90478
    R7        2.87509   0.00167  -0.00164   0.01549   0.01380   2.88889
    R8        2.26048   0.00489  -0.00206   0.01771   0.01565   2.27613
    R9        2.26734   0.00240  -0.00151   0.01209   0.01075   2.27809
   R10        4.48621   0.00021  -0.00893   0.05249   0.04371   4.52992
   R11        2.26195   0.00515  -0.00197   0.01731   0.01534   2.27729
   R12        2.26954   0.00229  -0.00174   0.01363   0.01189   2.28143
   R13        2.26772   0.00037  -0.00160   0.01118   0.00958   2.27730
   R14        2.27043   0.00369  -0.00078   0.00817   0.00723   2.27766
   R15        4.80258   0.00104  -0.01206   0.08922   0.07696   4.87954
   R16        4.48776   0.00021  -0.00902   0.05451   0.04564   4.53340
   R17        4.80050   0.00100  -0.01201   0.08690   0.07471   4.87521
   R18        2.85236  -0.00675  -0.00106  -0.01002  -0.01110   2.84126
   R19        2.07807   0.00017  -0.00299   0.02048   0.01749   2.09555
   R20        2.08966  -0.00424  -0.00471   0.02186   0.01714   2.10680
   R21        2.07729   0.00083  -0.00277   0.02059   0.01782   2.09511
   R22        2.90602  -0.00203   0.00128  -0.01432  -0.01288   2.89314
   R23        2.87499   0.00170  -0.00164   0.01548   0.01376   2.88875
   R24        2.91918  -0.00277   0.00113  -0.01557  -0.01444   2.90474
   R25        2.26745   0.00237  -0.00152   0.01214   0.01079   2.27825
   R26        2.26043   0.00493  -0.00206   0.01774   0.01568   2.27611
   R27        2.27038   0.00371  -0.00076   0.00810   0.00717   2.27755
   R28        2.26772   0.00038  -0.00159   0.01118   0.00959   2.27731
   R29        2.26196   0.00515  -0.00197   0.01730   0.01533   2.27730
   R30        2.26952   0.00228  -0.00174   0.01363   0.01189   2.28141
    A1        1.88557   0.00048   0.00474  -0.02431  -0.01978   1.86579
    A2        1.96744  -0.00350  -0.00524  -0.00165  -0.00659   1.96085
    A3        1.89607   0.00019   0.00244  -0.01582  -0.01338   1.88270
    A4        1.90571   0.00187  -0.00002   0.01465   0.01452   1.92023
    A5        1.90536  -0.00025  -0.00069   0.01037   0.00949   1.91485
    A6        1.90289   0.00125  -0.00118   0.01680   0.01531   1.91820
    A7        1.96747   0.00023  -0.00329   0.01726   0.01403   1.98150
    A8        1.97490  -0.00169  -0.00366   0.01607   0.01240   1.98729
    A9        1.96704  -0.00036  -0.00308   0.00755   0.00453   1.97156
   A10        1.81209   0.00092   0.00599  -0.02775  -0.02176   1.79033
   A11        1.88436  -0.00004   0.00168  -0.00608  -0.00441   1.87995
   A12        1.84696   0.00112   0.00336  -0.01190  -0.00871   1.83826
   A13        1.99978  -0.00168  -0.00012  -0.00531  -0.00563   1.99415
   A14        2.05250   0.00088  -0.00314   0.02518   0.02200   2.07449
   A15        2.23083   0.00083   0.00322  -0.01952  -0.01650   2.21433
   A16        2.19939  -0.00096   0.00754  -0.06667  -0.05900   2.14039
   A17        2.03631  -0.00196  -0.00148   0.01816  -0.00908   2.02723
   A18        2.01474   0.00021  -0.00193   0.02811   0.00040   2.01514
   A19        2.22681   0.00235   0.00423  -0.00602  -0.02899   2.19783
   A20        2.05096  -0.00032  -0.00193   0.01333   0.01115   2.06211
   A21        2.00821   0.00119   0.00031  -0.00148  -0.00078   2.00743
   A22        2.22390  -0.00086   0.00163  -0.01210  -0.01071   2.21319
   A23        2.16129  -0.00216   0.00308  -0.03192  -0.02908   2.13221
   A24        1.94896   0.00059  -0.00508   0.03689   0.03158   1.98054
   A25        1.17055   0.00113  -0.00066   0.01048   0.00975   1.18031
   A26        1.89717  -0.00007   0.00227  -0.01518  -0.01283   1.88434
   A27        1.96751  -0.00349  -0.00525  -0.00153  -0.00656   1.96094
   A28        1.88511   0.00040   0.00481  -0.02519  -0.02056   1.86455
   A29        1.90260   0.00135  -0.00114   0.01632   0.01492   1.91752
   A30        1.90497  -0.00008  -0.00063   0.01045   0.00959   1.91456
   A31        1.90567   0.00193  -0.00001   0.01518   0.01504   1.92071
   A32        1.96731   0.00024  -0.00327   0.01694   0.01373   1.98104
   A33        1.96718  -0.00038  -0.00308   0.00749   0.00443   1.97160
   A34        1.97486  -0.00169  -0.00365   0.01598   0.01234   1.98720
   A35        1.88417  -0.00002   0.00167  -0.00559  -0.00390   1.88027
   A36        1.81241   0.00090   0.00596  -0.02738  -0.02145   1.79096
   A37        1.84689   0.00112   0.00337  -0.01224  -0.00900   1.83789
   A38        2.05270   0.00087  -0.00319   0.02586   0.02268   2.07538
   A39        1.99971  -0.00167  -0.00009  -0.00564  -0.00594   1.99377
   A40        2.23068   0.00083   0.00325  -0.01987  -0.01683   2.21385
   A41        2.19989  -0.00096   0.00749  -0.06581  -0.05817   2.14173
   A42        2.00827   0.00119   0.00031  -0.00129  -0.00063   2.00764
   A43        2.05097  -0.00033  -0.00193   0.01321   0.01105   2.06202
   A44        2.22383  -0.00086   0.00163  -0.01218  -0.01078   2.21305
   A45        2.16000  -0.00219   0.00305  -0.03178  -0.02891   2.13109
   A46        2.03617  -0.00195  -0.00148   0.01803  -0.00899   2.02718
   A47        2.01490   0.00019  -0.00195   0.02804   0.00053   2.01543
   A48        2.22683   0.00236   0.00423  -0.00612  -0.02885   2.19798
   A49        1.16978   0.00109  -0.00063   0.00969   0.00896   1.17873
   A50        1.94898   0.00058  -0.00512   0.03705   0.03177   1.98075
   A51        3.11951   0.00172  -0.00574   0.04737   0.04133   3.16085
   A52        3.11876   0.00167  -0.00575   0.04675   0.04072   3.15948
   A53        2.91606   0.00228  -0.00631   0.03990   0.03363   2.94968
   A54        2.91767   0.00227  -0.00636   0.04319   0.03686   2.95452
    D1       -2.78195  -0.00075   0.00174  -0.03621  -0.03448  -2.81644
    D2       -0.73215  -0.00057   0.00467  -0.04879  -0.04407  -0.77622
    D3        1.36267  -0.00060   0.00423  -0.04709  -0.04301   1.31967
    D4        1.39392  -0.00122   0.00193  -0.03697  -0.03525   1.35867
    D5       -2.83947  -0.00104   0.00485  -0.04955  -0.04484  -2.88431
    D6       -0.74464  -0.00107   0.00442  -0.04785  -0.04377  -0.78842
    D7       -0.71704  -0.00068   0.00511  -0.04618  -0.04114  -0.75818
    D8        1.33276  -0.00050   0.00803  -0.05875  -0.05072   1.28203
    D9       -2.85561  -0.00052   0.00759  -0.05706  -0.04966  -2.90527
   D10       -1.08087   0.00014   0.00897  -0.02450  -0.01576  -1.09663
   D11        3.10656   0.00051   0.00639  -0.00281   0.00356   3.11012
   D12        1.02620  -0.00103   0.00793  -0.03394  -0.02643   0.99976
   D13       -0.15907   0.00021   0.00111   0.00637   0.00721  -0.15186
   D14       -2.18765   0.00037  -0.00013   0.02498   0.02480  -2.16285
   D15        1.92594  -0.00033  -0.00239   0.01734   0.01508   1.94102
   D16        0.92405   0.00018  -0.00175   0.02028   0.01855   0.94260
   D17       -2.20508  -0.00186  -0.00743  -0.00705  -0.01461  -2.21969
   D18       -1.21967   0.00151   0.00071   0.00916   0.00999  -1.20968
   D19        1.93439  -0.00054  -0.00497  -0.01817  -0.02318   1.91121
   D20        3.10833  -0.00015  -0.00670   0.03742   0.03090   3.13923
   D21       -0.02080  -0.00220  -0.01238   0.01009  -0.00226  -0.02306
   D22        0.55678  -0.00321  -0.00742  -0.19580  -0.20063   0.35616
   D23       -2.68695   0.00270   0.00708   0.18886   0.19332  -2.49364
   D24        2.69561  -0.00327  -0.00963  -0.18400  -0.19105   2.50456
   D25       -0.54813   0.00264   0.00488   0.20065   0.20289  -0.34524
   D26       -1.60537  -0.00249  -0.00360  -0.20699  -0.20794  -1.81331
   D27        1.43408   0.00342   0.01090   0.17767   0.18601   1.62008
   D28       -2.10615   0.00034   0.00776  -0.01711  -0.00921  -2.11535
   D29        1.02044   0.00034   0.00941  -0.03409  -0.02457   0.99587
   D30        1.99250   0.00033   0.01284  -0.04002  -0.02717   1.96533
   D31       -1.16410   0.00033   0.01449  -0.05700  -0.04253  -1.20663
   D32        0.06093  -0.00121   0.00359  -0.00056   0.00305   0.06399
   D33       -3.09567  -0.00121   0.00523  -0.01754  -0.01230  -3.10797
   D34        1.21136   0.00104   0.00349   0.01553   0.01900   1.23035
   D35       -1.91588  -0.00129  -0.00312  -0.01611  -0.01894  -1.93483
   D36       -1.00483   0.00080   0.00703  -0.02770  -0.02051  -1.02534
   D37        1.15666  -0.00016   0.00721  -0.02965  -0.02247   1.13419
   D38       -2.00170  -0.00015   0.00904  -0.04835  -0.03915  -2.04085
   D39       -0.20541   0.00043  -0.01511   0.06599   0.05061  -0.15480
   D40       -3.12308  -0.00183  -0.00875   0.02280   0.01376  -3.10933
   D41        1.00210  -0.00082  -0.00689   0.02448   0.01752   1.01962
   D42        3.12413   0.00185   0.00872  -0.02392  -0.01489   3.10923
   D43        0.20807  -0.00043   0.01503  -0.06382  -0.04852   0.15955
   D44        0.71780   0.00066  -0.00523   0.04931   0.04412   0.76192
   D45        2.85609   0.00053  -0.00771   0.06054   0.05301   2.90910
   D46       -1.33228   0.00049  -0.00813   0.06170   0.05356  -1.27872
   D47       -1.39360   0.00125  -0.00198   0.04020   0.03836  -1.35525
   D48        0.74469   0.00113  -0.00446   0.05143   0.04724   0.79193
   D49        2.83950   0.00109  -0.00488   0.05259   0.04779   2.88729
   D50        2.78259   0.00075  -0.00185   0.03928   0.03744   2.82003
   D51       -1.36230   0.00062  -0.00433   0.05052   0.04633  -1.31598
   D52        0.73250   0.00058  -0.00474   0.05167   0.04688   0.77938
   D53        1.08013  -0.00022  -0.00889   0.02009   0.01144   1.09157
   D54       -1.02817   0.00120  -0.00766   0.02897   0.02167  -1.00650
   D55       -3.10786  -0.00064  -0.00623  -0.00227  -0.00849  -3.11636
   D56        2.20482   0.00188   0.00749   0.00687   0.01446   2.21928
   D57       -0.92360  -0.00019   0.00168  -0.01919  -0.01758  -0.94118
   D58        0.02061   0.00220   0.01242  -0.01033   0.00207   0.02268
   D59       -3.10781   0.00014   0.00662  -0.03639  -0.02997  -3.13778
   D60       -1.93456   0.00055   0.00502   0.01794   0.02300  -1.91157
   D61        1.22020  -0.00151  -0.00078  -0.00812  -0.00904   1.21116
   D62       -1.01833  -0.00036  -0.00946   0.03415   0.02461  -0.99372
   D63        2.10831  -0.00034  -0.00774   0.01660   0.00873   2.11704
   D64        1.16596  -0.00032  -0.01450   0.05696   0.04249   1.20845
   D65       -1.99059  -0.00030  -0.01279   0.03941   0.02662  -1.96397
   D66        3.09778   0.00121  -0.00529   0.01799   0.01269   3.11047
   D67       -0.05877   0.00122  -0.00358   0.00043  -0.00319  -0.06195
   D68       -0.55827   0.00320   0.00738   0.19515   0.19998  -0.35829
   D69        2.68516  -0.00267  -0.00706  -0.18787  -0.19232   2.49284
   D70       -2.69709   0.00326   0.00958   0.18355   0.19059  -2.50650
   D71        0.54634  -0.00262  -0.00486  -0.19946  -0.20171   0.34463
   D72        1.60399   0.00246   0.00357   0.20597   0.20691   1.81090
   D73       -1.43577  -0.00342  -0.01086  -0.17705  -0.18539  -1.62116
   D74       -1.20887  -0.00100  -0.00364  -0.01224  -0.01596  -1.22483
   D75        1.91756   0.00135   0.00311   0.01795   0.02069   1.93826
   D76       -1.15998   0.00017  -0.00716   0.02831   0.02118  -1.13880
   D77        1.99832   0.00015  -0.00906   0.04764   0.03843   2.03674
         Item               Value     Threshold  Converged?
 Maximum Force            0.006761     0.000015     NO 
 RMS     Force            0.001904     0.000010     NO 
 Maximum Displacement     0.300042     0.000060     NO 
 RMS     Displacement     0.070399     0.000040     NO 
 GradGradGradGradGradGradGradGradGradGradGradGradGradGradGradGradGradGrad

                    Distance matrix (angstroms):
                    1          2          3          4          5
     1  C    0.000000
     2  C    1.503576   0.000000
     3  N    2.538449   1.531205   0.000000
     4  O    2.867861   2.304497   1.204476   0.000000
     5  O    3.483757   2.362151   1.205515   2.155578   0.000000
     6  N    2.548254   1.537146   2.394271   2.804597   3.227221
     7  O    2.727043   2.334084   3.430877   3.644338   4.369009
     8  O    3.545148   2.327187   2.462885   2.740748   3.081405
     9  N    2.528087   1.528734   2.471035   3.568022   2.609262
    10  O    3.431166   2.351084   3.319304   4.372691   3.383094
    11  O    2.890648   2.312606   2.908128   4.023648   2.771915
    12  H    1.108664   2.111672   3.443626   3.770049   4.382779
    13  H    1.114854   2.185957   2.978281   3.435004   3.665924
    14  H    1.108929   2.124566   2.638404   2.468604   3.742189
    15  C    5.084344   4.719905   4.236794   5.054020   3.500604
    16  C    4.719463   4.818877   4.555050   5.212315   4.184363
    17  N    4.238540   4.553458   4.790547   5.558272   4.634804
    18  O    3.501811   4.181999   4.636737   5.264124   4.789375
    19  O    5.056609   5.209160   5.554687   6.457636   5.256999
    20  N    4.195627   4.512130   4.058811   4.385928   3.971721
    21  O    3.192193   3.449020   2.942830   3.211010   3.071481
    22  O    5.115932   5.579725   5.054013   5.179951   5.012544
    23  N    6.107570   6.334138   6.052104   6.624504   5.651654
    24  O    7.033444   7.081906   6.610333   7.180659   6.031660
    25  O    6.368910   6.811316   6.754786   7.320054   6.495070
    26  H    5.580904   5.151010   4.890999   5.845024   4.106158
    27  H    4.403587   3.813906   3.211909   4.094297   2.397128
    28  H    5.958679   5.565705   4.840575   5.516815   4.011268
                    6          7          8          9         10
     6  N    0.000000
     7  O    1.205089   0.000000
[...]
 0810905,0.00258753,0.00293623,0.00260779,0.00117016,-0.00138148,0.0022
 1110,0.03141302,-0.01996962,-0.10078211,-0.07382434,0.03365835,0.07976
 129,0.00017545,0.00096917,-0.00052659,0.00110135,-0.00069260,-0.000236
 22,0.00229404,-0.00132174,0.00001221,-0.00055889,0.00091471,0.00042168
 ,-0.00103180,0.00031559,-0.00032006,0.00121682,0.00001980,0.00028812,-
 0.00069248,0.00015916,-0.00016426,-0.00060863,0.00001743,-0.00000249,0
 .00093797,-0.00108832,-0.00090311,-0.00035007,0.00053394,0.00054453,-0
 .00038913,0.00057791,0.00023765,-0.00043338,-0.00003321,0.00005871,-0.
 00004431,-0.00101173,0.00106534,0.00013117,-0.00003449,0.00021180,0.00
 102535,0.00077209,0.00067004,0.00558744,0.01120106,0.01113853,-0.00041
 041,-0.00049151,-0.00036130,0.00141007,-0.00018582,-0.00034421,-0.0000
 6472,-0.00044684,0.00018247,-0.36535284,0.17561909,0.19888027,-0.10481
 684,0.04272778,0.06312079,0.46294685,-0.00008212,-0.00011553,0.0000812
 3,-0.00018624,0.00008439,-0.00008113,-0.00077270,-0.00046473,-0.000859
 30,0.00016259,0.00044653,0.00026639,0.00064291,0.00015768,0.00058694,-
 0.00047800,0.00000837,-0.00006796,0.00023982,-0.00002842,0.00006366,0.
 00022989,0.00001759,-0.00000451,-0.00123334,-0.00007219,0.00025710,0.0
 0053401,-0.00014264,-0.00026002,0.00089438,0.00004791,0.00010598,0.000
 04126,0.00000391,-0.00003252,-0.00011730,0.00018670,-0.00015280,0.0000
 2789,-0.00001559,-0.00006216,-0.00370799,-0.00774643,-0.00072904,0.024
 79049,-0.02157423,-0.03980533,-0.00230295,0.00185406,-0.00564414,0.001
 02933,-0.00034101,0.00229948,0.00053669,-0.00217842,0.00133389,0.18569
 681,-0.27545929,-0.19025713,0.01416789,0.03818991,0.00471264,-0.223556
 00,0.27100457,-0.00022395,-0.00046548,0.00041916,-0.00054750,0.0002295
 8,0.00011246,-0.00093211,0.00007926,-0.00010259,0.00021503,-0.00005137
 ,-0.00004355,0.00041173,0.00006205,0.00031151,-0.00067174,-0.00001071,
 -0.00011892,0.00037178,-0.00005606,0.00007387,0.00033579,0.00002283,-0
 .00001908,-0.00129595,0.00024227,0.00048555,0.00054455,-0.00026002,-0.
 00036389,0.00084083,-0.00011715,-0.00004888,0.00025288,0.00002675,-0.0
 0005607,0.00010313,0.00024450,-0.00079042,0.00009254,-0.00001075,-0.00
 011086,-0.00138924,-0.00219233,-0.00065396,0.02079069,-0.03612617,-0.0
 0767125,-0.00507129,-0.00013204,-0.01280878,0.00007939,0.00212072,0.00
 433475,0.00160409,-0.00367408,0.00246351,0.21103240,-0.19056853,-0.262
 07300,0.04175213,-0.00039263,0.01518156,-0.26946207,0.23326528,0.26443
 212,0.00003503,-0.00003877,0.00010758,-0.00037777,0.00006317,0.0000778
 5,-0.00070997,-0.00034407,-0.00051732,0.00023558,0.00032125,0.00012704
 ,0.00062475,0.00017726,0.00039143,-0.00105956,-0.00000753,-0.00007972,
 0.00051852,-0.00005436,0.00005803,0.00052816,0.00005223,-0.00006954,-0
 .00263185,0.00007029,0.00071857,0.00121688,-0.00047801,-0.00067171,0.0
 0186221,0.00020561,-0.00006699,-0.00000278,-0.00000092,-0.00007780,-0.
 00040767,-0.00000227,-0.00026930,-0.00000564,0.00001097,-0.00008400,-0
 .01682019,-0.00078041,0.01276827,-0.08019033,-0.00723793,0.00204898,-0
 .01251354,0.03093649,-0.01832732,0.00032578,-0.00409561,0.00881270,-0.
 00337853,-0.00920731,0.00067003,-0.01730440,-0.02840876,-0.01640067,0.
 00444881,0.00615319,0.00278025,-0.00616310,0.00702429,0.00495977,0.658
 74322,0.00002131,-0.00006345,0.00003045,0.00003029,0.00003107,-0.00027
 499,-0.00032613,-0.00020337,-0.00099266,0.00004911,0.00027577,0.000444
 76,0.00044359,-0.00004707,0.00056407,-0.00000752,0.00019128,-0.0002091
 8,0.00004446,-0.00010886,0.00014973,-0.00006608,-0.00011396,0.00014209
 ,-0.00012804,-0.00001380,-0.00005189,0.00001991,0.00000838,-0.00001074
 ,0.00011690,-0.00017145,0.00035050,0.00003082,0.00001569,0.00002102,0.
 00013011,0.00006465,-0.00002921,-0.00000117,0.00000339,0.00000930,0.00
 641972,0.00157315,-0.00267957,0.00056924,-0.08891870,-0.01552435,0.038
 63467,0.00575856,-0.00203310,-0.00187915,-0.00382112,0.00674334,-0.006
 33753,-0.00436679,0.00161952,-0.03836686,0.00910868,0.00615108,-0.0044
 9440,-0.00893109,-0.00524058,0.00179005,-0.00598415,-0.00141573,-0.007
 15598,0.58884680,0.00000473,0.00014774,-0.00007398,0.00003669,-0.00012
 819,0.00021519,0.00040703,-0.00048355,0.00041836,-0.00015358,0.0002320
 8,-0.00016196,-0.00021642,0.00023667,-0.00026707,-0.00007970,-0.000209
 24,0.00026669,-0.00002441,0.00013192,-0.00017547,0.00011247,0.00014207
 ,-0.00017639,-0.00058716,-0.00010516,0.00012131,0.00028803,-0.00006797
 ,-0.00011888,0.00036942,0.00028703,-0.00025679,-0.00008660,-0.00001372
 ,-0.00002054,-0.00014069,-0.00021902,0.00011425,0.00003527,-0.00001460
 ,0.00001875,0.03307974,0.00086503,0.00450992,0.00196775,-0.01374320,-0
 .08280456,-0.02892986,-0.00380596,0.00389715,0.00187378,0.00366882,-0.
 00809330,0.00586569,0.00396925,-0.00113872,-0.02487167,0.00413297,0.00
 529105,-0.00025135,-0.00548242,-0.00193131,0.00096303,-0.00100829,-0.0
 0492978,-0.00403501,-0.44605225,0.85014187,-0.00002360,-0.00004875,-0.
 00002646,0.00015970,0.00001788,-0.00005720,0.00023469,0.00034208,0.000
 21216,-0.00006983,-0.00025259,-0.00005426,-0.00026444,-0.00015759,-0.0
 0015157,0.00051854,0.00004448,-0.00002440,-0.00023648,-0.00000474,0.00
 000941,-0.00027112,-0.00005543,0.00007062,0.00148383,0.00003254,-0.000
 38529,-0.00069251,0.00023984,0.00037177,-0.00109921,-0.00014496,0.0000
 2745,0.00003240,0.00000418,0.00003992,0.00023822,0.00008599,0.00008839
 ,-0.00001344,0.00000070,0.00003135,-0.00322056,0.00017087,-0.00007888,
 -0.03471261,0.03468181,-0.03662824,-0.00966375,-0.01002929,0.00489224,
 0.00006583,0.00300118,-0.00470574,0.00190696,0.00307595,-0.00051768,-0
 .00235150,0.00656038,0.00437565,-0.00072083,-0.00236645,-0.00144736,0.
 00176096,-0.00246099,-0.00180968,-0.26108434,0.14980996,-0.18180429,0.
 26169109,-0.00000284,0.00008464,-0.00002478,-0.00000263,-0.00005964,0.
 00012714,0.00020458,-0.00016308,0.00037485,-0.00006424,0.00004046,-0.0
 0015782,-0.00019072,0.00010805,-0.00021848,-0.00005436,-0.00010887,0.0
 0013189,-0.00000473,0.00006781,-0.00008787,0.00006547,0.00007615,-0.00
 009052,-0.00030513,-0.00007453,0.00006066,0.00015910,-0.00002843,-0.00
 005604,0.00019720,0.00016190,-0.00016010,-0.00003766,-0.00000875,-0.00
 001637,-0.00011851,-0.00010690,0.00001935,0.00002107,-0.00000804,0.000
 00234,-0.00272214,0.00021092,0.00201902,0.02283626,0.00463329,0.020590
 22,-0.00107638,0.00143400,0.00098838,0.00039951,-0.00026390,-0.0006436
 3,0.00078481,0.00025699,-0.00051193,0.00657179,-0.00723109,-0.00445681
 ,0.00045426,0.00257816,0.00148376,-0.00456986,0.00229528,-0.00098712,0
 .13770755,-0.25822289,0.23175229,-0.17181348,0.28219387,0.00000893,-0.
 00008610,0.00003680,0.00000139,0.00006606,-0.00021328,-0.00028942,0.00
 006710,-0.00059848,0.00008152,0.00005352,0.00025689,0.00029112,-0.0000
 8537,0.00036123,0.00005804,0.00014976,-0.00017546,0.00000941,-0.000087
 88,0.00012293,-0.00008465,-0.00009776,0.00012490,0.00027113,0.00001587
 ,-0.00010541,-0.00016420,0.00006367,0.00007384,-0.00014848,-0.00019965
 ,0.00029718,0.00004548,0.00001072,0.00002104,0.00016062,0.00012499,-0.
 00003523,-0.00002399,0.00000580,-0.00000018,0.00355894,-0.00019567,-0.
 00183730,-0.02205808,0.02103247,-0.00497332,-0.00020646,-0.00221339,0.
 00119836,-0.00006061,0.00027371,0.00009614,-0.00056198,-0.00018255,0.0
 0058887,0.00271104,0.00069405,0.00080120,-0.00081089,0.00008064,0.0001
 6579,-0.00066046,-0.00099419,-0.00020478,-0.16865906,0.22869036,-0.368
 10672,0.20220283,-0.31952366,0.43769580,-0.00002654,0.00002300,-0.0000
 6065,0.00018100,-0.00004256,0.00008381,0.00048544,0.00026871,0.0006669
 7,-0.00015572,-0.00028354,-0.00024035,-0.00053214,-0.00010183,-0.00043
 402,0.00052814,-0.00006608,0.00011246,-0.00027110,0.00006546,-0.000084
 64,-0.00023575,0.00001626,-0.00001833,0.00136806,-0.00003503,-0.000329
 47,-0.00060869,0.00022988,0.00033577,-0.00099689,-0.00001991,-0.000117
 08,-0.00000308,-0.00000386,0.00002891,0.00012991,-0.00000740,0.0001344
 4,0.00000540,-0.00000555,0.00003847,-0.00839416,-0.00055552,-0.0034416
 2,-0.03240726,-0.02416616,0.03983906,-0.00303670,-0.00627185,0.0048918
 5,-0.00128448,0.00127121,-0.00074252,-0.00170380,0.00290952,-0.0000899
 1,-0.00456935,0.00710807,0.00576710,-0.00105546,-0.00316616,-0.0020355
 3,0.00221773,-0.00235718,-0.00190403,-0.26936034,-0.13822527,0.1945653
 8,0.05042884,0.01105530,-0.01579853,0.26911930,-0.00001019,0.00008012,
 -0.00002885,0.00003729,-0.00006496,0.00015383,0.00029599,-0.00000694,0
 .00056034,-0.00008190,-0.00008380,-0.00023072,-0.00032194,0.00004888,-
 0.00033640,0.00005221,-0.00011398,0.00014205,-0.00005541,0.00007616,-0
 .00009775,0.00001627,0.00007246,-0.00008824,0.00004200,-0.00006927,-0.
 00000692,0.00001738,0.00001758,0.00002285,-0.00002457,0.00016901,-0.00
 022098,-0.00003698,-0.00001152,-0.00001443,-0.00008132,-0.00010795,0.0
 0004163,0.00002288,-0.00000528,0.00000361,-0.00406059,0.00016230,-0.00
 138184,-0.01529191,0.00863963,0.01877889,-0.00189287,-0.00853619,0.000
 46119,0.00061373,0.00179810,-0.00163610,0.00542485,0.00386431,0.000003
 93,0.00299514,-0.00083071,-0.00119158,0.00018889,0.00075852,0.00033575
 ,-0.00166015,-0.00087982,-0.00018663,-0.12695120,-0.23589597,0.2233028
 4,-0.01281411,-0.02874184,0.07481444,0.15262170,0.25949274,0.00001224,
 -0.00007549,0.00005064,-0.00004871,0.00007132,-0.00019106,-0.00035978,
 0.00005661,-0.00060463,0.00011553,0.00006197,0.00024332,0.00035592,-0.
 00006121,0.00037294,-0.00006954,0.00014213,-0.00017638,0.00007061,-0.0
 0009054,0.00012491,-0.00001834,-0.00008826,0.00010955,-0.00007492,0.00
 004011,-0.00000058,-0.00000241,-0.00000450,-0.00001911,0.00004532,-0.0
 0016050,0.00023902,0.00004185,0.00000869,0.00000887,0.00008108,0.00010
 777,-0.00007850,-0.00001726,0.00000775,-0.00001400,0.00226989,-0.00065
 110,0.00006053,0.02512404,0.01838823,-0.00205618,0.00171966,0.00469130
 ,-0.00540705,-0.00100806,-0.00080620,0.00437332,-0.00131610,-0.0024398
 6,0.00082883,0.00698484,-0.00613215,-0.00643736,-0.00040474,0.00263556
 ,0.00162948,-0.00431892,-0.00088530,0.00275222,0.18076286,0.22854601,-
 0.38823763,0.01507231,0.07111006,-0.06915699,-0.22389120,-0.31376364,0
 .46101742,0.00000431,0.00004936,-0.00000459,0.00007387,-0.00005232,-0.
 00001912,0.00034243,0.00015261,0.00060623,-0.00004993,-0.00013536,-0.0
 0021358,-0.00056659,-0.00000479,-0.00024733,-0.00000568,-0.00000116,0.
 00003527,-0.00001342,0.00002107,-0.00002399,0.00000541,0.00002288,-0.0
 0001726,-0.00027269,-0.00026246,-0.00011840,0.00013121,0.00002786,0.00
 009250,0.00024882,0.00026010,0.00017769,-0.00000063,-0.00000486,-0.000
 02073,-0.00001161,-0.00000970,0.00000479,-0.00000477,-0.00000131,0.000
 01499,-0.08211032,-0.08114057,-0.04608359,0.00265293,0.01359520,0.0074
 9676,0.00029387,-0.00127827,-0.00109429,0.00017337,0.00023786,0.000120
 71,-0.00042411,0.00022122,0.00056640,-0.00289207,-0.00276528,0.0033263
 7,0.00136460,0.00016476,-0.00144451,0.00044708,0.00124968,0.00002215,0
 .00104458,0.00034607,0.00048747,-0.00065028,0.00009743,-0.00034819,0.0
 0007676,0.00023626,-0.00013904,0.08153931,-0.00000654,-0.00001700,0.00
 000113,-0.00001515,0.00001606,0.00000709,-0.00003413,-0.00000334,-0.00
 002266,0.00000281,-0.00000262,0.00001298,0.00003407,0.00001435,-0.0000
 0028,0.00001097,0.00000339,-0.00001460,0.00000070,-0.00000804,0.000005
 80,-0.00000555,-0.00000528,0.00000775,0.00005677,0.00007048,0.00000152
 ,-0.00003448,-0.00001559,-0.00001075,-0.00008457,-0.00007157,-0.000031
 26,0.00000728,0.00000199,0.00000290,-0.00000674,0.00001237,-0.00000792
 ,-0.00000131,-0.00000009,-0.00000202,-0.08016450,-0.23988683,-0.109636
 09,0.00136421,-0.00030487,-0.00072964,0.00046568,-0.00022047,-0.000578
 49,-0.00015682,-0.00004356,-0.00023511,0.00032645,-0.00162839,0.002634
 01,-0.00047277,0.00026160,0.00159059,0.00023719,0.00041857,-0.00001028
 ,0.00002200,0.00039783,0.00000375,-0.00049932,0.00197894,-0.00155171,0
 .00024952,-0.00012339,0.00091981,0.00001388,-0.00056683,0.00032276,0.0
 8573708,0.25090366,0.00002495,0.00005784,-0.00000934,0.00002296,-0.000
 02936,-0.00003957,-0.00002804,-0.00021145,-0.00024222,0.00000391,0.000
 17517,0.00010563,0.00015066,0.00004864,0.00011160,-0.00008400,0.000009
 29,0.00001875,0.00003134,0.00000235,-0.00000019,0.00003847,0.00000362,
 -0.00001400,-0.00044734,-0.00004003,0.00013149,0.00021182,-0.00006216,
 -0.00011086,0.00032111,0.00009618,0.00001084,-0.00003336,-0.00000163,-
 0.00000194,-0.00001536,-0.00008334,0.00002573,0.00001500,-0.00000202,0
 .00000276,-0.04275550,-0.10483142,-0.10733731,-0.01266424,-0.02680585,
 -0.01685265,-0.00062780,-0.00427842,-0.00142738,0.00059118,0.00097090,
 0.00162126,0.00024749,0.00250346,0.00149256,0.00337915,0.00344446,-0.0
 0427226,-0.00040337,-0.00062512,0.00037253,0.00027752,-0.00234892,-0.0
 0090570,-0.00105103,0.00007456,0.00105350,0.00018674,-0.00030445,0.000
 14866,-0.00001618,0.00018918,-0.00037353,0.04481699,0.11710360,0.11657
 658,0.00010570,-0.00004296,0.00003063,-0.00011618,0.00017730,-0.000366
 29,-0.00142681,-0.00114898,-0.00326630,0.00021547,0.00102182,0.0012073
 6,0.00085378,0.00001764,0.00191805,-0.00040770,0.00013018,-0.00014068,
 0.00023821,-0.00011852,0.00016062,0.00012992,-0.00008134,0.00008108,-0
 .00163640,0.00055660,-0.00045696,-0.00004391,-0.00011736,0.00010282,-0
 .00148022,0.00212424,-0.00029714,-0.00002006,0.00000963,0.00004301,0.0
 0010598,0.00001932,-0.00001686,-0.00001162,-0.00000672,-0.00001536,-0.
 33562022,0.00577143,-0.00831306,-0.01135860,0.00061759,0.00179260,0.00
 107854,0.00076515,0.00095840,-0.00047440,-0.00002843,-0.00023685,-0.00
 027468,-0.00017294,-0.00029757,-0.00145439,-0.00045441,0.00078753,-0.0
 0023850,0.00045623,-0.00153955,0.00034502,-0.00023792,-0.00020548,0.00
 112373,-0.00020256,-0.00002583,0.00010236,-0.00002805,0.00029184,-0.00
 018753,-0.00005891,0.00028192,-0.00458436,0.00180761,0.00058194,0.3585
 2273,-0.00000491,-0.00027557,0.00002913,-0.00006310,0.00023379,0.00027
 232,-0.00123378,-0.00016342,-0.00249649,0.00031223,0.00033239,0.000813
 19,0.00082006,-0.00059860,0.00136939,-0.00000232,0.00006466,-0.0002190
 3,0.00008598,-0.00010691,0.00012498,-0.00000741,-0.00010794,0.00010777
 ,0.00272000,0.00070578,-0.00004707,-0.00101097,0.00018682,0.00024395,0
 .00050905,-0.00401832,-0.00084743,0.00001949,0.00001693,0.00007581,0.0
 0001920,0.00009546,-0.00000979,-0.00000971,0.00001236,-0.00008330,0.00
 537925,-0.04797479,0.00033568,-0.00103721,-0.00301054,0.00108478,-0.00
 031419,0.00116965,0.00067888,-0.00021068,-0.00027445,-0.00027835,0.000
 36547,-0.00062467,-0.00012237,0.00157403,0.00036081,-0.00021534,0.0007
 7896,-0.00431530,-0.00159074,-0.00057077,0.00033167,0.00019665,0.00113
 260,0.00019544,0.00133713,0.00051971,0.00047589,-0.00116906,-0.0001158
 2,0.00019509,-0.00047727,-0.02505528,0.00336125,0.00184037,-0.00940155
 ,0.05151260,0.00002239,0.00012065,0.00006772,-0.00031388,-0.00011372,-
 0.00012081,-0.00015247,-0.00054980,0.00011709,-0.00016563,0.00002082,-
 0.00025875,0.00020203,0.00036468,-0.00023662,-0.00026933,-0.00002918,0
 .00011420,0.00008841,0.00001934,-0.00003521,0.00013445,0.00004162,-0.0
 0007847,-0.00231744,-0.00054262,0.00087706,0.00106540,-0.00015270,-0.0
 0079031,0.00178109,-0.00014183,-0.00015788,0.00001673,0.00001001,-0.00
 002637,-0.00001694,-0.00000958,-0.00023550,0.00000478,-0.00000792,0.00
 002572,-0.01366629,0.00097741,-0.04946624,0.03535898,-0.00108379,0.000
 96463,0.00081741,-0.00039590,0.00203255,-0.00014490,-0.00017953,-0.000
 50203,-0.00003313,0.00040717,-0.00020201,0.00211190,0.00066879,0.00061
 701,-0.00129084,-0.00180103,-0.00097239,-0.00098432,0.00030164,0.00062
 343,-0.00232484,-0.00044483,-0.00782642,0.00019425,-0.00004024,0.00165
 497,0.00291024,0.00101359,-0.00022513,-0.01448455,0.00278412,0.0001656
 5,0.00640809,0.00108660,0.05356389,0.00000516,-0.00008976,0.00000174,-
 0.00000435,0.00010552,0.00012550,-0.00032230,0.00017426,-0.00053477,0.
 00015934,-0.00002524,0.00016778,0.00034875,-0.00020837,0.00035117,-0.0
 0000276,0.00003082,-0.00008659,0.00003238,-0.00003766,0.00004547,-0.00
 000309,-0.00003697,0.00004185,0.00098195,0.00026905,-0.00018145,-0.000
 43340,0.00004127,0.00025288,-0.00102086,0.00011931,-0.00051426,-0.0000
 0621,0.00000140,0.00002117,-0.00002007,0.00001949,0.00001674,-0.000000
 63,0.00000728,-0.00003335,-0.07512252,0.07555269,-0.04464370,0.0025314
 6,-0.01193477,0.00465964,-0.00157238,0.00047866,0.00219464,0.00074694,
 -0.00041037,0.00086207,0.00030554,-0.00022006,0.00050211,0.00221388,-0
 .00026297,-0.00086075,-0.00053009,-0.00035487,0.00031707,-0.00068070,0
 .00022480,0.00010418,0.00130274,-0.00126552,0.00115010,-0.00354890,0.0
 0043638,0.00018271,0.00028843,0.00077743,-0.00126905,0.00318790,-0.008
 85433,0.00722497,-0.00348584,0.02480166,-0.01495159,0.07464961,0.00000
 423,-0.00001498,-0.00000016,0.00001212,0.00001145,-0.00001375,-0.00002
 499,0.00008876,-0.00002916,0.00002081,-0.00004547,0.00000671,0.0000417
 1,-0.00004925,0.00001461,-0.00000092,0.00001569,-0.00001372,0.00000418
 ,-0.00000876,0.00001072,-0.00000386,-0.00001152,0.00000869,0.00003492,
 0.00000715,-0.00000723,-0.00003323,0.00000391,0.00002676,-0.00002829,0
 .00003860,-0.00000049,0.00000140,0.00000002,0.00000255,0.00000963,0.00
 001694,0.00001001,-0.00000486,0.00000199,-0.00000163,0.07235478,-0.240
 20081,0.11354620,-0.00250698,0.00151050,-0.00246682,0.00160842,-0.0015
 2625,-0.00221316,-0.00044272,0.00061736,0.00021851,-0.00029892,0.00086
 627,0.00135613,-0.00093442,0.00107207,-0.00016142,0.00002540,-0.000296
 60,-0.00018680,0.00002328,-0.00002397,0.00015316,0.00140755,-0.0011891
 2,0.00267943,0.00131131,0.00052395,-0.00222768,-0.00015925,0.00054013,
 -0.00055424,0.00829193,-0.01454263,0.01310457,-0.00137411,0.00221992,-
 0.00232379,-0.07933911,0.25037464,0.00001231,-0.00004905,0.00001888,-0
 .00004089,0.00003701,-0.00006466,-0.00018171,0.00003820,-0.00018780,0.
 00005888,0.00001302,0.00005472,0.00019593,-0.00001714,0.00008580,-0.00
 007779,0.00002102,-0.00002054,0.00003991,-0.00001637,0.00002104,0.0000
 2890,-0.00001443,0.00000887,-0.00016630,0.00003524,0.00006427,0.000058
 76,-0.00003252,-0.00005610,0.00012402,-0.00006060,0.00014186,0.0000211
 7,0.00000255,0.00000418,0.00004302,0.00007583,-0.00002638,-0.00002073,
 0.00000290,-0.00000194,-0.04197815,0.10942659,-0.11437293,-0.01039902,
 0.02823371,-0.01841010,0.00442362,-0.00430030,-0.00400799,-0.00156470,
 0.00137009,-0.00136698,-0.00056892,0.00073583,0.00106499,0.00029186,0.
 00107940,0.00137856,-0.00048459,-0.00035624,-0.00011084,0.00021131,-0.
 00008148,-0.00028864,-0.00164905,0.00142230,-0.00172848,-0.00008405,-0
 .00138014,0.00176255,-0.00017039,-0.00064004,0.00116709,0.00649085,-0.
 01256699,0.00974945,0.00053203,-0.00204041,0.00031023,0.04485372,-0.12
 093801,0.12481086\\0.00000161,-0.00000600,-0.00000136,-0.00000104,0.00
 000139,-0.00000379,0.00000173,0.00000136,0.00000587,-0.00000056,-0.000
 00012,0.00000457,-0.00000318,0.00000620,-0.00000072,0.00000185,0.00000
 041,-0.00000502,0.00000111,-0.00000284,-0.00000782,-0.00000116,0.00000
 209,-0.00000201,0.00000011,0.00000182,-0.00000667,-0.00000124,0.000004
 58,-0.00000874,-0.00000016,0.00000090,-0.00000597,0.00000240,-0.000007
 20,-0.00000549,0.00000174,-0.00000546,-0.00000025,0.00000229,-0.000006
 92,0.00000071,-0.00000206,0.00000730,0.00000025,0.00000079,-0.00000124
 ,0.00000331,-0.00000189,-0.00000251,-0.00000668,0.00000428,-0.00000556
 ,0.00000083,0.00000065,0.00000030,-0.00000428,0.00000085,-0.00000146,0
 .00000732,-0.00000083,-0.00000096,0.00000558,0.00000113,-0.00000462,0.
 00000871,-0.00000264,0.00000081,0.00000517,-0.00000031,0.00000220,0.00
 000780,0.00000137,-0.00000233,0.00000194,-0.00000196,0.00000643,-0.000
 00029,-0.00000227,0.00000446,0.00000129,-0.00000260,0.00000698,0.00000
 572\\\@


 THIS CURIOUS WORLD WHICH WE INHABIT IS MORE WONDERFUL THAN IT IS CONVENIENT;
 MORE BEAUTIFUL THAN IT IS USEFUL;
 IT IS MORE TO BE ADMIRED THAN IT IS TO BE USED.

                                                                 -- THOREAU
 File lengths (MBytes):  RWF=    379 Int=      0 D2E=      0 Chk=      8 Scr=      1
 Normal termination of Gaussian 16 at Tue Jun 27 14:22:15 2023.
real 14298.99
user 55946.31
sys 42.95
