 Entering Gaussian System, Link 0=g16
 Input=gaussian_test.inp
 Output=gaussian_test.log
 Initial command:
 /sw/restricted/lms/sw/Gaussian/g16_B01/g16/l1.exe "/scratch/user/peterchao1/peterchao1/8625382_1689034736000000027660026/Gau-12456.inp" -scrdir="/scratch/user/peterchao1/peterchao1/8625382_1689034736000000027660026/"
 Entering Link 1 = /sw/restricted/lms/sw/Gaussian/g16_B01/g16/l1.exe PID=     12464.
  
 Copyright (c) 1988-2017, Gaussian, Inc.  All Rights Reserved.
  
 This is part of the Gaussian(R) 16 program.  It is based on
 the Gaussian(R) 09 system (copyright 2009, Gaussian, Inc.),
 the Gaussian(R) 03 system (copyright 2003, Gaussian, Inc.),
 the Gaussian(R) 98 system (copyright 1998, Gaussian, Inc.),
 the Gaussian(R) 94 system (copyright 1995, Gaussian, Inc.),
 the Gaussian 92(TM) system (copyright 1992, Gaussian, Inc.),
 the Gaussian 90(TM) system (copyright 1990, Gaussian, Inc.),
 the Gaussian 88(TM) system (copyright 1988, Gaussian, Inc.),
 the Gaussian 86(TM) system (copyright 1986, Carnegie Mellon
 University), and the Gaussian 82(TM) system (copyright 1983,
 Carnegie Mellon University). Gaussian is a federally registered
 trademark of Gaussian, Inc.
  
 This software contains proprietary and confidential information,
 including trade secrets, belonging to Gaussian, Inc.
  
 This software is provided under written license and may be
 used, copied, transmitted, or stored only in accord with that
 written license.
  
 The following legend is applicable only to US Government
 contracts under FAR:
  
                    RESTRICTED RIGHTS LEGEND
  
 Use, reproduction and disclosure by the US Government is
 subject to restrictions as set forth in subparagraphs (a)
 and (c) of the Commercial Computer Software - Restricted
 Rights clause in FAR 52.227-19.
  
 Gaussian, Inc.
 340 Quinnipiac St., Bldg. 40, Wallingford CT 06492
  
  
 ---------------------------------------------------------------
 Warning -- This program may not be used in any manner that
 competes with the business of Gaussian, Inc. or will provide
 assistance to any competitor of Gaussian, Inc.  The licensee
 of this program is prohibited from giving any competitor of
 Gaussian, Inc. access to this program.  By using this program,
 the user acknowledges that Gaussian, Inc. is engaged in the
 business of creating and licensing software in the field of
 computational chemistry and represents and warrants to the
 licensee that it is not a competitor of Gaussian, Inc. and that
 it will not use this program in any manner prohibited above.
 ---------------------------------------------------------------
  

 Cite this work as:
 Gaussian 16, Revision B.01,
 M. J. Frisch, G. W. Trucks, H. B. Schlegel, G. E. Scuseria, 
 M. A. Robb, J. R. Cheeseman, G. Scalmani, V. Barone, 
 G. A. Petersson, H. Nakatsuji, X. Li, M. Caricato, A. V. Marenich, 
 J. Bloino, B. G. Janesko, R. Gomperts, B. Mennucci, H. P. Hratchian, 
 J. V. Ortiz, A. F. Izmaylov, J. L. Sonnenberg, D. Williams-Young, 
 F. Ding, F. Lipparini, F. Egidi, J. Goings, B. Peng, A. Petrone, 
 T. Henderson, D. Ranasinghe, V. G. Zakrzewski, J. Gao, N. Rega, 
 G. Zheng, W. Liang, M. Hada, M. Ehara, K. Toyota, R. Fukuda, 
 J. Hasegawa, M. Ishida, T. Nakajima, Y. Honda, O. Kitao, H. Nakai, 
 T. Vreven, K. Throssell, J. A. Montgomery, Jr., J. E. Peralta, 
 F. Ogliaro, M. J. Bearpark, J. J. Heyd, E. N. Brothers, K. N. Kudin, 
 V. N. Staroverov, T. A. Keith, R. Kobayashi, J. Normand, 
 K. Raghavachari, A. P. Rendell, J. C. Burant, S. S. Iyengar, 
 J. Tomasi, M. Cossi, J. M. Millam, M. Klene, C. Adamo, R. Cammi, 
 J. W. Ochterski, R. L. Martin, K. Morokuma, O. Farkas, 
 J. B. Foresman, and D. J. Fox, Gaussian, Inc., Wallingford CT, 2016.
 
 ******************************************
 Gaussian 16:  ES64L-G16RevB.01 20-Dec-2017
                10-Jul-2023 
 ******************************************
 %nprocshared=4
 Will use up to    4 processors via shared memory.
 %mem=8000mb
 %chk=39.chk
 %mem=8000mb
 ----------------------------------------------------------------------
 #T wB97XD/def2svpp opt=tight freq int(grid=ultrafine) scf=(verytight,q
 c)
 ----------------------------------------------------------------------
 -------
 comment
 -------
 Symbolic Z-matrix:
 Charge =  1 Multiplicity = 2
 C                     0.44745   1.48134  -0.38603 
 C                     0.4119    0.00504   0.01288 
 C                     1.63724  -0.72289  -0.5592 
 N                     0.35019  -0.06233   1.47672 
 C                    -0.87621  -0.67193  -0.5185 
 N                    -2.12966  -0.11858  -0.05287 
 H                     0.42645   1.59474  -1.48399 
 H                     1.36788   1.9687   -0.01536 
 H                    -0.41382   2.0194    0.04329 
 H                     1.67235  -0.66228  -1.66194 
 H                     1.62085  -1.79291  -0.28124 
 H                     2.5719   -0.28419  -0.16482 
 H                     0.45166  -1.02859   1.79233 
 H                     1.11199   0.47052   1.89784 
 H                    -0.83628  -1.74009  -0.22512 
 H                    -0.86511  -0.65898  -1.6232 
 H                    -2.31765   0.78148  -0.49228 
 H                    -2.05621   0.0492    0.95256 
 

 GradGradGradGradGradGradGradGradGradGradGradGradGradGradGradGradGradGrad
 Initialization pass.
                           ----------------------------
                           !    Initial Parameters    !
                           ! (Angstroms and Degrees)  !
 --------------------------                            --------------------------
 ! Name  Definition              Value          Derivative Info.                !
 --------------------------------------------------------------------------------
 ! R1    R(1,2)                  1.5297         estimate D2E/DX2                !
 ! R2    R(1,7)                  1.104          estimate D2E/DX2                !
 ! R3    R(1,8)                  1.1055         estimate D2E/DX2                !
 ! R4    R(1,9)                  1.1025         estimate D2E/DX2                !
 ! R5    R(2,3)                  1.5358         estimate D2E/DX2                !
 ! R6    R(2,4)                  1.4667         estimate D2E/DX2                !
 ! R7    R(2,5)                  1.5492         estimate D2E/DX2                !
 ! R8    R(3,10)                 1.105          estimate D2E/DX2                !
 ! R9    R(3,11)                 1.1057         estimate D2E/DX2                !
 ! R10   R(3,12)                 1.1052         estimate D2E/DX2                !
 ! R11   R(4,13)                 1.0215         estimate D2E/DX2                !
 ! R12   R(4,14)                 1.0206         estimate D2E/DX2                !
 ! R13   R(5,6)                  1.4471         estimate D2E/DX2                !
 ! R14   R(5,15)                 1.1084         estimate D2E/DX2                !
 ! R15   R(5,16)                 1.1048         estimate D2E/DX2                !
 ! R16   R(6,17)                 1.0191         estimate D2E/DX2                !
 ! R17   R(6,18)                 1.022          estimate D2E/DX2                !
 ! A1    A(2,1,7)              110.9804         estimate D2E/DX2                !
 ! A2    A(2,1,8)              110.9401         estimate D2E/DX2                !
 ! A3    A(2,1,9)              110.5665         estimate D2E/DX2                !
 ! A4    A(7,1,8)              107.6988         estimate D2E/DX2                !
 ! A5    A(7,1,9)              108.8            estimate D2E/DX2                !
 ! A6    A(8,1,9)              107.7397         estimate D2E/DX2                !
 ! A7    A(1,2,3)              109.9844         estimate D2E/DX2                !
 ! A8    A(1,2,4)              107.793          estimate D2E/DX2                !
 ! A9    A(1,2,5)              110.5866         estimate D2E/DX2                !
 ! A10   A(3,2,4)              112.5554         estimate D2E/DX2                !
 ! A11   A(3,2,5)              109.1795         estimate D2E/DX2                !
 ! A12   A(4,2,5)              106.6953         estimate D2E/DX2                !
 ! A13   A(2,3,10)             111.7834         estimate D2E/DX2                !
 ! A14   A(2,3,11)             110.6849         estimate D2E/DX2                !
 ! A15   A(2,3,12)             110.7123         estimate D2E/DX2                !
 ! A16   A(10,3,11)            107.7246         estimate D2E/DX2                !
 ! A17   A(10,3,12)            107.9066         estimate D2E/DX2                !
 ! A18   A(11,3,12)            107.8763         estimate D2E/DX2                !
 ! A19   A(2,4,13)             110.3416         estimate D2E/DX2                !
 ! A20   A(2,4,14)             110.8808         estimate D2E/DX2                !
 ! A21   A(13,4,14)            106.9911         estimate D2E/DX2                !
 ! A22   A(2,5,6)              116.2795         estimate D2E/DX2                !
 ! A23   A(2,5,15)             107.4797         estimate D2E/DX2                !
 ! A24   A(2,5,16)             109.2379         estimate D2E/DX2                !
 ! A25   A(6,5,15)             108.3327         estimate D2E/DX2                !
 ! A26   A(6,5,16)             109.0227         estimate D2E/DX2                !
 ! A27   A(15,5,16)            105.9967         estimate D2E/DX2                !
 ! A28   A(5,6,17)             111.0248         estimate D2E/DX2                !
 ! A29   A(5,6,18)             108.4864         estimate D2E/DX2                !
 ! A30   A(17,6,18)            107.0057         estimate D2E/DX2                !
 ! D1    D(7,1,2,3)             60.7347         estimate D2E/DX2                !
 ! D2    D(7,1,2,4)           -176.2155         estimate D2E/DX2                !
 ! D3    D(7,1,2,5)            -59.9303         estimate D2E/DX2                !
 ! D4    D(8,1,2,3)            -58.9592         estimate D2E/DX2                !
 ! D5    D(8,1,2,4)             64.0906         estimate D2E/DX2                !
 ! D6    D(8,1,2,5)           -179.6242         estimate D2E/DX2                !
 ! D7    D(9,1,2,3)           -178.4331         estimate D2E/DX2                !
 ! D8    D(9,1,2,4)            -55.3833         estimate D2E/DX2                !
 ! D9    D(9,1,2,5)             60.9019         estimate D2E/DX2                !
 ! D10   D(1,2,3,10)           -59.6644         estimate D2E/DX2                !
 ! D11   D(1,2,3,11)          -179.7526         estimate D2E/DX2                !
 ! D12   D(1,2,3,12)            60.6733         estimate D2E/DX2                !
 ! D13   D(4,2,3,10)          -179.8721         estimate D2E/DX2                !
 ! D14   D(4,2,3,11)            60.0397         estimate D2E/DX2                !
 ! D15   D(4,2,3,12)           -59.5344         estimate D2E/DX2                !
 ! D16   D(5,2,3,10)            61.8446         estimate D2E/DX2                !
 ! D17   D(5,2,3,11)           -58.2435         estimate D2E/DX2                !
 ! D18   D(5,2,3,12)          -177.8176         estimate D2E/DX2                !
 ! D19   D(1,2,4,13)          -172.3879         estimate D2E/DX2                !
 ! D20   D(1,2,4,14)           -54.0288         estimate D2E/DX2                !
 ! D21   D(3,2,4,13)           -50.9241         estimate D2E/DX2                !
 ! D22   D(3,2,4,14)            67.435          estimate D2E/DX2                !
 ! D23   D(5,2,4,13)            68.8095         estimate D2E/DX2                !
 ! D24   D(5,2,4,14)          -172.8314         estimate D2E/DX2                !
 ! D25   D(1,2,5,6)            -59.9214         estimate D2E/DX2                !
 ! D26   D(1,2,5,15)           178.5267         estimate D2E/DX2                !
 ! D27   D(1,2,5,16)            63.9502         estimate D2E/DX2                !
 ! D28   D(3,2,5,6)            178.9352         estimate D2E/DX2                !
 ! D29   D(3,2,5,15)            57.3833         estimate D2E/DX2                !
 ! D30   D(3,2,5,16)           -57.1932         estimate D2E/DX2                !
 ! D31   D(4,2,5,6)             57.0434         estimate D2E/DX2                !
 ! D32   D(4,2,5,15)           -64.5085         estimate D2E/DX2                !
 ! D33   D(4,2,5,16)          -179.085          estimate D2E/DX2                !
 ! D34   D(2,5,6,17)            73.0853         estimate D2E/DX2                !
 ! D35   D(2,5,6,18)           -44.2294         estimate D2E/DX2                !
 ! D36   D(15,5,6,17)         -165.8157         estimate D2E/DX2                !
 ! D37   D(15,5,6,18)           76.8696         estimate D2E/DX2                !
 ! D38   D(16,5,6,17)          -50.8973         estimate D2E/DX2                !
 ! D39   D(16,5,6,18)         -168.212          estimate D2E/DX2                !
 --------------------------------------------------------------------------------
 Number of steps in this run=     96 maximum allowed number of steps=    108.
 GradGradGradGradGradGradGradGradGradGradGradGradGradGradGradGradGradGrad

                    Distance matrix (angstroms):
                    1          2          3          4          5
     1  C    0.000000
     2  C    1.529657   0.000000
     3  C    2.510814   1.535769   0.000000
     4  N    2.421200   1.466697   2.497561   0.000000
     5  C    2.531044   1.549154   2.514298   2.420035   0.000000
     6  N    3.051589   2.545412   3.848515   2.914180   1.447112
     7  H    1.104000   2.183568   2.773564   3.393746   2.786914
     8  H    1.105490   2.184187   2.759157   2.717925   3.501718
     9  H    1.102549   2.177245   3.477062   2.640459   2.787947
    10  H    2.779102   2.199779   1.104966   3.458215   2.793331
    11  H    3.479728   2.186468   1.105655   2.774870   2.747393
    12  H    2.771158   2.186507   1.105246   2.771262   3.487820
    13  H    3.323402   2.058259   2.651179   1.021549   2.688934
    14  H    2.584455   2.063952   2.781571   1.020600   3.331193
    15  H    3.471513   2.158712   2.695289   2.668112   1.108431
    16  H    2.798993   2.179087   2.719919   3.382670   1.104833
    17  H    2.854274   2.882450   4.231876   3.421456   2.047154
    18  H    3.179801   2.641312   4.064859   2.465346   2.019015
                    6          7          8          9         10
     6  N    0.000000
     7  H    3.393702   0.000000
     8  H    4.073193   1.784096   0.000000
     9  H    2.743038   1.794147   1.783390   0.000000
    10  H    4.164125   2.584197   3.118648   3.801486   0.000000
    11  H    4.113611   3.788053   3.779467   4.333457   1.785301
    12  H    4.705803   3.142224   2.558815   3.776821   1.787040
    13  H    3.300919   4.197233   3.618147   3.619173   3.681883
    14  H    3.828917   3.629130   2.443431   2.857702   3.777468
    15  H    2.081296   3.781571   4.319421   3.792652   3.085336
    16  H    2.087350   2.601299   3.804746   3.186619   2.537757
    17  H    1.019081   3.029018   3.901294   2.333204   4.401434
    18  H    1.021972   3.806445   4.042988   2.721373   4.609112
                   11         12         13         14         15
    11  H    0.000000
    12  H    1.787251   0.000000
    13  H    2.500177   2.979933   0.000000
    14  H    3.182836   2.637326   1.641502   0.000000
    15  H    2.458329   3.706603   2.497018   3.631736   0.000000
    16  H    3.044114   3.752383   3.679176   4.193141   1.767554
    17  H    4.709965   5.015037   4.020557   4.191878   2.936689
    18  H    4.293756   4.772742   2.855913   3.332955   2.465096
                   16         17         18
    16  H    0.000000
    17  H    2.337469   0.000000
    18  H    2.924848   1.640775   0.000000
 Framework group  C1[X(C4H12N2)]
 Deg. of freedom    48
                         Standard orientation:                         
 ---------------------------------------------------------------------
 Center     Atomic      Atomic             Coordinates (Angstroms)
 Number     Number       Type             X           Y           Z
 ---------------------------------------------------------------------
      1          6           0        0.447450    1.481337   -0.386026
      2          6           0        0.411903    0.005036    0.012875
      3          6           0        1.637241   -0.722885   -0.559196
      4          7           0        0.350187   -0.062332    1.476724
      5          6           0       -0.876211   -0.671930   -0.518497
      6          7           0       -2.129656   -0.118577   -0.052870
      7          1           0        0.426446    1.594743   -1.483985
      8          1           0        1.367881    1.968701   -0.015362
      9          1           0       -0.413823    2.019396    0.043294
     10          1           0        1.672346   -0.662277   -1.661940
     11          1           0        1.620846   -1.792906   -0.281242
     12          1           0        2.571899   -0.284194   -0.164820
     13          1           0        0.451656   -1.028592    1.792331
     14          1           0        1.111994    0.470524    1.897840
     15          1           0       -0.836275   -1.740085   -0.225121
     16          1           0       -0.865113   -0.658977   -1.623198
     17          1           0       -2.317652    0.781480   -0.492280
     18          1           0       -2.056209    0.049198    0.952557
 ---------------------------------------------------------------------
 Rotational constants (GHZ):           4.4675731           2.6176666           2.5783208
   108 basis functions,   198 primitive gaussians,   114 cartesian basis functions
    25 alpha electrons       24 beta electrons
       nuclear repulsion energy       269.5301672146 Hartrees.
 NAtoms=   18 NActive=   18 NUniq=   18 SFac= 1.00D+00 NAtFMM=   60 NAOKFM=F Big=F
 Nuclear repulsion after empirical dispersion term =      269.5185778007 Hartrees.
   1 Symmetry operations used in ECPInt.
 ECPInt:  NShTT=    1830 NPrTT=    7374 LenC2=    1828 LenP2D=    6149.
 LDataN:  DoStor=T MaxTD1= 4 Len=   56
 ExpMin= 1.22D-01 ExpMax= 1.71D+03 ExpMxC= 2.58D+02 IAcc=3 IRadAn=         5 AccDes= 0.00D+00
 Harris functional with IExCor= 4639 and IRadAn=       5 diagonalized for initial guess.
 HarFok:  IExCor= 4639 AccDes= 0.00D+00 IRadAn=         5 IDoV= 1 UseB2=F ITyADJ=14
 ICtDFT=  3500011 ScaDFX=  1.000000  1.000000  1.000000  1.000000
 FoFCou: FMM=F IPFlag=           0 FMFlag=      100000 FMFlg1=           0
         NFxFlg=           0 DoJE=T BraDBF=F KetDBF=T FulRan=T
         wScrn=  0.000000 ICntrl=       500 IOpCl=  0 I1Cent=   200000004 NGrid=           0
         NMat0=    1 NMatS0=      1 NMatT0=    0 NMatD0=    1 NMtDS0=    0 NMtDT0=    0
 Petite list used in FoFCou.
 Initial guess <Sx>= 0.0000 <Sy>= 0.0000 <Sz>= 0.5000 <S**2>= 0.7500 S= 0.5000
     Accept linear search using points  3 and  4.
     Accept linear search using points  2 and  3.
     Accept linear search using points  2 and  3.
     Accept linear search using points  1 and  2.
     Minimum is close to point  2 DX=  9.15D-04 DF= -6.17D-11 DXR=  9.14D-04 DFR=  8.35D-07 which will be used.
     Accept linear search using points  2 and  3.
     Minimum is close to point  2 DX=  2.91D-04 DF=  0.00D+00 DXR=  2.91D-04 DFR=  0.00D+00 which will be used.
 SCF Done:  E(UwB97XD) =  -268.524024294     a.u. after    8 cycles
            Convg  =    0.8866D-07                    48 Fock formations.
              S**2 =  0.7553                  -V/T =  2.0101
 <Sx>= 0.0000 <Sy>= 0.0000 <Sz>= 0.5000 <S**2>= 0.7553 S= 0.5026
 <L.S>=  0.00000000000    
 Annihilation of the first spin contaminant:
 S**2 before annihilation     0.7553,   after     0.7500

 **********************************************************************

            Population analysis using the SCF Density.

 **********************************************************************

 Orbital symmetries:
 Alpha Orbitals:
       Occupied  (A) (A) (A) (A) (A) (A) (A) (A) (A) (A) (A) (A)
                 (A) (A) (A) (A) (A) (A) (A) (A) (A) (A) (A) (A)
                 (A)
       Virtual   (A) (A) (A) (A) (A) (A) (A) (A) (A) (A) (A) (A)
                 (A) (A) (A) (A) (A) (A) (A) (A) (A) (A) (A) (A)
                 (A) (A) (A) (A) (A) (A) (A) (A) (A) (A) (A) (A)
                 (A) (A) (A) (A) (A) (A) (A) (A) (A) (A) (A) (A)
                 (A) (A) (A) (A) (A) (A) (A) (A) (A) (A) (A) (A)
                 (A) (A) (A) (A) (A) (A) (A) (A) (A) (A) (A) (A)
                 (A) (A) (A) (A) (A) (A) (A) (A) (A) (A) (A)
 Beta  Orbitals:
       Occupied  (A) (A) (A) (A) (A) (A) (A) (A) (A) (A) (A) (A)
                 (A) (A) (A) (A) (A) (A) (A) (A) (A) (A) (A) (A)
       Virtual   (A) (A) (A) (A) (A) (A) (A) (A) (A) (A) (A) (A)
                 (A) (A) (A) (A) (A) (A) (A) (A) (A) (A) (A) (A)
                 (A) (A) (A) (A) (A) (A) (A) (A) (A) (A) (A) (A)
                 (A) (A) (A) (A) (A) (A) (A) (A) (A) (A) (A) (A)
                 (A) (A) (A) (A) (A) (A) (A) (A) (A) (A) (A) (A)
                 (A) (A) (A) (A) (A) (A) (A) (A) (A) (A) (A) (A)
                 (A) (A) (A) (A) (A) (A) (A) (A) (A) (A) (A) (A)
 The electronic state is 2-A.
 Alpha  occ. eigenvalues --  -14.71520 -14.64476 -10.55328 -10.54015 -10.46865
 Alpha  occ. eigenvalues --  -10.45990  -1.25017  -1.19563  -1.05733  -0.97599
 Alpha  occ. eigenvalues --   -0.96034  -0.86167  -0.83475  -0.79409  -0.76416
 Alpha  occ. eigenvalues --   -0.74701  -0.72875  -0.67550  -0.66397  -0.65613
 Alpha  occ. eigenvalues --   -0.64188  -0.63625  -0.61166  -0.59246  -0.55203
 Alpha virt. eigenvalues --   -0.05464  -0.02570  -0.00377   0.00801   0.01524
 Alpha virt. eigenvalues --    0.03228   0.04038   0.05393   0.06842   0.07846
 Alpha virt. eigenvalues --    0.09428   0.09705   0.11165   0.11816   0.12284
 Alpha virt. eigenvalues --    0.13716   0.14462   0.30833   0.32023   0.34387
 Alpha virt. eigenvalues --    0.36916   0.37842   0.40670   0.44450   0.46999
 Alpha virt. eigenvalues --    0.49693   0.52122   0.52647   0.54178   0.56871
 Alpha virt. eigenvalues --    0.57391   0.59420   0.60233   0.60944   0.62957
 Alpha virt. eigenvalues --    0.63630   0.64122   0.65156   0.65249   0.65740
 Alpha virt. eigenvalues --    0.67188   0.69474   0.70558   0.76493   0.79103
 Alpha virt. eigenvalues --    0.83145   0.86341   0.88690   0.96154   1.03764
 Alpha virt. eigenvalues --    1.09864   1.11600   1.23910   1.30714   1.33554
 Alpha virt. eigenvalues --    1.54307   1.60706   1.68644   1.69485   1.73268
 Alpha virt. eigenvalues --    1.76543   1.82305   1.90184   1.94212   1.94836
 Alpha virt. eigenvalues --    1.99913   2.04304   2.05168   2.08906   2.12957
 Alpha virt. eigenvalues --    2.15631   2.19850   2.22962   2.27590   2.30573
 Alpha virt. eigenvalues --    2.36496   2.48360   2.53118   2.57893   2.59899
 Alpha virt. eigenvalues --    2.63696   2.82844   2.87685
  Beta  occ. eigenvalues --  -14.70470 -14.64084 -10.55123 -10.53936 -10.46744
  Beta  occ. eigenvalues --  -10.45997  -1.23123  -1.18297  -1.04737  -0.97002
  Beta  occ. eigenvalues --   -0.95370  -0.85308  -0.82476  -0.78828  -0.75757
  Beta  occ. eigenvalues --   -0.73077  -0.71904  -0.66797  -0.65784  -0.64161
  Beta  occ. eigenvalues --   -0.63551  -0.62411  -0.60581  -0.51330
  Beta virt. eigenvalues --   -0.33483  -0.05230  -0.02267  -0.00186   0.01077
  Beta virt. eigenvalues --    0.01752   0.03429   0.04414   0.05560   0.07059
  Beta virt. eigenvalues --    0.08201   0.09792   0.09877   0.11634   0.12223
  Beta virt. eigenvalues --    0.12878   0.14072   0.14970   0.31052   0.32252
  Beta virt. eigenvalues --    0.34699   0.37330   0.38346   0.41022   0.45093
  Beta virt. eigenvalues --    0.47230   0.50317   0.52482   0.53457   0.55599
  Beta virt. eigenvalues --    0.57632   0.57941   0.59748   0.60625   0.61162
  Beta virt. eigenvalues --    0.63342   0.63926   0.64434   0.65402   0.65604
  Beta virt. eigenvalues --    0.65910   0.67463   0.69940   0.71474   0.77492
  Beta virt. eigenvalues --    0.79735   0.83701   0.86895   0.89073   0.96568
  Beta virt. eigenvalues --    1.04148   1.10472   1.11977   1.24544   1.31550
  Beta virt. eigenvalues --    1.34264   1.55220   1.61368   1.69119   1.70234
  Beta virt. eigenvalues --    1.73853   1.76915   1.83145   1.90791   1.94813
  Beta virt. eigenvalues --    1.95232   2.00639   2.04584   2.05350   2.10916
  Beta virt. eigenvalues --    2.13999   2.17230   2.20753   2.23630   2.29487
  Beta virt. eigenvalues --    2.33250   2.37636   2.50216   2.54354   2.58606
  Beta virt. eigenvalues --    2.60690   2.64909   2.84589   2.88487
          Condensed to atoms (all electrons):
          Atomic-Atomic Spin Densities.
 Mulliken charges and spin densities:
               1          2
     1  C   -0.292227   0.001916
     2  C   -0.261768   0.082744
     3  C   -0.254061   0.070280
     4  N   -0.406446   0.229266
     5  C   -0.084592   0.023500
     6  N   -0.268759   0.576473
     7  H    0.168789   0.001082
     8  H    0.176791   0.003901
     9  H    0.143132   0.002462
    10  H    0.173209  -0.000024
    11  H    0.160331  -0.003030
    12  H    0.181471   0.008790
    13  H    0.271086  -0.006563
    14  H    0.288087   0.002311
    15  H    0.191809   0.024476
    16  H    0.193108   0.002155
    17  H    0.313060  -0.008414
    18  H    0.306981  -0.011325
 Sum of Mulliken charges =   1.00000   1.00000
 Mulliken charges and spin densities with hydrogens summed into heavy atoms:
               1          2
     1  C    0.196485   0.009362
     2  C   -0.261768   0.082744
     3  C    0.260949   0.076016
     4  N    0.152727   0.225014
     5  C    0.300325   0.050130
     6  N    0.351282   0.556734
 Electronic spatial extent (au):  <R**2>=            623.4911
 Charge=              1.0000 electrons
 Dipole moment (field-independent basis, Debye):
    X=             -0.9922    Y=             -0.1275    Z=              0.5855  Tot=              1.1591
                          Isotropic Fermi Contact Couplings
        Atom                 a.u.       MegaHertz       Gauss      10(-4) cm-1
     1  C(13)             -0.00454      -5.09833      -1.81921      -1.70062
     2  C(13)              0.03777      42.45968      15.15067      14.16302
     3  C(13)              0.03784      42.54457      15.18096      14.19134
     4  N(14)              0.14019      45.29638      16.16287      15.10924
     5  C(13)             -0.02942     -33.07186     -11.80086     -11.03159
     6  N(14)              0.40937     132.26927      47.19696      44.12028
     7  H(1)               0.00046       2.07602       0.74077       0.69248
     8  H(1)               0.00173       7.71626       2.75335       2.57387
     9  H(1)              -0.00019      -0.86364      -0.30817      -0.28808
    10  H(1)               0.00018       0.79304       0.28298       0.26453
    11  H(1)              -0.00089      -3.98857      -1.42322      -1.33045
    12  H(1)               0.00288      12.86255       4.58968       4.29049
    13  H(1)              -0.00194      -8.69068      -3.10105      -2.89890
    14  H(1)               0.00277      12.38441       4.41906       4.13099
    15  H(1)               0.01144      51.14582      18.25010      17.06041
    16  H(1)               0.00097       4.34651       1.55094       1.44984
    17  H(1)              -0.00092      -4.09762      -1.46213      -1.36682
    18  H(1)              -0.00306     -13.68601      -4.88351      -4.56516
 --------------------------------------------------------
       Center         ----  Spin Dipole Couplings  ----
                      3XX-RR        3YY-RR        3ZZ-RR
 --------------------------------------------------------
     1   Atom       -0.003069      0.004566     -0.001497
     2   Atom        0.212392     -0.101703     -0.110689
     3   Atom        0.062296     -0.035352     -0.026944
     4   Atom        0.327593     -0.146819     -0.180774
     5   Atom        0.099389     -0.024957     -0.074431
     6   Atom        0.479337      0.077037     -0.556374
     7   Atom       -0.001136      0.001332     -0.000196
     8   Atom        0.000799      0.002638     -0.003437
     9   Atom       -0.001545      0.007174     -0.005628
    10   Atom       -0.000285     -0.007796      0.008081
    11   Atom       -0.000383      0.007589     -0.007206
    12   Atom        0.008038     -0.004752     -0.003286
    13   Atom       -0.008425      0.019836     -0.011410
    14   Atom        0.007961     -0.000663     -0.007298
    15   Atom       -0.003067      0.013527     -0.010460
    16   Atom       -0.002960     -0.011695      0.014655
    17   Atom       -0.020038      0.043278     -0.023240
    18   Atom       -0.022443     -0.039865      0.062308
 --------------------------------------------------------
                        XY            XZ            YZ
 --------------------------------------------------------
     1   Atom        0.004060     -0.002353      0.001144
     2   Atom        0.062104      0.007205     -0.004207
     3   Atom       -0.045453     -0.056856      0.021852
     4   Atom       -0.205705     -0.145642      0.054839
     5   Atom        0.103799      0.037178      0.023980
     6   Atom        0.831391      0.156603      0.118349
     7   Atom        0.002103     -0.001745     -0.005237
     8   Atom        0.004008     -0.000840     -0.001237
     9   Atom        0.003411      0.000573     -0.001972
    10   Atom       -0.002056     -0.002976      0.000909
    11   Atom       -0.006150     -0.001787      0.000079
    12   Atom        0.002821      0.001692      0.004192
    13   Atom       -0.005866      0.000808     -0.015675
    14   Atom        0.015701      0.014623      0.016527
    15   Atom       -0.010204      0.002289     -0.003853
    16   Atom        0.000450     -0.005500      0.002472
    17   Atom       -0.014175      0.021343     -0.045457
    18   Atom        0.017158      0.010803      0.017787
 --------------------------------------------------------


 ---------------------------------------------------------------------------------
              Anisotropic Spin Dipole Couplings in Principal Axis System
 ---------------------------------------------------------------------------------

       Atom             a.u.   MegaHertz   Gauss  10(-4) cm-1        Axes

              Baa    -0.0063    -0.840    -0.300    -0.280  0.8028 -0.3519  0.4812
     1 C(13)  Bbb    -0.0001    -0.009    -0.003    -0.003 -0.4480  0.1764  0.8764
              Bcc     0.0063     0.849     0.303     0.283  0.3933  0.9192  0.0161
 
              Baa    -0.1178   -15.810    -5.641    -5.274 -0.1586  0.7719  0.6157
     2 C(13)  Bbb    -0.1065   -14.294    -5.101    -4.768  0.1005 -0.6077  0.7878
              Bcc     0.2243    30.105    10.742    10.042  0.9822  0.1868  0.0188
 
              Baa    -0.0546    -7.331    -2.616    -2.445  0.4752  0.1350  0.8694
     3 C(13)  Bbb    -0.0531    -7.125    -2.542    -2.377  0.2334  0.9334 -0.2725
              Bcc     0.1077    14.456     5.158     4.822  0.8483 -0.3324 -0.4121
 
              Baa    -0.2236    -8.625    -3.078    -2.877  0.3232  0.9405 -0.1049
     4 N(14)  Bbb    -0.2195    -8.467    -3.021    -2.824  0.2632  0.0172  0.9646
              Bcc     0.4432    17.092     6.099     5.701  0.9090 -0.3394 -0.2420
 
              Baa    -0.0857   -11.504    -4.105    -3.837 -0.2932  0.7398 -0.6056
     5 C(13)  Bbb    -0.0806   -10.814    -3.859    -3.607 -0.4282  0.4648  0.7750
              Bcc     0.1663    22.318     7.964     7.444  0.8548  0.4865  0.1805
 
              Baa    -0.5819   -22.444    -8.009    -7.486 -0.4572  0.4377  0.7742
     6 N(14)  Bbb    -0.5741   -22.143    -7.901    -7.386 -0.4257  0.6566 -0.6226
              Bcc     1.1561    44.587    15.910    14.872  0.7809  0.6142  0.1139
 
              Baa    -0.0047    -2.522    -0.900    -0.841 -0.0191  0.6577  0.7531
     7 H(1)   Bbb    -0.0021    -1.107    -0.395    -0.369  0.9454 -0.2333  0.2277
              Bcc     0.0068     3.629     1.295     1.210  0.3255  0.7163 -0.6173
 
              Baa    -0.0037    -1.964    -0.701    -0.655  0.0282  0.1747  0.9842
     8 H(1)   Bbb    -0.0024    -1.272    -0.454    -0.424  0.7889 -0.6086  0.0854
              Bcc     0.0061     3.236     1.155     1.079  0.6139  0.7740 -0.1550
 
              Baa    -0.0062    -3.320    -1.185    -1.107 -0.2659  0.2063  0.9417
     9 H(1)   Bbb    -0.0023    -1.242    -0.443    -0.414  0.9122 -0.2621  0.3150
              Bcc     0.0085     4.562     1.628     1.522  0.3118  0.9427 -0.1185
 
              Baa    -0.0083    -4.441    -1.585    -1.481  0.2445  0.9696 -0.0094
    10 H(1)   Bbb    -0.0008    -0.449    -0.160    -0.150  0.9165 -0.2279  0.3289
              Bcc     0.0092     4.890     1.745     1.631 -0.3167  0.0890  0.9443
 
              Baa    -0.0078    -4.175    -1.490    -1.393  0.3294  0.1266  0.9357
    11 H(1)   Bbb    -0.0032    -1.683    -0.601    -0.561  0.8121  0.4675 -0.3492
              Bcc     0.0110     5.858     2.090     1.954 -0.4816  0.8749  0.0511
 
              Baa    -0.0083    -4.455    -1.590    -1.486 -0.0700  0.7798 -0.6222
    12 H(1)   Bbb    -0.0008    -0.445    -0.159    -0.149 -0.3254  0.5717  0.7532
              Bcc     0.0092     4.900     1.749     1.635  0.9430  0.2551  0.2137
 
              Baa    -0.0182    -9.694    -3.459    -3.234  0.1645  0.3977  0.9026
    13 H(1)   Bbb    -0.0091    -4.853    -1.732    -1.619  0.9735  0.0817 -0.2135
              Bcc     0.0273    14.547     5.191     4.852 -0.1587  0.9139 -0.3737
 
              Baa    -0.0210   -11.182    -3.990    -3.730 -0.0881 -0.5871  0.8047
    14 H(1)   Bbb    -0.0110    -5.885    -2.100    -1.963  0.7409 -0.5786 -0.3410
              Bcc     0.0320    17.067     6.090     5.693  0.6658  0.5662  0.4860
 
              Baa    -0.0112    -5.968    -2.130    -1.991 -0.1755  0.0805  0.9812
    15 H(1)   Bbb    -0.0079    -4.199    -1.498    -1.401  0.8871  0.4450  0.1222
              Bcc     0.0191    10.167     3.628     3.391 -0.4268  0.8919 -0.1495
 
              Baa    -0.0120    -6.424    -2.292    -2.143 -0.1190  0.9861 -0.1158
    16 H(1)   Bbb    -0.0044    -2.333    -0.832    -0.778  0.9553  0.1455  0.2572
              Bcc     0.0164     8.756     3.125     2.921 -0.2705  0.0801  0.9594
 
              Baa    -0.0520   -27.763    -9.907    -9.261 -0.4121  0.3416  0.8447
    17 H(1)   Bbb    -0.0198   -10.566    -3.770    -3.524  0.8792  0.3924  0.2703
              Bcc     0.0718    38.329    13.677    12.785 -0.2391  0.8540 -0.4620
 
              Baa    -0.0513   -27.349    -9.759    -9.123 -0.4843  0.8702 -0.0902
    18 H(1)   Bbb    -0.0161    -8.610    -3.072    -2.872  0.8615  0.4565 -0.2221
              Bcc     0.0674    35.960    12.831    11.995  0.1521  0.1853  0.9708
 

 ---------------------------------------------------------------------------------

   1 Symmetry operations used in ECPInt.
 ECPInt:  NShTT=    1830 NPrTT=    7374 LenC2=    1828 LenP2D=    6149.
 LDataN:  DoStor=T MaxTD1= 5 Len=  102
 Calling FoFJK, ICntrl=      2127 FMM=F ISym2X=0 I1Cent= 0 IOpClX= 1 NMat=1 NMatS=1 NMatT=0.

 GradGradGradGradGradGradGradGradGradGradGradGradGradGradGradGradGradGrad
 FormGI is forming the generalized inverse of G from B-inverse, IUseBI=4.
 Internal  Forces:  Max     0.024772936 RMS     0.006493498
 Step number   1 out of a maximum of   96
 All quantities printed in internal units (Hartrees-Bohrs-Radians)
 Mixed Optimization -- RFO/linear search
 Second derivative matrix not updated -- first step.
 ITU=  0
     Eigenvalues ---    0.00230   0.00293   0.00374   0.00810   0.01069
     Eigenvalues ---    0.03784   0.04185   0.04572   0.04611   0.05158
     Eigenvalues ---    0.05398   0.05402   0.05523   0.05533   0.05586
     Eigenvalues ---    0.05830   0.10040   0.13268   0.14743   0.15468
     Eigenvalues ---    0.16000   0.16000   0.16000   0.16000   0.16000
     Eigenvalues ---    0.16000   0.16000   0.16000   0.16000   0.16000
     Eigenvalues ---    0.21999   0.27723   0.28897   0.29455   0.32767
     Eigenvalues ---    0.33064   0.33082   0.33109   0.33139   0.33153
     Eigenvalues ---    0.33244   0.33402   0.36138   0.38626   0.44025
     Eigenvalues ---    0.44092   0.44243   0.44485
 Linear search not attempted -- first point.
 Iteration  1 RMS(Cart)=  0.05800962 RMS(Int)=  0.00660290
 Iteration  2 RMS(Cart)=  0.00569924 RMS(Int)=  0.00454199
 Iteration  3 RMS(Cart)=  0.00006411 RMS(Int)=  0.00454175
 Iteration  4 RMS(Cart)=  0.00000149 RMS(Int)=  0.00454175
 Iteration  5 RMS(Cart)=  0.00000004 RMS(Int)=  0.00454175
 Variable       Old X    -DE/DX   Delta X   Delta X   Delta X     New X
                                 (Linear)    (Quad)   (Total)
    R1        2.89063   0.00380   0.00000   0.01189   0.01189   2.90252
    R2        2.08626  -0.00097   0.00000  -0.00271  -0.00271   2.08355
    R3        2.08907  -0.00179   0.00000  -0.00503  -0.00503   2.08405
    R4        2.08352   0.00010   0.00000   0.00027   0.00027   2.08379
    R5        2.90218   0.00323   0.00000   0.01026   0.01026   2.91245
    R6        2.77166  -0.01649   0.00000  -0.04263  -0.04263   2.72903
    R7        2.92748   0.02477   0.00000   0.08187   0.08187   3.00935
    R8        2.08808  -0.00155   0.00000  -0.00436  -0.00436   2.08372
    R9        2.08938  -0.00086   0.00000  -0.00241  -0.00241   2.08697
   R10        2.08861  -0.00231   0.00000  -0.00648  -0.00648   2.08213
   R11        1.93045   0.00336   0.00000   0.00722   0.00722   1.93766
   R12        1.92865   0.00214   0.00000   0.00458   0.00458   1.93323
   R13        2.73464  -0.02084   0.00000  -0.05063  -0.05063   2.68401
   R14        2.09463  -0.00089   0.00000  -0.00253  -0.00253   2.09210
   R15        2.08783  -0.00234   0.00000  -0.00655  -0.00655   2.08128
   R16        1.92578   0.00651   0.00000   0.01384   0.01384   1.93962
   R17        1.93125   0.00529   0.00000   0.01136   0.01136   1.94260
    A1        1.93697  -0.00004   0.00000   0.00031   0.00017   1.93715
    A2        1.93627  -0.00203   0.00000  -0.01434  -0.01431   1.92195
    A3        1.92975   0.00433   0.00000   0.02624   0.02620   1.95595
    A4        1.87970   0.00009   0.00000  -0.00494  -0.00501   1.87469
    A5        1.89892  -0.00112   0.00000   0.00034   0.00017   1.89908
    A6        1.88041  -0.00138   0.00000  -0.00846  -0.00835   1.87206
    A7        1.91959   0.00547   0.00000   0.02871   0.02871   1.94830
    A8        1.88134  -0.00137   0.00000   0.01976   0.01930   1.90065
    A9        1.93010   0.00128   0.00000   0.01206   0.01189   1.94199
   A10        1.96446  -0.00123   0.00000  -0.01368  -0.01393   1.95053
   A11        1.90554  -0.00923   0.00000  -0.07537  -0.07517   1.83037
   A12        1.86218   0.00520   0.00000   0.02999   0.02872   1.89091
   A13        1.95099  -0.00322   0.00000  -0.01788  -0.01820   1.93279
   A14        1.93182   0.00417   0.00000   0.02652   0.02672   1.95853
   A15        1.93229  -0.00721   0.00000  -0.04236  -0.04258   1.88972
   A16        1.88015   0.00061   0.00000   0.00973   0.00981   1.88995
   A17        1.88333   0.00426   0.00000   0.01553   0.01477   1.89809
   A18        1.88280   0.00176   0.00000   0.01049   0.01081   1.89360
   A19        1.92582   0.00587   0.00000   0.05282   0.04925   1.97508
   A20        1.93524   0.00877   0.00000   0.06821   0.06470   1.99994
   A21        1.86735  -0.00082   0.00000   0.03692   0.03120   1.89854
   A22        2.02946  -0.01178   0.00000  -0.05473  -0.05503   1.97443
   A23        1.87587   0.00054   0.00000  -0.00600  -0.00591   1.86996
   A24        1.90656   0.00332   0.00000   0.00924   0.00899   1.91555
   A25        1.89076   0.00530   0.00000   0.02447   0.02389   1.91466
   A26        1.90280   0.00294   0.00000   0.00655   0.00612   1.90892
   A27        1.84999   0.00068   0.00000   0.02791   0.02764   1.87763
   A28        1.93775   0.01922   0.00000   0.14592   0.12657   2.06432
   A29        1.89344   0.01808   0.00000   0.14199   0.12219   2.01564
   A30        1.86760  -0.00295   0.00000   0.07334   0.04612   1.91372
    D1        1.06002  -0.00325   0.00000  -0.02618  -0.02645   1.03357
    D2       -3.07554  -0.00227   0.00000  -0.01253  -0.01224  -3.08778
    D3       -1.04598   0.00386   0.00000   0.04138   0.04128  -1.00470
    D4       -1.02903  -0.00201   0.00000  -0.01071  -0.01100  -1.04004
    D5        1.11859  -0.00102   0.00000   0.00293   0.00321   1.12180
    D6       -3.13503   0.00511   0.00000   0.05685   0.05673  -3.07830
    D7       -3.11425  -0.00178   0.00000  -0.00794  -0.00812  -3.12237
    D8       -0.96662  -0.00080   0.00000   0.00570   0.00609  -0.96053
    D9        1.06294   0.00533   0.00000   0.05961   0.05961   1.12255
   D10       -1.04134   0.00162   0.00000   0.02567   0.02551  -1.01583
   D11       -3.13728   0.00015   0.00000   0.00722   0.00722  -3.13005
   D12        1.05895  -0.00007   0.00000   0.00437   0.00473   1.06368
   D13       -3.13936   0.00039   0.00000  -0.01024  -0.00990   3.13392
   D14        1.04789  -0.00107   0.00000  -0.02868  -0.02819   1.01970
   D15       -1.03907  -0.00130   0.00000  -0.03153  -0.03068  -1.06975
   D16        1.07939   0.00075   0.00000   0.01048   0.00963   1.08902
   D17       -1.01654  -0.00071   0.00000  -0.00797  -0.00866  -1.02520
   D18       -3.10350  -0.00094   0.00000  -0.01082  -0.01115  -3.11466
   D19       -3.00874  -0.00218   0.00000   0.01217   0.01117  -2.99757
   D20       -0.94298   0.00602   0.00000   0.13421   0.13595  -0.80703
   D21       -0.88879   0.00296   0.00000   0.05303   0.05174  -0.83706
   D22        1.17696   0.01116   0.00000   0.17507   0.17652   1.35348
   D23        1.20095  -0.00573   0.00000  -0.02814  -0.02996   1.17100
   D24       -3.01648   0.00247   0.00000   0.09391   0.09483  -2.92165
   D25       -1.04583   0.00154   0.00000   0.02953   0.02964  -1.01618
   D26        3.11588   0.00215   0.00000   0.03911   0.03892  -3.12839
   D27        1.11614  -0.00061   0.00000   0.00485   0.00490   1.12104
   D28        3.12301  -0.00008   0.00000   0.03515   0.03497  -3.12521
   D29        1.00153   0.00053   0.00000   0.04474   0.04424   1.04577
   D30       -0.99821  -0.00223   0.00000   0.01047   0.01023  -0.98798
   D31        0.99560   0.00356   0.00000   0.07665   0.07710   1.07269
   D32       -1.12589   0.00417   0.00000   0.08624   0.08637  -1.03952
   D33       -3.12562   0.00142   0.00000   0.05198   0.05236  -3.07327
   D34        1.27558   0.01028   0.00000   0.14824   0.15408   1.42966
   D35       -0.77195  -0.00812   0.00000  -0.11074  -0.11614  -0.88809
   D36       -2.89403   0.00703   0.00000   0.12191   0.12723  -2.76680
   D37        1.34163  -0.01137   0.00000  -0.13707  -0.14299   1.19864
   D38       -0.88833   0.01220   0.00000   0.17138   0.17707  -0.71125
   D39       -2.93585  -0.00620   0.00000  -0.08760  -0.09315  -3.02900
         Item               Value     Threshold  Converged?
 Maximum Force            0.024773     0.000015     NO 
 RMS     Force            0.006493     0.000010     NO 
 Maximum Displacement     0.187218     0.000060     NO 
 RMS     Displacement     0.057182     0.000040     NO 
 GradGradGradGradGradGradGradGradGradGradGradGradGradGradGradGradGradGrad

                    Distance matrix (angstroms):
                    1          2          3          4          5
     1  C    0.000000
     2  C    1.535947   0.000000
     3  C    2.545495   1.541201   0.000000
     4  N    2.425196   1.444139   2.472015   0.000000
     5  C    2.582549   1.592479   2.484190   2.463509   0.000000
     6  N    3.019286   2.515956   3.781185   2.942635   1.420318
     7  H    1.102568   2.188158   2.801375   3.389514   2.813546
     8  H    1.102830   2.177318   2.791092   2.718420   3.543551
     9  H    1.102693   2.201751   3.516592   2.675334   2.884833
    10  H    2.790988   2.189705   1.102660   3.422656   2.727472
    11  H    3.518301   2.209533   1.104378   2.761984   2.717738
    12  H    2.774630   2.157351   1.101818   2.722398   3.457161
    13  H    3.348228   2.074092   2.642112   1.025368   2.753203
    14  H    2.590599   2.088436   2.880806   1.023023   3.393537
    15  H    3.510871   2.191085   2.667295   2.675980   1.107092
    16  H    2.862309   2.221377   2.676683   3.411869   1.101364
    17  H    2.990297   3.000102   4.296928   3.591830   2.109986
    18  H    3.264025   2.735319   4.134324   2.629001   2.081014
                    6          7          8          9         10
     6  N    0.000000
     7  H    3.331061   0.000000
     8  H    4.050446   1.777526   0.000000
     9  H    2.771033   1.793205   1.775913   0.000000
    10  H    4.053255   2.593992   3.130683   3.816112   0.000000
    11  H    4.062875   3.819169   3.812625   4.382223   1.788768
    12  H    4.634329   3.142644   2.565321   3.781878   1.791934
    13  H    3.360695   4.218589   3.628200   3.668742   3.672519
    14  H    3.821477   3.643799   2.461555   2.829561   3.855326
    15  H    2.074406   3.815371   4.346074   3.865046   3.047813
    16  H    2.065941   2.651164   3.846604   3.297996   2.451752
    17  H    1.026403   3.101593   4.053662   2.537149   4.401556
    18  H    1.027981   3.849467   4.153303   2.831077   4.629572
                   11         12         13         14         15
    11  H    0.000000
    12  H    1.790442   0.000000
    13  H    2.502472   2.941559   0.000000
    14  H    3.297348   2.727762   1.665325   0.000000
    15  H    2.427377   3.673110   2.531684   3.674396   0.000000
    16  H    2.995741   3.706484   3.727604   4.254744   1.781913
    17  H    4.765726   5.091178   4.189447   4.332709   2.975624
    18  H    4.365548   4.849258   3.024708   3.438156   2.498658
                   16         17         18
    16  H    0.000000
    17  H    2.373859   0.000000
    18  H    2.969966   1.679229   0.000000
 Framework group  C1[X(C4H12N2)]
 Deg. of freedom    48
                         Standard orientation:                         
 ---------------------------------------------------------------------
 Center     Atomic      Atomic             Coordinates (Angstroms)
 Number     Number       Type             X           Y           Z
 ---------------------------------------------------------------------
      1          6           0        0.433752    1.441642   -0.581569
      2          6           0        0.417326    0.028817    0.020750
      3          6           0        1.579137   -0.830622   -0.514841
      4          7           0        0.448719    0.133824    1.460724
      5          6           0       -0.901212   -0.761262   -0.395450
      6          7           0       -2.095161   -0.101697    0.000484
      7          1           0        0.355249    1.403351   -1.680672
      8          1           0        1.382290    1.947764   -0.335904
      9          1           0       -0.383321    2.069141   -0.188418
     10          1           0        1.534610   -0.906077   -1.614014
     11          1           0        1.569726   -1.852729   -0.096678
     12          1           0        2.526941   -0.345636   -0.231186
     13          1           0        0.575245   -0.769880    1.928367
     14          1           0        1.141624    0.792723    1.824470
     15          1           0       -0.849114   -1.758098    0.083360
     16          1           0       -0.913766   -0.916194   -1.485790
     17          1           0       -2.451560    0.656324   -0.592716
     18          1           0       -2.136852    0.182976    0.987382
 ---------------------------------------------------------------------
 Rotational constants (GHZ):           4.3549761           2.6472705           2.5722788
   108 basis functions,   198 primitive gaussians,   114 cartesian basis functions
    25 alpha electrons       24 beta electrons
       nuclear repulsion energy       268.8372110368 Hartrees.
 NAtoms=   18 NActive=   18 NUniq=   18 SFac= 1.00D+00 NAtFMM=   60 NAOKFM=F Big=F
 Nuclear repulsion after empirical dispersion term =      268.8257342860 Hartrees.
   1 Symmetry operations used in ECPInt.
 ECPInt:  NShTT=    1830 NPrTT=    7374 LenC2=    1828 LenP2D=    6135.
 LDataN:  DoStor=T MaxTD1= 4 Len=   56
 Initial guess from the checkpoint file:  "39.chk"
 B after Tr=     0.000000   -0.000000    0.000000
         Rot=    0.997499    0.068514   -0.017194    0.002622 Ang=   8.11 deg.
 Initial guess <Sx>= 0.0000 <Sy>= 0.0000 <Sz>= 0.5000 <S**2>= 0.7554 S= 0.5027
 ExpMin= 1.22D-01 ExpMax= 1.71D+03 ExpMxC= 2.58D+02 IAcc=3 IRadAn=         5 AccDes= 0.00D+00
 Harris functional with IExCor= 4639 and IRadAn=       5 diagonalized for initial guess.
 HarFok:  IExCor= 4639 AccDes= 0.00D+00 IRadAn=         5 IDoV= 1 UseB2=F ITyADJ=14
 ICtDFT=  3500011 ScaDFX=  1.000000  1.000000  1.000000  1.000000
 FoFCou: FMM=F IPFlag=           0 FMFlag=      100000 FMFlg1=           0
         NFxFlg=           0 DoJE=T BraDBF=F KetDBF=T FulRan=T
         wScrn=  0.000000 ICntrl=       500 IOpCl=  0 I1Cent=   200000004 NGrid=           0
         NMat0=    1 NMatS0=      1 NMatT0=    0 NMatD0=    1 NMtDS0=    0 NMtDT0=    0
 Petite list used in FoFCou.
     Accept linear search using points  3 and  4.
     Accept linear search using points  2 and  3.
     Minimum is close to point  2 DX=  5.10D-02 DF= -1.42D-06 DXR=  4.85D-02 DFR=  2.36D-03 which will be used.
     Accept linear search using points  1 and  2.
     Minimum is close to point  2 DX= -7.20D-02 DF= -1.62D-06 DXR=  7.76D-02 DFR=  6.05D-03 which will be used.
     Accept linear search using points  1 and  2.
     Accept linear search using points  1 and  2.
     Minimum is close to point  2 DX= -6.07D-04 DF= -4.98D-11 DXR=  6.08D-04 DFR=  3.70D-07 which will be used.
 SCF Done:  E(UwB97XD) =  -268.541142447     a.u. after    9 cycles
            Convg  =    0.1841D-07                    44 Fock formations.
              S**2 =  0.7555                  -V/T =  2.0104
 <Sx>= 0.0000 <Sy>= 0.0000 <Sz>= 0.5000 <S**2>= 0.7555 S= 0.5028
 <L.S>=  0.00000000000    
 Annihilation of the first spin contaminant:
 S**2 before annihilation     0.7555,   after     0.7500
   1 Symmetry operations used in ECPInt.
 ECPInt:  NShTT=    1830 NPrTT=    7374 LenC2=    1828 LenP2D=    6135.
 LDataN:  DoStor=T MaxTD1= 5 Len=  102
 Calling FoFJK, ICntrl=      2127 FMM=F ISym2X=0 I1Cent= 0 IOpClX= 1 NMat=1 NMatS=1 NMatT=0.

 GradGradGradGradGradGradGradGradGradGradGradGradGradGradGradGradGradGrad
 Using GEDIIS/GDIIS optimizer.
 FormGI is forming the generalized inverse of G from B-inverse, IUseBI=4.
 Internal  Forces:  Max     0.015394326 RMS     0.003313791
 Step number   2 out of a maximum of   96
 All quantities printed in internal units (Hartrees-Bohrs-Radians)
 Mixed Optimization -- RFO/linear search
 Trust test= 1.00D+00 RLast= 5.29D-01 DXMaxT set to 5.05D-01
 ITU=  1  0
 Use linear search instead of GDIIS.
     Eigenvalues ---    0.00231   0.00293   0.00374   0.00778   0.01071
     Eigenvalues ---    0.03177   0.03266   0.04140   0.04553   0.05184
     Eigenvalues ---    0.05382   0.05391   0.05440   0.05644   0.05767
     Eigenvalues ---    0.05962   0.09386   0.12914   0.14556   0.15438
     Eigenvalues ---    0.15869   0.16000   0.16000   0.16000   0.16000
     Eigenvalues ---    0.16000   0.16000   0.16000   0.16000   0.17956
     Eigenvalues ---    0.21510   0.25222   0.28904   0.29907   0.32769
     Eigenvalues ---    0.33037   0.33089   0.33100   0.33131   0.33152
     Eigenvalues ---    0.33242   0.33404   0.34900   0.37679   0.44065
     Eigenvalues ---    0.44181   0.44313   0.45334
 Quartic linear search produced a step of  0.96694.
 Iteration  1 RMS(Cart)=  0.09454480 RMS(Int)=  0.03035695
 Iteration  2 RMS(Cart)=  0.02869332 RMS(Int)=  0.00847787
 Iteration  3 RMS(Cart)=  0.00185371 RMS(Int)=  0.00825764
 Iteration  4 RMS(Cart)=  0.00000440 RMS(Int)=  0.00825764
 Iteration  5 RMS(Cart)=  0.00000006 RMS(Int)=  0.00825764
 Variable       Old X    -DE/DX   Delta X   Delta X   Delta X     New X
                                 (Linear)    (Quad)   (Total)
    R1        2.90252  -0.00430   0.01149  -0.03468  -0.02318   2.87934
    R2        2.08355  -0.00011  -0.00262   0.00143  -0.00119   2.08236
    R3        2.08405   0.00028  -0.00486   0.00524   0.00038   2.08442
    R4        2.08379  -0.00034   0.00026  -0.00201  -0.00174   2.08204
    R5        2.91245   0.00396   0.00992   0.01676   0.02668   2.93913
    R6        2.72903  -0.01418  -0.04122  -0.03871  -0.07993   2.64910
    R7        3.00935   0.01282   0.07917   0.02159   0.10076   3.11011
    R8        2.08372  -0.00015  -0.00421   0.00240  -0.00181   2.08191
    R9        2.08697  -0.00103  -0.00233  -0.00376  -0.00609   2.08089
   R10        2.08213   0.00021  -0.00626   0.00591  -0.00035   2.08178
   R11        1.93766  -0.00201   0.00698  -0.01357  -0.00659   1.93107
   R12        1.93323  -0.00191   0.00443  -0.01118  -0.00676   1.92648
   R13        2.68401  -0.01539  -0.04896  -0.03400  -0.08295   2.60106
   R14        2.09210  -0.00156  -0.00245  -0.00660  -0.00905   2.08305
   R15        2.08128  -0.00111  -0.00634  -0.00111  -0.00745   2.07383
   R16        1.93962  -0.00253   0.01338  -0.02049  -0.00711   1.93251
   R17        1.94260  -0.00268   0.01098  -0.01937  -0.00839   1.93421
    A1        1.93715   0.00022   0.00017   0.00230   0.00231   1.93945
    A2        1.92195  -0.00107  -0.01384  -0.00292  -0.01678   1.90517
    A3        1.95595  -0.00080   0.02534  -0.02592  -0.00064   1.95531
    A4        1.87469   0.00019  -0.00484   0.00230  -0.00266   1.87203
    A5        1.89908   0.00057   0.00016   0.00961   0.00959   1.90867
    A6        1.87206   0.00097  -0.00807   0.01631   0.00833   1.88039
    A7        1.94830   0.00021   0.02776  -0.01391   0.01200   1.96030
    A8        1.90065   0.00095   0.01867   0.02421   0.04185   1.94249
    A9        1.94199  -0.00005   0.01150  -0.02235  -0.01108   1.93091
   A10        1.95053   0.00109  -0.01347   0.03630   0.02118   1.97171
   A11        1.83037  -0.00183  -0.07268   0.00847  -0.06391   1.76646
   A12        1.89091  -0.00048   0.02778  -0.03488  -0.00800   1.88291
   A13        1.93279   0.00039  -0.01760   0.01914   0.00119   1.93397
   A14        1.95853  -0.00098   0.02583  -0.02837  -0.00242   1.95612
   A15        1.88972  -0.00095  -0.04117   0.01762  -0.02386   1.86586
   A16        1.88995   0.00071   0.00948   0.00646   0.01600   1.90595
   A17        1.89809   0.00016   0.01428  -0.01157   0.00189   1.89998
   A18        1.89360   0.00070   0.01045  -0.00361   0.00704   1.90064
   A19        1.97508   0.00190   0.04762   0.01717   0.05307   2.02814
   A20        1.99994   0.00194   0.06256   0.00583   0.05679   2.05673
   A21        1.89854   0.00109   0.03016   0.04824   0.06309   1.96164
   A22        1.97443  -0.00189  -0.05321   0.01422  -0.03977   1.93466
   A23        1.86996  -0.00165  -0.00572  -0.02445  -0.02975   1.84022
   A24        1.91555  -0.00129   0.00869  -0.03621  -0.02801   1.88754
   A25        1.91466   0.00183   0.02310   0.00695   0.02828   1.94294
   A26        1.90892   0.00116   0.00591   0.00451   0.00839   1.91731
   A27        1.87763   0.00199   0.02672   0.03601   0.06170   1.93932
   A28        2.06432   0.00085   0.12239  -0.03714   0.04557   2.10989
   A29        2.01564   0.00239   0.11815  -0.01518   0.06314   2.07877
   A30        1.91372   0.00289   0.04460   0.08956   0.09013   2.00386
    D1        1.03357  -0.00142  -0.02558   0.00230  -0.02379   1.00978
    D2       -3.08778   0.00078  -0.01184   0.05615   0.04474  -3.04304
    D3       -1.00470   0.00076   0.03992   0.01488   0.05483  -0.94986
    D4       -1.04004  -0.00111  -0.01064  -0.00013  -0.01133  -1.05136
    D5        1.12180   0.00109   0.00310   0.05372   0.05721   1.17901
    D6       -3.07830   0.00107   0.05485   0.01244   0.06730  -3.01100
    D7       -3.12237  -0.00109  -0.00785  -0.00192  -0.01019  -3.13256
    D8       -0.96053   0.00111   0.00589   0.05194   0.05834  -0.90219
    D9        1.12255   0.00109   0.05764   0.01066   0.06843   1.19098
   D10       -1.01583   0.00120   0.02466   0.01322   0.03770  -0.97813
   D11       -3.13005   0.00068   0.00698   0.01098   0.01798  -3.11207
   D12        1.06368   0.00104   0.00457   0.02126   0.02617   1.08985
   D13        3.13392  -0.00097  -0.00957  -0.03426  -0.04367   3.09026
   D14        1.01970  -0.00149  -0.02725  -0.03650  -0.06339   0.95632
   D15       -1.06975  -0.00113  -0.02967  -0.02622  -0.05519  -1.12494
   D16        1.08902   0.00013   0.00931  -0.01603  -0.00743   1.08159
   D17       -1.02520  -0.00039  -0.00837  -0.01827  -0.02715  -1.05235
   D18       -3.11466  -0.00004  -0.01078  -0.00799  -0.01896  -3.13361
   D19       -2.99757  -0.00041   0.01080   0.11828   0.12624  -2.87133
   D20       -0.80703   0.00441   0.13146   0.20525   0.33976  -0.46727
   D21       -0.83706   0.00127   0.05002   0.14240   0.18992  -0.64714
   D22        1.35348   0.00609   0.17068   0.22937   0.40344   1.75692
   D23        1.17100  -0.00063  -0.02897   0.15193   0.11948   1.29047
   D24       -2.92165   0.00420   0.09169   0.23890   0.33300  -2.58865
   D25       -1.01618   0.00060   0.02866   0.09182   0.12089  -0.89529
   D26       -3.12839   0.00061   0.03763   0.09108   0.12851  -2.99988
   D27        1.12104  -0.00017   0.00474   0.08096   0.08647   1.20751
   D28       -3.12521   0.00150   0.03381   0.11545   0.14901  -2.97620
   D29        1.04577   0.00150   0.04278   0.11472   0.15663   1.20239
   D30       -0.98798   0.00073   0.00989   0.10460   0.11459  -0.87339
   D31        1.07269   0.00144   0.07455   0.08592   0.16057   1.23326
   D32       -1.03952   0.00144   0.08351   0.08518   0.16818  -0.87133
   D33       -3.07327   0.00067   0.05063   0.07506   0.12614  -2.94712
   D34        1.42966   0.00444   0.14899   0.04440   0.19926   1.62892
   D35       -0.88809  -0.00401  -0.11230  -0.03974  -0.15709  -1.04518
   D36       -2.76680   0.00238   0.12302   0.02750   0.15503  -2.61177
   D37        1.19864  -0.00607  -0.13826  -0.05664  -0.20133   0.99731
   D38       -0.71125   0.00655   0.17122   0.07792   0.25515  -0.45611
   D39       -3.02900  -0.00190  -0.09007  -0.00622  -0.10121  -3.13021
         Item               Value     Threshold  Converged?
 Maximum Force            0.015394     0.000015     NO 
 RMS     Force            0.003314     0.000010     NO 
 Maximum Displacement     0.376912     0.000060     NO 
 RMS     Displacement     0.107003     0.000040     NO 
 GradGradGradGradGradGradGradGradGradGradGradGradGradGradGradGradGradGrad

                    Distance matrix (angstroms):
                    1          2          3          4          5
     1  C    0.000000
     2  C    1.523679   0.000000
     3  C    2.557415   1.555320   0.000000
     4  N    2.416259   1.401844   2.466972   0.000000
     5  C    2.607215   1.645799   2.474471   2.467941   0.000000
     6  N    2.921762   2.493107   3.714499   2.980398   1.376421
     7  H    1.101938   2.178523   2.803571   3.367361   2.800058
     8  H    1.103030   2.154391   2.792744   2.736316   3.566450
     9  H    1.101770   2.189729   3.527143   2.660570   2.929816
    10  H    2.793342   2.202315   1.101702   3.405914   2.691108
    11  H    3.520608   2.217879   1.101157   2.742286   2.693548
    12  H    2.783261   2.151537   1.101630   2.733728   3.455607
    13  H    3.340027   2.067490   2.616892   1.021879   2.839285
    14  H    2.540545   2.083102   3.084773   1.019447   3.368848
    15  H    3.506187   2.211221   2.704390   2.588226   1.102304
    16  H    2.904704   2.244579   2.572092   3.382981   1.097423
    17  H    3.042840   3.078699   4.264263   3.759752   2.094163
    18  H    3.241138   2.799408   4.188278   2.792052   2.076704
                    6          7          8          9         10
     6  N    0.000000
     7  H    3.147997   0.000000
     8  H    3.980435   1.775441   0.000000
     9  H    2.716123   1.798072   1.780757   0.000000
    10  H    3.918407   2.587655   3.119123   3.819366   0.000000
    11  H    4.022143   3.813258   3.809162   4.381366   1.795644
    12  H    4.579366   3.147132   2.564868   3.786936   1.792213
    13  H    3.529780   4.206381   3.601241   3.671291   3.654646
    14  H    3.696629   3.617272   2.513600   2.633791   4.019601
    15  H    2.052554   3.816526   4.341095   3.842762   3.104068
    16  H    2.030980   2.670511   3.855084   3.397725   2.317036
    17  H    1.022638   2.999217   4.132811   2.706052   4.260103
    18  H    1.023539   3.735466   4.187481   2.797384   4.604603
                   11         12         13         14         15
    11  H    0.000000
    12  H    1.792192   0.000000
    13  H    2.474696   2.886342   0.000000
    14  H    3.502706   3.016021   1.696246   0.000000
    15  H    2.461507   3.697950   2.546093   3.597734   0.000000
    16  H    2.864481   3.612515   3.745410   4.235330   1.814104
    17  H    4.729005   5.094830   4.431811   4.350143   2.946189
    18  H    4.438811   4.933095   3.325510   3.380835   2.456370
                   16         17         18
    16  H    0.000000
    17  H    2.319632   0.000000
    18  H    2.959766   1.723928   0.000000
 Framework group  C1[X(C4H12N2)]
 Deg. of freedom    48
                         Standard orientation:                         
 ---------------------------------------------------------------------
 Center     Atomic      Atomic             Coordinates (Angstroms)
 Number     Number       Type             X           Y           Z
 ---------------------------------------------------------------------
      1          6           0        0.367966    1.369283   -0.738240
      2          6           0        0.438475    0.061896    0.041096
      3          6           0        1.538621   -0.892445   -0.504736
      4          7           0        0.551416    0.295785    1.418669
      5          6           0       -0.917534   -0.836496   -0.209476
      6          7           0       -2.050034   -0.087297    0.015645
      7          1           0        0.178796    1.184228   -1.807931
      8          1           0        1.338137    1.888620   -0.662527
      9          1           0       -0.406511    2.045363   -0.342009
     10          1           0        1.385853   -1.092993   -1.577205
     11          1           0        1.566230   -1.847857    0.042048
     12          1           0        2.503593   -0.377701   -0.372613
     13          1           0        0.847854   -0.498991    1.988486
     14          1           0        0.979745    1.170595    1.719526
     15          1           0       -0.846651   -1.678438    0.498468
     16          1           0       -0.905572   -1.191105   -1.247959
     17          1           0       -2.516966    0.401881   -0.751472
     18          1           0       -2.199355    0.323560    0.941134
 ---------------------------------------------------------------------
 Rotational constants (GHZ):           4.3190421           2.6912533           2.5942471
   108 basis functions,   198 primitive gaussians,   114 cartesian basis functions
    25 alpha electrons       24 beta electrons
       nuclear repulsion energy       269.7708937997 Hartrees.
 NAtoms=   18 NActive=   18 NUniq=   18 SFac= 1.00D+00 NAtFMM=   60 NAOKFM=F Big=F
 Nuclear repulsion after empirical dispersion term =      269.7594738375 Hartrees.
   1 Symmetry operations used in ECPInt.
 ECPInt:  NShTT=    1830 NPrTT=    7374 LenC2=    1828 LenP2D=    6132.
 LDataN:  DoStor=T MaxTD1= 4 Len=   56
 Initial guess from the checkpoint file:  "39.chk"
 B after Tr=    -0.000000    0.000000    0.000000
         Rot=    0.997731    0.064175   -0.019464   -0.006041 Ang=   7.72 deg.
 Initial guess <Sx>= 0.0000 <Sy>= 0.0000 <Sz>= 0.5000 <S**2>= 0.7557 S= 0.5029
 ExpMin= 1.22D-01 ExpMax= 1.71D+03 ExpMxC= 2.58D+02 IAcc=3 IRadAn=         5 AccDes= 0.00D+00
 Harris functional with IExCor= 4639 and IRadAn=       5 diagonalized for initial guess.
 HarFok:  IExCor= 4639 AccDes= 0.00D+00 IRadAn=         5 IDoV= 1 UseB2=F ITyADJ=14
 ICtDFT=  3500011 ScaDFX=  1.000000  1.000000  1.000000  1.000000
 FoFCou: FMM=F IPFlag=           0 FMFlag=      100000 FMFlg1=           0
         NFxFlg=           0 DoJE=T BraDBF=F KetDBF=T FulRan=T
         wScrn=  0.000000 ICntrl=       500 IOpCl=  0 I1Cent=   200000004 NGrid=           0
         NMat0=    1 NMatS0=      1 NMatT0=    0 NMatD0=    1 NMtDS0=    0 NMtDT0=    0
 Petite list used in FoFCou.
     Minimum is close to point  4 DX=  6.93D-02 DF= -6.00D-05 DXR=  5.46D-02 DFR=  2.99D-03 which will be used.
     Accept linear search using points  2 and  3.
     Accept linear search using points  1 and  2.
     Minimum is close to point  2 DX= -1.48D-02 DF= -4.29D-07 DXR=  1.37D-02 DFR=  2.23D-04 which will be used.
     Accept linear search using points  1 and  2.
     Minimum is close to point  2 DX=  9.66D-02 DF= -3.90D-06 DXR=  8.81D-02 DFR=  7.83D-03 which will be used.
     Accept linear search using points  1 and  2.
     Minimum is close to point  2 DX= -1.75D-02 DF= -9.26D-08 DXR=  1.78D-02 DFR=  3.17D-04 which will be used.
     Accept linear search using points  1 and  2.
     Accept linear search using points  1 and  2.
     Minimum is close to point  2 DX= -1.65D-02 DF= -2.40D-08 DXR=  1.87D-02 DFR=  2.80D-04 which will be used.
     Minimum is close to point  2 DX=  9.03D-02 DF= -5.08D-07 DXR=  9.12D-02 DFR=  8.39D-03 which will be used.
     Accept linear search using points  1 and  2.
     Minimum is close to point  2 DX= -2.58D-03 DF= -1.47D-09 DXR=  2.59D-03 DFR=  6.71D-06 which will be used.
     Minimum is close to point  2 DX=  8.47D-05 DF=  0.00D+00 DXR=  8.47D-05 DFR=  0.00D+00 which will be used.
 SCF Done:  E(UwB97XD) =  -268.552656907     a.u. after   13 cycles
            Convg  =    0.2314D-07                    51 Fock formations.
              S**2 =  0.7556                  -V/T =  2.0101
 <Sx>= 0.0000 <Sy>= 0.0000 <Sz>= 0.5000 <S**2>= 0.7556 S= 0.5028
 <L.S>=  0.00000000000    
 Annihilation of the first spin contaminant:
 S**2 before annihilation     0.7556,   after     0.7500
   1 Symmetry operations used in ECPInt.
 ECPInt:  NShTT=    1830 NPrTT=    7374 LenC2=    1828 LenP2D=    6132.
 LDataN:  DoStor=T MaxTD1= 5 Len=  102
 Calling FoFJK, ICntrl=      2127 FMM=F ISym2X=0 I1Cent= 0 IOpClX= 1 NMat=1 NMatS=1 NMatT=0.

 GradGradGradGradGradGradGradGradGradGradGradGradGradGradGradGradGradGrad
 Using GEDIIS/GDIIS optimizer.
 FormGI is forming the generalized inverse of G from B-inverse, IUseBI=4.
 Internal  Forces:  Max     0.015526879 RMS     0.002346233
 Step number   3 out of a maximum of   96
 All quantities printed in internal units (Hartrees-Bohrs-Radians)
 Mixed Optimization -- RFO/linear search
 Trust test= 1.27D+00 RLast= 9.63D-01 DXMaxT set to 8.49D-01
 ITU=  1  1  0
 Use linear search instead of GDIIS.
     Eigenvalues ---    0.00257   0.00294   0.00372   0.00625   0.01087
     Eigenvalues ---    0.01836   0.02108   0.04264   0.04551   0.05171
     Eigenvalues ---    0.05381   0.05386   0.05725   0.05768   0.05938
     Eigenvalues ---    0.06366   0.08719   0.12564   0.14214   0.15486
     Eigenvalues ---    0.15852   0.15992   0.16000   0.16000   0.16000
     Eigenvalues ---    0.16000   0.16000   0.16000   0.16043   0.17971
     Eigenvalues ---    0.21213   0.24089   0.29031   0.29926   0.32780
     Eigenvalues ---    0.33076   0.33089   0.33128   0.33143   0.33166
     Eigenvalues ---    0.33243   0.33404   0.35996   0.40368   0.44065
     Eigenvalues ---    0.44180   0.44330   0.45239
 Quartic linear search produced a step of  0.51242.
 Iteration  1 RMS(Cart)=  0.06527235 RMS(Int)=  0.03440913
 Iteration  2 RMS(Cart)=  0.03098982 RMS(Int)=  0.00528196
 Iteration  3 RMS(Cart)=  0.00250336 RMS(Int)=  0.00460321
 Iteration  4 RMS(Cart)=  0.00000393 RMS(Int)=  0.00460320
 Iteration  5 RMS(Cart)=  0.00000003 RMS(Int)=  0.00460320
 Variable       Old X    -DE/DX   Delta X   Delta X   Delta X     New X
                                 (Linear)    (Quad)   (Total)
    R1        2.87934  -0.00014  -0.01188   0.00236  -0.00951   2.86982
    R2        2.08236  -0.00008  -0.00061  -0.00040  -0.00101   2.08136
    R3        2.08442   0.00054   0.00019   0.00185   0.00205   2.08647
    R4        2.08204   0.00015  -0.00089   0.00082  -0.00008   2.08197
    R5        2.93913  -0.00156   0.01367  -0.00923   0.00444   2.94357
    R6        2.64910  -0.00041  -0.04096   0.00281  -0.03815   2.61095
    R7        3.11011   0.01553   0.05163   0.07376   0.12539   3.23550
    R8        2.08191  -0.00053  -0.00093  -0.00235  -0.00328   2.07864
    R9        2.08089   0.00071  -0.00312   0.00337   0.00025   2.08113
   R10        2.08178   0.00089  -0.00018   0.00329   0.00311   2.08489
   R11        1.93107  -0.00161  -0.00338  -0.00397  -0.00735   1.92372
   R12        1.92648  -0.00066  -0.00346  -0.00114  -0.00460   1.92188
   R13        2.60106   0.00768  -0.04251   0.03170  -0.01081   2.59025
   R14        2.08305  -0.00009  -0.00464   0.00029  -0.00435   2.07871
   R15        2.07383   0.00060  -0.00382   0.00274  -0.00108   2.07275
   R16        1.93251  -0.00310  -0.00365  -0.00812  -0.01176   1.92074
   R17        1.93421  -0.00261  -0.00430  -0.00671  -0.01101   1.92320
    A1        1.93945   0.00012   0.00118  -0.00108   0.00008   1.93953
    A2        1.90517   0.00047  -0.00860   0.00730  -0.00132   1.90385
    A3        1.95531  -0.00048  -0.00033  -0.00286  -0.00320   1.95211
    A4        1.87203  -0.00014  -0.00136   0.00044  -0.00095   1.87108
    A5        1.90867  -0.00024   0.00491  -0.00782  -0.00292   1.90575
    A6        1.88039   0.00028   0.00427   0.00442   0.00868   1.88907
    A7        1.96030  -0.00071   0.00615  -0.00215   0.00275   1.96305
    A8        1.94249   0.00071   0.02144  -0.00487   0.01604   1.95853
    A9        1.93091  -0.00112  -0.00568  -0.01318  -0.01887   1.91204
   A10        1.97171   0.00003   0.01085   0.00339   0.01332   1.98503
   A11        1.76646   0.00196  -0.03275   0.02636  -0.00631   1.76016
   A12        1.88291  -0.00087  -0.00410  -0.00794  -0.01173   1.87117
   A13        1.93397   0.00071   0.00061   0.00465   0.00523   1.93920
   A14        1.95612  -0.00126  -0.00124  -0.01033  -0.01159   1.94452
   A15        1.86586   0.00193  -0.01222   0.01686   0.00458   1.87043
   A16        1.90595   0.00003   0.00820  -0.00336   0.00485   1.91080
   A17        1.89998  -0.00087   0.00097  -0.00229  -0.00139   1.89859
   A18        1.90064  -0.00053   0.00361  -0.00521  -0.00166   1.89898
   A19        2.02814   0.00159   0.02719   0.03307   0.04635   2.07449
   A20        2.05673   0.00110   0.02910   0.02953   0.04478   2.10150
   A21        1.96164  -0.00019   0.03233   0.02537   0.04209   2.00373
   A22        1.93466   0.00590  -0.02038   0.03906   0.01881   1.95347
   A23        1.84022  -0.00367  -0.01524  -0.03626  -0.05173   1.78849
   A24        1.88754  -0.00348  -0.01435  -0.02874  -0.04364   1.84391
   A25        1.94294   0.00003   0.01449   0.01247   0.02632   1.96926
   A26        1.91731   0.00026   0.00430   0.02171   0.02515   1.94246
   A27        1.93932   0.00082   0.03161  -0.01118   0.01772   1.95704
   A28        2.10989  -0.00052   0.02335   0.00409   0.00804   2.11793
   A29        2.07877   0.00100   0.03235   0.01530   0.02825   2.10702
   A30        2.00386   0.00046   0.04619   0.01008   0.03646   2.04032
    D1        1.00978   0.00086  -0.01219   0.03488   0.02256   1.03234
    D2       -3.04304   0.00091   0.02293   0.03372   0.05677  -2.98627
    D3       -0.94986  -0.00047   0.02810   0.01172   0.03984  -0.91003
    D4       -1.05136   0.00067  -0.00580   0.03044   0.02450  -1.02686
    D5        1.17901   0.00072   0.02931   0.02927   0.05870   1.23771
    D6       -3.01100  -0.00066   0.03449   0.00728   0.04177  -2.96923
    D7       -3.13256   0.00030  -0.00522   0.02191   0.01655  -3.11601
    D8       -0.90219   0.00035   0.02989   0.02074   0.05076  -0.85143
    D9        1.19098  -0.00103   0.03507  -0.00125   0.03383   1.22481
   D10       -0.97813   0.00008   0.01932   0.00472   0.02400  -0.95414
   D11       -3.11207   0.00043   0.00921   0.01299   0.02220  -3.08987
   D12        1.08985   0.00058   0.01341   0.01459   0.02799   1.11784
   D13        3.09026  -0.00032  -0.02238   0.01036  -0.01208   3.07817
   D14        0.95632   0.00002  -0.03248   0.01863  -0.01388   0.94244
   D15       -1.12494   0.00017  -0.02828   0.02024  -0.00809  -1.13303
   D16        1.08159  -0.00042  -0.00381   0.00340  -0.00036   1.08123
   D17       -1.05235  -0.00008  -0.01391   0.01168  -0.00215  -1.05450
   D18       -3.13361   0.00007  -0.00971   0.01328   0.00364  -3.12997
   D19       -2.87133  -0.00025   0.06469   0.06681   0.12918  -2.74215
   D20       -0.46727   0.00296   0.17410   0.19346   0.36937  -0.09790
   D21       -0.64714  -0.00060   0.09732   0.06260   0.15816  -0.48898
   D22        1.75692   0.00262   0.20673   0.18925   0.39834   2.15526
   D23        1.29047   0.00127   0.06122   0.09135   0.15045   1.44093
   D24       -2.58865   0.00448   0.17063   0.21799   0.39064  -2.19801
   D25       -0.89529  -0.00028   0.06195  -0.04258   0.01948  -0.87581
   D26       -2.99988  -0.00131   0.06585  -0.05693   0.00947  -2.99042
   D27        1.20751   0.00140   0.04431  -0.01053   0.03350   1.24101
   D28       -2.97620  -0.00003   0.07636  -0.04863   0.02768  -2.94852
   D29        1.20239  -0.00107   0.08026  -0.06297   0.01766   1.22006
   D30       -0.87339   0.00164   0.05872  -0.01657   0.04170  -0.83170
   D31        1.23326  -0.00065   0.08228  -0.06181   0.02037   1.25363
   D32       -0.87133  -0.00168   0.08618  -0.07616   0.01035  -0.86098
   D33       -2.94712   0.00103   0.06464  -0.02976   0.03439  -2.91274
   D34        1.62892   0.00063   0.10211  -0.01850   0.08487   1.71380
   D35       -1.04518  -0.00179  -0.08050  -0.09264  -0.17413  -1.21931
   D36       -2.61177  -0.00018   0.07944  -0.03105   0.04890  -2.56288
   D37        0.99731  -0.00260  -0.10316  -0.10520  -0.21010   0.78721
   D38       -0.45611   0.00107   0.13074  -0.02134   0.11100  -0.34511
   D39       -3.13021  -0.00135  -0.05186  -0.09549  -0.14800   3.00498
         Item               Value     Threshold  Converged?
 Maximum Force            0.015527     0.000015     NO 
 RMS     Force            0.002346     0.000010     NO 
 Maximum Displacement     0.488230     0.000060     NO 
 RMS     Displacement     0.082905     0.000040     NO 
 GradGradGradGradGradGradGradGradGradGradGradGradGradGradGradGradGradGrad

                    Distance matrix (angstroms):
                    1          2          3          4          5
     1  C    0.000000
     2  C    1.518644   0.000000
     3  C    2.557569   1.557670   0.000000
     4  N    2.408713   1.381656   2.463280   0.000000
     5  C    2.641606   1.712155   2.522264   2.498064   0.000000
     6  N    2.966346   2.561823   3.756549   3.040309   1.370703
     7  H    1.101406   2.173739   2.813562   3.351433   2.795937
     8  H    1.104112   2.149819   2.780648   2.760745   3.608923
     9  H    1.101730   2.182971   3.525810   2.639249   2.964451
    10  H    2.789178   2.206883   1.099966   3.397482   2.727324
    11  H    3.513842   2.211731   1.101289   2.730536   2.717389
    12  H    2.802912   2.158263   1.103278   2.744328   3.514023
    13  H    3.327125   2.074373   2.614050   1.017988   2.958806
    14  H    2.528885   2.089429   3.248093   1.017013   3.301882
    15  H    3.504587   2.225988   2.719480   2.571098   1.100004
    16  H    2.918220   2.268842   2.564098   3.378405   1.096852
    17  H    3.156770   3.180367   4.321621   3.852206   2.088427
    18  H    3.405447   2.955000   4.301052   2.965334   2.083253
                    6          7          8          9         10
     6  N    0.000000
     7  H    3.130120   0.000000
     8  H    4.039377   1.775266   0.000000
     9  H    2.778088   1.795742   1.787227   0.000000
    10  H    3.941463   2.595735   3.088429   3.821021   0.000000
    11  H    4.044886   3.810870   3.801060   4.370499   1.797422
    12  H    4.640010   3.187591   2.573195   3.798056   1.791249
    13  H    3.678364   4.201713   3.576361   3.653531   3.661951
    14  H    3.546784   3.605965   2.655695   2.469995   4.147494
    15  H    2.063705   3.795661   4.346924   3.841567   3.123306
    16  H    2.043015   2.657230   3.853816   3.434045   2.306089
    17  H    1.016413   3.038334   4.253867   2.866763   4.292917
    18  H    1.017714   3.815907   4.390723   2.984651   4.685672
                   11         12         13         14         15
    11  H    0.000000
    12  H    1.792577   0.000000
    13  H    2.486416   2.840936   0.000000
    14  H    3.652583   3.285321   1.714440   0.000000
    15  H    2.461152   3.713326   2.645034   3.501518   0.000000
    16  H    2.835878   3.613345   3.815864   4.182748   1.822672
    17  H    4.752295   5.183409   4.588139   4.249427   2.943879
    18  H    4.507009   5.088532   3.556360   3.305307   2.431405
                   16         17         18
    16  H    0.000000
    17  H    2.325571   0.000000
    18  H    2.969977   1.733467   0.000000
 Framework group  C1[X(C4H12N2)]
 Deg. of freedom    48
                         Standard orientation:                         
 ---------------------------------------------------------------------
 Center     Atomic      Atomic             Coordinates (Angstroms)
 Number     Number       Type             X           Y           Z
 ---------------------------------------------------------------------
      1          6           0        0.411184    1.322422   -0.812213
      2          6           0        0.475691    0.073179    0.048897
      3          6           0        1.540459   -0.944750   -0.457489
      4          7           0        0.586162    0.370751    1.393598
      5          6           0       -0.960928   -0.836272   -0.152342
      6          7           0       -2.082085   -0.063014    0.002273
      7          1           0        0.165858    1.072540   -1.856469
      8          1           0        1.402242    1.809088   -0.817037
      9          1           0       -0.326425    2.046125   -0.430118
     10          1           0        1.373792   -1.199419   -1.514509
     11          1           0        1.536231   -1.865211    0.147134
     12          1           0        2.526691   -0.459881   -0.360178
     13          1           0        0.981907   -0.327011    2.020348
     14          1           0        0.701223    1.333673    1.699959
     15          1           0       -0.864308   -1.608242    0.625307
     16          1           0       -0.904591   -1.258596   -1.163061
     17          1           0       -2.579844    0.313063   -0.800158
     18          1           0       -2.339749    0.302248    0.916567
 ---------------------------------------------------------------------
 Rotational constants (GHZ):           4.3122843           2.6202339           2.5243363
   108 basis functions,   198 primitive gaussians,   114 cartesian basis functions
    25 alpha electrons       24 beta electrons
       nuclear repulsion energy       268.1936398798 Hartrees.
 NAtoms=   18 NActive=   18 NUniq=   18 SFac= 1.00D+00 NAtFMM=   60 NAOKFM=F Big=F
 Nuclear repulsion after empirical dispersion term =      268.1823922616 Hartrees.
   1 Symmetry operations used in ECPInt.
 ECPInt:  NShTT=    1830 NPrTT=    7374 LenC2=    1828 LenP2D=    6119.
 LDataN:  DoStor=T MaxTD1= 4 Len=   56
 Initial guess from the checkpoint file:  "39.chk"
 B after Tr=     0.000000    0.000000    0.000000
         Rot=    0.999516    0.030747    0.001340    0.004542 Ang=   3.57 deg.
 Initial guess <Sx>= 0.0000 <Sy>= 0.0000 <Sz>= 0.5000 <S**2>= 0.7559 S= 0.5030
[...]
 0.1021781,-0.2180838,0.372003,-0.3331713,-0.0299282,0.2574319,-0.10978
 73,-0.2386406,0.0944211,0.0170512,-0.043263,-0.0156449,0.0665461,-0.05
 73417,-0.0090137,0.0120011,-0.0234842,0.0261492,-0.0202222,-0.0389159,
 -0.0571105,0.0370817,0.0309371,-0.029335,0.0127192,0.0868611,0.0099656
 ,0.0885932,0.0517979,0.0169248,0.0437192,0.0052045,0.0617669,-0.021390
 6,0.0248971,0.0736052,0.0143298,-0.0767989,0.0355855,0.0820974,0.02662
 77,0.0006108,0.0014639,-0.0101694,0.0883485,-0.0344023,0.0296588,0.013
 2281,-0.0307472,0.0235958,0.0256813,0.0638131,0.0444603,-0.0021823,-0.
 0246025,0.0006204,0.0005002,0.0679177,-0.0542956,0.0003537,-0.034741,0
 .0643825,0.3096448,0.0189829,0.0512347,-0.0376195,0.2109688,-0.0900132
 ,0.0480808,-0.043168,0.2508691,0.2185291,0.0544689,-0.0225073,0.096979
 2,0.2186391,0.08363,0.0244966,0.0380659,0.277785,0.0253608,-0.0116799,
 -0.033375,-0.0119345,0.022846,-0.011927,-0.0834883,0.0236649,0.0115915
 ,0.0711671,-0.0096422,0.0012073,-0.0504292,0.0541286,-0.0021568,0.0344
 552,0.0088151,0.0321888,0.3147451,0.0006558,0.0819944,-0.077036,0.2671
 993,-0.0071181,0.1457139,0.0130107,0.2365996,0.3155964,0.0730281,-0.02
 48299,0.1156274,0.2340293,0.0260473,-0.1104297,0.0273093,0.225906\Pola
 r=75.6009578,-0.938346,52.9997668,4.6854686,0.1844706,57.5298847\Quadr
 upole=3.1125952,-2.8909766,-0.2216186,-1.6361009,-0.0578153,-1.0137289
 \PG=C01 [X(C4H12N2)]\NImag=0\\0.57934916,-0.01361411,0.50170860,-0.004
 83141,0.02251144,0.60902773,-0.07104144,0.02560909,0.00435485,0.262374
 77,0.01599031,-0.20237004,0.03001793,-0.12741846,0.52203027,0.00845285
 ,0.04457890,-0.09734314,-0.10379736,-0.05601188,0.66070498,0.00167738,
 0.00240441,-0.00170418,-0.11893401,0.06058150,0.05319668,0.52242047,0.
 02316482,-0.01873843,-0.01380447,0.05359890,-0.13649814,-0.03513347,0.
 03018576,0.56953089,-0.00670053,0.00217868,0.00797236,0.03827937,-0.02
 888723,-0.11471843,0.02816582,-0.02843730,0.59602916,0.00270113,-0.001
 53904,-0.00512817,-0.05947681,0.03482988,0.00559747,0.00055329,0.00021
 116,0.02933441,0.19592272,0.00222594,-0.00688765,0.04504346,0.03049667
 ,-0.12593281,0.03252985,-0.00029838,0.00575514,-0.02724700,-0.29769154
 ,0.71122944,-0.00284466,0.00940085,-0.02185052,0.02971294,0.04513091,-
 0.40434893,0.00357833,-0.00234874,-0.03169594,-0.05366933,-0.02041674,
 0.82201845,-0.00825503,-0.01375568,-0.00120952,0.04131729,0.01785222,0
 .02013040,-0.02165098,0.00117901,0.00059264,-0.01045024,-0.00126435,-0
 .00661331,0.39128298,-0.01637730,-0.01237327,-0.00222166,0.01632807,-0
 .01905291,0.01301474,0.00376992,0.00015742,-0.00051494,-0.00076600,0.0
 0093523,-0.00820486,-0.21853731,0.58447274,-0.00336483,-0.00099142,-0.
 00054802,0.02615381,0.00722669,0.00366517,-0.00039365,-0.00094936,-0.0
 0024035,-0.01493078,-0.00321527,-0.02758381,-0.19276573,-0.10879322,0.
 60355729,-0.00167346,0.00377279,-0.00083018,-0.02220859,0.00471436,0.0
 0954872,-0.00386994,-0.00403538,-0.00175431,0.00297928,0.00055195,-0.0
 0811876,-0.29337258,0.17304245,0.13331740,0.56184226,-0.00020422,-0.00
 275287,-0.00035652,0.00170147,0.00125216,-0.00384374,-0.00013293,0.002
 03148,0.00107340,-0.00138052,0.00021855,0.00722057,0.15533537,-0.18632
 674,-0.03066853,-0.29875257,0.54924891,0.00208374,-0.00162826,0.000331
 56,-0.00239357,0.00164463,-0.00735409,0.00017577,0.00179283,0.00034301
 ,-0.00263197,-0.00058985,0.00905115,0.11905648,-0.02832952,-0.15870497
 ,-0.25030181,-0.24005816,0.63482364,-0.05546708,0.00456398,-0.04408749
 ,-0.00318862,-0.00255313,-0.00012171,-0.00028232,-0.00011827,-0.000480
 27,0.00140285,0.00078871,-0.00026342,0.00008354,-0.00056704,0.00072065
 ,-0.00007582,0.00002561,-0.00029828,0.05370458,0.00309070,-0.04925169,
 0.00808709,0.00368818,0.00091237,0.03184629,-0.00027886,0.00098818,0.0
 0046063,0.00184679,-0.00697522,0.00199161,0.00081827,-0.00005136,0.001
 58266,-0.00039158,0.00021907,-0.00016335,-0.00203454,0.05367715,-0.044
 22570,0.01358268,-0.32129402,-0.00071328,-0.00150545,-0.00788330,0.000
 29864,-0.00059457,0.00044044,-0.00073017,0.00206929,0.00070065,-0.0011
 2978,-0.00077684,-0.00005475,0.00096008,-0.00034430,0.00001653,0.04821
 325,-0.01473554,0.33918979,-0.25132457,-0.10654782,-0.04651663,0.00217
 702,0.00050091,0.00028497,0.00010119,0.00014486,0.00014438,0.00085110,
 0.00081500,0.00011517,-0.00007493,0.00018689,0.00079285,0.00075663,-0.
 00072268,-0.00049578,-0.00193752,-0.00068165,0.00074426,0.26488140,-0.
 10876313,-0.10300507,-0.02519974,-0.02598011,-0.01781429,-0.00354421,-
 0.00024643,0.00150112,0.00013367,0.00117878,0.00128844,-0.00161512,0.0
 0112030,-0.00340456,-0.00041055,-0.00068332,0.00157602,0.00086367,0.00
 294349,0.00101549,0.00057988,0.11663153,0.11163943,-0.04687403,-0.0247
 8467,-0.05780592,0.00897195,0.00504766,-0.00035227,0.00030445,-0.00022
 611,0.00010722,-0.00004782,0.00058879,0.00021740,0.00045723,0.00043088
 ,0.00021663,0.00008281,0.00014945,0.00009693,-0.02674140,-0.01439087,-
 0.00286007,0.05023223,0.02484313,0.05662265,-0.19446793,0.09941303,0.0
 9671525,-0.00068107,-0.00239221,-0.00024320,0.00065964,0.00037558,-0.0
 0016585,0.00054322,-0.00030373,-0.00083321,-0.00081406,-0.00010053,0.0
 0012699,0.00016521,-0.00062556,-0.00045486,0.00587839,-0.00476509,-0.0
 0381272,-0.01576186,0.01419508,0.01336398,0.20433334,0.09610417,-0.110
 34806,-0.06137333,0.02414246,-0.01648505,-0.01683494,-0.00142627,-0.00
 485068,0.00336572,-0.00107013,0.00181465,-0.00217780,0.00204740,-0.000
 54751,-0.00055460,-0.00044269,0.00179394,0.00084295,-0.00308123,0.0011
 1743,0.00151230,-0.01048500,0.00829782,0.00845379,-0.10591376,0.120100
 28,0.09686958,-0.06310075,-0.11462525,-0.00962186,0.00431189,0.0047024
 3,0.00030877,0.00163008,-0.00046535,-0.00079009,0.00064755,0.00083541,
 0.00100046,-0.00054679,-0.00038832,-0.00054007,0.00080886,0.00027108,0
 .02309370,-0.01477370,-0.00984443,-0.00570951,0.00446099,0.00342669,-0
 .10410371,0.06634314,0.11570497,0.00024282,-0.00066041,-0.00007175,0.0
 0171684,-0.00346146,0.02269578,-0.05381729,0.00249172,-0.04715009,-0.0
 0195219,0.00417065,0.00236331,-0.00010898,0.00060942,0.00170381,0.0000
 7672,-0.00021461,-0.00023175,0.00014400,0.00025499,-0.00018691,0.00000
 476,-0.00006209,-0.00020383,-0.00006499,-0.00025095,-0.00002484,0.0578
 1006,-0.00059067,0.00050317,-0.00060653,-0.00619675,0.00142471,-0.0182
 3240,0.00329806,-0.05080326,0.01412002,0.00327458,-0.00252712,-0.00242
 133,-0.00051326,0.00007234,-0.00039311,0.00015244,-0.00023887,-0.00004
 864,0.00048337,-0.00044836,0.00012568,0.00002457,-0.00010231,-0.000100
 45,-0.00003173,0.00017547,0.00019553,-0.00537260,0.04856491,-0.0003619
 3,0.00070999,0.00050990,-0.00351728,0.00252815,-0.01320545,-0.04263314
 ,0.01090697,-0.32242740,0.00192160,-0.00286802,-0.00052520,-0.00195725
 ,0.00063640,-0.00043695,0.00036119,-0.00051661,0.00034317,0.00007510,-
 0.00041729,0.00033758,0.00006949,-0.00000703,-0.00003081,0.00008826,0.
 00011368,0.00025724,0.04563186,-0.01067188,0.34154865,-0.00253063,0.00
 124973,0.00280409,-0.00079176,0.02330701,-0.00811853,-0.04791008,-0.02
 072288,0.00724963,0.00043142,-0.00085419,-0.00208721,0.00027391,0.0014
 0513,0.00018322,0.00026096,-0.00051724,-0.00017596,-0.00005483,-0.0002
 6913,0.00009525,0.00009057,0.00024937,0.00012108,0.00020126,0.00127302
 ,-0.00014650,-0.00050855,0.00529763,-0.00107287,0.04976394,0.00288042,
 -0.00039576,-0.00255092,-0.00268003,-0.01690620,0.00635098,-0.01757783
 ,-0.29506877,0.07900607,-0.00027707,0.00174353,0.00090376,-0.00132712,
 -0.00007404,0.00050713,0.00012644,0.00027516,-0.00039206,-0.00005894,0
 .00020558,-0.00001236,-0.00011303,0.00033868,-0.00005442,-0.00009778,-
 0.00081224,0.00031376,-0.00007217,0.00246349,-0.00141330,0.01717881,0.
 31473774,0.00220769,-0.00097166,-0.00148788,-0.00333644,-0.01670543,0.
 00482940,0.00685919,0.08032028,-0.07702804,0.00004840,-0.00070651,0.00
 102708,0.00015092,-0.00008744,-0.00006213,-0.00021256,-0.00002453,0.00
 006056,0.00015843,-0.00013283,0.00021180,0.00001085,0.00022173,-0.0001
 3620,0.00017348,-0.00071060,0.00058419,0.00322197,0.02937537,-0.004911
 37,-0.00935060,-0.08401805,0.07561172,0.00084035,-0.00085211,-0.000013
 79,-0.02151550,-0.00451832,-0.00153572,-0.27954944,-0.08356541,-0.0473
 9406,0.00204661,0.00036142,-0.00120884,0.00010862,0.00117888,0.0006455
 6,-0.00138938,0.00026568,0.00024761,-0.00007765,-0.00002243,0.00004896
 ,0.00011720,0.00064286,0.00003575,0.00033706,0.00005146,0.00013857,-0.
 00158459,-0.00059225,0.00069861,0.00110134,0.00109624,0.00001479,0.299
 61337,-0.00045390,0.00063891,0.00015797,0.01889894,0.00512439,0.002134
 81,-0.08138266,-0.07545887,-0.01591723,-0.00018488,-0.00013364,0.00088
 007,-0.00002438,-0.00023536,0.00056554,0.00142698,-0.00019360,-0.00059
 455,0.00013309,-0.00000713,0.00004041,0.00019292,-0.00058119,-0.000234
 36,-0.00033146,0.00012327,-0.00004730,0.00251838,0.00019270,0.00060785
 ,-0.02717572,-0.00673382,-0.00679608,0.08611413,0.07705552,-0.00019360
 ,0.00051929,0.00022407,0.01625196,0.00498802,-0.00014227,-0.04655156,-
 0.01602822,-0.05561505,0.00019322,-0.00054962,0.00029456,-0.00025543,0
 .00018992,-0.00015627,0.00082032,-0.00052562,0.00024826,-0.00017969,-0
 .00008861,-0.00002739,-0.00010709,-0.00003139,0.00016583,-0.00007633,0
 .00018884,-0.00013647,-0.02860911,-0.01053770,-0.00236731,0.01014282,0
 .00273605,0.00163986,0.04803937,0.01911996,0.05564486,0.00382102,-0.00
 086004,0.00403350,0.00106169,-0.00176095,-0.00015192,-0.00175862,-0.00
 293858,-0.00191694,-0.06276968,0.13407832,-0.04725178,-0.00079983,0.00
 035932,-0.00050147,0.00019892,-0.00036682,0.00000408,0.00063004,-0.000
 77164,0.00025860,-0.00002697,0.00075807,-0.00055235,0.00010300,-0.0003
 3307,0.00002472,-0.00033651,-0.00001588,-0.00016657,0.00080460,0.00017
 008,0.00019268,-0.00083095,0.00008102,0.00102730,0.06449051,0.00271428
 ,0.00137255,0.00176903,-0.00308215,0.00181224,0.00151472,-0.00008521,0
 .00132022,-0.00212626,0.13339711,-0.33076598,0.13161041,0.00161138,-0.
 00001790,-0.00014112,-0.00182241,0.00075232,0.00057386,-0.00001762,-0.
 00021190,0.00001309,-0.00018800,0.00053623,-0.00044001,-0.00019356,-0.
 00006461,-0.00021835,0.00010724,-0.00054313,-0.00020643,-0.00036863,-0
 .00053264,-0.00011757,-0.00030042,0.00003093,0.00025412,-0.13444962,0.
 33885631,-0.00007975,-0.00227448,-0.00469876,-0.01009516,0.03131005,-0
 .00858094,-0.00063938,0.00119062,0.00138555,-0.04797257,0.13142315,-0.
 13714465,-0.00053284,0.00020771,-0.00066134,0.00065694,-0.00023516,0.0
 0014133,0.00002954,0.00149955,-0.00009231,0.00015171,0.00002409,0.0000
 1457,-0.00014799,-0.00007153,0.00017172,-0.00017370,-0.00030682,0.0003
 8949,0.00033921,-0.00129798,-0.00068961,0.00013575,0.00004116,-0.00010
 403,0.05205772,-0.14299977,0.13548657,-0.00165502,0.00015642,-0.002611
 32,0.00052740,-0.00412257,-0.00128973,0.00350746,0.00258555,0.00385898
 ,-0.07389380,0.12686964,0.09052130,0.00206673,-0.00088926,-0.00064934,
 -0.00176201,0.00182135,0.00185060,-0.00042771,0.00020415,-0.00014735,-
 0.00034533,-0.00077320,0.00074287,-0.00013868,0.00043566,0.00003328,-0
 .00010866,0.00061358,0.00026807,-0.00027344,0.00013699,-0.00006542,0.0
 0056391,-0.00057291,-0.00092557,-0.00415458,0.00302504,0.00686292,0.07
 727430,-0.00316471,0.00135785,0.00015005,-0.00373074,0.00874284,0.0022
 6003,0.00020436,0.00105749,0.00302347,0.12770210,-0.25083377,-0.154895
 01,-0.00104749,-0.00002334,-0.00027765,0.00128134,-0.00072968,-0.00008
 965,0.00009317,-0.00043185,-0.00018453,-0.00022438,-0.00047148,0.00051
 445,0.00112275,0.00007581,0.00027065,-0.00017893,0.00079543,0.00038973
 ,-0.00005195,0.00027795,0.00018819,0.00022318,-0.00007465,-0.00016551,
 0.00650424,-0.01182308,-0.01819034,-0.12853942,0.25150029,0.00015660,-
 0.00126197,0.00136248,0.01620907,-0.02397977,-0.01497860,-0.00268802,0
 .00229268,-0.00404172,0.09005717,-0.15526782,-0.20676710,-0.00050744,-
 0.00037677,-0.00090521,0.00071117,0.00019842,0.00040157,-0.00025403,-0
 .00013825,0.00041377,0.00009479,0.00008236,-0.00007275,-0.00057908,0.0
 0126257,-0.00039019,0.00114969,-0.00082451,-0.00032705,-0.00014181,-0.
 00007977,0.00020768,0.00010811,0.00015168,0.00010335,-0.00660779,0.011
 33597,0.01432283,-0.09713729,0.16663518,0.21043978,-0.00191060,-0.0006
 4725,-0.00010024,-0.00682365,-0.01185099,0.00068836,0.00035571,-0.0016
 6810,-0.00003309,0.00106521,0.00037018,0.00039467,-0.04009355,0.025981
 09,0.00043912,-0.00943237,0.03312904,-0.01147600,-0.00002723,-0.000043
 14,-0.00015343,-0.00006317,-0.00071796,-0.00007085,0.00005270,0.000074
 95,-0.00006867,-0.00000613,0.00007376,0.00020675,-0.00095968,0.0005315
 4,-0.00025340,0.00021174,0.00042304,0.00000349,-0.00020768,-0.00042707
 ,-0.00030815,-0.00011532,0.00018670,0.00010235,0.05688898,-0.00125409,
 -0.00019619,-0.00031864,-0.00354328,-0.00690314,0.00191220,0.00105178,
 0.00026646,0.00002187,0.00146309,0.00140808,-0.00074485,0.04468516,-0.
 30008647,0.10478514,0.00237718,-0.00924213,0.00476550,0.00000034,0.000
 00977,-0.00007611,-0.00006139,-0.00036643,-0.00002872,0.00009210,0.000
 09118,0.00002082,-0.00020439,0.00000473,0.00000441,-0.00005282,0.00046
 742,0.00007747,0.00004084,0.00012457,-0.00014936,-0.00052581,-0.000243
 73,-0.00024270,-0.00018679,-0.00003804,0.00002535,-0.04440238,0.310208
 54,-0.00047137,0.00022842,-0.00029544,-0.00534915,-0.00543087,-0.00062
 929,0.00062080,-0.00057922,-0.00019337,0.00030411,-0.00091301,-0.00033
 224,-0.00228690,0.10482620,-0.09583218,0.00190554,-0.01252264,0.009975
 70,-0.00005539,-0.00023968,0.00039453,0.00000551,-0.00028699,0.0002588
 4,0.00003447,-0.00005580,-0.00005912,-0.00014452,0.00024533,0.00011877
 ,0.00023218,0.00003671,0.00020878,0.00006029,-0.00004732,-0.00008607,-
 0.00038363,-0.00050467,0.00002659,-0.00038478,0.00019083,0.00013672,0.
 00713437,-0.10691129,0.08737432,-0.00055123,0.00057371,-0.00086019,-0.
 00257729,-0.00052364,-0.00711775,-0.00148393,-0.00084177,-0.00216409,-
 0.00192683,-0.00061899,-0.00315735,-0.04464874,0.00197819,0.04024003,-
 0.01028504,-0.00296157,0.03328110,-0.00007456,-0.00061362,0.00021259,0
 .00019916,-0.00013390,0.00017042,0.00013940,-0.00005315,0.00009193,-0.
 00148500,0.00005269,0.00047797,0.00007212,0.00016780,0.00014336,0.0001
 4099,0.00039395,0.00048339,0.00012756,-0.00008560,-0.00005190,-0.00011
 251,0.00008455,0.00000505,0.00219108,-0.00008442,-0.00286795,0.0614452
 7,-0.00097572,0.00037366,-0.00132658,-0.00260060,0.00001011,-0.0032672
 6,0.00010855,-0.00079174,-0.00031568,-0.00047335,0.00009891,-0.0030124
 0,0.00291460,-0.06136878,0.04695812,0.00493895,0.00699422,-0.01799030,
 -0.00063049,-0.00075997,0.00014748,0.00029980,-0.00012269,0.00020897,0
 .00012653,-0.00011915,-0.00001286,0.00034673,0.00041057,0.00010884,-0.
 00002873,0.00006292,0.00012694,-0.00002824,0.00005953,0.00002898,-0.00
 029629,-0.00040615,-0.00007010,-0.00014916,0.00020915,0.00003661,-0.00
 408006,0.00350856,0.02356600,-0.00130992,0.05195609,0.00078144,0.00075
 006,0.00007346,-0.00136515,0.00030165,-0.00580639,0.00109353,0.0001767
 2,0.00013500,-0.00184393,-0.00094003,-0.00173348,0.06012378,0.04608937
 ,-0.32875352,0.00196177,0.00044791,-0.00492435,-0.00006404,-0.00032064
 ,0.00056360,0.00005895,0.00003872,0.00033280,-0.00001448,0.00001988,-0
 .00004760,0.00003584,0.00009414,0.00071011,-0.00007434,-0.00006237,-0.
 00003798,0.00004160,-0.00009154,0.00033408,0.00009658,-0.00007570,0.00
 001327,-0.00003215,0.00010767,0.00000567,0.00046202,-0.00172556,-0.001
 56975,-0.06120941,-0.04395546,0.33891737,-0.00000605,0.00055874,0.0000
 1911,-0.00079891,0.00102764,0.00013210,-0.00011366,-0.00017487,0.00003
 921,0.00045041,-0.00008856,0.00034734,-0.00665020,0.02166969,-0.016037
 73,-0.10211815,0.13449471,-0.04808777,-0.00024080,-0.00002645,0.000308
 66,0.00033667,-0.00037807,0.00004828,-0.00040439,-0.00082259,-0.000567
 23,0.00003907,0.00004814,0.00002988,0.00002770,-0.00009228,0.00002193,
 -0.00008020,-0.00003262,0.00005380,-0.00005329,0.00010384,-0.00004023,
 -0.00012400,-0.00000009,-0.00025663,0.00015467,0.00088134,0.00334599,-
 0.00152946,-0.00155825,0.00014915,0.10210621,-0.00076509,0.00041427,-0
 .00002347,0.00113472,0.00081507,0.00113903,-0.00029868,-0.00064743,0.0
 0001364,-0.00069691,-0.00014054,-0.00175777,0.00340826,-0.01040234,0.0
 0405347,0.13470120,-0.28426714,0.16646276,-0.00009632,0.00008973,0.000
 25557,0.00023523,-0.00038838,0.00003928,-0.00052315,-0.00027964,-0.000
 47899,0.00007846,0.00005082,0.00003778,0.00003864,0.00000525,-0.000045
 28,-0.00012984,0.00013530,0.00002388,0.00011599,-0.00028650,0.00010849
 ,-0.00018409,0.00043910,0.00010916,0.00488410,0.00085485,0.00030460,-0
 .00250651,-0.00032914,0.00028350,-0.14055360,0.29642199,0.00004448,0.0
 0033730,0.00058098,-0.00070714,-0.00026223,-0.00071887,0.00012260,0.00
 017154,0.00017789,0.00013432,0.00011880,0.00096038,0.00342642,-0.01473
 729,0.01093447,-0.04799990,0.16787974,-0.14961084,0.00017470,-0.000017
 33,-0.00021475,0.00010368,-0.00001763,-0.00021891,-0.00012222,-0.00034
 386,-0.00005423,0.00004112,-0.00003431,-0.00004481,-0.00008068,0.00004
 865,-0.00000629,0.00005186,-0.00002439,-0.00005161,-0.00002856,0.00015
 464,-0.00014249,-0.00000270,0.00002607,-0.00016296,0.00540837,-0.00142
 987,0.00081940,-0.00154459,-0.00187018,0.00054224,0.05510108,-0.169579
 80,0.14468208,0.00025117,0.00017454,0.00003806,-0.00113737,-0.00020210
 ,0.00164858,0.00009511,0.00012791,0.00009479,0.00152232,0.00039128,-0.
 00098518,-0.00821394,-0.00927161,0.02432010,-0.12009264,-0.02089451,0.
 15984835,0.00001074,-0.00000494,-0.00004094,0.00001865,0.00001873,-0.0
 0004075,-0.00008024,-0.00025027,0.00001148,-0.00006138,-0.00000568,-0.
 00011973,0.00000116,0.00000793,0.00001472,-0.00005348,-0.00002393,-0.0
 0011729,-0.00029923,0.00006140,-0.00019211,-0.00082875,-0.00046470,-0.
 00042189,-0.00128071,-0.00027648,-0.00169958,0.00035899,0.00339565,-0.
 00020114,0.00900437,0.00115758,-0.01412285,0.12078523,-0.00000767,-0.0
 0004995,0.00004490,-0.00036640,-0.00016159,-0.00041366,0.00012292,0.00
 024893,0.00004846,0.00017595,-0.00029523,0.00045642,0.00549764,0.00832
 685,-0.01928392,-0.02095813,-0.08061079,0.11293814,0.00012582,-0.00009
 729,-0.00009671,-0.00000776,0.00006317,-0.00001677,-0.00004652,-0.0000
 8291,0.00017546,-0.00009997,0.00000472,0.00005676,0.00004192,-0.000054
 24,0.00000600,0.00003433,-0.00006686,0.00002697,0.00025166,0.00021484,
 -0.00011593,-0.00043100,-0.00003000,-0.00020114,-0.00181743,0.00013195
 ,-0.00190660,0.00648219,0.00021391,-0.00113833,-0.01505671,-0.00248527
 ,0.01958012,0.02605917,0.07472976,-0.00064856,0.00021560,-0.00013360,0
 .00096245,0.00027526,0.00215999,-0.00011467,-0.00038027,-0.00016498,0.
 00015413,0.00029295,-0.00312321,0.00231987,-0.00080590,-0.00404574,0.1
 5943165,0.11131746,-0.33551026,0.00008034,-0.00004975,0.00000233,0.000
 02017,-0.00013559,0.00001738,0.00005123,0.00001958,0.00005724,-0.00004
 687,0.00002161,0.00006145,0.00008102,-0.00002190,-0.00002157,-0.000114
 44,0.00005332,0.00003161,-0.00013416,-0.00039596,0.00016220,-0.0008923
 5,0.00004639,0.00025174,-0.00237565,0.00001435,-0.00031619,0.00386740,
 0.00063890,0.00124546,0.00539308,-0.00094586,-0.00747169,-0.16803463,-
 0.11016018,0.34679781\\-0.00000030,-0.00000016,-0.00000011,-0.00000002
 ,0.00000046,-0.00000001,0.00000031,0.00000012,-0.00000009,0.,0.0000002
 4,0.00000005,0.00000008,-0.00000048,0.00000010,-0.00000024,-0.00000033
 ,0.00000024,-0.00000036,0.,-0.00000020,-0.00000039,0.00000030,-0.00000
 030,-0.00000040,-0.00000005,-0.00000020,0.00000009,0.00000016,0.000000
 03,0.00000031,0.00000032,0.00000016,0.00000006,0.00000053,-0.00000003,
 0.00000030,0.00000037,0.00000004,0.,0.00000025,-0.00000009,0.00000021,
 -0.00000025,0.00000021,0.00000021,-0.00000033,0.00000013,-0.00000005,-
 0.00000063,-0.00000003,0.00000019,-0.00000054,0.00000011\\\@


 Time has a wonderful way of weeding out the trivial.
                                -- Richard Ben Sapir
 Job cpu time:       0 days  0 hours  6 minutes 54.2 seconds.
 Elapsed time:       0 days  0 hours  1 minutes 44.4 seconds.
 File lengths (MBytes):  RWF=     54 Int=      0 D2E=      0 Chk=      3 Scr=      1
 Normal termination of Gaussian 16 at Mon Jul 10 19:34:23 2023.
real 927.49
user 3553.85
sys 16.40
