You are running Q-Chem version: 5.3.2

#
# job setting
#
local host:  tnxt-0465.cluster
current dir: /scratch/user/peterli3819/peterli3819/12613586_1663277315000000687844016
input file:  qchem_test.inp
output file: 
nprocs     : 0
nthreads   : 8
#
# qchem installation setting
#
QC:          /sw/restricted/qchem/sw/5.3.2
QCAUX:       /sw/restricted/qchem/sw/5.3.2/qcaux
QCPROG:      /sw/restricted/qchem/sw/5.3.2/exe/qcprog.exe_s
QCPROG_S:    /sw/restricted/qchem/sw/5.3.2/exe/qcprog.exe_s
PARALLEL:    -DSERIAL
QCMPI:       seq
#
# qchem directory setting
#
qcrun:       qchem39531
QCSCRATCH:   /scratch/user/peterli3819/peterli3819/12613586_1663277315000000687844016
QCLOCALSCR:  
QCTMPDIR:    /scratch/user/peterli3819/peterli3819/12613586_1663277315000000687844016
QCFILEPREF:  /scratch/user/peterli3819/peterli3819/12613586_1663277315000000687844016/qchem39531
QCSAVEDIR:   
workdirs:    /scratch/user/peterli3819/peterli3819/12613586_1663277315000000687844016/qchem39531
workdir0:    /scratch/user/peterli3819/peterli3819/12613586_1663277315000000687844016/qchem39531
partmpdirs =  
#
# parallel setting
#
QCRSH:           ssh
QCMPI:           seq
QCMPIRUN:        
QCMACHINEFILE:   /scratch/user/peterli3819/peterli3819/12613586_1663277315000000687844016/qchem39531/hostfile

#
# env setting
#
exported envs:   QC QCAUX QCSCRATCH QCRUNNAME QCFILEPREF QCPROG QCPROG_S GUIFILE

Running Job 1 of 1 qchem_test.inp
qchem qchem_test.inp_39531.0 /scratch/user/peterli3819/peterli3819/12613586_1663277315000000687844016/qchem39531/ 0
/sw/restricted/qchem/sw/5.3.2/exe/qcprog.exe_s qchem_test.inp_39531.0 /scratch/user/peterli3819/peterli3819/12613586_1663277315000000687844016/qchem39531/
                  Welcome to Q-Chem
     A Quantum Leap Into The Future Of Chemistry


 Q-Chem 5.3, Q-Chem, Inc., Pleasanton, CA (2020)

 License issued to: MRG Daniel Tabor and Mike Hall, Texas A&M University

 Yihan Shao,  Zhengting Gan,  E. Epifanovsky,  A. T. B. Gilbert,  M. Wormit,  
 J. Kussmann,  A. W. Lange,  A. Behn,  Jia Deng,  Xintian Feng,  D. Ghosh,  
 M. Goldey,  P. R. Horn,  L. D. Jacobson,  I. Kaliman,  T. Kus,  A. Landau,  
 Jie Liu,  E. I. Proynov,  R. M. Richard,  R. P. Steele,  E. J. Sundstrom,  
 H. L. Woodcock III,  P. M. Zimmerman,  D. Zuev,  B. Alam,  B. Albrecht,  
 A. Aldossary,  E. Alguire,  S. A. Baeppler,  D. Barton,  Z. Benda,  
 Y. A. Bernard,  E. J. Berquist,  K. B. Bravaya,  H. Burton,  K. Carter-Fenk,  
 D. Casanova,  Chun-Min Chang,  Yunqing Chen,  A. Chien,  K. D. Closser,  
 M. P. Coons,  S. Coriani,  S. Dasgupta,  A. L. Dempwolff,  M. Diedenhofen,  
 Hainam Do,  R. G. Edgar,  Po-Tung Fang,  S. Faraji,  S. Fatehi,  
 Qingguo Feng,  J. Fosso-Tande,  J. Gayvert,  Qinghui Ge,  A. Ghysels,  
 G. Gidofalvi,  J. Gomes,  J. Gonthier,  S. Gulania,  A. Gunina,  D. Hait,  
 M. W. D. Hanson-Heine,  S. Hammes-Schiffer,  P. H. P. Harbach,  
 A. W. Hauser,  M. F. Herbst,  J. E. Herr,  E. G. Hohenstein,  Z. C. Holden,  
 S. Houck,  Kerwin Hui,  B. C. Huynh,  M. Ivanov,  T.-C. Jagau,  Hyunjun Ji,  
 B. Kaduk,  K. Khistyaev,  Jaehoon Kim,  P. Klunzinger,  K. Koh,  
 D. Kosenkov,  L. Koulias,  T. Kowalczyk,  C. M. Krauter,  A. Kunitsa,  
 Ka Un Lao,  A. Laurent,  K. V. Lawler,  Joonho Lee,  D. Lefrancois,  
 S. Lehtola,  D. S. Levine,  Yi-Pei Li,  You-Sheng Lin,  Fenglai Liu,  
 Kuan-Yu Liu,  E. Livshits,  M. Loipersberger,  A. Luenser,  A. Manjanath,  
 P. Manohar,  E. Mansoor,  S. F. Manzer,  Shan-Ping Mao,  Yuezhi Mao,  
 N. Mardirossian,  A. V. Marenich,  T. Markovich,  L. A. Martinez-Martinez,  
 S. A. Maurer,  N. J. Mayhall,  S. C. McKenzie,  J.-M. Mewes,  P. Morgante,  
 A. F. Morrison,  J. W. Mullinax,  K. Nanda,  T. S. Nguyen-Beck,  
 R. Olivares-Amaya,  K. J. Oosterbaan,  J. A. Parkhill,  S. K. Paul,  
 F. Pavosevic,  Zheng Pei,  T. M. Perrine,  F. Plasser,  P. Pokhilko,  
 S. Prager,  A. Prociuk,  E. Ramos,  B. Rana,  D. R. Rehn,  F. Rob,  
 E. Rossomme,  M. Scheurer,  M. Schneider,  N. Sergueev,  S. M. Sharada,  
 S. Sharma,  W. Skomorowski,  D. W. Small,  T. Stauch,  C. J. Stein,  
 T. Stein,  Yu-Chuan Su,  S. P. Veccham,  Zhen Tao,  A. J. W. Thom,  
 A. Tkatchenko,  T. Tsuchimochi,  N. M. Tubman,  L. Vogt,  M. L. Vidal,  
 O. Vydrov,  M. A. Watson,  J. Wenzel,  M. de Wergifosse,  T. A. Wesolowski,  
 A. White,  J. Witte,  A. Yamada,  Jun Yang,  K. Yao,  S. Yeganeh,  
 S. R. Yost,  Zhi-Qiang You,  A. Zech,  Igor Ying Zhang,  Xing Zhang,  
 Yan Zhao,  Ying Zhu,  B. R. Brooks,  G. K. L. Chan,  C. J. Cramer,  
 M. S. Gordon,  W. J. Hehre,  A. Klamt,  M. W. Schmidt,  C. D. Sherrill,  
 D. G. Truhlar,  A. Aspuru-Guzik,  R. Baer,  A. T. Bell,  N. A. Besley,  
 Jeng-Da Chai,  A. E. DePrince, III,  R. A. DiStasio Jr.,  A. Dreuw,  
 B. D. Dunietz,  T. R. Furlani,  Chao-Ping Hsu,  Yousung Jung,  Jing Kong,  
 D. S. Lambrecht,  WanZhen Liang,  C. Ochsenfeld,  V. A. Rassolov,  
 L. V. Slipchenko,  J. E. Subotnik,  T. Van Voorhis,  J. M. Herbert,  
 A. I. Krylov,  P. M. W. Gill,  M. Head-Gordon

 Contributors to earlier versions of Q-Chem not listed above: 
 R. D. Adamson,  B. Austin,  J. Baker,  G. J. O. Beran,  K. Brandhorst,  
 S. T. Brown,  E. F. C. Byrd,  A. K. Chakraborty,  C.-L. Cheng,  
 Siu Hung Chien,  D. M. Chipman,  D. L. Crittenden,  H. Dachsel,  
 R. J. Doerksen,  A. D. Dutoi,  L. Fusti-Molnar,  W. A. Goddard III,  
 A. Golubeva-Zadorozhnaya,  S. R. Gwaltney,  G. Hawkins,  A. Heyden,  
 S. Hirata,  G. Kedziora,  F. J. Keil,  C. Kelley,  Jihan Kim,  R. A. King,  
 R. Z. Khaliullin,  P. P. Korambath,  W. Kurlancheek,  A. M. Lee,  M. S. Lee,  
 S. V. Levchenko,  Ching Yeh Lin,  D. Liotard,  R. C. Lochan,  I. Lotan,  
 P. E. Maslen,  N. Nair,  D. P. O'Neill,  D. Neuhauser,  E. Neuscamman,  
 C. M. Oana,  R. Olson,  B. Peters,  R. Peverati,  P. A. Pieniazek,  
 Y. M. Rhee,  J. Ritchie,  M. A. Rohrdanz,  E. Rosta,  N. J. Russ,  
 H. F. Schaefer III,  N. E. Schultz,  N. Shenvi,  A. C. Simmonett,  A. Sodt,  
 D. Stuck,  K. S. Thanthiriwatte,  V. Vanovschi,  Tao Wang,  A. Warshel,  
 C. F. Williams,  Q. Wu,  X. Xu,  W. Zhang

 Please cite Q-Chem as follows:
 Y. Shao et al., Mol. Phys. 113, 184-215 (2015)
 DOI: 10.1080/00268976.2014.952696

 Q-Chem 5.3.2 for Intel X86 EM64T Linux

 Parts of Q-Chem use Armadillo 9.800.1 (Horizon Scraper).
 http://arma.sourceforge.net/

 Q-Chem begins on Thu Sep 15 16:28:54 2022  

Host: 
0

     Scratch files written to /scratch/user/peterli3819/peterli3819/12613586_1663277315000000687844016/qchem39531//
 Dec820 |scratch|qcdevops|jenkins|workspace|build_RNUM 7711   
Processing $rem in /sw/restricted/qchem/sw/5.3.2/config/preferences:
Processing $rem in /home/peterli3819/.qchemrc:

 Q-Chem warning in module libgen/rem_setup.C, line 2945:

 Neither GIA nor STOLL is specified by user. Use STOLL as the default


Checking the input file for inconsistencies... 	...done.

--------------------------------------------------------------
User input:
--------------------------------------------------------------
$molecule
0 1
--
0 1
O        3.436187    1.648191    1.023272
C        3.880933    0.448200    0.428197
C        2.742080   -0.336047   -0.253199
C        2.199965    0.479394   -1.450349
O        1.967206    1.841745   -1.178785
C        3.300148   -1.654026   -0.831896
O        3.796098   -2.551112    0.126987
C        1.661497   -0.700268    0.781718
O        1.135369    0.400862    1.502033
H        2.992551    2.140865    0.297336
H        4.323472   -0.155346    1.239744
H        4.682115    0.653302   -0.313087
H        1.281267   -0.002921   -1.837149
H        2.952551    0.441344   -2.260220
H        1.017335    1.966481   -0.956535
H        4.071727   -1.416201   -1.592929
H        2.488431   -2.187591   -1.356398
H        4.664768   -2.257032    0.428940
H        2.085650   -1.437687    1.486159
H        0.810212   -1.188068    0.273554
H        1.889036    0.998871    1.706458
--
0 1
O       -4.919161   -0.391545   -0.060487
C       -4.103493    0.754351   -0.165505
C       -2.598856    0.450968   -0.017570
C       -2.120864   -0.428499   -1.189562
O       -2.841252   -1.637331   -1.313787
C       -1.846395    1.792298   -0.048902
O       -0.454847    1.666418   -0.152503
C       -2.338396   -0.256821    1.329276
O       -2.920879   -1.540350    1.410873
H       -4.611822   -1.003970   -0.756642
H       -4.426331    1.442422    0.635638
H       -4.280434    1.270286   -1.132328
H       -1.038358   -0.629013   -1.076972
H       -2.252796    0.116713   -2.140489
H       -2.732749   -2.103015   -0.462421
H       -2.120208    2.386209    0.847556
H       -2.171201    2.370938   -0.930710
H       -0.034107    1.215904    0.623036
H       -2.704917    0.390716    2.153159
H       -1.256460   -0.395900    1.489609
H       -3.879213   -1.409624    1.280622
$end

$rem
JOBTYPE           eda
EDA2              2
METHOD            wB97X-D
BASIS             def2-SV(P)
SCF_CONVERGENCE   8
THRESH            14
SYMMETRY          false
DISP_FREE_X       wB97X-D
DISP_FREE_C       none
EDA_BSSE          true
$end
--------------------------------------------------------------
 ----------------------------------------------------------------
             Standard Nuclear Orientation (Angstroms)
    I     Atom           X                Y                Z
 ----------------------------------------------------------------
    1      O       3.4361868803    -1.6481911932    -1.0232719716
    2      C       3.8809329559    -0.4482001538    -0.4281971076
    3      C       2.7420800182     0.3360469591     0.2531988666
    4      C       2.1999650376    -0.4793939025     1.4503489696
    5      O       1.9672059695    -1.8417449193     1.1787851120
    6      C       3.3001480980     1.6540259923     0.8318957142
    7      O       3.7960980925     2.5511118789    -0.1269873947
    8      C       1.6614969875     0.7002679032    -0.7817181210
    9      O       1.1353689104    -0.4008621450    -1.5020329910
   10      H       2.9925508921    -2.1408651046    -0.2973359042
   11      H       4.3234719449     0.1553457493    -1.2397441857
   12      H       4.6821149802    -0.6533021149     0.3130868769
   13      H       1.2812670745     0.0029211728     1.8371489634
   14      H       2.9525510749    -0.4413438549     2.2602199327
   15      H       1.0173349546    -1.9664809018     0.9565351660
   16      H       4.0717271218     1.4162010343     1.5929287032
   17      H       2.4884311431     2.1875910765     1.3563976983
   18      H       4.6647680671     2.2570318139    -0.4289404045
   19      H       2.0856499868     1.4376868174    -1.4861592112
   20      H       0.8102120300     1.1880679875    -0.2735541307
   21      H       1.8890358768    -0.9988711959    -1.7064579663
   22      O      -4.9191609880     0.3915452554     0.0604871995
   23      C      -4.1034930305    -0.7543507679     0.1655052746
   24      C      -2.5988560245    -0.4509678441     0.0175701787
   25      C      -2.1208639366     0.4284992499     1.1895620724
   26      O      -2.8412518814     1.6373312915     1.3137869869
   27      C      -1.8463950783    -1.7922978720     0.0489022756
   28      O      -0.4548470686    -1.6664179192     0.1525032019
   29      C      -2.3383960549     0.2568210146    -1.3292759014
   30      O      -2.9208790057     1.5403500306    -1.4108730001
   31      H      -4.6118219321     1.0039703103     0.7566421265
   32      H      -4.4263310941    -1.4424218323    -0.6356376444
   33      H      -4.2804340090    -1.2702856669     1.1323283324
   34      H      -1.0383579333     0.6290131944     1.0769720051
   35      H      -2.2527959171    -0.1167126525     2.1404891310
   36      H      -2.7327488999     2.1030152045     0.4624209370
   37      H      -2.1202081423    -2.3862089477    -0.8475556547
   38      H      -2.1712010632    -2.3709377732     0.9307103460
   39      H      -0.0341070843    -1.2159040117    -0.6230358603
   40      H      -2.7049171179    -0.3907160503    -2.1531588224
   41      H      -1.2564600562     0.3958999545    -1.4896089626
   42      H      -3.8792130053     1.4096240826    -1.2806219452
 ----------------------------------------------------------------
 Molecular Point Group                 C1    NOp =  1
 Largest Abelian Subgroup              C1    NOp =  1
 Nuclear Repulsion Energy =        1604.65195461 hartrees
 There are       74 alpha and       74 beta electrons
 Requested basis set is def2-SV(P)
 There are 156 shells and 300 basis functions

 Total QAlloc Memory Limit  56000 MB
 Mega-Array Size       188 MB
 MEM_STATIC part       192 MB
 A cutoff of  1.0D-14 yielded  10097 shell pairs
 There are     35613 function pairs (     39536 Cartesian)
 Smallest overlap matrix eigenvalue = 1.38E-03

 Scale SEOQF with 1.000000e-01/1.000000e-01/1.000000e-01

 Standard Electronic Orientation quadrupole field applied
 Nucleus-field energy     =     0.0000000482 hartrees

 -----------------------------------------------------------------------
  General SCF calculation program by
  Eric Jon Sundstrom, Paul Horn, Yuezhi Mao, Dmitri Zuev, Alec White,
  David Stuck, Shaama M.S., Shane Yost, Joonho Lee, David Small,
  Daniel Levine, Susi Lehtola, Hugh Burton, Evgeny Epifanovsky,
  Bang C. Huynh
 -----------------------------------------------------------------------
================================================================
                 ALMO-EDA with the EDA2 driver                  
================================================================
 The second-generation ALMO-EDA (for DFT):                      
 P. R. Horn, Y. Mao and M. Head-Gordon, PCCP, 18, 23067 (2016)  
 Decomposition of the frozen energy:                            
 P. R. Horn, Y. Mao and M. Head-Gordon, JCP, 144, 114107 (2016) 
Using eda2 option set 2
Option set summary: Frozen orbital wavefunction, initial wavefunction decomposition, and traditional AO-based POL.
--------------------------------
Printing EDA Options
--------------------------------
eda_child_super_basis      0
fragmo_guess_mode          0
child_mp                   0
child_mp_orders            0
cls_elec                   1
cls_disp                   0
scfmi_mode                 1
scfmi_occs                 0
scfmi_virts                0
frz_relax                  0
frz_relax_method           0
dc_pen_start               0
dc_pen_conv                0
dc_pen_increment           0
dc_pen_steps               0
dc_pen_thresh_factor       0
dc_pen_pre_newton_thresh   0
frz_ortho_decomp           1
frz_ortho_decomp_conv      6
plot_mo_ortho_frz          0
frgm_method                2
scfmi_freeze_ss            0
separate_rehyb             0
plot_diff_den              0
eda_nocv                   0
eda_vct_relax              1
disp_free_x                -110
disp_free_c                0
eda_bsse                   1
eda_pct_a                  0
eda_covp                   0
--------------------------------
Attempting to make child job directory: /scratch/user/peterli3819/peterli3819/12613586_1663277315000000687844016/qchem39531//Frg1/
Attempting to make child job directory: /scratch/user/peterli3819/peterli3819/12613586_1663277315000000687844016/qchem39531//Frg2/
Creating input file /scratch/user/peterli3819/peterli3819/12613586_1663277315000000687844016/qchem39531/Frg1.input
using default PutDataFrgm: nothing
calling putenv with: QCSCRATCH=/scratch/user/peterli3819/peterli3819/12613586_1663277315000000687844016/qchem39531/ 
Spawning Job For Fragment 0
Done Job For Fragment 0
calling putenv with: QCSCRATCH=/scratch/user/peterli3819/peterli3819/12613586_1663277315000000687844016 
calling putenv with: QCTHREADS=8 
Creating input file /scratch/user/peterli3819/peterli3819/12613586_1663277315000000687844016/qchem39531/Frg2.input
using default PutDataFrgm: nothing
calling putenv with: QCSCRATCH=/scratch/user/peterli3819/peterli3819/12613586_1663277315000000687844016/qchem39531/ 
Spawning Job For Fragment 1
Done Job For Fragment 1
calling putenv with: QCSCRATCH=/scratch/user/peterli3819/peterli3819/12613586_1663277315000000687844016 
calling putenv with: QCTHREADS=8 
Doing General SCFMI
 Exchange:     0.2220 Hartree-Fock + 1.0000 wB97X-D + LR-HF
 Correlation:  1.0000 wB97X-D
 Using SG-2 standard quadrature grid
 Dispersion:   Grimme D
performing fock build before subrot guess so that all methods have access
Printing subrot_rss_gen Method Specification:
Occupied Subspace Method is 0
Virtual Subspace Method is 0
Energy of the unrelaxed supersystem initial determinant -996.113640075976
write pseudocanon occs and virts to disk
write pseudocanon orbital energies to disk
Tolerance of ortho_decomp_scf: 1.00e-06
GDM subspace size: 20
Beginning the Orthogonal Decomposition of the Initial Supersystem Wavefunction
    1    -995.9805501497      5.91e-02     ortho_decomp Preconditoned Steepest Descent
    2    -995.9953219646      9.27e-04     ortho_decomp BFGS Step
    3    -995.9953421808      6.94e-05     ortho_decomp BFGS Step
    4    -995.9953422478      2.78e-06     ortho_decomp BFGS Step
    5    -995.9953422479      8.90e-08     ortho_decomp 00000 Convergence criterion met
 Exchange:     0.2220 Hartree-Fock + 1.0000 wB97X-D + LR-HF
 Correlation:  1.0000 wB97X-D
 Using SG-2 standard quadrature grid
 Dispersion:   Grimme D
 Long-range K will be added via erf
 Coulomb attenuation parameter = 0.2 bohr**(-1)
 Exchange:     0.2220 Hartree-Fock + 1.0000 wB97X-D + LR-HF
 Correlation:  1.0000 wB97X-D
 Using SG-2 standard quadrature grid
 Dispersion:   Grimme D
 Long-range K will be added via erf
 Coulomb attenuation parameter = 0.2 bohr**(-1)
 Exchange:     0.2220 Hartree-Fock + 1.0000 wB97X-D + LR-HF
 Correlation:  1.0000 wB97X-D
 Using SG-2 standard quadrature grid
 Dispersion:   Grimme D
 Long-range K will be added via erf
 Coulomb attenuation parameter = 0.2 bohr**(-1)
Doing General SCFMI
 Exchange:     0.2220 Hartree-Fock + 1.0000 wB97X-D + LR-HF
 Correlation:  1.0000 wB97X-D
 Using SG-2 standard quadrature grid
 Dispersion:   Grimme D
performing fock build at end of subrot_r(subrot) constructor so that all methods have access
<S^2> of initial wavefunction before polarization iterations 0.0000000000
Beginning iterations for the determination of the polarized wavefunction
Energy prior to optimization (guess energy) = -996.113640075977
Begin Timing: Total SCF Calculation
begin iterations for algorithm: DIIS         
the SCF tolerance is set to 1.00e-08
    1    -996.1136400760      4.49e-04     00000 
    2    -996.1216500671      1.19e-04     00000 
    3    -996.1223307683      6.25e-05     00000 
    4    -996.1224448976      3.00e-05     00000 
    5    -996.1224704889      9.24e-06     00000 
    6    -996.1224740292      3.37e-06     00000 
    7    -996.1224743295      7.93e-07     00000 
    8    -996.1224743505      3.11e-07     00000 
    9    -996.1224743530      1.26e-07     00000 
   10    -996.1224743535      3.26e-08     00000 
   11    -996.1224743535      1.21e-08     00000 
   12    -996.1224743536      3.95e-09     00000 Convergence criterion met
write pseudocanon occs and virts to disk
write pseudocanon orbital energies to disk
Timing for Total SCF: 57.00s (wall), 456.73s (cpu)
<S^2> of polarized wavefunction after polarization iterations 0.0000000000
relaxing scfmi constraint to allow all rotations in the entire AO span
Doing General SCFMI
 Exchange:     0.2220 Hartree-Fock + 1.0000 wB97X-D + LR-HF
 Correlation:  1.0000 wB97X-D
 Using SG-2 standard quadrature grid
 Dispersion:   Grimme D
performing fock build at end of subrot_r(subrot) constructor so that all methods have access
<S^2> of polarized wavefunction before ct-allowed iterations 0.0000000000
Beginning iterations for the determination of the CT-Allowed wavefunction
Energy prior to optimization (guess energy) = -996.122474353554
Begin Timing: Total SCF Calculation
begin iterations for algorithm: DIIS         
the SCF tolerance is set to 1.00e-08
    1    -996.1224743536      5.56e-04     00000 
    2    -996.1462047202      1.17e-04     00000 
    3    -996.1473002661      7.24e-05     00000 
    4    -996.1474831232      2.08e-05     00000 
    5    -996.1475041489      4.68e-06     00000 
    6    -996.1475052659      1.42e-06     00000 
    7    -996.1475053714      5.01e-07     00000 
    8    -996.1475053826      1.82e-07     00000 
    9    -996.1475053839      3.54e-08     00000 
   10    -996.1475053840      1.26e-08     00000 
   11    -996.1475053840      4.14e-09     00000 Convergence criterion met
write pseudocanon occs and virts to disk
write pseudocanon orbital energies to disk
Timing for Total SCF: 56.00s (wall), 436.95s (cpu)
<S^2> of ct_allowed wavefunction after ct-allowed iterations 0.0000000000
Attempting to make child job directory: /scratch/user/peterli3819/peterli3819/12613586_1663277315000000687844016/qchem39531//FrgBSSE1/
Attempting to make child job directory: /scratch/user/peterli3819/peterli3819/12613586_1663277315000000687844016/qchem39531//FrgBSSE2/
Creating input file /scratch/user/peterli3819/peterli3819/12613586_1663277315000000687844016/qchem39531/FrgBSSE1.input
calling putenv with: QCSCRATCH=/scratch/user/peterli3819/peterli3819/12613586_1663277315000000687844016/qchem39531/ 
Spawning Job For Fragment 0
Done Job For Fragment 0
calling putenv with: QCSCRATCH=/scratch/user/peterli3819/peterli3819/12613586_1663277315000000687844016 
calling putenv with: QCTHREADS=8 
Creating input file /scratch/user/peterli3819/peterli3819/12613586_1663277315000000687844016/qchem39531/FrgBSSE2.input
calling putenv with: QCSCRATCH=/scratch/user/peterli3819/peterli3819/12613586_1663277315000000687844016/qchem39531/ 
Spawning Job For Fragment 1
Done Job For Fragment 1
calling putenv with: QCSCRATCH=/scratch/user/peterli3819/peterli3819/12613586_1663277315000000687844016 
calling putenv with: QCTHREADS=8 
====================================================================
   Evaluating the BSSE with fragment SCF in the supersystem basis
   Fragment contributions (kJ/mol) 
   Frgm 1: 13.9057
   Frgm 2: 11.2828
   BSSE (kJ/mol) = 25.1885
====================================================================

================================
        Results of EDA2         
================================
Basic EDA Quantities
--------------------
Fragment Energies (Ha):
1 -498.0503364053
2 -498.0575530152
--------------------
  E_prp (kJ/mol) = 0.0000
  E_frz (kJ/mol) = -15.0985
  E_pol (kJ/mol) = -23.1947
  E_vct (kJ/mol) = -40.5312 (CP-corrected)
  E_int (kJ/mol) = -78.8244 (CP-corrected)
--------------------


Decomposition of frozen interaction energy
--------------------
  --------------------
  Orthogonal Frozen Decomposition:
  --------------------
     E_elec   (ELEC)   (kJ/mol) = -223.2537
     E_pauli  (PAULI)  (kJ/mol) = 228.5685
     E_disp   (DISP)   (kJ/mol) = -20.4133
  --------------------
  Classical Frozen Decomposition:
  --------------------
     E_cls_elec  (CLS ELEC)  (kJ/mol) = -122.7257
     E_mod_pauli (MOD PAULI) (kJ/mol) = 128.0404 (FRZ - CLS ELEC - DISP)
     E_disp      (DISP)      (kJ/mol) = -20.4133
  --------------------
--------------------

Simplified EDA Summary (kJ/mol)
--------------------
 PREPARATION      0.0000
 FROZEN           -15.0985 (ELEC + PAULI + DISP)
[ELEC + PAULI = 5.3148, DISP = -20.4133]
 POLARIZATION    -23.1947
 CHARGE TRANSFER -40.5312     (counterpoise-corrected)
 TOTAL           -78.8244     (PRP + FRZ + POL + CT)
--------------------
 
 --------------------------------------------------------------
 
                    Orbital Energies (a.u.)
 --------------------------------------------------------------
 
 Alpha MOs
 -- Occupied --
-19.2706 -19.2694 -19.2642 -19.2625 -19.2590 -19.2584 -19.2581 -19.2569
-10.3586 -10.3566 -10.3556 -10.3529 -10.3500 -10.3500 -10.3472 -10.3460
-10.3198 -10.3149  -1.1501  -1.1433  -1.1340  -1.1270  -1.1216  -1.1124
 -1.1114  -1.1072  -0.9171  -0.9115  -0.7848  -0.7817  -0.7805  -0.7741
 -0.7716  -0.7658  -0.6852  -0.6823  -0.6451  -0.6366  -0.6320  -0.6255
 -0.6168  -0.6008  -0.5848  -0.5778  -0.5643  -0.5529  -0.5498  -0.5461
 -0.5436  -0.5335  -0.5255  -0.5191  -0.5098  -0.5024  -0.4960  -0.4930
 -0.4902  -0.4874  -0.4670  -0.4591  -0.4464  -0.4426  -0.4370  -0.4266
 -0.4210  -0.4150  -0.3896  -0.3867  -0.3645  -0.3632  -0.3595  -0.3537
 -0.3502  -0.3487
 -- Virtual --
  0.1079   0.1172   0.1325   0.1381   0.1432   0.1529   0.1570   0.1711
  0.1798   0.1916   0.1969   0.2004   0.2026   0.2066   0.2139   0.2159
  0.2223   0.2261   0.2352   0.2447   0.2486   0.2496   0.2579   0.2735
  0.2779   0.2860   0.2905   0.3002   0.3111   0.3173   0.3198   0.3253
  0.3290   0.3362   0.3455   0.3462   0.3587   0.3637   0.3951   0.3976
  0.4891   0.4994   0.5172   0.5271   0.5359   0.5464   0.5632   0.5703
  0.5781   0.5947   0.6050   0.6102   0.6170   0.6278   0.6362   0.6414
  0.6508   0.6549   0.6671   0.6720   0.6752   0.6840   0.6886   0.6952
  0.7076   0.7134   0.7177   0.7278   0.7360   0.7488   0.7569   0.7583
  0.7650   0.7686   0.7733   0.7755   0.7804   0.7867   0.7906   0.7963
  0.7993   0.8044   0.8112   0.8135   0.8249   0.8259   0.8326   0.8345
  0.8437   0.8813   0.8944   0.9081   0.9252   0.9561   0.9756   1.0007
  1.0067   1.0305   1.0705   1.0755   1.0862   1.0989   1.1164   1.1411
  1.1552   1.1701   1.1761   1.1777   1.1972   1.2154   1.2180   1.2402
  1.2478   1.2687   1.2732   1.2837   1.2888   1.3233   1.3288   1.3480
  1.3686   1.3752   1.3840   1.4071   1.4216   1.4463   1.4756   1.4860
  1.5073   1.5128   1.5454   1.5654   1.6122   1.6362   1.6551   1.6643
  1.6837   1.7003   1.7293   1.7540   1.7702   1.7778   1.8012   1.8149
  1.8397   1.8548   1.8656   1.8789   1.8900   1.8966   1.9010   1.9158
  1.9980   2.0092   2.0422   2.0471   2.0518   2.0631   2.0657   2.0712
  2.0842   2.1231   2.1423   2.1532   2.1545   2.1687   2.1921   2.1960
  2.2072   2.2116   2.2252   2.2279   2.2355   2.2409   2.2471   2.2645
  2.4917   2.5003   2.5047   2.5218   2.6056   2.6102   2.6600   2.6672
  2.6723   2.6918   2.7020   2.7082   2.7290   2.7369   2.7416   2.7495
  2.7511   2.7671   2.8741   2.8908   2.9065   2.9161   2.9198   2.9230
  2.9296   2.9299   3.0007   3.0184   3.0209   3.0289   3.0459   3.0548
  3.0763   3.0816   3.0887   3.0964   3.0977   3.1016   3.1114   3.1164
  3.1625   3.1816   3.4425   3.4542   3.4596   3.4691   3.4775   3.4897
  3.4956   3.5074
 --------------------------------------------------------------
 
          Ground-State Mulliken Net Atomic Charges

     Atom                 Charge (a.u.)
  ----------------------------------------
      1 O                    -0.519393
      2 C                     0.049869
      3 C                    -0.383880
      4 C                     0.052979
      5 O                    -0.528685
      6 C                     0.050983
      7 O                    -0.475719
      8 C                     0.070895
      9 O                    -0.533623
     10 H                     0.341769
     11 H                     0.099326
     12 H                     0.103847
     13 H                     0.122815
     14 H                     0.103078
     15 H                     0.343710
     16 H                     0.103803
     17 H                     0.115346
     18 H                     0.325547
     19 H                     0.123069
     20 H                     0.117287
     21 H                     0.343465
     22 O                    -0.514388
     23 C                     0.077154
     24 C                    -0.416642
     25 C                     0.060970
     26 O                    -0.517942
     27 C                     0.096578
     28 O                    -0.558268
     29 C                     0.041356
     30 O                    -0.515276
     31 H                     0.329800
     32 H                     0.108145
     33 H                     0.101048
     34 H                     0.114870
     35 H                     0.105305
     36 H                     0.329443
     37 H                     0.103404
     38 H                     0.105753
     39 H                     0.361888
     40 H                     0.099573
     41 H                     0.131126
     42 H                     0.329616
  ----------------------------------------
  Sum of atomic charges =     0.000000

 -----------------------------------------------------------------
                    Cartesian Multipole Moments
 -----------------------------------------------------------------
    Charge (ESU x 10^10)
                 0.0000
    Dipole Moment (Debye)
         X       1.9709      Y      -0.9203      Z       0.9572
       Tot       2.3765
    Quadrupole Moments (Debye-Ang)
        XX    -107.1972     XY      11.7276     YY    -119.9400
        XZ       2.4092     YZ       1.3832     ZZ    -114.2819
    Octopole Moments (Debye-Ang^2)
       XXX     125.8396    XXY      15.3517    XYY     -32.5592
       YYY     -16.7812    XXZ       5.4771    XYZ      -2.4925
       YYZ      -4.4749    XZZ       0.8246    YZZ      -4.0364
       ZZZ      -2.2189
    Hexadecapole Moments (Debye-Ang^3)
      XXXX   -5722.6744   XXXY     158.6133   XXYY   -1196.9772
      XYYY     -84.3234   YYYY   -1291.3312   XXXZ      -1.6546
      XXYZ     -42.1684   XYYZ      -2.7252   YYYZ      10.3285
      XXZZ   -1071.6363   XYZZ      48.4161   YYZZ    -357.0773
      XZZZ      -8.0262   YZZZ      -1.8935   ZZZZ    -766.3286
 -----------------------------------------------------------------
Archival summary:
1\1\tnxt-0465.cluster\SP\ProcedureUnspecified\BasisUnspecified\81024\peterli3\ThuSep1516:35:062022ThuSep1516:35:062022\0\\#,ProcedureUnspecified,BasisUnspecified,\\0,1\O\H,1,0.990679\C,1,1.40107,2,113.878\H,3,1.10359,1,106.281,2,175.875,0\H,3,1.10966,1,110.665,2,60.0541,0\C,3,1.53829,1,114.142,2,-63.6564,0\C,6,1.54127,3,109.291,1,-50.26,0\H,7,1.10405,6,109.639,3,-55.7171,0\H,7,1.10666,6,109.231,3,61.3539,0\O,7,1.41268,6,113.39,3,-174.735,0\H,10,0.976452,7,105.948,6,-58.1661,0\C,6,1.54203,3,107.685,1,-169.721,0\H,12,1.10431,6,109.77,3,-57.003,0\H,12,1.11006,6,109.301,3,60.3047,0\O,12,1.41047,6,113.409,3,-175.914,0\H,15,0.976808,12,105.923,6,-57.7442,0\C,6,1.54363,3,109.575,1,70.903,0\H,17,1.10256,6,110.505,3,-56.7075,0\H,17,1.11015,6,108.927,3,60.3672,0\O,17,1.41188,6,113.432,3,-176.045,0\H,20,0.97594,17,106,6,-59.0833,0\O,2,1.67469,1,158.246,3,162.12,0\H,22,0.983574,2,110.382,1,71.2224,0\C,22,1.41709,2,111.755,1,-47.822,0\H,24,1.1045,22,109.705,2,-156.668,0\H,24,1.10493,22,106.904,2,-40.8373,0\C,24,1.53993,22,114.731,2,80.9365,0\C,27,1.54153,24,109.979,22,55.0797,0\H,28,1.10396,27,110.057,24,58.6545,0\H,28,1.11061,27,109.382,24,176.673,0\O,28,1.41134,27,112.714,24,-59.8586,0\H,31,0.983119,28,104.889,27,-55.5704,0\C,27,1.54383,24,107.677,22,174.269,0\H,33,1.10394,27,108.961,24,62.9605,0\H,33,1.10953,27,108.996,24,179.16,0\O,33,1.40363,27,114.662,24,-55.6116,0\H,36,0.965529,33,109.686,27,-76.9924,0\C,27,1.54661,24,113.512,22,-67.9056,0\H,38,1.10622,27,108.064,24,-163.895,0\H,38,1.10736,27,109.362,24,-47.6591,0\O,38,1.40852,27,114.749,24,77.2502,0\H,41,0.983468,38,109.017,27,-96.2905,0\\\@

 Total job time:  371.80s(wall), 1786.16s(cpu) 
 Thu Sep 15 16:35:06 2022

        *************************************************************
        *                                                           *
        *  Thank you very much for using Q-Chem.  Have a nice day.  *
        *                                                           *
        *************************************************************


remove work dirs /scratch/user/peterli3819/peterli3819/12613586_1663277315000000687844016/qchem39531.0 -- /scratch/user/peterli3819/peterli3819/12613586_1663277315000000687844016/qchem39531.-1
rm -rf /scratch/user/peterli3819/peterli3819/12613586_1663277315000000687844016/qchem39531
real 389.22
user 2708.18
sys 52.51
