 Entering Gaussian System, Link 0=g16
 Input=gaussian_test.inp
 Output=gaussian_test.log
 Initial command:
 /sw/restricted/lms/sw/Gaussian/g16_B01/g16/l1.exe "/scratch/user/peterchao1/peterchao1/8625189_1689033230000000813182620/Gau-119185.inp" -scrdir="/scratch/user/peterchao1/peterchao1/8625189_1689033230000000813182620/"
 Entering Link 1 = /sw/restricted/lms/sw/Gaussian/g16_B01/g16/l1.exe PID=    119188.
  
 Copyright (c) 1988-2017, Gaussian, Inc.  All Rights Reserved.
  
 This is part of the Gaussian(R) 16 program.  It is based on
 the Gaussian(R) 09 system (copyright 2009, Gaussian, Inc.),
 the Gaussian(R) 03 system (copyright 2003, Gaussian, Inc.),
 the Gaussian(R) 98 system (copyright 1998, Gaussian, Inc.),
 the Gaussian(R) 94 system (copyright 1995, Gaussian, Inc.),
 the Gaussian 92(TM) system (copyright 1992, Gaussian, Inc.),
 the Gaussian 90(TM) system (copyright 1990, Gaussian, Inc.),
 the Gaussian 88(TM) system (copyright 1988, Gaussian, Inc.),
 the Gaussian 86(TM) system (copyright 1986, Carnegie Mellon
 University), and the Gaussian 82(TM) system (copyright 1983,
 Carnegie Mellon University). Gaussian is a federally registered
 trademark of Gaussian, Inc.
  
 This software contains proprietary and confidential information,
 including trade secrets, belonging to Gaussian, Inc.
  
 This software is provided under written license and may be
 used, copied, transmitted, or stored only in accord with that
 written license.
  
 The following legend is applicable only to US Government
 contracts under FAR:
  
                    RESTRICTED RIGHTS LEGEND
  
 Use, reproduction and disclosure by the US Government is
 subject to restrictions as set forth in subparagraphs (a)
 and (c) of the Commercial Computer Software - Restricted
 Rights clause in FAR 52.227-19.
  
 Gaussian, Inc.
 340 Quinnipiac St., Bldg. 40, Wallingford CT 06492
  
  
 ---------------------------------------------------------------
 Warning -- This program may not be used in any manner that
 competes with the business of Gaussian, Inc. or will provide
 assistance to any competitor of Gaussian, Inc.  The licensee
 of this program is prohibited from giving any competitor of
 Gaussian, Inc. access to this program.  By using this program,
 the user acknowledges that Gaussian, Inc. is engaged in the
 business of creating and licensing software in the field of
 computational chemistry and represents and warrants to the
 licensee that it is not a competitor of Gaussian, Inc. and that
 it will not use this program in any manner prohibited above.
 ---------------------------------------------------------------
  

 Cite this work as:
 Gaussian 16, Revision B.01,
 M. J. Frisch, G. W. Trucks, H. B. Schlegel, G. E. Scuseria, 
 M. A. Robb, J. R. Cheeseman, G. Scalmani, V. Barone, 
 G. A. Petersson, H. Nakatsuji, X. Li, M. Caricato, A. V. Marenich, 
 J. Bloino, B. G. Janesko, R. Gomperts, B. Mennucci, H. P. Hratchian, 
 J. V. Ortiz, A. F. Izmaylov, J. L. Sonnenberg, D. Williams-Young, 
 F. Ding, F. Lipparini, F. Egidi, J. Goings, B. Peng, A. Petrone, 
 T. Henderson, D. Ranasinghe, V. G. Zakrzewski, J. Gao, N. Rega, 
 G. Zheng, W. Liang, M. Hada, M. Ehara, K. Toyota, R. Fukuda, 
 J. Hasegawa, M. Ishida, T. Nakajima, Y. Honda, O. Kitao, H. Nakai, 
 T. Vreven, K. Throssell, J. A. Montgomery, Jr., J. E. Peralta, 
 F. Ogliaro, M. J. Bearpark, J. J. Heyd, E. N. Brothers, K. N. Kudin, 
 V. N. Staroverov, T. A. Keith, R. Kobayashi, J. Normand, 
 K. Raghavachari, A. P. Rendell, J. C. Burant, S. S. Iyengar, 
 J. Tomasi, M. Cossi, J. M. Millam, M. Klene, C. Adamo, R. Cammi, 
 J. W. Ochterski, R. L. Martin, K. Morokuma, O. Farkas, 
 J. B. Foresman, and D. J. Fox, Gaussian, Inc., Wallingford CT, 2016.
 
 ******************************************
 Gaussian 16:  ES64L-G16RevB.01 20-Dec-2017
                10-Jul-2023 
 ******************************************
 %chk=43.chk
 %nprocshared=4
 Will use up to    4 processors via shared memory.
 %mem=8000mb
 ----------------------------------------------------------------------
 #T wB97XD/def2svpp opt=(calcall,tight) int(grid=ultrafine) scf=(veryti
 ght,qc)
 ----------------------------------------------------------------------
 --------------
 Comment gs min
 --------------
 Symbolic Z-matrix:
 Charge =  0 Multiplicity = 1
 C                    -0.00014  -0.0001    1.91059 
 C                    -0.00001   0.        0.4094 
 N                     0.7502   -1.19921  -0.1649 
 O                     0.52429  -2.24668   0.3815 
 O                     1.47318  -0.99425  -1.10114 
 N                    -1.41367  -0.05007  -0.16498 
 O                    -1.59749  -0.77832  -1.10153 
 O                    -2.20799   0.66893   0.38169 
 N                     0.66351   1.24931  -0.16478 
 O                     1.6837    1.57719   0.38155 
 O                     0.12446   1.77324  -1.10083 
 H                    -0.49825  -0.91184   2.27074 
 H                    -0.54073   0.88704   2.27095 
 H                     1.0384    0.0243    2.27108 
 

 GradGradGradGradGradGradGradGradGradGradGradGradGradGradGradGradGradGrad
 Initialization pass.
                           ----------------------------
                           !    Initial Parameters    !
                           ! (Angstroms and Degrees)  !
 --------------------------                            --------------------------
 ! Name  Definition              Value          Derivative Info.                !
 --------------------------------------------------------------------------------
 ! R1    R(1,2)                  1.5012         calculate D2E/DX2 analytically  !
 ! R2    R(1,12)                 1.0996         calculate D2E/DX2 analytically  !
 ! R3    R(1,13)                 1.0996         calculate D2E/DX2 analytically  !
 ! R4    R(1,14)                 1.0996         calculate D2E/DX2 analytically  !
 ! R5    R(2,3)                  1.5267         calculate D2E/DX2 analytically  !
 ! R6    R(2,6)                  1.5267         calculate D2E/DX2 analytically  !
 ! R7    R(2,9)                  1.5267         calculate D2E/DX2 analytically  !
 ! R8    R(3,4)                  1.2028         calculate D2E/DX2 analytically  !
 ! R9    R(3,5)                  1.2005         calculate D2E/DX2 analytically  !
 ! R10   R(6,7)                  1.2005         calculate D2E/DX2 analytically  !
 ! R11   R(6,8)                  1.2028         calculate D2E/DX2 analytically  !
 ! R12   R(9,10)                 1.2028         calculate D2E/DX2 analytically  !
 ! R13   R(9,11)                 1.2005         calculate D2E/DX2 analytically  !
 ! A1    A(2,1,12)             109.1246         calculate D2E/DX2 analytically  !
 ! A2    A(2,1,13)             109.1299         calculate D2E/DX2 analytically  !
 ! A3    A(2,1,14)             109.1325         calculate D2E/DX2 analytically  !
 ! A4    A(12,1,13)            109.8107         calculate D2E/DX2 analytically  !
 ! A5    A(12,1,14)            109.8079         calculate D2E/DX2 analytically  !
 ! A6    A(13,1,14)            109.8152         calculate D2E/DX2 analytically  !
 ! A7    A(1,2,3)              112.0964         calculate D2E/DX2 analytically  !
 ! A8    A(1,2,6)              112.0948         calculate D2E/DX2 analytically  !
 ! A9    A(1,2,9)              112.0981         calculate D2E/DX2 analytically  !
 ! A10   A(3,2,6)              106.7216         calculate D2E/DX2 analytically  !
 ! A11   A(3,2,9)              106.7229         calculate D2E/DX2 analytically  !
 ! A12   A(6,2,9)              106.7251         calculate D2E/DX2 analytically  !
 ! A13   A(2,3,4)              114.8903         calculate D2E/DX2 analytically  !
 ! A14   A(2,3,5)              117.0773         calculate D2E/DX2 analytically  !
 ! A15   A(4,3,5)              128.0274         calculate D2E/DX2 analytically  !
 ! A16   A(2,6,7)              117.0761         calculate D2E/DX2 analytically  !
 ! A17   A(2,6,8)              114.891          calculate D2E/DX2 analytically  !
 ! A18   A(7,6,8)              128.0279         calculate D2E/DX2 analytically  !
 ! A19   A(2,9,10)             114.8895         calculate D2E/DX2 analytically  !
 ! A20   A(2,9,11)             117.0791         calculate D2E/DX2 analytically  !
 ! A21   A(10,9,11)            128.0264         calculate D2E/DX2 analytically  !
 ! D1    D(12,1,2,3)           -60.675          calculate D2E/DX2 analytically  !
 ! D2    D(12,1,2,6)            59.3217         calculate D2E/DX2 analytically  !
 ! D3    D(12,1,2,9)           179.3242         calculate D2E/DX2 analytically  !
 ! D4    D(13,1,2,3)           179.3278         calculate D2E/DX2 analytically  !
 ! D5    D(13,1,2,6)           -60.6755         calculate D2E/DX2 analytically  !
 ! D6    D(13,1,2,9)            59.327          calculate D2E/DX2 analytically  !
 ! D7    D(14,1,2,3)            59.3204         calculate D2E/DX2 analytically  !
 ! D8    D(14,1,2,6)           179.3171         calculate D2E/DX2 analytically  !
 ! D9    D(14,1,2,9)           -60.6804         calculate D2E/DX2 analytically  !
 ! D10   D(1,2,3,4)             43.2035         calculate D2E/DX2 analytically  !
 ! D11   D(1,2,3,5)           -137.5459         calculate D2E/DX2 analytically  !
 ! D12   D(6,2,3,4)            -79.8791         calculate D2E/DX2 analytically  !
 ! D13   D(6,2,3,5)             99.3715         calculate D2E/DX2 analytically  !
 ! D14   D(9,2,3,4)            166.2912         calculate D2E/DX2 analytically  !
 ! D15   D(9,2,3,5)            -14.4582         calculate D2E/DX2 analytically  !
 ! D16   D(1,2,6,7)           -137.5606         calculate D2E/DX2 analytically  !
 ! D17   D(1,2,6,8)             43.1876         calculate D2E/DX2 analytically  !
 ! D18   D(3,2,6,7)            -14.4769         calculate D2E/DX2 analytically  !
 ! D19   D(3,2,6,8)            166.2712         calculate D2E/DX2 analytically  !
 ! D20   D(9,2,6,7)             99.3512         calculate D2E/DX2 analytically  !
 ! D21   D(9,2,6,8)            -79.9006         calculate D2E/DX2 analytically  !
 ! D22   D(1,2,9,10)            43.2237         calculate D2E/DX2 analytically  !
 ! D23   D(1,2,9,11)          -137.521          calculate D2E/DX2 analytically  !
 ! D24   D(3,2,9,10)           -79.863          calculate D2E/DX2 analytically  !
 ! D25   D(3,2,9,11)            99.3923         calculate D2E/DX2 analytically  !
 ! D26   D(6,2,9,10)           166.3098         calculate D2E/DX2 analytically  !
 ! D27   D(6,2,9,11)           -14.4349         calculate D2E/DX2 analytically  !
 --------------------------------------------------------------------------------
 Number of steps in this run=     71 maximum allowed number of steps=    100.
 GradGradGradGradGradGradGradGradGradGradGradGradGradGradGradGradGradGrad

                    Distance matrix (angstroms):
                    1          2          3          4          5
     1  C    0.000000
     2  C    1.501188   0.000000
     3  N    2.511675   1.526674   0.000000
     4  O    2.767723   2.307218   1.202821   0.000000
     5  O    3.497074   2.332501   1.200527   2.160368   0.000000
     6  N    2.511681   1.526709   2.450063   2.979832   3.178323
     7  O    3.497146   2.332520   2.562432   2.976138   3.078251
     8  O    2.767626   2.307251   3.541123   3.995766   4.303015
     9  N    2.511693   1.526664   2.450048   3.541147   2.562396
    10  O    2.767867   2.307197   2.979664   3.995771   2.975732
    11  O    3.496982   2.332519   3.178511   4.303124   3.078638
    12  H    1.099589   2.131730   2.752001   2.529153   3.906774
    13  H    1.099597   2.131803   3.457208   3.811105   4.355009
    14  H    1.099593   2.131833   2.741169   2.998698   3.549414
                    6          7          8          9         10
     6  N    0.000000
     7  O    1.200528   0.000000
     8  O    1.202812   2.160365   0.000000
     9  N    2.450112   3.178193   2.980097   0.000000
    10  O    3.541233   4.302808   3.996270   1.202817   0.000000
    11  O    2.562436   3.078235   2.976178   1.200531   2.160357
    12  H    2.741049   3.549415   2.998429   3.457165   3.811190
    13  H    2.752081   3.906892   2.529160   2.741210   2.999038
    14  H    3.457240   4.355064   3.811085   2.752192   2.529456
                   11         12         13         14
    11  O    0.000000
    12  H    4.354867   0.000000
    13  H    3.549189   1.799382   0.000000
    14  H    3.906892   1.799347   1.799434   0.000000
 Framework group  C1[X(C2H3N3O6)]
 Deg. of freedom    36
                         Standard orientation:                         
 ---------------------------------------------------------------------
 Center     Atomic      Atomic             Coordinates (Angstroms)
 Number     Number       Type             X           Y           Z
 ---------------------------------------------------------------------
      1          6           0        0.000136    0.000097    1.910590
      2          6           0        0.000009   -0.000004    0.409402
      3          7           0       -0.751091    1.198646   -0.164898
      4          8           0       -0.525967    2.246288    0.381495
      5          8           0       -1.473918    0.993148   -1.101144
      6          7           0        1.413627    0.051125   -0.164977
      7          8           0        1.596910    0.779512   -1.101528
      8          8           0        2.208487   -0.667284    0.381688
      9          7           0       -0.662580   -1.249802   -0.164780
     10          8           0       -1.682523   -1.578442    0.381552
     11          8           0       -0.123131   -1.773327   -1.100831
     12          1           0        0.497565    0.912212    2.270738
     13          1           0        0.541390   -0.886636    2.270954
     14          1           0       -1.038383   -0.025080    2.271075
 ---------------------------------------------------------------------
 Rotational constants (GHZ):           1.3491870           1.3490985           1.0224249
   160 basis functions,   287 primitive gaussians,   171 cartesian basis functions
    42 alpha electrons       42 beta electrons
       nuclear repulsion energy       706.1148242214 Hartrees.
 NAtoms=   14 NActive=   14 NUniq=   14 SFac= 1.00D+00 NAtFMM=   60 NAOKFM=F Big=F
 Nuclear repulsion after empirical dispersion term =      706.1073923825 Hartrees.
   1 Symmetry operations used in ECPInt.
 ECPInt:  NShTT=    2628 NPrTT=   10592 LenC2=    2581 LenP2D=    7847.
 LDataN:  DoStor=T MaxTD1= 4 Len=   56
 ExpMin= 1.22D-01 ExpMax= 2.27D+03 ExpMxC= 3.41D+02 IAcc=3 IRadAn=         5 AccDes= 0.00D+00
 Harris functional with IExCor= 4639 and IRadAn=       5 diagonalized for initial guess.
 HarFok:  IExCor= 4639 AccDes= 0.00D+00 IRadAn=         5 IDoV= 1 UseB2=F ITyADJ=14
 ICtDFT=  3500011 ScaDFX=  1.000000  1.000000  1.000000  1.000000
 FoFCou: FMM=F IPFlag=           0 FMFlag=      100000 FMFlg1=           0
         NFxFlg=           0 DoJE=T BraDBF=F KetDBF=T FulRan=T
         wScrn=  0.000000 ICntrl=       500 IOpCl=  0 I1Cent=   200000004 NGrid=           0
         NMat0=    1 NMatS0=      1 NMatT0=    0 NMatD0=    1 NMtDS0=    0 NMtDT0=    0
 Petite list used in FoFCou.
     Accept linear search using points  1 and  2.
     Accept linear search using points  1 and  2.
     Accept linear search using points  1 and  2.
     Minimum is close to point  2 DX= -3.59D-04 DF= -4.55D-12 DXR=  3.59D-04 DFR=  1.29D-07 which will be used.
 SCF Done:  E(RwB97XD) =  -692.541067876     a.u. after    9 cycles
            Convg  =    0.5680D-09                    44 Fock formations.
              S**2 =  0.0000                  -V/T =  2.0064
 DoSCS=F DFT=T ScalE2(SS,OS)=  1.000000  1.000000
 NROrb=    160 NOA=    42 NOB=    42 NVA=   118 NVB=   118

 **** Warning!!: The largest alpha MO coefficient is  0.10037426D+02

   1 Symmetry operations used in ECPInt.
 ECPInt:  NShTT=    2628 NPrTT=   10592 LenC2=    2581 LenP2D=    7847.
 LDataN:  DoStor=T MaxTD1= 5 Len=  102
 Symmetrizing basis deriv contribution to polar:
 IMax=3 JMax=2 DiffMx= 0.00D+00
 Calling FoFCou, ICntrl=  3107 FMM=F I1Cent=   0 AccDes= 0.00D+00.
 End of G2Drv F.D. properties file   721 does not exist.
 End of G2Drv F.D. properties file   722 does not exist.
 End of G2Drv F.D. properties file   788 does not exist.
          IDoAtm=11111111111111
 End of Minotr F.D. properties file   721 does not exist.
 End of Minotr F.D. properties file   722 does not exist.
 End of Minotr F.D. properties file   788 does not exist.

 **********************************************************************

            Population analysis using the SCF Density.

 **********************************************************************

 Orbital symmetries:
       Occupied  (A) (A) (A) (A) (A) (A) (A) (A) (A) (A) (A) (A)
                 (A) (A) (A) (A) (A) (A) (A) (A) (A) (A) (A) (A)
                 (A) (A) (A) (A) (A) (A) (A) (A) (A) (A) (A) (A)
                 (A) (A) (A) (A) (A) (A)
       Virtual   (A) (A) (A) (A) (A) (A) (A) (A) (A) (A) (A) (A)
                 (A) (A) (A) (A) (A) (A) (A) (A) (A) (A) (A) (A)
                 (A) (A) (A) (A) (A) (A) (A) (A) (A) (A) (A) (A)
                 (A) (A) (A) (A) (A) (A) (A) (A) (A) (A) (A) (A)
                 (A) (A) (A) (A) (A) (A) (A) (A) (A) (A) (A) (A)
                 (A) (A) (A) (A) (A) (A) (A) (A) (A) (A) (A) (A)
                 (A) (A) (A) (A) (A) (A) (A) (A) (A) (A) (A) (A)
                 (A) (A) (A) (A) (A) (A) (A) (A) (A) (A) (A) (A)
                 (A) (A) (A) (A) (A) (A) (A) (A) (A) (A) (A) (A)
                 (A) (A) (A) (A) (A) (A) (A) (A) (A) (A)
 The electronic state is 1-A.
 Alpha  occ. eigenvalues --  -19.34556 -19.34549 -19.34548 -19.34403 -19.34403
 Alpha  occ. eigenvalues --  -19.34402 -14.74333 -14.74333 -14.74331 -10.49535
 Alpha  occ. eigenvalues --  -10.36071  -1.41325  -1.39127  -1.39127  -1.22431
 Alpha  occ. eigenvalues --   -1.22431  -1.22343  -1.04400  -0.86939  -0.85079
 Alpha  occ. eigenvalues --   -0.85077  -0.71644  -0.71644  -0.71248  -0.68669
 Alpha  occ. eigenvalues --   -0.67302  -0.67301  -0.65247  -0.65025  -0.65024
 Alpha  occ. eigenvalues --   -0.59071  -0.55892  -0.55891  -0.47273  -0.46023
 Alpha  occ. eigenvalues --   -0.45029  -0.45029  -0.44309  -0.44308  -0.43726
 Alpha  occ. eigenvalues --   -0.43043  -0.43043
 Alpha virt. eigenvalues --   -0.04739  -0.04739  -0.03773   0.12582   0.12585
 Alpha virt. eigenvalues --    0.13470   0.19054   0.19980   0.19980   0.22710
 Alpha virt. eigenvalues --    0.32691   0.32734   0.32734   0.43336   0.43339
 Alpha virt. eigenvalues --    0.44839   0.49008   0.50244   0.50249   0.54723
 Alpha virt. eigenvalues --    0.55690   0.55693   0.65934   0.65936   0.66226
 Alpha virt. eigenvalues --    0.71420   0.73967   0.73968   0.77000   0.77222
 Alpha virt. eigenvalues --    0.77225   0.79146   0.88185   0.90345   0.90349
 Alpha virt. eigenvalues --    0.94650   0.95480   0.95481   0.96491   0.96492
 Alpha virt. eigenvalues --    0.97166   0.99322   1.04485   1.04488   1.07049
 Alpha virt. eigenvalues --    1.07055   1.08705   1.11872   1.12423   1.12428
 Alpha virt. eigenvalues --    1.16885   1.18905   1.19709   1.19714   1.26774
 Alpha virt. eigenvalues --    1.26776   1.36326   1.40998   1.40999   1.49207
 Alpha virt. eigenvalues --    1.49942   1.49947   1.70370   1.70374   1.74144
 Alpha virt. eigenvalues --    1.80088   1.80092   1.81286   1.81288   1.82694
 Alpha virt. eigenvalues --    1.89435   2.03514   2.03517   2.14787   2.15370
 Alpha virt. eigenvalues --    2.15374   2.33070   2.33636   2.33639   2.38854
 Alpha virt. eigenvalues --    2.41666   2.41669   2.50238   2.50241   2.52866
 Alpha virt. eigenvalues --    2.56390   2.61967   2.61970   2.64732   2.64733
 Alpha virt. eigenvalues --    2.67118   2.68478   2.68480   2.72400   2.72403
 Alpha virt. eigenvalues --    2.72493   2.78630   2.80323   2.85429   2.85430
 Alpha virt. eigenvalues --    3.08509   3.10387   3.10389   3.20413   3.24491
 Alpha virt. eigenvalues --    3.24496   3.36772   3.37086   3.37086   3.42991
 Alpha virt. eigenvalues --    3.47911   3.47913   3.76293   3.76296   3.78762
 Alpha virt. eigenvalues --    3.85465   3.86666   3.86667
          Condensed to atoms (all electrons):
 Mulliken charges:
               1
     1  C   -0.252984
     2  C    0.130846
     3  N    0.241559
     4  O   -0.197687
     5  O   -0.187992
     6  N    0.241545
     7  O   -0.187992
     8  O   -0.197669
     9  N    0.241567
    10  O   -0.197670
    11  O   -0.188014
    12  H    0.184822
    13  H    0.184838
    14  H    0.184831
 Sum of Mulliken charges =   0.00000
 Mulliken charges with hydrogens summed into heavy atoms:
               1
     1  C    0.301508
     2  C    0.130846
     3  N    0.241559
     4  O   -0.197687
     5  O   -0.187992
     6  N    0.241545
     7  O   -0.187992
     8  O   -0.197669
     9  N    0.241567
    10  O   -0.197670
    11  O   -0.188014
 APT charges:
               1
     1  C   -0.124733
     2  C    0.314962
     3  N    0.995495
     4  O   -0.587826
     5  O   -0.553860
     6  N    0.995829
     7  O   -0.553918
     8  O   -0.587946
     9  N    0.995558
    10  O   -0.587803
    11  O   -0.553810
    12  H    0.082719
    13  H    0.082575
    14  H    0.082759
 Sum of APT charges =   0.00000
 APT charges with hydrogens summed into heavy atoms:
               1
     1  C    0.123319
     2  C    0.314962
     3  N    0.995495
     4  O   -0.587826
     5  O   -0.553860
     6  N    0.995829
     7  O   -0.553918
     8  O   -0.587946
     9  N    0.995558
    10  O   -0.587803
    11  O   -0.553810
 Electronic spatial extent (au):  <R**2>=           1287.4565
 Charge=              0.0000 electrons
 Dipole moment (field-independent basis, Debye):
    X=              0.0003    Y=              0.0001    Z=              3.6255  Tot=              3.6255
  Exact polarizability:  57.698  -0.004  57.691   0.000   0.003  61.292
 Approx polarizability:  75.385  -0.005  75.367   0.005   0.005  86.442
   1 Symmetry operations used in ECPInt.
 ECPInt:  NShTT=    2628 NPrTT=   10592 LenC2=    2581 LenP2D=    7847.
 LDataN:  DoStor=T MaxTD1= 6 Len=  172
 Calling FoFJK, ICntrl=    100127 FMM=F ISym2X=0 I1Cent= 0 IOpClX= 0 NMat=1 NMatS=1 NMatT=0.
 FormGI is forming the generalized inverse of G from B-inverse, IUseBI=4.

 GradGradGradGradGradGradGradGradGradGradGradGradGradGradGradGradGradGrad
 Internal  Forces:  Max     0.000014166 RMS     0.000004951
 Step number   1 out of a maximum of   71
 All quantities printed in internal units (Hartrees-Bohrs-Radians)
 Mixed Optimization -- En-DIIS/RFO-DIIS
 Second derivative matrix not updated -- analytic derivatives used.
 ITU=  0
     Eigenvalues ---    0.00158   0.00160   0.00326   0.00905   0.04488
     Eigenvalues ---    0.04501   0.05533   0.05539   0.07350   0.07956
     Eigenvalues ---    0.07958   0.08578   0.13310   0.15011   0.15047
     Eigenvalues ---    0.18335   0.18355   0.19381   0.19401   0.23764
     Eigenvalues ---    0.26721   0.27536   0.27594   0.32813   0.35420
     Eigenvalues ---    0.35469   0.35471   0.39228   0.39239   0.41209
     Eigenvalues ---    0.74013   0.74184   0.74184   0.92052   0.92058
     Eigenvalues ---    0.93214
 Linear search not attempted -- first point.
 Iteration  1 RMS(Cart)=  0.00029665 RMS(Int)=  0.00000008
 Iteration  2 RMS(Cart)=  0.00000008 RMS(Int)=  0.00000000
 Variable       Old X    -DE/DX   Delta X   Delta X   Delta X     New X
                                 (Linear)    (Quad)   (Total)
    R1        2.83683  -0.00000   0.00000   0.00000   0.00000   2.83684
    R2        2.07792   0.00000   0.00000   0.00001   0.00001   2.07793
    R3        2.07794   0.00000   0.00000   0.00001   0.00001   2.07795
    R4        2.07793  -0.00000   0.00000  -0.00001  -0.00001   2.07792
    R5        2.88500   0.00000   0.00000   0.00002   0.00002   2.88502
    R6        2.88506  -0.00001   0.00000  -0.00003  -0.00003   2.88503
    R7        2.88498   0.00001   0.00000   0.00002   0.00002   2.88500
    R8        2.27300   0.00000   0.00000   0.00001   0.00001   2.27301
    R9        2.26867  -0.00001   0.00000  -0.00001  -0.00001   2.26865
   R10        2.26867  -0.00000   0.00000   0.00001   0.00001   2.26868
   R11        2.27299   0.00001   0.00000   0.00001   0.00001   2.27299
   R12        2.27299  -0.00000   0.00000  -0.00000  -0.00000   2.27299
   R13        2.26867  -0.00000   0.00000  -0.00000  -0.00000   2.26867
    A1        1.90458  -0.00000   0.00000  -0.00001  -0.00001   1.90458
    A2        1.90468  -0.00001   0.00000  -0.00005  -0.00005   1.90462
    A3        1.90472   0.00000   0.00000   0.00001   0.00001   1.90473
    A4        1.91656   0.00000   0.00000   0.00003   0.00003   1.91659
    A5        1.91651  -0.00000   0.00000  -0.00003  -0.00003   1.91648
    A6        1.91664   0.00000   0.00000   0.00005   0.00005   1.91668
    A7        1.95645  -0.00001   0.00000   0.00002   0.00002   1.95647
    A8        1.95642   0.00000   0.00000  -0.00002  -0.00002   1.95640
    A9        1.95648   0.00001   0.00000   0.00000   0.00000   1.95648
   A10        1.86264   0.00000   0.00000  -0.00000  -0.00000   1.86264
   A11        1.86267   0.00001   0.00000   0.00002   0.00002   1.86268
   A12        1.86270  -0.00001   0.00000  -0.00002  -0.00002   1.86269
   A13        2.00521  -0.00001   0.00000  -0.00000  -0.00000   2.00521
   A14        2.04338   0.00001   0.00000   0.00002   0.00002   2.04340
   A15        2.23450  -0.00001   0.00000  -0.00002  -0.00002   2.23448
   A16        2.04336   0.00000   0.00000  -0.00001  -0.00001   2.04335
   A17        2.00523   0.00000   0.00000   0.00003   0.00003   2.00526
   A18        2.23451  -0.00000   0.00000  -0.00002  -0.00002   2.23449
   A19        2.00520   0.00001   0.00000  -0.00000  -0.00000   2.00520
   A20        2.04342  -0.00000   0.00000   0.00002   0.00002   2.04343
   A21        2.23448  -0.00001   0.00000  -0.00001  -0.00001   2.23447
    D1       -1.05898   0.00000   0.00000   0.00013   0.00013  -1.05884
    D2        1.03536   0.00000   0.00000   0.00013   0.00013   1.03549
    D3        3.12980  -0.00000   0.00000   0.00010   0.00010   3.12989
    D4        3.12986   0.00000   0.00000   0.00014   0.00014   3.13000
    D5       -1.05899   0.00000   0.00000   0.00013   0.00013  -1.05885
    D6        1.03545  -0.00000   0.00000   0.00010   0.00010   1.03555
    D7        1.03534   0.00000   0.00000   0.00010   0.00010   1.03544
    D8        3.12967   0.00000   0.00000   0.00010   0.00010   3.12978
    D9       -1.05907  -0.00001   0.00000   0.00006   0.00006  -1.05901
   D10        0.75404  -0.00001   0.00000  -0.00052  -0.00052   0.75353
   D11       -2.40063  -0.00000   0.00000  -0.00051  -0.00051  -2.40114
   D12       -1.39415  -0.00001   0.00000  -0.00050  -0.00050  -1.39465
   D13        1.73436   0.00000   0.00000  -0.00049  -0.00049   1.73387
   D14        2.90233   0.00000   0.00000  -0.00049  -0.00049   2.90184
   D15       -0.25234   0.00001   0.00000  -0.00048  -0.00048  -0.25282
   D16       -2.40088   0.00001   0.00000   0.00009   0.00009  -2.40079
   D17        0.75377   0.00000   0.00000  -0.00001  -0.00001   0.75376
   D18       -0.25267  -0.00000   0.00000   0.00011   0.00011  -0.25256
   D19        2.90198  -0.00001   0.00000   0.00000   0.00000   2.90198
   D20        1.73401   0.00000   0.00000   0.00012   0.00012   1.73412
   D21       -1.39453  -0.00000   0.00000   0.00002   0.00002  -1.39451
   D22        0.75440   0.00000   0.00000   0.00065   0.00065   0.75505
   D23       -2.40019   0.00000   0.00000   0.00070   0.00070  -2.39950
   D24       -1.39387   0.00000   0.00000   0.00061   0.00061  -1.39326
   D25        1.73472   0.00000   0.00000   0.00066   0.00066   1.73538
   D26        2.90265   0.00000   0.00000   0.00061   0.00061   2.90326
   D27       -0.25194   0.00000   0.00000   0.00066   0.00066  -0.25128
         Item               Value     Threshold  Converged?
 Maximum Force            0.000014     0.000015     YES
 RMS     Force            0.000005     0.000010     YES
 Maximum Displacement     0.000867     0.000060     NO 
 RMS     Displacement     0.000297     0.000040     NO 
 GradGradGradGradGradGradGradGradGradGradGradGradGradGradGradGradGradGrad

                    Distance matrix (angstroms):
                    1          2          3          4          5
     1  C    0.000000
     2  C    1.501188   0.000000
     3  N    2.511703   1.526685   0.000000
     4  O    2.767562   2.307228   1.202824   0.000000
     5  O    3.497248   2.332520   1.200520   2.160355   0.000000
     6  N    2.511647   1.526692   2.450058   2.980092   3.178088
     7  O    3.497089   2.332502   2.562395   2.976483   3.077861
     8  O    2.767610   2.307260   3.541136   3.995991   4.302842
     9  N    2.511704   1.526676   2.450082   3.541127   2.562531
    10  O    2.768119   2.307203   2.979373   3.995336   2.975545
    11  O    3.496799   2.332539   3.178872   4.303493   3.079145
    12  H    1.099593   2.131727   2.751963   2.528956   3.906818
    13  H    1.099601   2.131767   3.457209   3.810965   4.355143
    14  H    1.099588   2.131839   2.741256   2.998451   3.549791
                    6          7          8          9         10
     6  N    0.000000
     7  O    1.200533   0.000000
     8  O    1.202815   2.160361   0.000000
     9  N    2.450092   3.178227   2.980090   0.000000
    10  O    3.541276   4.302742   3.996519   1.202815   0.000000
    11  O    2.562335   3.078446   2.975808   1.200530   2.160349
    12  H    2.741068   3.549355   2.998502   3.457177   3.811354
    13  H    2.751938   3.906740   2.529008   2.741218   2.999557
    14  H    3.457213   4.355040   3.811053   2.752181   2.529619
                   11         12         13         14
    11  O    0.000000
    12  H    4.354747   0.000000
    13  H    3.548767   1.799408   0.000000
    14  H    3.906761   1.799330   1.799463   0.000000
 Framework group  C1[X(C2H3N3O6)]
 Deg. of freedom    36
                         Standard orientation:                         
 ---------------------------------------------------------------------
 Center     Atomic      Atomic             Coordinates (Angstroms)
 Number     Number       Type             X           Y           Z
 ---------------------------------------------------------------------
      1          6           0        0.000167    0.000212    1.910583
      2          6           0        0.000017    0.000007    0.409394
      3          7           0       -1.272022    0.618789   -0.164881
      4          8           0       -1.636308    1.626346    0.381845
      5          8           0       -1.776011    0.061880   -1.101415
      6          7           0        1.171893    0.792163   -0.165047
      7          8           0        0.941441    1.507107   -1.101543
      8          8           0        2.226667    0.603914    0.381561
      9          7           0        0.100074   -1.411052   -0.164751
     10          8           0       -0.591397   -2.229931    0.381204
     11          8           0        0.835443   -1.569514   -1.100377
     12          1           0       -0.061200    1.037353    2.270691
     13          1           0        0.929066   -0.465059    2.270849
     14          1           0       -0.867257   -0.571329    2.271154
 ---------------------------------------------------------------------
 Rotational constants (GHZ):           1.3492306           1.3490669           1.0223985
   160 basis functions,   287 primitive gaussians,   171 cartesian basis functions
    42 alpha electrons       42 beta electrons
       nuclear repulsion energy       706.1135680858 Hartrees.
 NAtoms=   14 NActive=   14 NUniq=   14 SFac= 1.00D+00 NAtFMM=   60 NAOKFM=F Big=F
 Nuclear repulsion after empirical dispersion term =      706.1061362929 Hartrees.
   1 Symmetry operations used in ECPInt.
 ECPInt:  NShTT=    2628 NPrTT=   10592 LenC2=    2581 LenP2D=    7847.
 LDataN:  DoStor=T MaxTD1= 4 Len=   56
 Initial guess from the checkpoint file:  "43.chk"
 B after Tr=     0.000000   -0.000000    0.000000
         Rot=    0.961293   -0.000004    0.000018   -0.275527 Ang= -31.99 deg.
     Accept linear search using points  1 and  2.
     Minimum is close to point  2 DX= -1.31D-07 DF=  0.00D+00 DXR=  1.31D-07 DFR=  0.00D+00 which will be used.
 SCF Done:  E(RwB97XD) =  -692.541065644     a.u. after    2 cycles
            Convg  =    0.9038D-07                    15 Fock formations.
              S**2 =  0.0000                  -V/T =  2.0064
 DoSCS=F DFT=T ScalE2(SS,OS)=  1.000000  1.000000
 NROrb=    160 NOA=    42 NOB=    42 NVA=   118 NVB=   118

 **** Warning!!: The largest alpha MO coefficient is  0.10033387D+02

   1 Symmetry operations used in ECPInt.
 ECPInt:  NShTT=    2628 NPrTT=   10592 LenC2=    2581 LenP2D=    7847.
 LDataN:  DoStor=T MaxTD1= 5 Len=  102
 Symmetrizing basis deriv contribution to polar:
 IMax=3 JMax=2 DiffMx= 0.00D+00
 Calling FoFCou, ICntrl=  3107 FMM=F I1Cent=   0 AccDes= 0.00D+00.
 End of G2Drv F.D. properties file   721 does not exist.
 End of G2Drv F.D. properties file   722 does not exist.
 End of G2Drv F.D. properties file   788 does not exist.
          IDoAtm=11111111111111
 End of Minotr F.D. properties file   721 does not exist.
 End of Minotr F.D. properties file   722 does not exist.
 End of Minotr F.D. properties file   788 does not exist.
   1 Symmetry operations used in ECPInt.
 ECPInt:  NShTT=    2628 NPrTT=   10592 LenC2=    2581 LenP2D=    7847.
 LDataN:  DoStor=T MaxTD1= 6 Len=  172
 Calling FoFJK, ICntrl=    100127 FMM=F ISym2X=0 I1Cent= 0 IOpClX= 0 NMat=1 NMatS=1 NMatT=0.
 FormGI is forming the generalized inverse of G from B-inverse, IUseBI=4.

 GradGradGradGradGradGradGradGradGradGradGradGradGradGradGradGradGradGrad
 Using GEDIIS/GDIIS optimizer.
 Internal  Forces:  Max     0.000031055 RMS     0.000011099
 Step number   2 out of a maximum of   71
 All quantities printed in internal units (Hartrees-Bohrs-Radians)
 Mixed Optimization -- En-DIIS/RFO-DIIS
 Swapping is turned off.
 Second derivative matrix not updated -- analytic derivatives used.
 Trust test=-3.04D+02 RLast= 2.04D-03 DXMaxT set to 1.50D-01
 ITU= -1  0
     Eigenvalues ---    0.00159   0.00160   0.00321   0.00906   0.04485
     Eigenvalues ---    0.04497   0.05524   0.05536   0.07348   0.07955
     Eigenvalues ---    0.07957   0.08582   0.13303   0.15011   0.15035
     Eigenvalues ---    0.18328   0.18338   0.19372   0.19382   0.23738
     Eigenvalues ---    0.26690   0.27502   0.27543   0.32811   0.35416
     Eigenvalues ---    0.35461   0.35472   0.39201   0.39225   0.41193
     Eigenvalues ---    0.74014   0.74182   0.74191   0.92061   0.92070
     Eigenvalues ---    0.93225
 En-DIIS/RFO-DIIS/Sim-DIIS IScMMF=       -3 using points:     2    1
 RFO step:  Lambda=-7.57209839D-08.
 DidBck=F Rises=T En-DIIS coefs:    1.00000    0.00000
 Iteration  1 RMS(Cart)=  0.00055450 RMS(Int)=  0.00000021
 Iteration  2 RMS(Cart)=  0.00000022 RMS(Int)=  0.00000000
 Variable       Old X    -DE/DX   Delta X   Delta X   Delta X     New X
                                 (Linear)    (Quad)   (Total)
    R1        2.83684   0.00001   0.00000   0.00004   0.00004   2.83687
    R2        2.07793  -0.00001   0.00000  -0.00001  -0.00001   2.07792
    R3        2.07795  -0.00001   0.00000  -0.00001  -0.00001   2.07794
    R4        2.07792   0.00000   0.00000   0.00001   0.00001   2.07793
    R5        2.88502   0.00002   0.00000   0.00003   0.00003   2.88505
    R6        2.88503  -0.00000   0.00000  -0.00004  -0.00004   2.88499
    R7        2.88500  -0.00001   0.00000  -0.00002  -0.00002   2.88498
    R8        2.27301  -0.00001   0.00000  -0.00002  -0.00002   2.27299
    R9        2.26865   0.00001   0.00000   0.00002   0.00002   2.26868
   R10        2.26868  -0.00001   0.00000  -0.00002  -0.00002   2.26865
   R11        2.27299  -0.00000   0.00000   0.00001   0.00001   2.27300
   R12        2.27299   0.00001   0.00000   0.00001   0.00001   2.27300
   R13        2.26867  -0.00000   0.00000  -0.00000  -0.00000   2.26867
    A1        1.90458   0.00003   0.00000   0.00024   0.00024   1.90482
    A2        1.90462   0.00001   0.00000   0.00001   0.00001   1.90463
    A3        1.90473  -0.00001   0.00000  -0.00004  -0.00004   1.90470
    A4        1.91659  -0.00002   0.00000  -0.00020  -0.00020   1.91639
    A5        1.91648  -0.00000   0.00000   0.00010   0.00010   1.91659
    A6        1.91668  -0.00000   0.00000  -0.00012  -0.00012   1.91656
    A7        1.95647   0.00003   0.00000   0.00006   0.00006   1.95653
    A8        1.95640  -0.00001   0.00000   0.00002   0.00002   1.95642
    A9        1.95648  -0.00002   0.00000  -0.00011  -0.00011   1.95637
   A10        1.86264  -0.00001   0.00000  -0.00001  -0.00001   1.86264
   A11        1.86268  -0.00001   0.00000  -0.00002  -0.00002   1.86267
   A12        1.86269   0.00002   0.00000   0.00006   0.00006   1.86275
   A13        2.00521   0.00003   0.00000   0.00002   0.00002   2.00523
   A14        2.04340  -0.00001   0.00000   0.00001   0.00001   2.04341
   A15        2.23448  -0.00002   0.00000  -0.00003  -0.00003   2.23446
   A16        2.04335  -0.00000   0.00000   0.00002   0.00002   2.04337
   A17        2.00526   0.00000   0.00000  -0.00002  -0.00002   2.00523
   A18        2.23449   0.00000   0.00000   0.00001   0.00001   2.23450
   A19        2.00520  -0.00000   0.00000   0.00003   0.00003   2.00523
   A20        2.04343  -0.00001   0.00000  -0.00006  -0.00006   2.04337
   A21        2.23447   0.00001   0.00000   0.00003   0.00003   2.23450
    D1       -1.05884  -0.00001   0.00000  -0.00109  -0.00109  -1.05993
    D2        1.03549  -0.00001   0.00000  -0.00104  -0.00104   1.03445
    D3        3.12989  -0.00000   0.00000  -0.00103  -0.00103   3.12887
    D4        3.13000  -0.00001   0.00000  -0.00100  -0.00100   3.12900
    D5       -1.05885  -0.00001   0.00000  -0.00095  -0.00095  -1.05981
    D6        1.03555   0.00000   0.00000  -0.00094  -0.00094   1.03461
    D7        1.03544  -0.00000   0.00000  -0.00084  -0.00084   1.03460
    D8        3.12978   0.00000   0.00000  -0.00079  -0.00079   3.12898
    D9       -1.05901   0.00001   0.00000  -0.00077  -0.00077  -1.05978
   D10        0.75353   0.00001   0.00000   0.00084   0.00084   0.75436
   D11       -2.40114   0.00001   0.00000   0.00089   0.00089  -2.40025
   D12       -1.39465   0.00001   0.00000   0.00078   0.00078  -1.39388
   D13        1.73387   0.00000   0.00000   0.00084   0.00084   1.73470
   D14        2.90184  -0.00000   0.00000   0.00072   0.00072   2.90256
   D15       -0.25282  -0.00001   0.00000   0.00077   0.00077  -0.25205
   D16       -2.40079  -0.00001   0.00000  -0.00030  -0.00030  -2.40109
   D17        0.75376  -0.00001   0.00000  -0.00018  -0.00018   0.75358
   D18       -0.25256   0.00001   0.00000  -0.00022  -0.00022  -0.25279
   D19        2.90198   0.00001   0.00000  -0.00010  -0.00010   2.90189
   D20        1.73412  -0.00000   0.00000  -0.00022  -0.00022   1.73391
   D21       -1.39451   0.00000   0.00000  -0.00009  -0.00009  -1.39461
   D22        0.75505   0.00000   0.00000  -0.00067  -0.00067   0.75437
   D23       -2.39950   0.00001   0.00000  -0.00066  -0.00066  -2.40016
   D24       -1.39326  -0.00001   0.00000  -0.00066  -0.00066  -1.39392
   D25        1.73538  -0.00001   0.00000  -0.00065  -0.00065   1.73473
   D26        2.90326  -0.00000   0.00000  -0.00067  -0.00067   2.90259
   D27       -0.25128   0.00000   0.00000  -0.00067  -0.00067  -0.25194
         Item               Value     Threshold  Converged?
 Maximum Force            0.000031     0.000015     NO 
 RMS     Force            0.000011     0.000010     NO 
 Maximum Displacement     0.001734     0.000060     NO 
 RMS     Displacement     0.000555     0.000040     NO 
 GradGradGradGradGradGradGradGradGradGradGradGradGradGradGradGradGradGrad

                    Distance matrix (angstroms):
                    1          2          3          4          5
     1  C    0.000000
     2  C    1.501209   0.000000
     3  N    2.511781   1.526701   0.000000
     4  O    2.767983   2.307248   1.202816   0.000000
     5  O    3.497076   2.332550   1.200533   2.160345   0.000000
     6  N    2.511664   1.526672   2.450049   2.979684   3.178500
     7  O    3.497189   2.332485   2.562421   2.975951   3.078494
     8  O    2.767537   2.307228   3.541115   3.995621   4.303190
     9  N    2.511618   1.526668   2.450072   3.541194   2.562415
    10  O    2.767769   2.307222   2.979733   3.995932   2.975681
    11  O    3.496892   2.332489   3.178507   4.303081   3.078742
    12  H    1.099587   2.131919   2.752769   2.530233   3.907470
    13  H    1.099596   2.131790   3.457267   3.811480   4.354834
    14  H    1.099594   2.131835   2.740930   2.998487   3.549081
                    6          7          8          9         10
     6  N    0.000000
     7  O    1.200520   0.000000
     8  O    1.202819   2.160358   0.000000
     9  N    2.450128   3.178160   2.980165   0.000000
    10  O    3.541243   4.302794   3.996306   1.202819   0.000000
    11  O    2.562438   3.078158   2.976263   1.200528   2.160366
    12  H    2.740827   3.549494   2.997708   3.457222   3.811338
    13  H    2.752417   3.907265   2.529573   2.740686   2.998225
    14  H    3.457204   4.354957   3.811147   2.752404   2.529748
                   11         12         13         14
    11  O    0.000000
    12  H    4.354781   0.000000
    13  H    3.548755   1.799271   0.000000
    14  H    3.907102   1.799395   1.799386   0.000000
 Framework group  C1[X(C2H3N3O6)]
 Deg. of freedom    36
                         Standard orientation:                         
 ---------------------------------------------------------------------
 Center     Atomic      Atomic             Coordinates (Angstroms)
 Number     Number       Type             X           Y           Z
 ---------------------------------------------------------------------
      1          6           0        0.000124    0.000015    1.910584
      2          6           0        0.000027    0.000017    0.409376
      3          7           0       -0.536195    1.308980   -0.164991
      4          8           0       -0.135912    2.303084    0.381174
      5          8           0       -1.283713    1.229438   -1.101030
      6          7           0        1.401716   -0.190099   -0.164951
      7          8           0        1.706225    0.496366   -1.101589
      8          8           0        2.062805   -1.033176    0.381819
      9          7           0       -0.865560   -1.118853   -0.164735
     10          8           0       -1.926525   -1.269195    0.381639
     11          8           0       -0.423024   -1.726551   -1.100756
     12          1           0        0.646176    0.813513    2.271040
     13          1           0        0.381805   -0.966230    2.270865
     14          1           0       -1.027450    0.152605    2.271022
 ---------------------------------------------------------------------
 Rotational constants (GHZ):           1.3491976           1.3490856           1.0224009
   160 basis functions,   287 primitive gaussians,   171 cartesian basis functions
    42 alpha electrons       42 beta electrons
       nuclear repulsion energy       706.1123747461 Hartrees.
 NAtoms=   14 NActive=   14 NUniq=   14 SFac= 1.00D+00 NAtFMM=   60 NAOKFM=F Big=F
 Nuclear repulsion after empirical dispersion term =      706.1049424741 Hartrees.
   1 Symmetry operations used in ECPInt.
 ECPInt:  NShTT=    2628 NPrTT=   10592 LenC2=    2581 LenP2D=    7847.
 LDataN:  DoStor=T MaxTD1= 4 Len=   56
 Initial guess from the checkpoint file:  "43.chk"
 B after Tr=     0.000000    0.000000    0.000000
         Rot=    0.934257    0.000026   -0.000018    0.356600 Ang=  41.78 deg.
     Accept linear search using points  1 and  2.
     Minimum is close to point  2 DX= -3.53D-07 DF=  0.00D+00 DXR=  3.53D-07 DFR=  0.00D+00 which will be used.
 SCF Done:  E(RwB97XD) =  -692.541068472     a.u. after    2 cycles
            Convg  =    0.1434D-06                    16 Fock formations.
              S**2 =  0.0000                  -V/T =  2.0064
 DoSCS=F DFT=T ScalE2(SS,OS)=  1.000000  1.000000
 NROrb=    160 NOA=    42 NOB=    42 NVA=   118 NVB=   118

 **** Warning!!: The largest alpha MO coefficient is  0.10050879D+02

   1 Symmetry operations used in ECPInt.
 ECPInt:  NShTT=    2628 NPrTT=   10592 LenC2=    2581 LenP2D=    7847.
 LDataN:  DoStor=T MaxTD1= 5 Len=  102
 Symmetrizing basis deriv contribution to polar:
 IMax=3 JMax=2 DiffMx= 0.00D+00
 Calling FoFCou, ICntrl=  3107 FMM=F I1Cent=   0 AccDes= 0.00D+00.
 End of G2Drv F.D. properties file   721 does not exist.
 End of G2Drv F.D. properties file   722 does not exist.
 End of G2Drv F.D. properties file   788 does not exist.
          IDoAtm=11111111111111
 End of Minotr F.D. properties file   721 does not exist.
 End of Minotr F.D. properties file   722 does not exist.
 End of Minotr F.D. properties file   788 does not exist.
   1 Symmetry operations used in ECPInt.
 ECPInt:  NShTT=    2628 NPrTT=   10592 LenC2=    2581 LenP2D=    7847.
 LDataN:  DoStor=T MaxTD1= 6 Len=  172
 Calling FoFJK, ICntrl=    100127 FMM=F ISym2X=0 I1Cent= 0 IOpClX= 0 NMat=1 NMatS=1 NMatT=0.
 FormGI is forming the generalized inverse of G from B-inverse, IUseBI=4.

 GradGradGradGradGradGradGradGradGradGradGradGradGradGradGradGradGradGrad
 Using GEDIIS/GDIIS optimizer.
 Internal  Forces:  Max     0.000029762 RMS     0.000011211
 Step number   3 out of a maximum of   71
 All quantities printed in internal units (Hartrees-Bohrs-Radians)
 Mixed Optimization -- En-DIIS/RFO-DIIS
 Swapping is turned off.
 Second derivative matrix not updated -- analytic derivatives used.
 Trust test= 7.47D+01 RLast= 3.87D-03 DXMaxT set to 1.50D-01
 ITU=  1 -1  0
     Eigenvalues ---    0.00157   0.00160   0.00298   0.00905   0.04458
     Eigenvalues ---    0.04480   0.05489   0.05528   0.07346   0.07953
     Eigenvalues ---    0.07956   0.08579   0.13251   0.14840   0.14977
     Eigenvalues ---    0.18308   0.18332   0.19344   0.19380   0.23747
     Eigenvalues ---    0.26637   0.27402   0.27492   0.32759   0.35395
     Eigenvalues ---    0.35439   0.35453   0.39168   0.39193   0.41149
     Eigenvalues ---    0.74031   0.74199   0.74207   0.92081   0.92091
     Eigenvalues ---    0.93246
 En-DIIS/RFO-DIIS/Sim-DIIS IScMMF=       -3 using points:     3    2    1
 RFO step:  Lambda=-6.90783836D-08.
 DidBck=T Rises=F RFO-DIIS coefs:    0.24057    0.15060    0.60883
 Iteration  1 RMS(Cart)=  0.00028792 RMS(Int)=  0.00000006
 Iteration  2 RMS(Cart)=  0.00000006 RMS(Int)=  0.00000000
 Variable       Old X    -DE/DX   Delta X   Delta X   Delta X     New X
                                 (Linear)    (Quad)   (Total)
    R1        2.83687   0.00000  -0.00003   0.00001  -0.00002   2.83685
    R2        2.07792   0.00000   0.00000   0.00000   0.00001   2.07793
    R3        2.07794  -0.00001   0.00000  -0.00000  -0.00000   2.07794
    R4        2.07793   0.00001  -0.00000   0.00000  -0.00000   2.07793
    R5        2.88505  -0.00000  -0.00004   0.00001  -0.00002   2.88502
    R6        2.88499   0.00001   0.00005  -0.00004   0.00001   2.88501
    R7        2.88498  -0.00001  -0.00000   0.00002   0.00002   2.88500
    R8        2.27299  -0.00000   0.00001  -0.00000   0.00001   2.27300
    R9        2.26868  -0.00001  -0.00001  -0.00001  -0.00001   2.26866
   R10        2.26865   0.00001   0.00001   0.00000   0.00002   2.26867
   R11        2.27300  -0.00001  -0.00001   0.00000  -0.00001   2.27299
   R12        2.27300  -0.00001  -0.00000  -0.00000  -0.00001   2.27299
   R13        2.26867   0.00001   0.00000  -0.00000   0.00000   2.26867
    A1        1.90482  -0.00000  -0.00018   0.00004  -0.00014   1.90468
    A2        1.90463   0.00003   0.00002   0.00002   0.00005   1.90468
    A3        1.90470  -0.00001   0.00002  -0.00003  -0.00001   1.90468
    A4        1.91639  -0.00000   0.00013   0.00002   0.00015   1.91654
    A5        1.91659   0.00001  -0.00006   0.00000  -0.00006   1.91653
    A6        1.91656  -0.00002   0.00006  -0.00005   0.00001   1.91657
    A7        1.95653  -0.00002  -0.00006  -0.00003  -0.00008   1.95645
    A8        1.95642   0.00003  -0.00000   0.00003   0.00003   1.95645
    A9        1.95637  -0.00001   0.00009  -0.00003   0.00005   1.95642
   A10        1.86264  -0.00000   0.00000   0.00002   0.00003   1.86266
   A11        1.86267   0.00002   0.00000   0.00003   0.00003   1.86270
   A12        1.86275  -0.00001  -0.00004  -0.00002  -0.00006   1.86269
   A13        2.00523  -0.00001  -0.00001  -0.00000  -0.00002   2.00521
   A14        2.04341  -0.00000  -0.00002   0.00001  -0.00001   2.04341
   A15        2.23446   0.00001   0.00003  -0.00001   0.00002   2.23448
   A16        2.04337  -0.00000  -0.00001   0.00000  -0.00001   2.04337
   A17        2.00523   0.00002   0.00000   0.00002   0.00002   2.00525
   A18        2.23450  -0.00002   0.00001  -0.00002  -0.00001   2.23449
   A19        2.00523  -0.00002  -0.00002   0.00000  -0.00002   2.00521
   A20        2.04337   0.00002   0.00004   0.00000   0.00004   2.04341
   A21        2.23450   0.00000  -0.00002  -0.00000  -0.00002   2.23448
    D1       -1.05993   0.00000   0.00075  -0.00016   0.00059  -1.05934
    D2        1.03445   0.00001   0.00071  -0.00012   0.00059   1.03504
    D3        3.12887   0.00000   0.00072  -0.00015   0.00057   3.12943
    D4        3.12900  -0.00001   0.00068  -0.00021   0.00046   3.12946
    D5       -1.05981  -0.00001   0.00064  -0.00018   0.00046  -1.05935
    D6        1.03461  -0.00001   0.00065  -0.00021   0.00044   1.03505
    D7        1.03460   0.00000   0.00057  -0.00015   0.00043   1.03503
    D8        3.12898   0.00000   0.00054  -0.00011   0.00043   3.12941
    D9       -1.05978  -0.00000   0.00055  -0.00015   0.00040  -1.05938
   D10        0.75436   0.00001  -0.00032  -0.00013  -0.00045   0.75391
   D11       -2.40025   0.00001  -0.00037  -0.00011  -0.00047  -2.40072
   D12       -1.39388  -0.00001  -0.00029  -0.00017  -0.00045  -1.39433
   D13        1.73470  -0.00001  -0.00033  -0.00015  -0.00048   1.73422
   D14        2.90256  -0.00001  -0.00025  -0.00016  -0.00041   2.90215
   D15       -0.25205  -0.00001  -0.00029  -0.00014  -0.00044  -0.25249
   D16       -2.40109   0.00000   0.00017   0.00013   0.00030  -2.40079
   D17        0.75358   0.00000   0.00014   0.00008   0.00022   0.75380
   D18       -0.25279  -0.00001   0.00011   0.00014   0.00024  -0.25255
   D19        2.90189  -0.00001   0.00007   0.00008   0.00016   2.90204
   D20        1.73391   0.00001   0.00009   0.00017   0.00026   1.73417
   D21       -1.39461   0.00001   0.00006   0.00012   0.00018  -1.39443
   D22        0.75437  -0.00002   0.00011   0.00003   0.00014   0.75451
   D23       -2.40016  -0.00002   0.00008   0.00004   0.00012  -2.40004
   D24       -1.39392   0.00000   0.00013   0.00006   0.00019  -1.39374
   D25        1.73473   0.00001   0.00009   0.00007   0.00016   1.73489
   D26        2.90259   0.00000   0.00014   0.00003   0.00017   2.90276
   D27       -0.25194   0.00000   0.00011   0.00004   0.00014  -0.25180
         Item               Value     Threshold  Converged?
 Maximum Force            0.000030     0.000015     NO 
 RMS     Force            0.000011     0.000010     NO 
 Maximum Displacement     0.000791     0.000060     NO 
 RMS     Displacement     0.000288     0.000040     NO 
 GradGradGradGradGradGradGradGradGradGradGradGradGradGradGradGradGradGrad

                    Distance matrix (angstroms):
                    1          2          3          4          5
     1  C    0.000000
     2  C    1.501198   0.000000
     3  N    2.511692   1.526689   0.000000
     4  O    2.767686   2.307229   1.202820   0.000000
     5  O    3.497126   2.332529   1.200525   2.160353   0.000000
     6  N    2.511686   1.526679   2.450071   2.979938   3.178279
     7  O    3.497124   2.332495   2.562422   2.976235   3.078188
     8  O    2.767672   2.307244   3.541150   3.995890   4.302987
     9  N    2.511662   1.526676   2.450099   3.541170   2.562508
    10  O    2.767867   2.307213   2.979650   3.995691   2.975792
    11  O    3.496912   2.332523   3.178638   4.303252   3.078840
    12  H    1.099591   2.131808   2.752267   2.529440   3.907054
    13  H    1.099596   2.131815   3.457225   3.811162   4.354993
    14  H    1.099593   2.131815   2.741008   2.998352   3.549359
                    6          7          8          9         10
     6  N    0.000000
     7  O    1.200529   0.000000
     8  O    1.202816   2.160357   0.000000
     9  N    2.450082   3.178243   2.980029   0.000000
    10  O    3.541217   4.302831   3.996259   1.202816   0.000000
    11  O    2.562384   3.078354   2.975992   1.200529   2.160354
    12  H    2.741001   3.549377   2.998296   3.457193   3.811277
    13  H    2.752270   3.907065   2.529450   2.740984   2.998754
    14  H    3.457216   4.354967   3.811168   2.752258   2.529585
                   11         12         13         14
    11  O    0.000000
    12  H    4.354818   0.000000
    13  H    3.548937   1.799371   0.000000
    14  H    3.906937   1.799361   1.799394   0.000000
 Framework group  C1[X(C2H3N3O6)]
 Deg. of freedom    36
                         Standard orientation:                         
 ---------------------------------------------------------------------
 Center     Atomic      Atomic             Coordinates (Angstroms)
 Number     Number       Type             X           Y           Z
 ---------------------------------------------------------------------
      1          6           0        0.000079    0.000176    1.910574
      2          6           0        0.000016    0.000032    0.409376
      3          7           0       -1.250381    0.661452   -0.164917
      4          8           0       -1.580213    1.680928    0.381576
      5          8           0       -1.773112    0.121690   -1.101223
      6          7           0        1.198013    0.752104   -0.165029
      7          8           0        0.991901    1.474445   -1.101518
      8          8           0        2.245810    0.528243    0.381572
      9          7           0        0.052340   -1.413615   -0.164735
     10          8           0       -0.666028   -2.208778    0.381552
     11          8           0        0.781560   -1.596714   -1.100675
     12          1           0       -0.025727    1.038759    2.270824
     13          1           0        0.912423   -0.496692    2.270938
     14          1           0       -0.886416   -0.541404    2.271021
 ---------------------------------------------------------------------
 Rotational constants (GHZ):           1.3491783           1.3491001           1.0224030
   160 basis functions,   287 primitive gaussians,   171 cartesian basis functions
    42 alpha electrons       42 beta electrons
       nuclear repulsion energy       706.1126729636 Hartrees.
 NAtoms=   14 NActive=   14 NUniq=   14 SFac= 1.00D+00 NAtFMM=   60 NAOKFM=F Big=F
 Nuclear repulsion after empirical dispersion term =      706.1052409244 Hartrees.
   1 Symmetry operations used in ECPInt.
 ECPInt:  NShTT=    2628 NPrTT=   10592 LenC2=    2581 LenP2D=    7847.
 LDataN:  DoStor=T MaxTD1= 4 Len=   56
 Initial guess from the checkpoint file:  "43.chk"
 B after Tr=    -0.000000    0.000000   -0.000000
         Rot=    0.940152   -0.000020   -0.000001   -0.340755 Ang= -39.85 deg.
     Accept linear search using points  1 and  2.
     Minimum is close to point  2 DX= -5.37D-07 DF=  0.00D+00 DXR=  5.37D-07 DFR=  0.00D+00 which will be used.
 SCF Done:  E(RwB97XD) =  -692.541067816     a.u. after    2 cycles
            Convg  =    0.3740D-07                    15 Fock formations.
              S**2 =  0.0000                  -V/T =  2.0064
 DoSCS=F DFT=T ScalE2(SS,OS)=  1.000000  1.000000
 NROrb=    160 NOA=    42 NOB=    42 NVA=   118 NVB=   118

 **** Warning!!: The largest alpha MO coefficient is  0.10043767D+02

   1 Symmetry operations used in ECPInt.
 ECPInt:  NShTT=    2628 NPrTT=   10592 LenC2=    2581 LenP2D=    7847.
 LDataN:  DoStor=T MaxTD1= 5 Len=  102
 Symmetrizing basis deriv contribution to polar:
 IMax=3 JMax=2 DiffMx= 0.00D+00
 Calling FoFCou, ICntrl=  3107 FMM=F I1Cent=   0 AccDes= 0.00D+00.
 End of G2Drv F.D. properties file   721 does not exist.
 End of G2Drv F.D. properties file   722 does not exist.
 End of G2Drv F.D. properties file   788 does not exist.
          IDoAtm=11111111111111
 End of Minotr F.D. properties file   721 does not exist.
 End of Minotr F.D. properties file   722 does not exist.
 End of Minotr F.D. properties file   788 does not exist.
   1 Symmetry operations used in ECPInt.
 ECPInt:  NShTT=    2628 NPrTT=   10592 LenC2=    2581 LenP2D=    7847.
 LDataN:  DoStor=T MaxTD1= 6 Len=  172
 Calling FoFJK, ICntrl=    100127 FMM=F ISym2X=0 I1Cent= 0 IOpClX= 0 NMat=1 NMatS=1 NMatT=0.
 FormGI is forming the generalized inverse of G from B-inverse, IUseBI=4.

 GradGradGradGradGradGradGradGradGradGradGradGradGradGradGradGradGradGrad
 Using GEDIIS/GDIIS optimizer.
 Internal  Forces:  Max     0.000015530 RMS     0.000006531
 Step number   4 out of a maximum of   71
 All quantities printed in internal units (Hartrees-Bohrs-Radians)
 Mixed Optimization -- En-DIIS/RFO-DIIS
 Swapping is turned off.
 Second derivative matrix not updated -- analytic derivatives used.
 Trust test=-1.36D+02 RLast= 1.98D-03 DXMaxT set to 7.50D-02
 ITU= -1  1 -1  0
     Eigenvalues ---    0.00158   0.00160   0.00326   0.00905   0.04488
     Eigenvalues ---    0.04501   0.05533   0.05539   0.07349   0.07955
     Eigenvalues ---    0.07958   0.08577   0.13309   0.15009   0.15047
     Eigenvalues ---    0.18333   0.18355   0.19381   0.19400   0.23764
     Eigenvalues ---    0.26717   0.27532   0.27591   0.32812   0.35420
     Eigenvalues ---    0.35469   0.35471   0.39227   0.39238   0.41208
     Eigenvalues ---    0.74013   0.74184   0.74184   0.92052   0.92059
     Eigenvalues ---    0.93215
 En-DIIS/RFO-DIIS/Sim-DIIS IScMMF=       -3 using points:     4    3    2    1
 RFO step:  Lambda=-3.93464698D-08.
 DidBck=F Rises=T En-DIIS coefs:    1.00000    0.00000    0.00000    0.00000
 Iteration  1 RMS(Cart)=  0.00052616 RMS(Int)=  0.00000022
 Iteration  2 RMS(Cart)=  0.00000023 RMS(Int)=  0.00000000
 Variable       Old X    -DE/DX   Delta X   Delta X   Delta X     New X
                                 (Linear)    (Quad)   (Total)
    R1        2.83685  -0.00001   0.00000  -0.00002  -0.00002   2.83684
    R2        2.07793  -0.00000   0.00000  -0.00000  -0.00000   2.07792
    R3        2.07794  -0.00000   0.00000  -0.00000  -0.00000   2.07793
    R4        2.07793   0.00001   0.00000   0.00001   0.00001   2.07794
    R5        2.88502   0.00000   0.00000  -0.00002  -0.00002   2.88500
    R6        2.88501  -0.00000   0.00000   0.00001   0.00001   2.88502
    R7        2.88500  -0.00001   0.00000   0.00003   0.00003   2.88503
    R8        2.27300  -0.00000   0.00000  -0.00001  -0.00001   2.27299
    R9        2.26866   0.00000   0.00000   0.00001   0.00001   2.26867
   R10        2.26867  -0.00000   0.00000  -0.00002  -0.00002   2.26865
   R11        2.27299   0.00000   0.00000   0.00002   0.00002   2.27301
   R12        2.27299   0.00001   0.00000  -0.00000  -0.00000   2.27299
   R13        2.26867   0.00000   0.00000   0.00001   0.00001   2.26868
    A1        1.90468   0.00001   0.00000   0.00006   0.00006   1.90474
    A2        1.90468  -0.00001   0.00000  -0.00010  -0.00010   1.90458
    A3        1.90468  -0.00001   0.00000  -0.00006  -0.00006   1.90462
    A4        1.91654  -0.00000   0.00000  -0.00006  -0.00006   1.91648
    A5        1.91653   0.00001   0.00000   0.00015   0.00015   1.91668
    A6        1.91657   0.00001   0.00000   0.00001   0.00001   1.91659
    A7        1.95645   0.00002   0.00000   0.00004   0.00004   1.95648
    A8        1.95645  -0.00001   0.00000   0.00002   0.00002   1.95647
    A9        1.95642  -0.00001   0.00000  -0.00003  -0.00003   1.95640
   A10        1.86266   0.00000   0.00000   0.00002   0.00002   1.86268
   A11        1.86270  -0.00001   0.00000  -0.00001  -0.00001   1.86269
   A12        1.86269   0.00001   0.00000  -0.00004  -0.00004   1.86265
   A13        2.00521   0.00001   0.00000  -0.00001  -0.00001   2.00520
   A14        2.04341  -0.00001   0.00000   0.00003   0.00003   2.04343
   A15        2.23448  -0.00001   0.00000  -0.00001  -0.00001   2.23447
   A16        2.04337   0.00001   0.00000   0.00004   0.00004   2.04340
   A17        2.00525  -0.00001   0.00000  -0.00004  -0.00004   2.00521
   A18        2.23449   0.00000   0.00000  -0.00000  -0.00000   2.23448
   A19        2.00521  -0.00001   0.00000   0.00005   0.00005   2.00525
   A20        2.04341  -0.00000   0.00000  -0.00005  -0.00005   2.04336
   A21        2.23448   0.00001   0.00000   0.00001   0.00001   2.23449
    D1       -1.05934  -0.00001   0.00000   0.00031   0.00031  -1.05903
    D2        1.03504  -0.00000   0.00000   0.00038   0.00038   1.03542
    D3        3.12943   0.00000   0.00000   0.00032   0.00032   3.12976
    D4        3.12946  -0.00000   0.00000   0.00041   0.00041   3.12987
    D5       -1.05935   0.00000   0.00000   0.00048   0.00048  -1.05887
    D6        1.03505   0.00000   0.00000   0.00042   0.00042   1.03547
    D7        1.03503   0.00000   0.00000   0.00050   0.00050   1.03553
    D8        3.12941   0.00001   0.00000   0.00056   0.00056   3.12997
    D9       -1.05938   0.00001   0.00000   0.00051   0.00051  -1.05887
   D10        0.75391   0.00001   0.00000   0.00111   0.00111   0.75502
   D11       -2.40072   0.00000   0.00000   0.00120   0.00120  -2.39952
   D12       -1.39433   0.00001   0.00000   0.00105   0.00105  -1.39328
   D13        1.73422   0.00000   0.00000   0.00113   0.00113   1.73536
   D14        2.90215  -0.00000   0.00000   0.00109   0.00109   2.90324
   D15       -0.25249  -0.00000   0.00000   0.00118   0.00118  -0.25131
   D16       -2.40079  -0.00001   0.00000  -0.00036  -0.00036  -2.40115
   D17        0.75380  -0.00001   0.00000  -0.00028  -0.00028   0.75352
   D18       -0.25255   0.00001   0.00000  -0.00029  -0.00029  -0.25283
   D19        2.90204   0.00001   0.00000  -0.00021  -0.00021   2.90183
   D20        1.73417  -0.00000   0.00000  -0.00031  -0.00031   1.73386
   D21       -1.39443  -0.00000   0.00000  -0.00024  -0.00024  -1.39466
   D22        0.75451   0.00000   0.00000  -0.00074  -0.00074   0.75378
   D23       -2.40004   0.00001   0.00000  -0.00072  -0.00072  -2.40077
   D24       -1.39374  -0.00001   0.00000  -0.00076  -0.00076  -1.39449
   D25        1.73489  -0.00000   0.00000  -0.00074  -0.00074   1.73415
   D26        2.90276  -0.00001   0.00000  -0.00075  -0.00075   2.90201
   D27       -0.25180  -0.00000   0.00000  -0.00074  -0.00074  -0.25254
         Item               Value     Threshold  Converged?
 Maximum Force            0.000016     0.000015     NO 
 RMS     Force            0.000007     0.000010     YES
 Maximum Displacement     0.001835     0.000060     NO 
 RMS     Displacement     0.000526     0.000040     NO 
 GradGradGradGradGradGradGradGradGradGradGradGradGradGradGradGradGradGrad

                    Distance matrix (angstroms):
                    1          2          3          4          5
     1  C    0.000000
     2  C    1.501189   0.000000
     3  N    2.511706   1.526676   0.000000
     4  O    2.768114   2.307204   1.202815   0.000000
     5  O    3.496808   2.332540   1.200530   2.160348   0.000000
     6  N    2.511703   1.526684   2.450080   2.979383   3.178858
     7  O    3.497250   2.332519   2.562528   2.975564   3.079120
     8  O    2.767559   2.307228   3.541124   3.995341   4.303484
     9  N    2.511645   1.526692   2.450090   3.541272   2.562337
    10  O    2.767615   2.307259   2.980076   3.996497   2.975802
    11  O    3.497082   2.332502   3.178237   4.302754   3.078458
    12  H    1.099588   2.131842   2.752196   2.529633   3.906781
    13  H    1.099593   2.131729   3.457179   3.811355   4.354751
    14  H    1.099601   2.131768   2.741211   2.999526   3.548779
                    6          7          8          9         10
     6  N    0.000000
     7  O    1.200520   0.000000
     8  O    1.202824   2.160355   0.000000
     9  N    2.450060   3.178085   2.980102   0.000000
    10  O    3.541140   4.302836   3.996008   1.202815   0.000000
    11  O    2.562397   3.077864   2.976485   1.200533   2.160361
    12  H    2.741247   3.549791   2.998427   3.457213   3.811059
    13  H    2.751975   3.906832   2.528971   2.741059   2.998500
    14  H    3.457209   4.355141   3.810968   2.751946   2.529023
                   11         12         13         14
    11  O    0.000000
    12  H    4.355033   0.000000
    13  H    3.549336   1.799328   0.000000
    14  H    3.906746   1.799462   1.799407   0.000000
 Framework group  C1[X(C2H3N3O6)]
 Deg. of freedom    36
                         Standard orientation:                         
 ---------------------------------------------------------------------
 Center     Atomic      Atomic             Coordinates (Angstroms)
 Number     Number       Type             X           Y           Z
 ---------------------------------------------------------------------
      1          6           0        0.000022   -0.000334    1.910583
      2          6           0        0.000024   -0.000034    0.409394
      3          7           0       -0.116620    1.409790   -0.164655
      4          8           0        0.565243    2.236689    0.381299
      5          8           0       -0.853865    1.559675   -1.100217
      6          7           0        1.279171   -0.603828   -0.165043
      7          8           0        1.776501   -0.040997   -1.101597
      8          8           0        1.655302   -1.607075    0.381591
      9          7           0       -1.162547   -0.805831   -0.164981
     10          8           0       -2.219404   -0.629968    0.381728
     11          8           0       -0.923823   -1.517987   -1.101529
     12          1           0        0.860735    0.581291    2.271110
     13          1           0        0.073551   -1.036708    2.270622
     14          1           0       -0.934220    0.454018    2.270969
 ---------------------------------------------------------------------
 Rotational constants (GHZ):           1.3492295           1.3490666           1.0223994
   160 basis functions,   287 primitive gaussians,   171 cartesian basis functions
    42 alpha electrons       42 beta electrons
       nuclear repulsion energy       706.1135539301 Hartrees.
 NAtoms=   14 NActive=   14 NUniq=   14 SFac= 1.00D+00 NAtFMM=   60 NAOKFM=F Big=F
 Nuclear repulsion after empirical dispersion term =      706.1061221252 Hartrees.
   1 Symmetry operations used in ECPInt.
 ECPInt:  NShTT=    2628 NPrTT=   10592 LenC2=    2581 LenP2D=    7847.
 LDataN:  DoStor=T MaxTD1= 4 Len=   56
 Initial guess from the checkpoint file:  "43.chk"
 B after Tr=    -0.000000   -0.000000    0.000000
         Rot=    0.877183   -0.000083   -0.000079    0.480156 Ang= -57.39 deg.
     Accept linear search using points  1 and  2.
     Minimum is close to point  2 DX= -1.56D-07 DF=  0.00D+00 DXR=  1.56D-07 DFR=  0.00D+00 which will be used.
 SCF Done:  E(RwB97XD) =  -692.541065290     a.u. after    2 cycles
            Convg  =    0.2584D-06                    15 Fock formations.
              S**2 =  0.0000                  -V/T =  2.0064
 DoSCS=F DFT=T ScalE2(SS,OS)=  1.000000  1.000000
 NROrb=    160 NOA=    42 NOB=    42 NVA=   118 NVB=   118

 **** Warning!!: The largest alpha MO coefficient is  0.10033936D+02

   1 Symmetry operations used in ECPInt.
 ECPInt:  NShTT=    2628 NPrTT=   10592 LenC2=    2581 LenP2D=    7847.
 LDataN:  DoStor=T MaxTD1= 5 Len=  102
 Symmetrizing basis deriv contribution to polar:
 IMax=3 JMax=2 DiffMx= 0.00D+00
 Calling FoFCou, ICntrl=  3107 FMM=F I1Cent=   0 AccDes= 0.00D+00.
 End of G2Drv F.D. properties file   721 does not exist.
 End of G2Drv F.D. properties file   722 does not exist.
 End of G2Drv F.D. properties file   788 does not exist.
          IDoAtm=11111111111111
 End of Minotr F.D. properties file   721 does not exist.
 End of Minotr F.D. properties file   722 does not exist.
 End of Minotr F.D. properties file   788 does not exist.
   1 Symmetry operations used in ECPInt.
 ECPInt:  NShTT=    2628 NPrTT=   10592 LenC2=    2581 LenP2D=    7847.
 LDataN:  DoStor=T MaxTD1= 6 Len=  172
 Calling FoFJK, ICntrl=    100127 FMM=F ISym2X=0 I1Cent= 0 IOpClX= 0 NMat=1 NMatS=1 NMatT=0.
 FormGI is forming the generalized inverse of G from B-inverse, IUseBI=4.

 GradGradGradGradGradGradGradGradGradGradGradGradGradGradGradGradGradGrad
 Using GEDIIS/GDIIS optimizer.
 Internal  Forces:  Max     0.000033508 RMS     0.000011787
 Step number   5 out of a maximum of   71
 All quantities printed in internal units (Hartrees-Bohrs-Radians)
 Mixed Optimization -- En-DIIS/RFO-DIIS
 Swapping is turned off.
 Second derivative matrix not updated -- analytic derivatives used.
 Trust test=-1.28D+02 RLast= 3.64D-03 DXMaxT set to 5.00D-02
 ITU= -1 -1  1 -1  0
     Eigenvalues ---    0.00159   0.00161   0.00318   0.00907   0.04484
     Eigenvalues ---    0.04493   0.05521   0.05541   0.07348   0.07956
     Eigenvalues ---    0.07957   0.08583   0.13297   0.14992   0.15031
     Eigenvalues ---    0.18325   0.18339   0.19367   0.19384   0.23738
     Eigenvalues ---    0.26683   0.27491   0.27536   0.32805   0.35413
     Eigenvalues ---    0.35458   0.35470   0.39203   0.39219   0.41191
     Eigenvalues ---    0.74017   0.74185   0.74195   0.92063   0.92076
     Eigenvalues ---    0.93229
 En-DIIS/RFO-DIIS/Sim-DIIS IScMMF=       -3 using points:     5    4    3    2    1
 RFO step:  Lambda=-9.06473227D-08.
 DIIS inversion failure, remove point   5.
 RFO-DIIS uses    4 points instead of    5
 DidBck=F Rises=T RFO-DIIS coefs:    0.99873    1.07782   -0.54496   -0.53160    0.00000
 Iteration  1 RMS(Cart)=  0.00016919 RMS(Int)=  0.00000002
 Iteration  2 RMS(Cart)=  0.00000002 RMS(Int)=  0.00000000
 Variable       Old X    -DE/DX   Delta X   Delta X   Delta X     New X
                                 (Linear)    (Quad)   (Total)
    R1        2.83684   0.00002  -0.00000   0.00000   0.00000   2.83684
    R2        2.07792   0.00000   0.00000   0.00001   0.00001   2.07793
    R3        2.07793  -0.00000  -0.00001   0.00000  -0.00000   2.07793
    R4        2.07794  -0.00000   0.00000  -0.00001  -0.00000   2.07794
    R5        2.88500  -0.00001  -0.00001  -0.00007  -0.00007   2.88493
    R6        2.88502   0.00003  -0.00001   0.00009   0.00008   2.88510
    R7        2.88503   0.00000   0.00001   0.00001   0.00002   2.88505
    R8        2.27299   0.00001  -0.00000   0.00001   0.00001   2.27300
    R9        2.26867  -0.00001  -0.00000  -0.00000  -0.00001   2.26866
   R10        2.26865   0.00001   0.00001   0.00001   0.00002   2.26867
   R11        2.27301  -0.00000  -0.00000   0.00000  -0.00000   2.27301
   R12        2.27299  -0.00001  -0.00000  -0.00000  -0.00000   2.27299
   R13        2.26868  -0.00001   0.00000  -0.00002  -0.00002   2.26866
    A1        1.90474  -0.00001  -0.00002  -0.00009  -0.00011   1.90463
    A2        1.90458   0.00003   0.00006   0.00003   0.00008   1.90466
    A3        1.90462   0.00001  -0.00003   0.00004   0.00001   1.90463
    A4        1.91648  -0.00000   0.00006   0.00005   0.00011   1.91659
    A5        1.91668  -0.00001  -0.00001  -0.00003  -0.00004   1.91664
    A6        1.91659  -0.00002  -0.00005  -0.00000  -0.00005   1.91653
    A7        1.95648  -0.00002  -0.00006  -0.00000  -0.00006   1.95642
    A8        1.95647   0.00003   0.00004   0.00001   0.00005   1.95652
    A9        1.95640  -0.00001  -0.00000   0.00005   0.00005   1.95645
   A10        1.86268  -0.00001   0.00003  -0.00004  -0.00002   1.86267
   A11        1.86269   0.00002   0.00003   0.00001   0.00004   1.86272
   A12        1.86265  -0.00001  -0.00003  -0.00003  -0.00007   1.86258
   A13        2.00520   0.00000  -0.00001   0.00001   0.00001   2.00520
   A14        2.04343  -0.00001  -0.00000  -0.00003  -0.00003   2.04340
   A15        2.23447   0.00001   0.00001   0.00002   0.00003   2.23450
   A16        2.04340  -0.00001   0.00000   0.00001   0.00002   2.04342
   A17        2.00521   0.00003   0.00001  -0.00000   0.00000   2.00521
   A18        2.23448  -0.00002  -0.00001  -0.00001  -0.00002   2.23447
   A19        2.00525   0.00000  -0.00000   0.00001   0.00000   2.00526
   A20        2.04336  -0.00000   0.00001  -0.00002  -0.00001   2.04335
   A21        2.23449   0.00000  -0.00001   0.00001   0.00001   2.23449
    D1       -1.05903   0.00001   0.00006   0.00004   0.00010  -1.05893
    D2        1.03542  -0.00000   0.00008  -0.00001   0.00007   1.03549
    D3        3.12976   0.00000   0.00006  -0.00001   0.00006   3.12981
    D4        3.12987  -0.00000  -0.00003   0.00002  -0.00002   3.12985
    D5       -1.05887  -0.00001  -0.00001  -0.00004  -0.00005  -1.05891
    D6        1.03547  -0.00001  -0.00003  -0.00003  -0.00006   1.03541
    D7        1.03553  -0.00000   0.00001  -0.00002  -0.00001   1.03552
    D8        3.12997  -0.00001   0.00004  -0.00007  -0.00004   3.12993
    D9       -1.05887  -0.00001   0.00002  -0.00007  -0.00005  -1.05892
   D10        0.75502   0.00001  -0.00004   0.00012   0.00008   0.75510
   D11       -2.39952   0.00001  -0.00004   0.00017   0.00013  -2.39939
   D12       -1.39328  -0.00001  -0.00008   0.00014   0.00007  -1.39322
   D13        1.73536  -0.00001  -0.00007   0.00019   0.00012   1.73547
   D14        2.90324  -0.00000  -0.00006   0.00019   0.00013   2.90337
   D15       -0.25131   0.00000  -0.00006   0.00024   0.00018  -0.25113
   D16       -2.40115   0.00001   0.00017   0.00024   0.00041  -2.40074
   D17        0.75352   0.00001   0.00014   0.00022   0.00036   0.75388
   D18       -0.25283  -0.00001   0.00014   0.00021   0.00035  -0.25248
   D19        2.90183  -0.00000   0.00012   0.00019   0.00030   2.90214
   D20        1.73386   0.00000   0.00017   0.00019   0.00036   1.73421
   D21       -1.39466   0.00001   0.00014   0.00017   0.00031  -1.39435
   D22        0.75378  -0.00001  -0.00021   0.00009  -0.00012   0.75366
   D23       -2.40077  -0.00002  -0.00023   0.00002  -0.00021  -2.40098
   D24       -1.39449   0.00001  -0.00015   0.00005  -0.00010  -1.39459
   D25        1.73415  -0.00000  -0.00017  -0.00002  -0.00019   1.73396
   D26        2.90201   0.00002  -0.00018   0.00011  -0.00007   2.90194
   D27       -0.25254   0.00001  -0.00020   0.00004  -0.00016  -0.25270
         Item               Value     Threshold  Converged?
 Maximum Force            0.000034     0.000015     NO 
 RMS     Force            0.000012     0.000010     NO 
 Maximum Displacement     0.000551     0.000060     NO 
 RMS     Displacement     0.000169     0.000040     NO 
 GradGradGradGradGradGradGradGradGradGradGradGradGradGradGradGradGradGrad

                    Distance matrix (angstroms):
                    1          2          3          4          5
     1  C    0.000000
     2  C    1.501190   0.000000
     3  N    2.511621   1.526637   0.000000
     4  O    2.768042   2.307178   1.202821   0.000000
     5  O    3.496678   2.332478   1.200526   2.160365   0.000000
     6  N    2.511782   1.526728   2.450069   2.979335   3.178877
     7  O    3.497217   2.332576   2.562500   2.975328   3.079277
     8  O    2.767797   2.307266   3.541142   3.995423   4.303442
     9  N    2.511699   1.526703   2.450103   3.541304   2.562289
    10  O    2.767645   2.307269   2.980152   3.996623   2.975783
    11  O    3.497177   2.332499   3.178149   4.302667   3.078320
    12  H    1.099592   2.131765   2.751965   2.529369   3.906530
    13  H    1.099592   2.131790   3.457146   3.811301   4.354687
    14  H    1.099600   2.131776   2.741124   2.999475   3.548602
                    6          7          8          9         10
     6  N    0.000000
     7  O    1.200530   0.000000
     8  O    1.202823   2.160354   0.000000
     9  N    2.450044   3.178256   2.979914   0.000000
    10  O    3.541132   4.303000   3.995833   1.202814   0.000000
    11  O    2.562349   3.078050   2.976235   1.200524   2.160355
    12  H    2.741267   3.549556   2.998780   3.457206   3.811066
    13  H    2.752151   3.906939   2.529297   2.741169   2.998498
    14  H    3.457283   4.355121   3.811169   2.752042   2.529129
                   11         12         13         14
    11  O    0.000000
    12  H    4.355045   0.000000
    13  H    3.549583   1.799399   0.000000
    14  H    3.906862   1.799439   1.799371   0.000000
 Framework group  C1[X(C2H3N3O6)]
 Deg. of freedom    36
                         Standard orientation:                         
 ---------------------------------------------------------------------
 Center     Atomic      Atomic             Coordinates (Angstroms)
 Number     Number       Type             X           Y           Z
 ---------------------------------------------------------------------
      1          6           0        0.000034    0.000188    1.910605
      2          6           0        0.000014    0.000069    0.409415
      3          7           0        0.123996    1.409105   -0.164925
      4          8           0        0.936240    2.108560    0.380787
      5          8           0       -0.577327    1.681591   -1.100424
      6          7           0        1.158313   -0.811937   -0.164941
      7          8           0        1.744041   -0.341574   -1.101398
      8          8           0        1.358782   -1.864457    0.381683
      9          7           0       -1.282304   -0.597216   -0.164810
     10          8           0       -2.294064   -0.244765    0.381890
     11          8           0       -1.167723   -1.339583   -1.101305
     12          1           0        0.946894    0.427716    2.270855
     13          1           0       -0.103165   -1.033521    2.271021
     14          1           0       -0.843650    0.606424    2.270876
 ---------------------------------------------------------------------
 Rotational constants (GHZ):           1.3492535           1.3490810           1.0223830
   160 basis functions,   287 primitive gaussians,   171 cartesian basis functions
    42 alpha electrons       42 beta electrons
       nuclear repulsion energy       706.1141083303 Hartrees.
 NAtoms=   14 NActive=   14 NUniq=   14 SFac= 1.00D+00 NAtFMM=   60 NAOKFM=F Big=F
 Nuclear repulsion after empirical dispersion term =      706.1066765643 Hartrees.
   1 Symmetry operations used in ECPInt.
 ECPInt:  NShTT=    2628 NPrTT=   10592 LenC2=    2581 LenP2D=    7847.
 LDataN:  DoStor=T MaxTD1= 4 Len=   56
 Initial guess from the checkpoint file:  "43.chk"
 B after Tr=     0.000000   -0.000000    0.000000
         Rot=    0.996377    0.000091   -0.000008    0.085050 Ang=   9.76 deg.
     Minimum is close to point  2 DX=  5.66D-06 DF=  0.00D+00 DXR=  5.66D-06 DFR=  0.00D+00 which will be used.
 SCF Done:  E(RwB97XD) =  -692.541066682     a.u. after    2 cycles
            Convg  =    0.2078D-07                    15 Fock formations.
              S**2 =  0.0000                  -V/T =  2.0064
 DoSCS=F DFT=T ScalE2(SS,OS)=  1.000000  1.000000
 NROrb=    160 NOA=    42 NOB=    42 NVA=   118 NVB=   118

 **** Warning!!: The largest alpha MO coefficient is  0.10028564D+02

   1 Symmetry operations used in ECPInt.
 ECPInt:  NShTT=    2628 NPrTT=   10592 LenC2=    2581 LenP2D=    7847.
 LDataN:  DoStor=T MaxTD1= 5 Len=  102
 Symmetrizing basis deriv contribution to polar:
 IMax=3 JMax=2 DiffMx= 0.00D+00
 Calling FoFCou, ICntrl=  3107 FMM=F I1Cent=   0 AccDes= 0.00D+00.
 End of G2Drv F.D. properties file   721 does not exist.
[...]
    10   8     0.09  -0.18  -0.11     0.12  -0.24  -0.14    -0.02   0.04   0.03
    11   8    -0.08  -0.12  -0.19    -0.11  -0.16  -0.24     0.03   0.04   0.06
    12   1     0.03  -0.01  -0.05    -0.02  -0.05  -0.05    -0.04  -0.05   0.05
    13   1    -0.03  -0.02  -0.05    -0.00   0.02   0.07     0.04  -0.07   0.02
    14   1    -0.01   0.03  -0.05    -0.08   0.00  -0.02     0.02   0.01  -0.07
                     34                     35                     36
                      A                      A                      A
 Frequencies --   3084.0470              3199.1883              3199.9773
 Red. masses --      1.0353                 1.1075                 1.1074
 Frc consts  --      5.8020                 6.6782                 6.6813
 IR Inten    --      1.2785                 3.0197                 3.0072
  Atom  AN      X      Y      Z        X      Y      Z        X      Y      Z
     1   6    -0.00   0.00  -0.05    -0.09   0.03   0.00    -0.03  -0.09   0.00
     2   6     0.00  -0.00   0.00    -0.00   0.00   0.00    -0.00  -0.00  -0.00
     3   7    -0.00  -0.00  -0.00    -0.00  -0.00  -0.00    -0.00   0.00  -0.00
     4   8     0.00  -0.00   0.00     0.00  -0.00   0.00     0.00   0.00   0.00
     5   8     0.00   0.00   0.00     0.00  -0.00   0.00     0.00  -0.00   0.00
     6   7     0.00   0.00  -0.00     0.00  -0.00  -0.00    -0.00  -0.00   0.00
     7   8    -0.00  -0.00   0.00    -0.00  -0.00  -0.00     0.00   0.00  -0.00
     8   8    -0.00  -0.00   0.00     0.00  -0.00  -0.00     0.00   0.00  -0.00
     9   7     0.00  -0.00  -0.00    -0.00   0.00   0.00     0.00  -0.00  -0.00
    10   8     0.00   0.00   0.00     0.00  -0.00  -0.00     0.00   0.00   0.00
    11   8    -0.00   0.00   0.00     0.00  -0.00  -0.00     0.00   0.00   0.00
    12   1     0.52  -0.18   0.19     0.72  -0.25   0.27    -0.02  -0.00  -0.01
    13   1    -0.41  -0.35   0.19     0.30   0.27  -0.14     0.50   0.42  -0.23
    14   1    -0.10   0.53   0.19     0.06  -0.36  -0.13    -0.13   0.66   0.24
 
 Temperature   298.150 Kelvin.  Pressure   1.00000 Atm.
 Zero-point correction=                           0.085353 (Hartree/Particle)
 Thermal correction to Energy=                    0.095274
 Thermal correction to Enthalpy=                  0.096218
 Thermal correction to Gibbs Free Energy=         0.048868
 Sum of electronic and zero-point Energies=           -692.455716
 Sum of electronic and thermal Energies=              -692.445795
 Sum of electronic and thermal Enthalpies=            -692.444851
 Sum of electronic and thermal Free Energies=         -692.492201

 ----------------------------------------------------------------------

 Electric dipole moment (input orientation):
 (Debye = 10**-18 statcoulomb cm , SI units = C m)
                  (au)            (Debye)         (10**-30 SI)
   Tot        0.142637D+01      0.362547D+01      0.120933D+02
   x         -0.324041D-04     -0.823629D-04     -0.274733D-03
   y         -0.259509D-03     -0.659606D-03     -0.220021D-02
   z          0.142637D+01      0.362547D+01      0.120933D+02

 Dipole polarizability, Alpha (input orientation).
 (esu units = cm**3 , SI units = C**2 m**2 J**-1)
 Alpha(0;0):
               (au)            (10**-24 esu)      (10**-40 SI)
   iso        0.588990D+02      0.872793D+01      0.971113D+01
   aniso      0.358529D+01      0.531285D+00      0.591134D+00
   xx         0.576965D+02      0.854974D+01      0.951287D+01
   yx         0.478467D-02      0.709015D-03      0.788886D-03
   yy         0.577113D+02      0.855194D+01      0.951531D+01
   zx         0.503311D-02      0.745829D-03      0.829847D-03
   zy         0.928675D-02      0.137615D-02      0.153118D-02
   zz         0.612891D+02      0.908211D+01      0.101052D+02

 ----------------------------------------------------------------------

 Dipole orientation:
     6         -0.00003607          0.00013819          3.61039441
     6         -0.00011473          0.00005670          0.77351840
     7          1.41772752         -2.26615628         -0.31155072
     8          0.99052953         -4.24562588          0.72074182
     8          2.78460687         -1.87877518         -2.08030871
     7         -2.67155554         -0.09467132         -0.31161438
     8         -3.01989867         -1.47302778         -2.07956305
     8         -4.17181480          1.26617648          0.71979652
     7          1.25354550          2.36096503         -0.31158679
     8          3.18047165          2.98174476          0.72188250
     8          0.23569365          3.34980540         -2.08163715
     1         -0.94175034         -1.72234176          4.29159563
     1         -1.02085321          1.67703142          4.29136684
     1          1.96272147          0.04605373          4.29113516

 Electric dipole moment (dipole orientation):
 (Debye = 10**-18 statcoulomb cm , SI units = C m)
                  (au)            (Debye)         (10**-30 SI)
   Tot        0.142637D+01      0.362547D+01      0.120933D+02
   x          0.000000D+00      0.000000D+00      0.000000D+00
   y          0.000000D+00      0.000000D+00      0.000000D+00
   z          0.142637D+01      0.362547D+01      0.120933D+02

 Dipole polarizability, Alpha (dipole orientation).
 (esu units = cm**3 , SI units = C**2 m**2 J**-1)
 Alpha(0;0):
               (au)            (10**-24 esu)      (10**-40 SI)
   iso        0.588990D+02      0.872793D+01      0.971113D+01
   aniso      0.358529D+01      0.531285D+00      0.591134D+00
   xx         0.576965D+02      0.854974D+01      0.951287D+01
   yx         0.478581D-02      0.709185D-03      0.789074D-03
   yy         0.577113D+02      0.855194D+01      0.951531D+01
   zx         0.511385D-02      0.757795D-03      0.843160D-03
   zy         0.993757D-02      0.147260D-02      0.163848D-02
   zz         0.612891D+02      0.908211D+01      0.101052D+02

 ----------------------------------------------------------------------
 1\1\GINC-C161\Freq\RwB97XD\def2SVPP\C2H3N3O6\PETERCHAO1\10-Jul-2023\0\
 \#T wB97XD/def2svpp opt=(calcall,tight) int(grid=ultrafine) scf=(veryt
 ight,qc)\\Comment gs min\\0,1\C,-0.0000624902,-0.0002744718,1.91053842
 66\C,-0.0000700136,-0.0000444654,0.4093283042\N,0.7502328421,-1.199168
 249,-0.1650666737\O,0.5241569916,-2.2467578144,0.3810032933\O,1.473575
 5056,-0.9940047103,-1.1009993503\N,-1.4137225649,-0.0500678994,-0.1649
 404578\O,-1.5980365537,-0.7792925011,-1.1006354806\O,-2.2076379731,0.6
 699624298,0.380971661\N,0.6633514571,1.2493988672,-0.1646422512\O,1.68
 3024437,1.5778018445,0.3823290709\O,0.1247487274,1.7728410599,-1.10122
 95832\H,-0.4984044093,-0.9118371746,2.2708374272\H,-0.5402638433,0.887
 0336374,2.2710426861\H,1.0385758874,0.0239574473,2.2707989273\\Version
 =ES64L-G16RevB.01\State=1-A\HF=-692.5410693\RMSD=3.559e-11\RMSF=3.583e
 -06\ZeroPoint=0.0853532\Thermal=0.0952739\Dipole=-0.0000324,-0.0002595
 ,1.4263713\DipoleDeriv=-0.1441609,-0.0357846,0.0001786,0.0357809,-0.14
 42463,-0.0000683,-0.0000066,0.000171,-0.0860962,0.2290998,0.0097257,-0
 .0002253,-0.0101754,0.2290412,-0.0002975,-0.0001672,0.0000916,0.487027
 5,0.7104026,-0.1402014,-0.6197753,-0.0836323,1.3482099,-0.3298383,-0.6
 020674,-0.2922322,0.92825,-0.3594883,0.0680452,0.1732444,-0.1113127,-0
 .8990622,0.3462329,0.2060711,0.1295569,-0.5048828,-0.4963217,-0.045272
 5,0.4051277,0.0734381,-0.5302614,0.0156788,0.3616788,0.1733946,-0.6355
 055,1.285725,-0.248649,0.024202,-0.1915686,0.7729716,0.7017557,0.04853
 52,0.6673488,0.9279658,-0.5339256,-0.0518581,-0.1889306,0.0669134,-0.4
 926439,-0.3585782,-0.0309427,-0.399953,-0.6350971,-0.7454423,0.3343488
 ,0.2130474,0.1547717,-0.5135905,-0.3233806,0.0088878,-0.2432485,-0.504
 9454,1.0907964,0.3040948,0.5962462,0.3611528,0.9669834,-0.3709098,0.55
 44824,-0.3748034,0.9296201,-0.7824426,-0.1333212,-0.3871046,-0.3125267
 ,-0.4758169,-0.0235564,-0.2155929,0.1136115,-0.5055178,-0.5090965,-0.0
 813254,-0.2160686,0.0372769,-0.5166566,0.3427628,-0.3311282,0.2261829,
 -0.6360848,0.1095593,-0.0284501,-0.0020162,-0.0417003,0.0604834,0.0083
 855,-0.0057711,0.0075091,0.0785055,0.1030945,0.0455877,0.0083789,0.032
 0111,0.0668787,-0.0023437,0.0095697,0.0012242,0.0783518,0.0422003,0.00
 30603,-0.0063047,-0.010429,0.1277095,-0.0058429,-0.0035491,-0.0088534,
 0.0784089\Polar=57.6965129,0.0047847,57.711335,0.0050331,0.0092867,61.
 2891309\PG=C01 [X(C2H3N3O6)]\NImag=0\\0.62139002,-0.00010978,0.6213094
 9,-0.00008965,0.00014400,0.49996980,-0.08392841,-0.00312756,0.00003760
 ,0.41651226,0.00310407,-0.08395791,0.00006346,0.00011354,0.41663461,0.
 00003285,-0.00000116,-0.21400342,-0.00007668,0.00000329,0.54239139,0.0
 0328567,-0.00311541,0.00325344,-0.09113405,-0.00119579,-0.01188558,0.5
 2919265,0.00187923,-0.00028476,-0.01394625,0.00503542,-0.07679996,-0.0
 1028013,0.07286521,0.82269020,0.02035566,-0.02922464,-0.01400790,-0.01
 006991,-0.00598076,-0.08754126,-0.34994470,-0.25405415,0.74817124,-0.0
 0111994,0.00238902,0.00262267,0.01955529,0.01270727,0.00060389,-0.1135
 3236,-0.05964308,0.06280947,0.09512472,0.00022900,-0.00060919,0.001409
 14,0.00073465,-0.06798073,0.01986000,-0.07107288,-0.56252888,0.2140471
 8,0.10049358,0.64549504,0.00127112,-0.00256354,-0.00283570,0.00459494,
 0.00539668,0.01230832,0.06256439,0.19971396,-0.20893177,-0.10728802,-0
 .27705979,0.23783807,-0.00438641,0.00624856,-0.00021988,-0.01307221,0.
 00769960,0.04251419,-0.30633543,-0.03407292,0.29001945,0.00291664,-0.0
 3591375,0.03932567,0.32289023,0.00265923,-0.00290845,0.00050101,0.0174
 1412,0.00878814,-0.02038397,-0.02387392,-0.14580804,0.04956111,-0.0597
 7182,-0.00888828,0.08234765,0.05849988,0.15474622,0.00170237,-0.003409
 02,-0.00035041,0.03880979,-0.00779229,-0.02147593,0.29178456,0.0653179
 7,-0.44361764,0.04347350,0.05166115,-0.04083429,-0.37455482,-0.1020556
 5,0.51216972,0.00114118,-0.00062858,-0.01368481,-0.08213124,-0.0103109
 9,-0.00291212,-0.02800851,0.02548856,0.00553282,-0.00018700,-0.0069629
 0,-0.00001219,0.00248611,-0.00250126,-0.00431059,0.68618159,0.00435735
 ,0.00185680,0.00414584,-0.00412934,-0.08609166,0.01543387,0.03325714,0
 .00904489,0.01742893,-0.00521238,-0.00594517,-0.00367162,0.00052988,-0
 .00382530,-0.00797388,-0.16345330,0.66603968,-0.03550862,-0.00301181,-
 0.01402445,-0.00004831,0.01172605,-0.08761608,0.01501681,0.01484885,0.
 01690045,-0.00405869,-0.00747322,-0.00266706,0.00149937,-0.00461562,-0
 .01063949,-0.04495055,0.43012280,0.74810549,-0.00713580,-0.00107097,0.
 00053999,-0.00761253,-0.02058468,-0.03892766,-0.00115562,-0.00458216,-
 0.00272707,-0.00172741,0.00142092,-0.00080216,-0.00159005,0.00078298,-
 0.00168621,-0.16083257,-0.06023653,-0.10210072,0.14619363,-0.00465882,
 -0.00016013,-0.00005701,-0.01088949,0.00327526,-0.02661301,-0.00050258
 ,-0.00844599,-0.00204929,0.00389149,0.00447277,0.00128715,-0.00031647,
 0.00181782,0.00240682,-0.05003211,-0.29127899,-0.27592303,0.04365510,0
 .33164585,-0.00379675,0.00023006,-0.00034919,-0.02617723,-0.02967302,-
 0.02144398,0.00077593,-0.00580362,-0.00718240,-0.00031605,0.00269230,0
 .00090974,-0.00090002,0.00114169,0.00454894,-0.08937817,-0.28532748,-0
 .44348613,0.09903492,0.37537958,0.51203615,-0.00189790,0.00022828,-0.0
 0011845,-0.05189289,0.04054819,0.01690372,-0.00641904,-0.01050555,-0.0
 0787969,0.00108750,0.00337187,0.00067461,-0.00100490,0.00273359,0.0037
 5078,-0.39358468,0.23292596,0.15390175,0.03552639,0.01706537,0.0229545
 1,0.42062680,-0.00196278,0.00014961,-0.00296975,0.02856658,0.00345039,
 -0.01047243,-0.00059404,0.00128574,-0.00169899,0.00050346,0.00045406,0
 .00079972,0.00000095,-0.00009863,0.00108254,0.22142743,-0.28262195,-0.
 16147192,0.04095510,-0.04154119,-0.06349455,-0.28867215,0.32007344,-0.
 00286600,0.00020358,-0.00282555,0.00239900,-0.00669589,0.01229703,-0.0
 0257348,-0.00189996,-0.00184032,0.00065947,0.00136736,0.00097549,-0.00
 053664,0.00084983,0.00194627,0.14156551,-0.15408411,-0.20891458,0.0515
 9999,-0.07525274,-0.04079665,-0.18627911,0.23149912,0.23769788,0.00004
 604,-0.00372704,0.01038545,-0.07878184,0.00216153,0.01495731,0.0252241
 0,0.00520879,-0.02035043,-0.00544498,0.01107498,0.00292541,-0.00883390
 ,0.00014815,0.00463510,-0.02566310,-0.03461809,0.01223882,-0.00138753,
 0.00172762,-0.00472252,0.00076871,0.00466255,-0.00316304,0.81152215,0.
 00124907,0.00291082,0.00977520,0.00834268,-0.08926265,-0.00514245,-0.0
 0254001,-0.04417473,0.00560951,0.00115343,0.00032112,-0.00128577,-0.00
 391837,-0.00072499,0.00356778,-0.02683976,0.00669475,-0.01347483,0.004
 73428,0.00004791,0.00770815,0.00641514,-0.00690598,0.00183840,0.090960
 59,0.53938326,0.01510933,0.03224047,-0.01402663,0.01024834,-0.00574911
 ,-0.08741223,-0.01782639,-0.00390095,0.01687046,0.00540661,-0.00595233
 ,-0.00184536,0.00311637,-0.00131476,-0.00714039,0.00532301,-0.02041182
 ,0.01684273,-0.00473761,0.00102073,-0.01062708,-0.00443308,0.00725997,
 -0.00266699,0.39487131,-0.17584360,0.74884312,0.00042144,0.00064875,-0
 .00251714,-0.04024513,-0.03529359,-0.01756167,-0.00977659,0.00142705,0
 .00849849,0.00228799,-0.00268115,-0.00151117,0.00523007,0.00259818,-0.
 00218655,0.00416280,-0.00553035,0.00245920,-0.00151167,0.00029396,-0.0
 0093568,-0.00106166,0.00074354,0.00035916,-0.50625207,-0.15605320,-0.2
 1687366,0.59420478,-0.00154365,-0.00215378,0.00157630,-0.04727332,-0.0
 0817752,-0.00942967,-0.00033303,0.00363629,0.00023632,0.00019369,-0.00
 074808,-0.00011572,0.00015115,-0.00245810,-0.00162284,0.00439433,-0.00
 931415,0.00765844,-0.00244366,0.00041058,-0.00378589,-0.00212288,0.002
 60919,-0.00097955,-0.16748198,-0.16927672,-0.05278677,0.18817375,0.145
 71080,0.00160791,0.00240033,-0.00279890,-0.00705960,0.00124000,0.01222
 117,0.00317362,0.00182377,-0.00265984,-0.00102799,0.00017738,0.0009759
 7,-0.00070665,-0.00132677,0.00090698,-0.00034944,0.00316674,-0.0018342
 9,0.00099915,0.00003827,0.00194119,0.00085233,-0.00125262,0.00097646,-
 0.20437278,-0.04580177,-0.20927512,0.29375151,0.04588894,0.23833518,0.
 00058180,0.00019990,-0.00030737,0.01420343,-0.00167403,-0.00359961,-0.
 00311391,-0.00072761,0.00326500,0.00086165,-0.00166055,-0.00047031,0.0
 0117910,0.00081946,-0.00055221,-0.00441182,0.00241455,-0.00041701,0.00
 074962,-0.00106578,0.00290594,0.00061405,-0.00523014,0.00152028,-0.210
 67763,0.07864826,-0.18772712,-0.04725742,0.03066748,-0.09098416,0.2470
 5156,-0.00338616,-0.00787530,-0.00044468,0.00799883,-0.01845526,0.0470
 3931,-0.00373637,0.00177962,0.00357095,0.00107160,-0.00196139,-0.00088
 322,0.00190607,-0.00093921,-0.00132379,0.00649677,-0.00513035,0.003318
 53,-0.00215264,-0.00056924,0.00025395,-0.00278399,0.00214141,0.0000496
 2,0.08883570,-0.24093204,0.22631154,0.00683951,0.04142851,-0.00717872,
 -0.10172534,0.22991867,0.00211177,0.00318971,-0.00034244,-0.01263499,0
 .03750579,-0.02153611,0.00904728,0.00023167,-0.01061691,-0.00281250,0.
 00269784,0.00194686,-0.00124109,-0.00265790,0.00454922,-0.00541712,0.0
 0221482,-0.00712610,0.00142207,0.00019408,0.00450888,0.00250668,-0.001
 10367,0.00090609,-0.20223606,0.21994784,-0.44401688,-0.06649907,0.0117
 9530,-0.04095663,0.27544269,-0.27319708,0.51274855,-0.10769380,-0.1075
 7342,0.04238044,-0.00147074,0.00308389,-0.00183394,-0.00018343,-0.0027
 6727,0.00170327,-0.00019944,0.00127152,-0.00112460,0.00053636,0.000671
 23,-0.00068523,0.00087478,0.00034183,-0.00053488,-0.00005681,0.0002600
 8,0.00022165,-0.00061528,-0.00002579,0.00008338,-0.00102537,-0.0015081
 1,-0.00209525,0.00064751,-0.00011851,0.00168850,0.00045697,0.00038520,
 0.00047892,0.10834244,-0.10889729,-0.24449937,0.07871087,0.00122720,0.
 00052405,0.00083344,0.00017199,-0.00041934,0.00085328,0.00165340,-0.00
 197191,-0.00278739,-0.00017625,0.00001582,0.00029072,-0.00091482,0.002
 03886,0.00110928,0.00013633,-0.00055399,-0.00017081,0.00054440,-0.0001
 9294,-0.00063356,0.00002713,0.00010195,-0.00180366,0.00018466,0.000422
 44,0.00021279,0.00005035,0.00041660,0.00002791,0.11584250,0.25616326,0
 .03951311,0.07398621,-0.07817419,0.01727908,0.03026623,-0.01270501,0.0
 0034941,0.00332359,-0.00105220,-0.00042753,-0.00229811,0.00100195,-0.0
 0071030,-0.00077768,0.00138082,0.00103743,0.00033975,0.00149541,0.0000
 7270,-0.00024065,-0.00037407,-0.00044877,0.00026782,-0.00001125,-0.001
 90226,-0.00446489,-0.00598812,0.00033841,0.00060815,0.00116307,0.00014
 554,0.00264962,-0.00107495,-0.04433907,-0.08371116,0.08570260,-0.11649
 386,0.11409553,0.04709851,-0.00183924,-0.00102967,0.00163738,0.0004572
 8,-0.00088172,-0.00052084,0.00044806,-0.00007254,-0.00065789,0.0002410
 4,0.00007375,-0.00021688,0.00079286,-0.00073392,-0.00010315,-0.0000731
 1,0.00053046,0.00059811,-0.00265331,-0.00010899,-0.00173975,0.00199741
 ,0.00026597,0.00123576,-0.00051810,-0.00059628,-0.00059715,-0.00060343
 ,0.00017895,-0.00026149,0.00872474,-0.01211395,-0.00712853,0.11865364,
 0.11283281,-0.23579284,-0.07617938,-0.00286363,0.00089658,0.00116420,0
 .00065020,-0.00138451,0.00271286,0.00023101,0.00061886,-0.00156547,-0.
 00026006,0.00063475,-0.00042735,0.00221330,-0.00135978,-0.00190059,-0.
 00032161,0.00061981,0.00044807,0.00020798,0.00063627,0.00237559,-0.000
 98913,0.00091747,-0.00009059,-0.00002937,-0.00028693,0.00024964,0.0000
 5352,-0.00000890,-0.00010556,0.01301890,-0.01454948,-0.00915962,-0.122
 02830,0.24577265,0.04444397,-0.07135071,-0.07812366,0.01759496,-0.0301
 3774,-0.01275062,-0.00292102,0.00389574,-0.00599318,0.00035795,-0.0006
 0808,0.00116171,0.00222277,-0.00145134,-0.00107188,0.00272224,-0.00196
 689,-0.00104266,-0.00032077,0.00100742,0.00138380,-0.00168100,0.001561
 60,0.00109220,-0.00022631,-0.00107069,0.00149523,0.00045736,0.00025810
 ,-0.00000883,-0.00024454,0.00005644,-0.00037210,-0.00744581,0.00867250
 ,0.00432145,-0.05059278,0.08036620,0.08558517,-0.30421004,-0.00445727,
 -0.08938081,0.00183728,0.00067065,0.00014792,0.00149924,0.00127605,-0.
 00069153,-0.00007072,-0.00023274,0.00051020,-0.00025667,-0.00025356,0.
 00003638,-0.00082040,0.00008719,0.00260597,0.00061347,0.00004118,-0.00
 026464,0.00050622,-0.00026573,-0.00102877,-0.00149198,-0.00090996,-0.0
 0161762,-0.00033195,-0.00166708,0.00302476,0.00036602,0.00007188,0.000
 09292,-0.00833793,0.00226434,-0.00377924,-0.00913397,-0.00271563,-0.00
 436704,0.31983142,-0.00575228,-0.04798499,-0.00272874,-0.00114968,-0.0
 0284337,-0.00201128,0.00001949,0.00140948,-0.00101231,0.00033933,-0.00
 072820,0.00038737,-0.00037827,-0.00035175,0.00027784,0.00162333,-0.000
 10764,-0.00091292,-0.00029246,0.00025955,0.00040155,0.00004379,0.00056
 058,0.00136231,0.00200921,0.00089981,0.00102087,-0.00132172,-0.0018025
 4,0.00036204,-0.00077006,0.00018688,-0.00074076,-0.02288204,0.00250405
 ,-0.01078925,0.02242071,0.00328604,0.01076746,0.00609067,0.04471209,-0
 .08388707,-0.00283349,-0.07810738,-0.03489699,-0.00017268,-0.01273329,
 -0.00081427,0.00072952,0.00150129,-0.00000279,-0.00052081,-0.00000392,
 0.00017158,0.00018240,-0.00037191,0.00483398,0.00058305,-0.00599323,-0
 .00236662,-0.00119832,-0.00106919,-0.00070429,-0.00000683,0.00116391,-
 0.00303999,-0.00136288,-0.00105275,0.00222080,0.00069889,0.00101359,0.
 00102287,-0.00022247,0.00138253,0.01150262,-0.00160420,0.00431450,0.01
 124870,0.00211201,0.00432339,0.09471148,0.00361581,0.08563246\\-0.0000
 0461,-0.00000004,-0.00000205,-0.00000056,0.00000725,-0.00000369,0.0000
 0140,-0.00000977,-0.00000158,-0.00000257,-0.00000313,-0.00000475,-0.00
 000223,-0.00000028,0.00000193,0.00000539,-0.00000725,0.00000485,-0.000
 00113,0.00000264,-0.00000153,-0.00000088,0.00000062,-0.00000433,-0.000
 00333,0.00000777,0.00000071,0.00000197,0.00000004,0.00000111,0.0000026
 0,0.00000477,0.00000090,-0.00000038,0.00000266,0.00000203,0.00000280,-
 0.00000228,0.00000257,0.00000151,-0.00000299,0.00000382\\\@


 WHEN HAVING A MEETING OF THE MINDS,
 MAKE SURE YOU HAVE THE EQUIPMENT FOR IT.
 Job cpu time:       0 days  9 hours 12 minutes 17.3 seconds.
 Elapsed time:       0 days  2 hours 20 minutes 22.2 seconds.
 File lengths (MBytes):  RWF=     54 Int=      0 D2E=      0 Chk=      3 Scr=      1
 Normal termination of Gaussian 16 at Mon Jul 10 21:14:40 2023.
real 8449.52
user 33022.97
sys 114.38
