 Entering Gaussian System, Link 0=g16
 Input=gaussian_test.inp
 Output=gaussian_test.log
 Initial command:
 /sw/restricted/lms/sw/Gaussian/g16_B01/g16/l1.exe "/scratch/user/peterchao1/peterchao1/6097810_1659647584000000809350894/Gau-201490.inp" -scrdir="/scratch/user/peterchao1/peterchao1/6097810_1659647584000000809350894/"
 Entering Link 1 = /sw/restricted/lms/sw/Gaussian/g16_B01/g16/l1.exe PID=    201498.
  
 Copyright (c) 1988-2017, Gaussian, Inc.  All Rights Reserved.
  
 This is part of the Gaussian(R) 16 program.  It is based on
 the Gaussian(R) 09 system (copyright 2009, Gaussian, Inc.),
 the Gaussian(R) 03 system (copyright 2003, Gaussian, Inc.),
 the Gaussian(R) 98 system (copyright 1998, Gaussian, Inc.),
 the Gaussian(R) 94 system (copyright 1995, Gaussian, Inc.),
 the Gaussian 92(TM) system (copyright 1992, Gaussian, Inc.),
 the Gaussian 90(TM) system (copyright 1990, Gaussian, Inc.),
 the Gaussian 88(TM) system (copyright 1988, Gaussian, Inc.),
 the Gaussian 86(TM) system (copyright 1986, Carnegie Mellon
 University), and the Gaussian 82(TM) system (copyright 1983,
 Carnegie Mellon University). Gaussian is a federally registered
 trademark of Gaussian, Inc.
  
 This software contains proprietary and confidential information,
 including trade secrets, belonging to Gaussian, Inc.
  
 This software is provided under written license and may be
 used, copied, transmitted, or stored only in accord with that
 written license.
  
 The following legend is applicable only to US Government
 contracts under FAR:
  
                    RESTRICTED RIGHTS LEGEND
  
 Use, reproduction and disclosure by the US Government is
 subject to restrictions as set forth in subparagraphs (a)
 and (c) of the Commercial Computer Software - Restricted
 Rights clause in FAR 52.227-19.
  
 Gaussian, Inc.
 340 Quinnipiac St., Bldg. 40, Wallingford CT 06492
  
  
 ---------------------------------------------------------------
 Warning -- This program may not be used in any manner that
 competes with the business of Gaussian, Inc. or will provide
 assistance to any competitor of Gaussian, Inc.  The licensee
 of this program is prohibited from giving any competitor of
 Gaussian, Inc. access to this program.  By using this program,
 the user acknowledges that Gaussian, Inc. is engaged in the
 business of creating and licensing software in the field of
 computational chemistry and represents and warrants to the
 licensee that it is not a competitor of Gaussian, Inc. and that
 it will not use this program in any manner prohibited above.
 ---------------------------------------------------------------
  

 Cite this work as:
 Gaussian 16, Revision B.01,
 M. J. Frisch, G. W. Trucks, H. B. Schlegel, G. E. Scuseria, 
 M. A. Robb, J. R. Cheeseman, G. Scalmani, V. Barone, 
 G. A. Petersson, H. Nakatsuji, X. Li, M. Caricato, A. V. Marenich, 
 J. Bloino, B. G. Janesko, R. Gomperts, B. Mennucci, H. P. Hratchian, 
 J. V. Ortiz, A. F. Izmaylov, J. L. Sonnenberg, D. Williams-Young, 
 F. Ding, F. Lipparini, F. Egidi, J. Goings, B. Peng, A. Petrone, 
 T. Henderson, D. Ranasinghe, V. G. Zakrzewski, J. Gao, N. Rega, 
 G. Zheng, W. Liang, M. Hada, M. Ehara, K. Toyota, R. Fukuda, 
 J. Hasegawa, M. Ishida, T. Nakajima, Y. Honda, O. Kitao, H. Nakai, 
 T. Vreven, K. Throssell, J. A. Montgomery, Jr., J. E. Peralta, 
 F. Ogliaro, M. J. Bearpark, J. J. Heyd, E. N. Brothers, K. N. Kudin, 
 V. N. Staroverov, T. A. Keith, R. Kobayashi, J. Normand, 
 K. Raghavachari, A. P. Rendell, J. C. Burant, S. S. Iyengar, 
 J. Tomasi, M. Cossi, J. M. Millam, M. Klene, C. Adamo, R. Cammi, 
 J. W. Ochterski, R. L. Martin, K. Morokuma, O. Farkas, 
 J. B. Foresman, and D. J. Fox, Gaussian, Inc., Wallingford CT, 2016.
 
 ******************************************
 Gaussian 16:  ES64L-G16RevB.01 20-Dec-2017
                 4-Aug-2022 
 ******************************************
 %nprocshared=4
 Will use up to    4 processors via shared memory.
 %mem=8000mb
 ----------------------------------------------------------------------
 #T wB97XD/def2svpp opt=tight freq int(grid=ultrafine) scf=(verytight,q
 c)
 ----------------------------------------------------------------------
 --------------
 Comment gs min
 --------------
 Symbolic Z-matrix:
 Charge =  0 Multiplicity = 1
 O                     0.88025   0.12488   0.11139 
 C                     2.30732   0.07927   0.01197 
 C                     2.84233  -1.34761  -0.16348 
 Br                    2.35898  -2.4181    1.41962 
 C                     2.37706  -2.06088  -1.43734 
 O                     0.95791  -2.14661  -1.59352 
 N                     4.36293  -1.32972  -0.1766 
 O                     4.93485  -0.24068  -0.01167 
 O                     4.95425  -2.40025  -0.37779 
 H                     0.61959   1.06325   0.14553 
 H                     2.70201   0.55253   0.91914 
 H                     2.59276   0.70289  -0.84363 
 H                     2.76093  -3.08503  -1.50026 
 H                     2.75107  -1.52879  -2.31973 
 H                     0.56323  -2.3526   -0.7253 
 

 GradGradGradGradGradGradGradGradGradGradGradGradGradGradGradGradGradGrad
 Initialization pass.
                           ----------------------------
                           !    Initial Parameters    !
                           ! (Angstroms and Degrees)  !
 --------------------------                            --------------------------
 ! Name  Definition              Value          Derivative Info.                !
 --------------------------------------------------------------------------------
 ! R1    R(1,2)                  1.4313         estimate D2E/DX2                !
 ! R2    R(1,10)                 0.9745         estimate D2E/DX2                !
 ! R3    R(2,3)                  1.534          estimate D2E/DX2                !
 ! R4    R(2,11)                 1.0967         estimate D2E/DX2                !
 ! R5    R(2,12)                 1.0966         estimate D2E/DX2                !
 ! R6    R(3,4)                  1.9712         estimate D2E/DX2                !
 ! R7    R(3,5)                  1.5323         estimate D2E/DX2                !
 ! R8    R(3,7)                  1.5208         estimate D2E/DX2                !
 ! R9    R(5,6)                  1.4303         estimate D2E/DX2                !
 ! R10   R(5,13)                 1.0955         estimate D2E/DX2                !
 ! R11   R(5,14)                 1.0962         estimate D2E/DX2                !
 ! R12   R(6,15)                 0.9757         estimate D2E/DX2                !
 ! R13   R(7,8)                  1.2411         estimate D2E/DX2                !
 ! R14   R(7,9)                  1.2394         estimate D2E/DX2                !
 ! A1    A(2,1,10)             107.4467         estimate D2E/DX2                !
 ! A2    A(1,2,3)              112.6653         estimate D2E/DX2                !
 ! A3    A(1,2,11)             106.7161         estimate D2E/DX2                !
 ! A4    A(1,2,12)             107.1948         estimate D2E/DX2                !
 ! A5    A(3,2,11)             111.7468         estimate D2E/DX2                !
 ! A6    A(3,2,12)             110.4249         estimate D2E/DX2                !
 ! A7    A(11,2,12)            107.838          estimate D2E/DX2                !
 ! A8    A(2,3,4)              109.1335         estimate D2E/DX2                !
 ! A9    A(2,3,5)              114.9723         estimate D2E/DX2                !
 ! A10   A(2,3,7)              109.8029         estimate D2E/DX2                !
 ! A11   A(4,3,5)              109.9017         estimate D2E/DX2                !
 ! A12   A(4,3,7)              104.9806         estimate D2E/DX2                !
 ! A13   A(5,3,7)              107.5725         estimate D2E/DX2                !
 ! A14   A(3,5,6)              114.8317         estimate D2E/DX2                !
 ! A15   A(3,5,13)             112.1176         estimate D2E/DX2                !
 ! A16   A(3,5,14)             109.8555         estimate D2E/DX2                !
 ! A17   A(6,5,13)             106.5804         estimate D2E/DX2                !
 ! A18   A(6,5,14)             106.2442         estimate D2E/DX2                !
 ! A19   A(13,5,14)            106.7376         estimate D2E/DX2                !
 ! A20   A(5,6,15)             108.4722         estimate D2E/DX2                !
 ! A21   A(3,7,8)              118.0309         estimate D2E/DX2                !
 ! A22   A(3,7,9)              117.9228         estimate D2E/DX2                !
 ! A23   A(8,7,9)              124.0303         estimate D2E/DX2                !
 ! D1    D(10,1,2,3)          -175.3941         estimate D2E/DX2                !
 ! D2    D(10,1,2,11)           61.6056         estimate D2E/DX2                !
 ! D3    D(10,1,2,12)          -53.7187         estimate D2E/DX2                !
 ! D4    D(1,2,3,4)            -62.001          estimate D2E/DX2                !
 ! D5    D(1,2,3,5)             61.9889         estimate D2E/DX2                !
 ! D6    D(1,2,3,7)           -176.5662         estimate D2E/DX2                !
 ! D7    D(11,2,3,4)            58.1423         estimate D2E/DX2                !
 ! D8    D(11,2,3,5)          -177.8679         estimate D2E/DX2                !
 ! D9    D(11,2,3,7)           -56.423          estimate D2E/DX2                !
 ! D10   D(12,2,3,4)           178.1733         estimate D2E/DX2                !
 ! D11   D(12,2,3,5)           -57.8369         estimate D2E/DX2                !
 ! D12   D(12,2,3,7)            63.608          estimate D2E/DX2                !
 ! D13   D(2,3,5,6)            -56.4134         estimate D2E/DX2                !
 ! D14   D(2,3,5,13)          -178.2482         estimate D2E/DX2                !
 ! D15   D(2,3,5,14)            63.244          estimate D2E/DX2                !
 ! D16   D(4,3,5,6)             67.1695         estimate D2E/DX2                !
 ! D17   D(4,3,5,13)           -54.6653         estimate D2E/DX2                !
 ! D18   D(4,3,5,14)          -173.1731         estimate D2E/DX2                !
 ! D19   D(7,3,5,6)           -179.0635         estimate D2E/DX2                !
 ! D20   D(7,3,5,13)            59.1016         estimate D2E/DX2                !
 ! D21   D(7,3,5,14)           -59.4061         estimate D2E/DX2                !
 ! D22   D(2,3,7,8)              2.122          estimate D2E/DX2                !
 ! D23   D(2,3,7,9)           -176.4834         estimate D2E/DX2                !
 ! D24   D(4,3,7,8)           -115.0705         estimate D2E/DX2                !
 ! D25   D(4,3,7,9)             66.3241         estimate D2E/DX2                !
 ! D26   D(5,3,7,8)            127.9048         estimate D2E/DX2                !
 ! D27   D(5,3,7,9)            -50.7006         estimate D2E/DX2                !
 ! D28   D(3,5,6,15)           -40.7894         estimate D2E/DX2                !
 ! D29   D(13,5,6,15)           84.0055         estimate D2E/DX2                !
 ! D30   D(14,5,6,15)         -162.4332         estimate D2E/DX2                !
 --------------------------------------------------------------------------------
 Number of steps in this run=     77 maximum allowed number of steps=    100.
 GradGradGradGradGradGradGradGradGradGradGradGradGradGradGradGradGradGrad

                    Distance matrix (angstroms):
                    1          2          3          4          5
     1  O    0.000000
     2  C    1.431256   0.000000
     3  C    2.468509   1.533951   0.000000
     4  Br   3.219450   2.867229   1.971239   0.000000
     5  C    3.068640   2.585654   1.532302   2.879263   0.000000
     6  O    2.841200   3.058275   2.496889   3.334024   1.430290
     7  N    3.785216   2.499269   1.520762   2.783578   2.463278
     8  O    4.072905   2.647044   2.372126   3.663994   3.447891
     9  O    4.817993   3.647762   2.369427   3.156965   2.807085
    10  H    0.974499   1.958185   3.293677   4.094946   3.918465
    11  H    2.038174   1.096683   2.191412   3.031962   3.533908
    12  H    2.044223   1.096553   2.174727   3.862322   2.835038
    13  H    4.054367   3.536297   2.193681   3.021930   1.095536
    14  H    3.484959   2.866984   2.165772   3.863592   1.096182
    15  H    2.634095   3.082111   2.553418   2.798158   1.970300
                    6          7          8          9         10
     6  O    0.000000
     7  N    3.777451   0.000000
     8  O    4.685176   1.241089   0.000000
     9  O    4.184862   1.239424   2.190471   0.000000
    10  H    3.666327   4.454511   4.510700   5.573058   0.000000
    11  H    4.079302   2.739008   2.545813   3.933640   2.279425
    12  H    3.369677   2.776677   2.658546   3.927228   2.236447
    13  H    2.034751   2.720219   3.877132   2.557248   4.949969
    14  H    2.030888   2.689001   3.428595   3.063425   4.164059
    15  H    0.975710   3.973044   4.907192   4.405007   3.525557
                   11         12         13         14         15
    11  H    0.000000
    12  H    1.772541   0.000000
    13  H    4.369074   3.848088   0.000000
    14  H    3.850270   2.680360   1.758838   0.000000
    15  H    3.964637   3.670015   2.442724   2.829755   0.000000
 Framework group  C1[X(C3H6BrNO4)]
 Deg. of freedom    39
                         Standard orientation:                         
 ---------------------------------------------------------------------
 Center     Atomic      Atomic             Coordinates (Angstroms)
 Number     Number       Type             X           Y           Z
 ---------------------------------------------------------------------
      1          8           0       -1.853383   -1.241450   -1.125176
      2          6           0       -0.424032   -1.286679   -1.066825
      3          6           0        0.148494   -0.431326    0.070536
      4         35           0       -0.338018    1.454876   -0.231671
      5          6           0       -0.275742   -0.860192    1.479098
      6          8           0       -1.689271   -0.909472    1.691786
      7          7           0        1.668198   -0.458174    0.020601
      8          8           0        2.210456   -1.091774   -0.898534
      9          8           0        2.288864    0.132573    0.916125
     10          1           0       -2.137254   -1.863087   -1.819893
     11          1           0       -0.057754   -0.957547   -2.046736
     12          1           0       -0.137985   -2.337255   -0.936839
     13          1           0        0.133889   -0.200635    2.252004
     14          1           0        0.101543   -1.867327    1.691112
     15          1           0       -2.094845   -0.137448    1.254180
 ---------------------------------------------------------------------
 Rotational constants (GHZ):           1.1954779           1.0560288           0.8523414
   156 basis functions,   304 primitive gaussians,   167 cartesian basis functions
    49 alpha electrons       49 beta electrons
       nuclear repulsion energy       781.5581712282 Hartrees.
 NAtoms=   15 NActive=   15 NUniq=   15 SFac= 1.00D+00 NAtFMM=   60 NAOKFM=F Big=F
 Nuclear repulsion after empirical dispersion term =      781.5495414874 Hartrees.
   1 Symmetry operations used in ECPInt.
 ECPInt:  NShTT=    2628 NPrTT=   11487 LenC2=    2581 LenP2D=    8455.
 LDataN:  DoStor=T MaxTD1= 4 Len=   56
 ExpMin= 1.22D-01 ExpMax= 1.13D+05 ExpMxC= 1.70D+04 IAcc=3 IRadAn=         5 AccDes= 0.00D+00
 Harris functional with IExCor= 4639 and IRadAn=       5 diagonalized for initial guess.
 HarFok:  IExCor= 4639 AccDes= 0.00D+00 IRadAn=         5 IDoV= 1 UseB2=F ITyADJ=14
 ICtDFT=  3500011 ScaDFX=  1.000000  1.000000  1.000000  1.000000
 FoFCou: FMM=F IPFlag=           0 FMFlag=      100000 FMFlg1=           0
         NFxFlg=           0 DoJE=T BraDBF=F KetDBF=T FulRan=T
         wScrn=  0.000000 ICntrl=       500 IOpCl=  0 I1Cent=   200000004 NGrid=           0
         NMat0=    1 NMatS0=      1 NMatT0=    0 NMatD0=    1 NMtDS0=    0 NMtDT0=    0
 Petite list used in FoFCou.
     Accept linear search using points  1 and  2.
     Minimum is close to point  3 DX=  1.21D-01 DF= -2.07D-06 DXR=  9.90D-02 DFR=  9.90D-03 which will be used.
     Minimum is close to point  2 DX=  1.70D-03 DF= -5.59D-11 DXR=  1.70D-03 DFR=  2.89D-06 which will be used.
 SCF Done:  E(RwB97XD) =  -3046.81709040     a.u. after    8 cycles
            Convg  =    0.2810D-09                    45 Fock formations.
              S**2 =  0.0000                  -V/T =  2.0021

 **********************************************************************

            Population analysis using the SCF Density.

 **********************************************************************

 Orbital symmetries:
       Occupied  (A) (A) (A) (A) (A) (A) (A) (A) (A) (A) (A) (A)
                 (A) (A) (A) (A) (A) (A) (A) (A) (A) (A) (A) (A)
                 (A) (A) (A) (A) (A) (A) (A) (A) (A) (A) (A) (A)
                 (A) (A) (A) (A) (A) (A) (A) (A) (A) (A) (A) (A)
                 (A)
       Virtual   (A) (A) (A) (A) (A) (A) (A) (A) (A) (A) (A) (A)
                 (A) (A) (A) (A) (A) (A) (A) (A) (A) (A) (A) (A)
                 (A) (A) (A) (A) (A) (A) (A) (A) (A) (A) (A) (A)
                 (A) (A) (A) (A) (A) (A) (A) (A) (A) (A) (A) (A)
                 (A) (A) (A) (A) (A) (A) (A) (A) (A) (A) (A) (A)
                 (A) (A) (A) (A) (A) (A) (A) (A) (A) (A) (A) (A)
                 (A) (A) (A) (A) (A) (A) (A) (A) (A) (A) (A) (A)
                 (A) (A) (A) (A) (A) (A) (A) (A) (A) (A) (A) (A)
                 (A) (A) (A) (A) (A) (A) (A) (A) (A) (A) (A)
 The electronic state is 1-A.
 Alpha  occ. eigenvalues -- -483.08659 -62.66858 -56.47657 -56.47264 -56.47242
 Alpha  occ. eigenvalues --  -19.31742 -19.31530 -19.27619 -19.26477 -14.70802
 Alpha  occ. eigenvalues --  -10.44198 -10.38187 -10.37554  -8.83793  -6.66419
 Alpha  occ. eigenvalues --   -6.65014  -6.64929  -2.76762  -2.76391  -2.76324
 Alpha  occ. eigenvalues --   -2.75204  -2.75203  -1.33850  -1.16391  -1.13716
 Alpha  occ. eigenvalues --   -1.11994  -0.98476  -0.87664  -0.80903  -0.80130
 Alpha  occ. eigenvalues --   -0.68290  -0.66509  -0.65488  -0.62644  -0.61014
 Alpha  occ. eigenvalues --   -0.60032  -0.58644  -0.55229  -0.52581  -0.49981
 Alpha  occ. eigenvalues --   -0.45517  -0.44571  -0.42382  -0.41800  -0.40749
 Alpha  occ. eigenvalues --   -0.39756  -0.39033  -0.38246  -0.36278
 Alpha virt. eigenvalues --   -0.03747   0.04609   0.09273   0.14542   0.15277
 Alpha virt. eigenvalues --    0.17871   0.19112   0.19817   0.21053   0.24076
 Alpha virt. eigenvalues --    0.26485   0.27091   0.28616   0.35024   0.40101
 Alpha virt. eigenvalues --    0.42360   0.45569   0.48819   0.50251   0.53435
 Alpha virt. eigenvalues --    0.54066   0.56538   0.59797   0.61019   0.62825
 Alpha virt. eigenvalues --    0.63731   0.65586   0.66621   0.68674   0.70222
 Alpha virt. eigenvalues --    0.71048   0.72203   0.74964   0.75351   0.76374
 Alpha virt. eigenvalues --    0.78425   0.80784   0.81686   0.84301   0.87748
 Alpha virt. eigenvalues --    0.92904   0.95434   0.96989   0.98422   1.03031
 Alpha virt. eigenvalues --    1.05818   1.07202   1.08719   1.10948   1.11485
 Alpha virt. eigenvalues --    1.15651   1.16772   1.18812   1.22448   1.27914
 Alpha virt. eigenvalues --    1.30967   1.32832   1.40795   1.44195   1.50760
 Alpha virt. eigenvalues --    1.54386   1.62071   1.67028   1.72301   1.80109
 Alpha virt. eigenvalues --    1.81463   1.85520   1.87878   1.90544   1.98124
 Alpha virt. eigenvalues --    2.01560   2.07476   2.10723   2.16298   2.19148
 Alpha virt. eigenvalues --    2.30783   2.39390   2.42109   2.46772   2.48060
 Alpha virt. eigenvalues --    2.60681   2.65157   2.68087   2.68743   2.70745
 Alpha virt. eigenvalues --    2.71214   2.71955   2.80485   2.89715   2.93500
 Alpha virt. eigenvalues --    2.95714   3.01587   3.07156   3.08346   3.09716
 Alpha virt. eigenvalues --    3.16185   3.30622   3.40182   3.42299   3.46040
 Alpha virt. eigenvalues --    3.53470   3.54872   3.65331   3.65714   3.78293
 Alpha virt. eigenvalues --    3.80533   3.88467
          Condensed to atoms (all electrons):
 Mulliken charges:
               1
     1  O   -0.487965
     2  C    0.120198
     3  C   -0.268382
     4  Br   0.003917
     5  C    0.120374
     6  O   -0.484948
     7  N    0.254551
     8  O   -0.229896
     9  O   -0.219915
    10  H    0.333614
    11  H    0.130001
    12  H    0.121749
    13  H    0.145076
    14  H    0.130267
    15  H    0.331359
 Sum of Mulliken charges =   0.00000
 Mulliken charges with hydrogens summed into heavy atoms:
               1
     1  O   -0.154351
     2  C    0.371947
     3  C   -0.268382
     4  Br   0.003917
     5  C    0.395717
     6  O   -0.153589
     7  N    0.254551
     8  O   -0.229896
     9  O   -0.219915
 Electronic spatial extent (au):  <R**2>=           1518.3325
 Charge=              0.0000 electrons
 Dipole moment (field-independent basis, Debye):
    X=             -1.7759    Y=             -1.0828    Z=             -1.7223  Tot=              2.7005
   1 Symmetry operations used in ECPInt.
 ECPInt:  NShTT=    2628 NPrTT=   11487 LenC2=    2581 LenP2D=    8455.
 LDataN:  DoStor=T MaxTD1= 5 Len=  102
 Calling FoFJK, ICntrl=      2127 FMM=F ISym2X=0 I1Cent= 0 IOpClX= 0 NMat=1 NMatS=1 NMatT=0.

 GradGradGradGradGradGradGradGradGradGradGradGradGradGradGradGradGradGrad
 FormGI is forming the generalized inverse of G from B-inverse, IUseBI=4.
 Internal  Forces:  Max     0.050437253 RMS     0.010664406
 Step number   1 out of a maximum of   77
 All quantities printed in internal units (Hartrees-Bohrs-Radians)
 Mixed Optimization -- RFO/linear search
 Second derivative matrix not updated -- first step.
 ITU=  0
     Eigenvalues ---    0.00230   0.00233   0.00317   0.00339   0.01278
     Eigenvalues ---    0.01291   0.04469   0.04477   0.04738   0.05540
     Eigenvalues ---    0.05545   0.06260   0.08995   0.11820   0.12063
     Eigenvalues ---    0.13976   0.14142   0.15170   0.16000   0.16000
     Eigenvalues ---    0.18522   0.19028   0.22021   0.22030   0.25000
     Eigenvalues ---    0.25000   0.29062   0.29212   0.30293   0.34052
     Eigenvalues ---    0.34066   0.34108   0.34181   0.40809   0.40948
     Eigenvalues ---    0.52227   0.52468   0.86618   0.87270
 Linear search not attempted -- first point.
 Iteration  1 RMS(Cart)=  0.06848777 RMS(Int)=  0.00226588
 Iteration  2 RMS(Cart)=  0.00240268 RMS(Int)=  0.00134719
 Iteration  3 RMS(Cart)=  0.00000563 RMS(Int)=  0.00134718
 Iteration  4 RMS(Cart)=  0.00000002 RMS(Int)=  0.00134718
 Variable       Old X    -DE/DX   Delta X   Delta X   Delta X     New X
                                 (Linear)    (Quad)   (Total)
    R1        2.70468  -0.01598   0.00000  -0.03745  -0.03745   2.66723
    R2        1.84154  -0.00934   0.00000  -0.01719  -0.01719   1.82434
    R3        2.89875  -0.01178   0.00000  -0.03808  -0.03808   2.86066
    R4        2.07243   0.00430   0.00000   0.01199   0.01199   2.08441
    R5        2.07219   0.00628   0.00000   0.01749   0.01749   2.08967
    R6        3.72510  -0.00561   0.00000  -0.03294  -0.03294   3.69216
    R7        2.89563  -0.00313   0.00000  -0.01008  -0.01008   2.88556
    R8        2.87382  -0.00581   0.00000  -0.01806  -0.01806   2.85576
    R9        2.70286  -0.02280   0.00000  -0.05325  -0.05325   2.64960
   R10        2.07026   0.00542   0.00000   0.01505   0.01505   2.08531
   R11        2.07148   0.00496   0.00000   0.01378   0.01378   2.08526
   R12        1.84382  -0.00627   0.00000  -0.01159  -0.01159   1.83223
   R13        2.34532  -0.04687   0.00000  -0.05297  -0.05297   2.29235
   R14        2.34217  -0.05044   0.00000  -0.05659  -0.05659   2.28558
    A1        1.87530  -0.00147   0.00000  -0.00824  -0.00824   1.86706
    A2        1.96638  -0.02090   0.00000  -0.08524  -0.08488   1.88150
    A3        1.86255   0.01480   0.00000   0.08634   0.08250   1.94505
    A4        1.87090   0.01482   0.00000   0.09353   0.09055   1.96145
    A5        1.95035  -0.00466   0.00000  -0.05342  -0.05290   1.89745
    A6        1.92728  -0.00365   0.00000  -0.04288  -0.04195   1.88533
    A7        1.88213   0.00166   0.00000   0.01471   0.00914   1.89127
    A8        1.90474  -0.00093   0.00000  -0.00155  -0.00147   1.90327
    A9        2.00665   0.00406   0.00000   0.01420   0.01402   2.02066
   A10        1.91642  -0.00369   0.00000  -0.02355  -0.02348   1.89294
   A11        1.91815  -0.00156   0.00000  -0.00233  -0.00233   1.91581
   A12        1.83226   0.00330   0.00000   0.02387   0.02389   1.85614
   A13        1.87749  -0.00124   0.00000  -0.00982  -0.00978   1.86771
   A14        2.00419  -0.00514   0.00000  -0.02020  -0.02020   1.98399
   A15        1.95682  -0.00966   0.00000  -0.05903  -0.05924   1.89759
   A16        1.91734  -0.00201   0.00000  -0.03386  -0.03483   1.88251
   A17        1.86018   0.01273   0.00000   0.09859   0.09863   1.95881
   A18        1.85431   0.00180   0.00000  -0.00030  -0.00148   1.85283
   A19        1.86292   0.00371   0.00000   0.02312   0.02079   1.88371
   A20        1.89320   0.00115   0.00000   0.00644   0.00644   1.89964
   A21        2.06003  -0.00384   0.00000  -0.01444  -0.01452   2.04551
   A22        2.05814  -0.00454   0.00000  -0.01705  -0.01713   2.04101
   A23        2.16474   0.00836   0.00000   0.03099   0.03091   2.19565
    D1       -3.06120  -0.00064   0.00000  -0.01252  -0.01249  -3.07370
    D2        1.07522   0.00810   0.00000   0.04824   0.05345   1.12867
    D3       -0.93757  -0.00807   0.00000  -0.05529  -0.06052  -0.99809
    D4       -1.08212   0.00159   0.00000   0.04388   0.04368  -1.03844
    D5        1.08191   0.00176   0.00000   0.04996   0.04976   1.13168
    D6       -3.08166   0.00018   0.00000   0.02908   0.02882  -3.05284
    D7        1.01477   0.00268   0.00000   0.05728   0.05764   1.07241
    D8       -3.10438   0.00285   0.00000   0.06335   0.06372  -3.04066
    D9       -0.98477   0.00127   0.00000   0.04248   0.04278  -0.94199
   D10        3.10971  -0.00077   0.00000   0.01158   0.01147   3.12118
   D11       -1.00944  -0.00060   0.00000   0.01765   0.01756  -0.99189
   D12        1.11017  -0.00218   0.00000  -0.00322  -0.00339   1.10678
   D13       -0.98460   0.00185   0.00000   0.03903   0.03871  -0.94589
   D14       -3.11102  -0.00360   0.00000  -0.03074  -0.03030  -3.14132
   D15        1.10382  -0.00081   0.00000  -0.00007  -0.00030   1.10351
   D16        1.17233   0.00238   0.00000   0.04566   0.04539   1.21772
   D17       -0.95409  -0.00306   0.00000  -0.02412  -0.02363  -0.97772
   D18       -3.02244  -0.00027   0.00000   0.00656   0.00637  -3.01607
   D19       -3.12525   0.00482   0.00000   0.06733   0.06707  -3.05818
   D20        1.03152  -0.00063   0.00000  -0.00245  -0.00195   1.02957
   D21       -1.03683   0.00216   0.00000   0.02823   0.02805  -1.00878
   D22        0.03704  -0.00100   0.00000  -0.00008  -0.00026   0.03678
   D23       -3.08022  -0.00056   0.00000   0.02126   0.02109  -3.05913
   D24       -2.00836   0.00009   0.00000   0.00023   0.00028  -2.00807
   D25        1.15757   0.00054   0.00000   0.02158   0.02163   1.17921
   D26        2.23236   0.00082   0.00000  -0.00430  -0.00418   2.22818
   D27       -0.88489   0.00127   0.00000   0.01705   0.01717  -0.86773
   D28       -0.71191   0.00084   0.00000  -0.00561  -0.00549  -0.71740
   D29        1.46617  -0.00539   0.00000  -0.02004  -0.02098   1.44519
   D30       -2.83499   0.00532   0.00000   0.05022   0.05105  -2.78394
         Item               Value     Threshold  Converged?
 Maximum Force            0.050437     0.000015     NO 
 RMS     Force            0.010664     0.000010     NO 
 Maximum Displacement     0.237249     0.000060     NO 
 RMS     Displacement     0.068232     0.000040     NO 
 GradGradGradGradGradGradGradGradGradGradGradGradGradGradGradGradGradGrad

                    Distance matrix (angstroms):
                    1          2          3          4          5
     1  O    0.000000
     2  C    1.411439   0.000000
     3  C    2.364358   1.513797   0.000000
     4  Br   3.060911   2.835423   1.953807   0.000000
     5  C    2.988974   2.575565   1.526970   2.857806   0.000000
     6  O    2.730136   3.001977   2.452939   3.311122   1.402109
     7  N    3.684154   2.454359   1.511204   2.786282   2.442464
     8  O    3.966953   2.570272   2.330468   3.637827   3.396127
     9  O    4.672751   3.571298   2.324393   3.153123   2.745627
    10  H    0.965400   1.928673   3.199095   3.932684   3.836251
    11  H    2.084976   1.103025   2.140051   2.989109   3.500026
    12  H    2.098486   1.105807   2.133109   3.823318   2.786439
    13  H    3.955805   3.499815   2.152008   2.964235   1.103499
    14  H    3.434819   2.835558   2.140754   3.833721   1.103473
    15  H    2.459597   3.007584   2.507010   2.785981   1.945263
                    6          7          8          9         10
     6  O    0.000000
     7  N    3.721173   0.000000
     8  O    4.581292   1.213059   0.000000
     9  O    4.109617   1.209478   2.156588   0.000000
    10  H    3.521399   4.372271   4.431711   5.446306   0.000000
    11  H    4.034250   2.624720   2.395616   3.793830   2.343258
    12  H    3.274349   2.694547   2.553747   3.804065   2.312010
    13  H    2.086721   2.649952   3.783997   2.445189   4.853346
    14  H    2.011157   2.626494   3.332766   2.962390   4.113264
    15  H    0.969575   3.929041   4.809763   4.355867   3.311104
                   11         12         13         14         15
    11  H    0.000000
    12  H    1.791071   0.000000
    13  H    4.284743   3.779566   0.000000
    14  H    3.784625   2.596563   1.784668   0.000000
    15  H    3.915467   3.568566   2.489811   2.806647   0.000000
 Framework group  C1[X(C3H6BrNO4)]
 Deg. of freedom    39
                         Standard orientation:                         
 ---------------------------------------------------------------------
 Center     Atomic      Atomic             Coordinates (Angstroms)
 Number     Number       Type             X           Y           Z
 ---------------------------------------------------------------------
      1          8           0       -1.643146   -1.284037   -1.141192
      2          6           0       -0.232177   -1.248506   -1.133273
      3          6           0        0.202874   -0.402640    0.044362
      4         35           0       -0.539034    1.394088   -0.152376
      5          6           0       -0.144638   -0.956637    1.424203
      6          8           0       -1.505443   -1.253565    1.585298
      7          7           0        1.705547   -0.250168   -0.005254
      8          8           0        2.284011   -0.760305   -0.941552
      9          8           0        2.228435    0.328614    0.919104
     10          1           0       -1.906178   -1.875376   -1.857522
     11          1           0        0.165050   -0.798118   -2.058490
     12          1           0        0.213701   -2.253597   -1.015824
     13          1           0        0.222889   -0.253425    2.191097
     14          1           0        0.395040   -1.910665    1.551597
     15          1           0       -2.030340   -0.549684    1.174067
 ---------------------------------------------------------------------
 Rotational constants (GHZ):           1.2453875           1.0877006           0.8783458
   156 basis functions,   304 primitive gaussians,   167 cartesian basis functions
    49 alpha electrons       49 beta electrons
       nuclear repulsion energy       793.6865118745 Hartrees.
 NAtoms=   15 NActive=   15 NUniq=   15 SFac= 1.00D+00 NAtFMM=   60 NAOKFM=F Big=F
 Nuclear repulsion after empirical dispersion term =      793.6779103163 Hartrees.
   1 Symmetry operations used in ECPInt.
 ECPInt:  NShTT=    2628 NPrTT=   11487 LenC2=    2583 LenP2D=    8513.
 LDataN:  DoStor=T MaxTD1= 4 Len=   56
 Initial guess from the checkpoint file:  "/scratch/user/peterchao1/peterchao1/6097810_1659647584000000809350894/Gau-201498.chk"
 B after Tr=     0.000000    0.000000    0.000000
         Rot=    0.997420   -0.031999   -0.001177   -0.064256 Ang=  -8.23 deg.
 ExpMin= 1.22D-01 ExpMax= 1.13D+05 ExpMxC= 1.70D+04 IAcc=3 IRadAn=         5 AccDes= 0.00D+00
 Harris functional with IExCor= 4639 and IRadAn=       5 diagonalized for initial guess.
 HarFok:  IExCor= 4639 AccDes= 0.00D+00 IRadAn=         5 IDoV= 1 UseB2=F ITyADJ=14
 ICtDFT=  3500011 ScaDFX=  1.000000  1.000000  1.000000  1.000000
 FoFCou: FMM=F IPFlag=           0 FMFlag=      100000 FMFlg1=           0
         NFxFlg=           0 DoJE=T BraDBF=F KetDBF=T FulRan=T
         wScrn=  0.000000 ICntrl=       500 IOpCl=  0 I1Cent=   200000004 NGrid=           0
         NMat0=    1 NMatS0=      1 NMatT0=    0 NMatD0=    1 NMtDS0=    0 NMtDT0=    0
 Petite list used in FoFCou.
     Accept linear search using points  3 and  4.
     Minimum is close to point  3 DX=  4.10D-02 DF= -1.69D-06 DXR=  3.59D-02 DFR=  1.29D-03 which will be used.
     Accept linear search using points  1 and  2.
     Accept linear search using points  1 and  2.
     Minimum is close to point  2 DX= -7.59D-02 DF= -1.60D-06 DXR=  8.21D-02 DFR=  6.79D-03 which will be used.
     Accept linear search using points  1 and  2.
     Accept linear search using points  1 and  2.
     Accept linear search using points  1 and  2.
     Minimum is close to point  2 DX= -2.33D-04 DF= -3.64D-12 DXR=  2.33D-04 DFR=  5.41D-08 which will be used.
 SCF Done:  E(RwB97XD) =  -3046.82676775     a.u. after   10 cycles
            Convg  =    0.2436D-08                    46 Fock formations.
              S**2 =  0.0000                  -V/T =  2.0020
   1 Symmetry operations used in ECPInt.
 ECPInt:  NShTT=    2628 NPrTT=   11487 LenC2=    2583 LenP2D=    8513.
 LDataN:  DoStor=T MaxTD1= 5 Len=  102
 Calling FoFJK, ICntrl=      2127 FMM=F ISym2X=0 I1Cent= 0 IOpClX= 0 NMat=1 NMatS=1 NMatT=0.

 GradGradGradGradGradGradGradGradGradGradGradGradGradGradGradGradGradGrad
 Using GEDIIS/GDIIS optimizer.
 FormGI is forming the generalized inverse of G from B-inverse, IUseBI=4.
 Internal  Forces:  Max     0.009966551 RMS     0.002987494
 Step number   2 out of a maximum of   77
 All quantities printed in internal units (Hartrees-Bohrs-Radians)
 Mixed Optimization -- RFO/linear search
 Trust test= 9.42D-01 RLast= 3.10D-01 DXMaxT set to 5.05D-01
 ITU=  1  0
 Use linear search instead of GDIIS.
     Eigenvalues ---    0.00230   0.00242   0.00316   0.00338   0.01278
     Eigenvalues ---    0.01291   0.04523   0.04700   0.05351   0.05960
     Eigenvalues ---    0.06086   0.06287   0.08959   0.11321   0.11359
     Eigenvalues ---    0.13566   0.13916   0.15173   0.15988   0.16159
     Eigenvalues ---    0.18581   0.18748   0.21959   0.23581   0.24980
     Eigenvalues ---    0.25430   0.29116   0.29900   0.33060   0.34055
     Eigenvalues ---    0.34088   0.34156   0.35199   0.37900   0.40861
     Eigenvalues ---    0.52205   0.52607   0.81199   0.86944
 Quartic linear search produced a step of  0.01744.
 Iteration  1 RMS(Cart)=  0.08267222 RMS(Int)=  0.00472272
 Iteration  2 RMS(Cart)=  0.00523749 RMS(Int)=  0.00168723
 Iteration  3 RMS(Cart)=  0.00001230 RMS(Int)=  0.00168720
 Iteration  4 RMS(Cart)=  0.00000000 RMS(Int)=  0.00168720
 Variable       Old X    -DE/DX   Delta X   Delta X   Delta X     New X
                                 (Linear)    (Quad)   (Total)
    R1        2.66723  -0.00690  -0.00065  -0.02226  -0.02292   2.64432
    R2        1.82434   0.00050  -0.00030  -0.00152  -0.00182   1.82252
    R3        2.86066   0.00997  -0.00066   0.02876   0.02809   2.88876
    R4        2.08441   0.00030   0.00021   0.00259   0.00280   2.08721
    R5        2.08967   0.00060   0.00030   0.00424   0.00454   2.09422
    R6        3.69216   0.00070  -0.00057  -0.00004  -0.00061   3.69155
    R7        2.88556   0.00720  -0.00018   0.02312   0.02294   2.90850
    R8        2.85576   0.00864  -0.00031   0.02587   0.02555   2.88131
    R9        2.64960  -0.00921  -0.00093  -0.03011  -0.03103   2.61857
   R10        2.08531   0.00090   0.00026   0.00476   0.00503   2.09034
   R11        2.08526   0.00102   0.00024   0.00496   0.00520   2.09046
   R12        1.83223  -0.00068  -0.00020  -0.00297  -0.00317   1.82906
   R13        2.29235  -0.00559  -0.00092  -0.01412  -0.01504   2.27731
   R14        2.28558  -0.00579  -0.00099  -0.01482  -0.01581   2.26977
    A1        1.86706   0.00548  -0.00014   0.03268   0.03253   1.89959
    A2        1.88150   0.00551  -0.00148   0.01531   0.01384   1.89534
    A3        1.94505  -0.00180   0.00144   0.00426   0.00568   1.95073
    A4        1.96145  -0.00153   0.00158   0.00763   0.00919   1.97065
    A5        1.89745  -0.00105  -0.00092  -0.01051  -0.01151   1.88594
    A6        1.88533  -0.00133  -0.00073  -0.01066  -0.01148   1.87385
    A7        1.89127   0.00021   0.00016  -0.00705  -0.00717   1.88410
    A8        1.90327  -0.00057  -0.00003   0.00176   0.00174   1.90501
    A9        2.02066   0.00074   0.00024   0.00844   0.00876   2.02943
   A10        1.89294   0.00283  -0.00041   0.01624   0.01588   1.90882
   A11        1.91581   0.00022  -0.00004  -0.00532  -0.00545   1.91036
   A12        1.85614  -0.00020   0.00042  -0.00207  -0.00181   1.85433
   A13        1.86771  -0.00308  -0.00017  -0.01989  -0.02015   1.84756
   A14        1.98399   0.00454  -0.00035   0.01968   0.01941   2.00340
   A15        1.89759  -0.00311  -0.00103  -0.02953  -0.03080   1.86678
   A16        1.88251  -0.00190  -0.00061  -0.01678  -0.01762   1.86489
   A17        1.95881  -0.00009   0.00172   0.01975   0.02163   1.98044
   A18        1.85283  -0.00036  -0.00003   0.00672   0.00677   1.85959
   A19        1.88371   0.00078   0.00036  -0.00111  -0.00139   1.88232
   A20        1.89964   0.00264   0.00011   0.01720   0.01731   1.91695
   A21        2.04551   0.00231  -0.00025   0.01039   0.00226   2.04777
   A22        2.04101   0.00053  -0.00030   0.00293  -0.00525   2.03576
   A23        2.19565  -0.00277   0.00054  -0.00340  -0.01088   2.18477
    D1       -3.07370  -0.00020  -0.00022  -0.01577  -0.01600  -3.08970
    D2        1.12867  -0.00132   0.00093  -0.01504  -0.01405   1.11462
    D3       -0.99809   0.00082  -0.00106  -0.01447  -0.01557  -1.01366
    D4       -1.03844   0.00098   0.00076   0.11532   0.11608  -0.92236
    D5        1.13168   0.00136   0.00087   0.11596   0.11679   1.24847
    D6       -3.05284  -0.00001   0.00050   0.10805   0.10858  -2.94427
    D7        1.07241   0.00145   0.00101   0.12337   0.12432   1.19673
    D8       -3.04066   0.00183   0.00111   0.12401   0.12503  -2.91562
    D9       -0.94199   0.00046   0.00075   0.11611   0.11682  -0.82517
   D10        3.12118   0.00039   0.00020   0.10344   0.10371  -3.05829
   D11       -0.99189   0.00077   0.00031   0.10408   0.10442  -0.88746
   D12        1.10678  -0.00060  -0.00006   0.09618   0.09621   1.20299
   D13       -0.94589   0.00086   0.00068   0.05216   0.05278  -0.89310
   D14       -3.14132   0.00009  -0.00053   0.03491   0.03461  -3.10672
   D15        1.10351   0.00185  -0.00001   0.06102   0.06079   1.16431
   D16        1.21772   0.00084   0.00079   0.05655   0.05726   1.27498
   D17       -0.97772   0.00006  -0.00041   0.03929   0.03909  -0.93863
   D18       -3.01607   0.00182   0.00011   0.06541   0.06527  -2.95080
   D19       -3.05818  -0.00095   0.00117   0.04069   0.04188  -3.01630
   D20        1.02957  -0.00172  -0.00003   0.02344   0.02370   1.05328
   D21       -1.00878   0.00003   0.00049   0.04956   0.04989  -0.95889
   D22        0.03678   0.00049  -0.00000   0.08802   0.08761   0.12439
   D23       -3.05913  -0.00080   0.00037  -0.13376  -0.13290   3.09115
   D24       -2.00807  -0.00015   0.00000   0.07892   0.07849  -1.92958
   D25        1.17921  -0.00144   0.00038  -0.14286  -0.14202   1.03719
   D26        2.22818   0.00120  -0.00007   0.09579   0.09521   2.32339
   D27       -0.86773  -0.00010   0.00030  -0.12600  -0.12530  -0.99303
   D28       -0.71740   0.00046  -0.00010   0.01579   0.01562  -0.70178
   D29        1.44519  -0.00023  -0.00037   0.00739   0.00710   1.45229
   D30       -2.78394   0.00045   0.00089   0.02088   0.02176  -2.76218
         Item               Value     Threshold  Converged?
 Maximum Force            0.009967     0.000015     NO 
 RMS     Force            0.002987     0.000010     NO 
 Maximum Displacement     0.289403     0.000060     NO 
 RMS     Displacement     0.082389     0.000040     NO 
 GradGradGradGradGradGradGradGradGradGradGradGradGradGradGradGradGradGrad

                    Distance matrix (angstroms):
                    1          2          3          4          5
     1  O    0.000000
     2  C    1.399312   0.000000
     3  C    2.378882   1.528663   0.000000
     4  Br   3.008300   2.848159   1.953482   0.000000
     5  C    3.091873   2.605556   1.539110   2.861441   0.000000
     6  O    2.879853   3.020141   2.465203   3.361720   1.385686
     7  N    3.704386   2.491487   1.524726   2.794170   2.444609
     8  O    3.979063   2.616055   2.337557   3.600215   3.427496
     9  O    4.677267   3.596000   2.325895   3.071270   2.788883
    10  H    0.964439   1.939012   3.225801   3.893626   3.935893
    11  H    2.079511   1.104506   2.145556   3.066129   3.513803
    12  H    2.096079   1.108212   2.139182   3.829544   2.763273
    13  H    4.017833   3.513001   2.141407   2.919132   1.106158
    14  H    3.591379   2.878577   2.140016   3.826929   1.106224
    15  H    2.528251   3.003733   2.530755   2.877809   1.940887
                    6          7          8          9         10
     6  O    0.000000
     7  N    3.718861   0.000000
     8  O    4.602036   1.205100   0.000000
     9  O    4.138035   1.201113   2.136063   0.000000
    10  H    3.646704   4.413922   4.477933   5.471658   0.000000
    11  H    4.075918   2.602065   2.322885   3.742798   2.357180
    12  H    3.180540   2.772563   2.716428   3.897295   2.340639
    13  H    2.089178   2.631774   3.786676   2.468803   4.918712
    14  H    2.004242   2.582658   3.351356   2.989695   4.279634
    15  H    0.967898   3.959509   4.839028   4.399946   3.345250
                   11         12         13         14         15
    11  H    0.000000
    12  H    1.789571   0.000000
    13  H    4.277542   3.769477   0.000000
    14  H    3.767565   2.598414   1.788137   0.000000
    15  H    3.977754   3.453428   2.506490   2.804368   0.000000
 Framework group  C1[X(C3H6BrNO4)]
 Deg. of freedom    39
                         Standard orientation:                         
 ---------------------------------------------------------------------
 Center     Atomic      Atomic             Coordinates (Angstroms)
 Number     Number       Type             X           Y           Z
 ---------------------------------------------------------------------
      1          8           0       -1.740740   -1.043963   -1.248791
      2          6           0       -0.358152   -1.236614   -1.151779
      3          6           0        0.162290   -0.439784    0.044471
      4         35           0       -0.430456    1.414826   -0.114165
      5          6           0       -0.210087   -0.979677    1.436847
      6          8           0       -1.559800   -1.235048    1.619014
      7          7           0        1.686112   -0.405442    0.004786
      8          8           0        2.224482   -0.860174   -0.972784
      9          8           0        2.232826    0.236018    0.860535
     10          1           0       -2.080048   -1.582075   -1.973668
     11          1           0        0.169238   -0.881797   -2.055050
     12          1           0       -0.080736   -2.297080   -0.988724
     13          1           0        0.208963   -0.274539    2.178982
     14          1           0        0.312518   -1.947383    1.555842
     15          1           0       -2.085204   -0.536168    1.203870
 ---------------------------------------------------------------------
 Rotational constants (GHZ):           1.2334367           1.0827211           0.8866027
   156 basis functions,   304 primitive gaussians,   167 cartesian basis functions
    49 alpha electrons       49 beta electrons
       nuclear repulsion energy       793.1813872878 Hartrees.
 NAtoms=   15 NActive=   15 NUniq=   15 SFac= 1.00D+00 NAtFMM=   60 NAOKFM=F Big=F
 Nuclear repulsion after empirical dispersion term =      793.1727610050 Hartrees.
   1 Symmetry operations used in ECPInt.
 ECPInt:  NShTT=    2628 NPrTT=   11487 LenC2=    2581 LenP2D=    8503.
 LDataN:  DoStor=T MaxTD1= 4 Len=   56
 Initial guess from the checkpoint file:  "/scratch/user/peterchao1/peterchao1/6097810_1659647584000000809350894/Gau-201498.chk"
 B after Tr=    -0.000000   -0.000000   -0.000000
         Rot=    0.999326   -0.013096   -0.003695    0.034090 Ang=  -4.21 deg.
 ExpMin= 1.22D-01 ExpMax= 1.13D+05 ExpMxC= 1.70D+04 IAcc=3 IRadAn=         5 AccDes= 0.00D+00
 Harris functional with IExCor= 4639 and IRadAn=       5 diagonalized for initial guess.
 HarFok:  IExCor= 4639 AccDes= 0.00D+00 IRadAn=         5 IDoV= 1 UseB2=F ITyADJ=14
 ICtDFT=  3500011 ScaDFX=  1.000000  1.000000  1.000000  1.000000
 FoFCou: FMM=F IPFlag=           0 FMFlag=      100000 FMFlg1=           0
         NFxFlg=           0 DoJE=T BraDBF=F KetDBF=T FulRan=T
         wScrn=  0.000000 ICntrl=       500 IOpCl=  0 I1Cent=   200000004 NGrid=           0
         NMat0=    1 NMatS0=      1 NMatT0=    0 NMatD0=    1 NMtDS0=    0 NMtDT0=    0
 Petite list used in FoFCou.
     Minimum is close to point  4 DX=  7.29D-02 DF= -5.74D-05 DXR=  5.72D-02 DFR=  3.29D-03 which will be used.
     Accept linear search using points  2 and  3.
     Accept linear search using points  1 and  2.
     Minimum is close to point  2 DX= -6.27D-02 DF= -8.81D-06 DXR=  6.04D-02 DFR=  4.29D-03 which will be used.
     Accept linear search using points  1 and  2.
     Accept linear search using points  1 and  2.
     Accept linear search using points  1 and  2.
     Accept linear search using points  1 and  2.
     Accept linear search using points  1 and  2.
     Minimum is close to point  2 DX= -1.59D-03 DF= -7.44D-10 DXR=  1.59D-03 DFR=  2.55D-06 which will be used.
     Minimum is close to point  2 DX=  1.20D-04 DF=  0.00D+00 DXR=  1.20D-04 DFR=  0.00D+00 which will be used.
 SCF Done:  E(RwB97XD) =  -3046.82512557     a.u. after   13 cycles
            Convg  =    0.1063D-07                    56 Fock formations.
              S**2 =  0.0000                  -V/T =  2.0020
   1 Symmetry operations used in ECPInt.
 ECPInt:  NShTT=    2628 NPrTT=   11487 LenC2=    2581 LenP2D=    8503.
 LDataN:  DoStor=T MaxTD1= 5 Len=  102
 Calling FoFJK, ICntrl=      2127 FMM=F ISym2X=0 I1Cent= 0 IOpClX= 0 NMat=1 NMatS=1 NMatT=0.

 GradGradGradGradGradGradGradGradGradGradGradGradGradGradGradGradGradGrad
 Using GEDIIS/GDIIS optimizer.
 FormGI is forming the generalized inverse of G from B-inverse, IUseBI=4.
 Internal  Forces:  Max     0.011294425 RMS     0.003384933
 Step number   3 out of a maximum of   77
 All quantities printed in internal units (Hartrees-Bohrs-Radians)
 Mixed Optimization -- RFO/linear search
 Trust test=-7.69D-01 RLast= 4.72D-01 DXMaxT set to 2.52D-01
 ITU= -1  1  0
 Use linear search instead of GDIIS.
     Eigenvalues ---    0.00188   0.00232   0.00335   0.01251   0.01286
     Eigenvalues ---    0.02547   0.04460   0.04627   0.05255   0.06013
     Eigenvalues ---    0.06164   0.06628   0.09007   0.10761   0.11376
     Eigenvalues ---    0.13621   0.13882   0.15063   0.15537   0.16010
     Eigenvalues ---    0.18260   0.19496   0.22285   0.24002   0.24407
     Eigenvalues ---    0.25386   0.25510   0.29216   0.30450   0.34061
     Eigenvalues ---    0.34088   0.34126   0.34208   0.37572   0.40892
     Eigenvalues ---    0.52224   0.52524   0.83247   0.86953
 Quartic linear search produced a step of -0.66011.
 Maximum step size (   0.252) exceeded in Quadratic search.
    -- Step size scaled by   0.979
 Iteration  1 RMS(Cart)=  0.08651148 RMS(Int)=  0.01178203
 Iteration  2 RMS(Cart)=  0.01265535 RMS(Int)=  0.00550063
 Iteration  3 RMS(Cart)=  0.00021387 RMS(Int)=  0.00549630
 Iteration  4 RMS(Cart)=  0.00000301 RMS(Int)=  0.00549630
 Iteration  5 RMS(Cart)=  0.00000006 RMS(Int)=  0.00549630
 Variable       Old X    -DE/DX   Delta X   Delta X   Delta X     New X
                                 (Linear)    (Quad)   (Total)
    R1        2.64432  -0.00155   0.01513  -0.05861  -0.04348   2.60084
    R2        1.82252   0.00092   0.00120  -0.00185  -0.00065   1.82188
    R3        2.88876  -0.00112  -0.01854   0.08184   0.06330   2.95205
    R4        2.08721  -0.00080  -0.00185   0.00518   0.00334   2.09055
    R5        2.09422   0.00011  -0.00300   0.00992   0.00692   2.10114
    R6        3.69155  -0.00043   0.00041   0.00238   0.00279   3.69433
    R7        2.90850  -0.00064  -0.01514   0.06391   0.04876   2.95726
    R8        2.88131   0.00496  -0.01687   0.07776   0.06089   2.94220
    R9        2.61857   0.00039   0.02049  -0.07720  -0.05671   2.56185
   R10        2.09034  -0.00005  -0.00332   0.01149   0.00817   2.09851
   R11        2.09046  -0.00020  -0.00343   0.01203   0.00860   2.09906
   R12        1.82906   0.00127   0.00209  -0.00627  -0.00417   1.82489
   R13        2.27731   0.00834   0.00993  -0.03070  -0.02077   2.25654
   R14        2.26977   0.00878   0.01044  -0.03214  -0.02170   2.24807
    A1        1.89959   0.00025  -0.02147   0.08966   0.06818   1.96778
    A2        1.89534  -0.00123  -0.00914   0.04815   0.03895   1.93429
    A3        1.95073   0.00112  -0.00375   0.00723   0.00340   1.95413
    A4        1.97065  -0.00117  -0.00607   0.00481  -0.00115   1.96950
    A5        1.88594   0.00113   0.00760  -0.01902  -0.01167   1.87428
    A6        1.87385   0.00037   0.00758  -0.02601  -0.01852   1.85533
    A7        1.88410  -0.00014   0.00473  -0.01795  -0.01339   1.87071
    A8        1.90501   0.00143  -0.00115   0.00542   0.00417   1.90918
    A9        2.02943  -0.00565  -0.00579   0.00985   0.00436   2.03379
   A10        1.90882   0.00172  -0.01048   0.04889   0.03837   1.94720
   A11        1.91036   0.00115   0.00360  -0.01264  -0.00921   1.90116
   A12        1.85433  -0.00075   0.00120  -0.00449  -0.00378   1.85055
   A13        1.84756   0.00247   0.01330  -0.04902  -0.03582   1.81174
   A14        2.00340  -0.00489  -0.01281   0.04856   0.03587   2.03927
   A15        1.86678   0.00252   0.02033  -0.07014  -0.05020   1.81658
   A16        1.86489   0.00090   0.01163  -0.04085  -0.02966   1.83523
   A17        1.98044   0.00074  -0.01428   0.04218   0.02822   2.00866
   A18        1.85959   0.00169  -0.00447   0.01917   0.01488   1.87447
   A19        1.88232  -0.00082   0.00092  -0.00504  -0.00529   1.87702
   A20        1.91695   0.00022  -0.01143   0.04625   0.03483   1.95178
   A21        2.04777   0.00121  -0.00149   0.03794   0.01104   2.05881
   A22        2.03576   0.00074   0.00347   0.01724  -0.00474   2.03102
   A23        2.18477   0.00105   0.00718  -0.00455  -0.02381   2.16096
    D1       -3.08970   0.00076   0.01056  -0.02704  -0.01641  -3.10611
    D2        1.11462  -0.00053   0.00928  -0.03895  -0.02982   1.08480
    D3       -1.01366  -0.00032   0.01028  -0.02435  -0.01399  -1.02765
    D4       -0.92236  -0.00076  -0.07662   0.12307   0.04647  -0.87589
    D5        1.24847  -0.00230  -0.07710   0.11803   0.04084   1.28931
    D6       -2.94427  -0.00162  -0.07167   0.09823   0.02650  -2.91777
    D7        1.19673   0.00054  -0.08206   0.14881   0.06676   1.26349
    D8       -2.91562  -0.00100  -0.08254   0.14376   0.06113  -2.85449
    D9       -0.82517  -0.00032  -0.07711   0.12396   0.04678  -0.77839
   D10       -3.05829   0.00115  -0.06846   0.10469   0.03639  -3.02190
   D11       -0.88746  -0.00040  -0.06893   0.09965   0.03076  -0.85670
   D12        1.20299   0.00028  -0.06351   0.07985   0.01642   1.21940
   D13       -0.89310   0.00080  -0.03484   0.07872   0.04383  -0.84927
   D14       -3.10672   0.00136  -0.02284   0.04424   0.02188  -3.08483
   D15        1.16431   0.00066  -0.04013   0.10326   0.06270   1.22701
   D16        1.27498  -0.00061  -0.03780   0.08298   0.04506   1.32004
   D17       -0.93863  -0.00005  -0.02580   0.04850   0.02311  -0.91552
   D18       -2.95080  -0.00075  -0.04309   0.10752   0.06393  -2.88686
   D19       -3.01630   0.00033  -0.02765   0.04663   0.01900  -2.99730
   D20        1.05328   0.00089  -0.01565   0.01215  -0.00295   1.05033
   D21       -0.95889   0.00019  -0.03293   0.07117   0.03787  -0.92102
   D22        0.12439  -0.00628  -0.05783  -0.15091  -0.20642  -0.08204
   D23        3.09115   0.01129   0.08773   0.14278   0.22851  -2.96352
   D24       -1.92958  -0.00845  -0.05181  -0.17993  -0.22955  -2.15913
   D25        1.03719   0.00913   0.09375   0.11376   0.20538   1.24257
   D26        2.32339  -0.01056  -0.06285  -0.14064  -0.20152   2.12186
   D27       -0.99303   0.00702   0.08271   0.15305   0.23341  -0.75962
   D28       -0.70178  -0.00029  -0.01031   0.03146   0.02111  -0.68067
   D29        1.45229  -0.00024  -0.00469   0.01041   0.00592   1.45822
   D30       -2.76218   0.00029  -0.01436   0.04099   0.02647  -2.73572
         Item               Value     Threshold  Converged?
 Maximum Force            0.011294     0.000015     NO 
 RMS     Force            0.003385     0.000010     NO 
 Maximum Displacement     0.311414     0.000060     NO 
 RMS     Displacement     0.091000     0.000040     NO 
 GradGradGradGradGradGradGradGradGradGradGradGradGradGradGradGradGradGrad

                    Distance matrix (angstroms):
                    1          2          3          4          5
     1  O    0.000000
     2  C    1.376303   0.000000
     3  C    2.421438   1.562158   0.000000
     4  Br   3.051236   2.879200   1.954957   0.000000
     5  C    3.190511   2.659506   1.564915   2.873260   0.000000
     6  O    3.038203   3.073652   2.490512   3.416956   1.355674
     7  N    3.777281   2.579234   1.556947   2.815465   2.456796
     8  O    4.073743   2.722218   2.365037   3.728308   3.361819
     9  O    4.743538   3.656189   2.341922   3.204155   2.672449
    10  H    0.964096   1.962074   3.290548   3.941699   4.047193
    11  H    2.063240   1.106272   2.167274   3.130145   3.553476
    12  H    2.078135   1.111874   2.156790   3.848905   2.786296
    13  H    4.089075   3.540475   2.127867   2.872216   1.110483
    14  H    3.704187   2.934336   2.142756   3.821480   1.110774
    15  H    2.658550   3.047263   2.582764   2.992804   1.934937
                    6          7          8          9         10
     6  O    0.000000
     7  N    3.723460   0.000000
     8  O    4.541349   1.194111   0.000000
     9  O    4.016354   1.189629   2.102898   0.000000
    10  H    3.803797   4.521776   4.620993   5.561665   0.000000
    11  H    4.133318   2.666587   2.474432   3.836697   2.380918
    12  H    3.172161   2.856108   2.755727   3.891886   2.377867
    13  H    2.085106   2.587616   3.682646   2.312009   5.002258
    14  H    1.993053   2.536230   3.165247   2.743044   4.422734
    15  H    0.965690   4.016985   4.868676   4.391035   3.451426
                   11         12         13         14         15
    11  H    0.000000
    12  H    1.785188   0.000000
    13  H    4.284700   3.785943   0.000000
    14  H    3.779654   2.638770   1.791842   0.000000
    15  H    4.057232   3.423812   2.527720   2.804089   0.000000
 Framework group  C1[X(C3H6BrNO4)]
 Deg. of freedom    39
                         Standard orientation:                         
 ---------------------------------------------------------------------
 Center     Atomic      Atomic             Coordinates (Angstroms)
 Number     Number       Type             X           Y           Z
 ---------------------------------------------------------------------
      1          8           0       -1.646165   -1.352621   -1.191685
      2          6           0       -0.271782   -1.280839   -1.180334
      3          6           0        0.227031   -0.366559   -0.016025
      4         35           0       -0.735494    1.334221   -0.068476
      5          6           0        0.130896   -0.959905    1.428847
      6          8           0       -1.051692   -1.520136    1.783079
      7          7           0        1.735000   -0.012134   -0.172536
      8          8           0        2.339990   -0.521700   -1.067091
      9          8           0        2.251742    0.520862    0.757040
     10          1           0       -1.983281   -1.935861   -1.881371
     11          1           0        0.128532   -0.863257   -2.123314
     12          1           0        0.210930   -2.270883   -1.028464
     13          1           0        0.474854   -0.132122    2.084318
     14          1           0        0.901483   -1.759034    1.466382
     15          1           0       -1.803096   -1.019079    1.441186
 ---------------------------------------------------------------------
 Rotational constants (GHZ):           1.2079227           1.0374664           0.8647178
   156 basis functions,   304 primitive gaussians,   167 cartesian basis functions
    49 alpha electrons       49 beta electrons
       nuclear repulsion energy       785.3506177818 Hartrees.
 NAtoms=   15 NActive=   15 NUniq=   15 SFac= 1.00D+00 NAtFMM=   60 NAOKFM=F Big=F
 Nuclear repulsion after empirical dispersion term =      785.3418979454 Hartrees.
   1 Symmetry operations used in ECPInt.
 ECPInt:  NShTT=    2628 NPrTT=   11487 LenC2=    2582 LenP2D=    8484.
 LDataN:  DoStor=T MaxTD1= 4 Len=   56
 Lowest energy guess from the checkpoint file:  "/scratch/user/peterchao1/peterchao1/6097810_1659647584000000809350894/Gau-201498.chk"
 B after Tr=     0.000000   -0.000000    0.000000
         Rot=    0.997184   -0.014679   -0.044791   -0.058322 Ang=  -8.60 deg.
 B after Tr=     0.000000    0.000000    0.000000
         Rot=    0.994871   -0.003257   -0.039963   -0.092861 Ang= -11.61 deg.
     Minimum is close to point  4 DX= -7.19D-03 DF= -2.45D-06 DXR=  8.05D-03 DFR=  6.49D-05 which will be used.
     Accept linear search using points  1 and  2.
     Minimum is close to point  2 DX=  7.44D-03 DF= -1.33D-07 DXR=  1.22D-02 DFR=  1.50D-04 which will be used.
     Accept linear search using points  1 and  2.
     Minimum is close to point  3 DX=  8.75D-02 DF= -2.86D-06 DXR=  8.05D-02 DFR=  6.52D-03 which will be used.
     Accept linear search using points  1 and  2.
     Minimum is close to point  3 DX=  1.34D-03 DF= -1.13D-09 DXR=  4.45D-03 DFR=  1.98D-05 which will be used.
     Minimum is close to point  3 DX= -1.47D-03 DF= -5.49D-10 DXR=  4.92D-03 DFR=  2.42D-05 which will be used.
     Accept linear search using points  1 and  2.
     Minimum is close to point  2 DX= -4.00D-02 DF= -1.88D-08 DXR=  2.57D-02 DFR=  1.36D-03 which will be used.
     Minimum is close to point  3 DX= -7.17D-03 DF= -6.35D-09 DXR=  2.45D-02 DFR=  6.00D-04 which will be used.
     Minimum is close to point  2 DX=  1.35D-04 DF=  0.00D+00 DXR=  1.35D-04 DFR=  0.00D+00 which will be used.
 SCF Done:  E(RwB97XD) =  -3046.81892917     a.u. after   18 cycles
            Convg  =    0.1221D-08                    68 Fock formations.
              S**2 =  0.0000                  -V/T =  2.0020
   1 Symmetry operations used in ECPInt.
 ECPInt:  NShTT=    2628 NPrTT=   11487 LenC2=    2582 LenP2D=    8484.
 LDataN:  DoStor=T MaxTD1= 5 Len=  102
 Calling FoFJK, ICntrl=      2127 FMM=F ISym2X=0 I1Cent= 0 IOpClX= 0 NMat=1 NMatS=1 NMatT=0.

 GradGradGradGradGradGradGradGradGradGradGradGradGradGradGradGradGradGrad
 Using GEDIIS/GDIIS optimizer.
 FormGI is forming the generalized inverse of G from B-inverse, IUseBI=4.
 Internal  Forces:  Max     0.030345367 RMS     0.008796936
 Step number   4 out of a maximum of   77
 All quantities printed in internal units (Hartrees-Bohrs-Radians)
 Mixed Optimization -- RFO/linear search
 Iteration  1 RMS(Cart)=  0.08567813 RMS(Int)=  0.01058501
 Iteration  2 RMS(Cart)=  0.01144333 RMS(Int)=  0.00014085
 Iteration  3 RMS(Cart)=  0.00014123 RMS(Int)=  0.00000001
 Iteration  4 RMS(Cart)=  0.00000001 RMS(Int)=  0.00000000
 Trust test=-3.15D-01 RLast= 4.72D-01 DXMaxT set to 1.26D-01
 ITU= -1 -1  1  0
 Use linear search instead of GDIIS.
 Energy rises -- skip Quadratic/GDIIS search.
 Quartic linear search produced a step of -0.66011.
 Iteration  1 RMS(Cart)=  0.05398350 RMS(Int)=  0.00436403
 Iteration  2 RMS(Cart)=  0.00217895 RMS(Int)=  0.00396026
 Iteration  3 RMS(Cart)=  0.00000357 RMS(Int)=  0.00396026
 Iteration  4 RMS(Cart)=  0.00000004 RMS(Int)=  0.00396026
 Variable       Old X    -DE/DX   Delta X   Delta X   Delta X     New X
                                 (Linear)    (Quad)   (Total)
    R1        2.64432  -0.00155   0.01513   0.00000  -0.02835   2.61596
    R2        1.82252   0.00092   0.00120   0.00000   0.00055   1.82308
    R3        2.88876  -0.00112  -0.01854   0.00000   0.04475   2.93351
    R4        2.08721  -0.00080  -0.00185   0.00000   0.00149   2.08870
    R5        2.09422   0.00011  -0.00300   0.00000   0.00392   2.09814
    R6        3.69155  -0.00043   0.00041   0.00000   0.00319   3.69474
    R7        2.90850  -0.00064  -0.01514   0.00000   0.03362   2.94212
    R8        2.88131   0.00496  -0.01687   0.00000   0.04402   2.92534
    R9        2.61857   0.00039   0.02049   0.00000  -0.03623   2.58234
   R10        2.09034  -0.00005  -0.00332   0.00000   0.00485   2.09519
   R11        2.09046  -0.00020  -0.00343   0.00000   0.00517   2.09563
   R12        1.82906   0.00127   0.00209   0.00000  -0.00208   1.82698
   R13        2.27731   0.00834   0.00993   0.00000  -0.01084   2.26647
   R14        2.26977   0.00878   0.01044   0.00000  -0.01127   2.25851
    A1        1.89959   0.00025  -0.02147   0.00000   0.04671   1.94630
    A2        1.89534  -0.00123  -0.00914   0.00000   0.02982   1.92515
    A3        1.95073   0.00112  -0.00375   0.00000  -0.00045   1.95028
    A4        1.97065  -0.00117  -0.00607   0.00000  -0.00733   1.96332
    A5        1.88594   0.00113   0.00760   0.00000  -0.00385   1.88209
    A6        1.87385   0.00037   0.00758   0.00000  -0.01072   1.86313
    A7        1.88410  -0.00014   0.00473   0.00000  -0.00835   1.87575
    A8        1.90501   0.00143  -0.00115   0.00000   0.00305   1.90806
    A9        2.02943  -0.00565  -0.00579   0.00000  -0.00167   2.02776
   A10        1.90882   0.00172  -0.01048   0.00000   0.02782   1.93664
   A11        1.91036   0.00115   0.00360   0.00000  -0.00541   1.90496
   A12        1.85433  -0.00075   0.00120   0.00000  -0.00216   1.85218
   A13        1.84756   0.00247   0.01330   0.00000  -0.02232   1.82524
   A14        2.00340  -0.00489  -0.01281   0.00000   0.02287   2.02628
   A15        1.86678   0.00252   0.02033   0.00000  -0.02934   1.83744
   A16        1.86489   0.00090   0.01163   0.00000  -0.01753   1.84737
   A17        1.98044   0.00074  -0.01428   0.00000   0.01359   1.99403
   A18        1.85959   0.00169  -0.00447   0.00000   0.01019   1.86979
   A19        1.88232  -0.00082   0.00092   0.00000  -0.00294   1.87938
   A20        1.91695   0.00022  -0.01143   0.00000   0.02340   1.94035
   A21        2.04777   0.00121  -0.00149   0.00000  -0.00816   2.03961
   A22        2.03576   0.00074   0.00347   0.00000  -0.01902   2.01674
   A23        2.18477   0.00105   0.00718   0.00000  -0.03615   2.14862
    D1       -3.08970   0.00076   0.01056   0.00000  -0.00584  -3.09554
    D2        1.11462  -0.00053   0.00928   0.00000  -0.02039   1.09423
    D3       -1.01366  -0.00032   0.01028   0.00000  -0.00387  -1.01753
    D4       -0.92236  -0.00076  -0.07662   0.00000  -0.03017  -0.95254
    D5        1.24847  -0.00230  -0.07710   0.00000  -0.03618   1.21229
    D6       -2.94427  -0.00162  -0.07167   0.00000  -0.04521  -2.98948
    D7        1.19673   0.00054  -0.08206   0.00000  -0.01519   1.18154
    D8       -2.91562  -0.00100  -0.08254   0.00000  -0.02120  -2.93682
    D9       -0.82517  -0.00032  -0.07711   0.00000  -0.03023  -0.85540
   D10       -3.05829   0.00115  -0.06846   0.00000  -0.03224  -3.09054
   D11       -0.88746  -0.00040  -0.06893   0.00000  -0.03825  -0.92571
   D12        1.20299   0.00028  -0.06351   0.00000  -0.04728   1.15570
   D13       -0.89310   0.00080  -0.03484   0.00000   0.00908  -0.88403
   D14       -3.10672   0.00136  -0.02284   0.00000  -0.00150  -3.10822
   D15        1.16431   0.00066  -0.04013   0.00000   0.02310   1.18741
   D16        1.27498  -0.00061  -0.03780   0.00000   0.00742   1.28240
   D17       -0.93863  -0.00005  -0.02580   0.00000  -0.00316  -0.94180
   D18       -2.95080  -0.00075  -0.04309   0.00000   0.02144  -2.92935
   D19       -3.01630   0.00033  -0.02765   0.00000  -0.00870  -3.02500
   D20        1.05328   0.00089  -0.01565   0.00000  -0.01928   1.03400
   D21       -0.95889   0.00019  -0.03293   0.00000   0.00533  -0.95356
   D22        0.12439  -0.00628  -0.05783   0.00000  -0.26195  -0.13756
   D23       -3.19203   0.01129   0.08773   0.00000   0.31367  -2.87836
   D24       -1.92958  -0.00845  -0.05181   0.00000  -0.27897  -2.20855
   D25        1.03719   0.00913   0.09375   0.00000   0.29665   1.33383
   D26        2.32339  -0.01056  -0.06285   0.00000  -0.26176   2.06163
   D27       -0.99303   0.00702   0.08271   0.00000   0.31386  -0.67917
   D28       -0.70178  -0.00029  -0.01031   0.00000   0.01093  -0.69085
   D29        1.45229  -0.00024  -0.00469   0.00000   0.00100   1.45330
   D30       -2.76218   0.00029  -0.01436   0.00000   0.01220  -2.74998
         Item               Value     Threshold  Converged?
 Maximum Force            0.030345     0.000015     NO 
 RMS     Force            0.008797     0.000010     NO 
 Maximum Displacement     0.189781     0.000060     NO 
 RMS     Displacement     0.054136     0.000040     NO 
 GradGradGradGradGradGradGradGradGradGradGradGradGradGradGradGradGradGrad

                    Distance matrix (angstroms):
                    1          2          3          4          5
     1  O    0.000000
     2  C    1.384308   0.000000
     3  C    2.411926   1.552345   0.000000
     4  Br   3.081145   2.870737   1.955172   0.000000
     5  C    3.124268   2.639404   1.556901   2.871127   0.000000
     6  O    2.937343   3.059599   2.482554   3.385864   1.366515
     7  N    3.765017   2.554504   1.548021   2.810686   2.456338
     8  O    4.047942   2.677844   2.347893   3.741351   3.330826
     9  O    4.721412   3.625025   2.328237   3.245476   2.633167
    10  H    0.964731   1.956163   3.274049   3.965129   3.982277
    11  H    2.066780   1.105294   2.163913   3.078719   3.547251
    12  H    2.079636   1.110286   2.153119   3.846997   2.801057
    13  H    4.053138   3.533252   2.136098   2.903883   1.108728
    14  H    3.608141   2.905529   2.143972   3.828425   1.108958
    15  H    2.598522   3.047136   2.566623   2.932627   1.938157
                    6          7          8          9         10
     6  O    0.000000
     7  N    3.727377   0.000000
     8  O    4.517138   1.199364   0.000000
     9  O    3.987158   1.195151   2.105409   0.000000
    10  H    3.714892   4.496887   4.575476   5.527402   0.000000
    11  H    4.112101   2.679164   2.509117   3.856387   2.371960
    12  H    3.232226   2.804717   2.637794   3.818719   2.359677
    13  H    2.083546   2.600263   3.672445   2.289304   4.964020
    14  H    1.997471   2.567515   3.146170   2.716719   4.318800
    15  H    0.966797   3.999299   4.837462   4.351243   3.412714
                   11         12         13         14         15
    11  H    0.000000
    12  H    1.786433   0.000000
    13  H    4.291955   3.793172   0.000000
    14  H    3.795515   2.631418   1.790502   0.000000
    15  H    4.020979   3.502745   2.516865   2.805933   0.000000
 Framework group  C1[X(C3H6BrNO4)]
 Deg. of freedom    39
                         Standard orientation:                         
 ---------------------------------------------------------------------
 Center     Atomic      Atomic             Coordinates (Angstroms)
 Number     Number       Type             X           Y           Z
 ---------------------------------------------------------------------
      1          8           0       -1.546736   -1.496322   -1.131575
      2          6           0       -0.180200   -1.279086   -1.172762
      3          6           0        0.250737   -0.338107   -0.015772
      4         35           0       -0.801851    1.307678   -0.094182
      5          6           0        0.164105   -0.931685    1.420926
      6          8           0       -1.023350   -1.517548    1.758685
      7          7           0        1.730169    0.089980   -0.171945
      8          8           0        2.363017   -0.452172   -1.034528
      9          8           0        2.231430    0.575630    0.798245
     10          1           0       -1.827985   -2.112033   -1.818964
     11          1           0        0.131416   -0.810561   -2.124105
     12          1           0        0.402619   -2.216914   -1.056414
     13          1           0        0.474220   -0.108811    2.096192
     14          1           0        0.942863   -1.719637    1.470483
     15          1           0       -1.772279   -1.014070    1.411825
 ---------------------------------------------------------------------
 Rotational constants (GHZ):           1.2189751           1.0434789           0.8625035
   156 basis functions,   304 primitive gaussians,   167 cartesian basis functions
    49 alpha electrons       49 beta electrons
       nuclear repulsion energy       786.4441045502 Hartrees.
 NAtoms=   15 NActive=   15 NUniq=   15 SFac= 1.00D+00 NAtFMM=   60 NAOKFM=F Big=F
 Nuclear repulsion after empirical dispersion term =      786.4353855390 Hartrees.
   1 Symmetry operations used in ECPInt.
 ECPInt:  NShTT=    2628 NPrTT=   11487 LenC2=    2583 LenP2D=    8491.
 LDataN:  DoStor=T MaxTD1= 4 Len=   56
 Lowest energy guess from the checkpoint file:  "/scratch/user/peterchao1/peterchao1/6097810_1659647584000000809350894/Gau-201498.chk"
 B after Tr=     0.000000   -0.000000   -0.000000
         Rot=    0.995962   -0.006171   -0.039922   -0.080173 Ang= -10.30 deg.
 B after Tr=    -0.000000   -0.000000   -0.000000
         Rot=    0.999712    0.007244    0.005563   -0.022177 Ang=   2.75 deg.
     Accept linear search using points  3 and  4.
     Minimum is close to point  3 DX=  7.46D-02 DF= -2.67D-05 DXR=  7.65D-02 DFR=  5.89D-03 which will be used.
     Accept linear search using points  1 and  2.
     Accept linear search using points  1 and  2.
     Minimum is close to point  2 DX=  3.37D-02 DF= -9.26D-07 DXR=  6.31D-02 DFR=  3.99D-03 which will be used.
     Minimum is close to point  2 DX=  3.24D-02 DF= -5.64D-07 DXR=  6.09D-02 DFR=  3.73D-03 which will be used.
     Minimum is close to point  2 DX=  3.59D-02 DF= -4.62D-07 DXR=  6.70D-02 DFR=  4.50D-03 which will be used.
     Minimum is close to point  2 DX=  4.45D-02 DF= -4.81D-07 DXR=  8.17D-02 DFR=  6.71D-03 which will be used.
     Accept linear search using points  1 and  2.
     Minimum is close to point  3 DX=  2.73D-02 DF= -1.76D-07 DXR=  8.35D-02 DFR=  7.01D-03 which will be used.
     Accept linear search using points  1 and  2.
     Minimum is close to point  2 DX= -7.80D-04 DF= -3.14D-11 DXR=  7.81D-04 DFR=  6.11D-07 which will be used.
 SCF Done:  E(RwB97XD) =  -3046.81647643     a.u. after   15 cycles
            Convg  =    0.1184D-08                    58 Fock formations.
              S**2 =  0.0000                  -V/T =  2.0020
   1 Symmetry operations used in ECPInt.
 ECPInt:  NShTT=    2628 NPrTT=   11487 LenC2=    2583 LenP2D=    8491.
 LDataN:  DoStor=T MaxTD1= 5 Len=  102
 Calling FoFJK, ICntrl=      2127 FMM=F ISym2X=0 I1Cent= 0 IOpClX= 0 NMat=1 NMatS=1 NMatT=0.

 GradGradGradGradGradGradGradGradGradGradGradGradGradGradGradGradGradGrad
 Using GEDIIS/GDIIS optimizer.
 FormGI is forming the generalized inverse of G from B-inverse, IUseBI=4.
 Internal  Forces:  Max     0.024569880 RMS     0.007975801
 Step number   5 out of a maximum of   77
 All quantities printed in internal units (Hartrees-Bohrs-Radians)
 Mixed Optimization -- RFO/linear search
 ITU=  0 -1 -1  1  0
 Use linear search instead of GDIIS.
 Energy rises -- skip Quadratic/GDIIS search.
 Quartic linear search produced a step of -0.83442.
 Iteration  1 RMS(Cart)=  0.08334684 RMS(Int)=  0.00512032
 Iteration  2 RMS(Cart)=  0.00559220 RMS(Int)=  0.00060168
 Iteration  3 RMS(Cart)=  0.00003212 RMS(Int)=  0.00060107
 Iteration  4 RMS(Cart)=  0.00000000 RMS(Int)=  0.00060107
 Variable       Old X    -DE/DX   Delta X   Delta X   Delta X     New X
                                 (Linear)    (Quad)   (Total)
    R1        2.61596   0.00465   0.04278   0.00000   0.04278   2.65874
    R2        1.82308  -0.00056   0.00106   0.00000   0.00106   1.82413
    R3        2.93351  -0.01698  -0.06078   0.00000  -0.06078   2.87272
    R4        2.08870   0.00063  -0.00358   0.00000  -0.00358   2.08512
    R5        2.09814  -0.00121  -0.00706   0.00000  -0.00706   2.09107
    R6        3.69474  -0.00029  -0.00215   0.00000  -0.00215   3.69259
    R7        2.94212  -0.00660  -0.04720   0.00000  -0.04720   2.89492
    R8        2.92534  -0.00614  -0.05805   0.00000  -0.05805   2.86728
    R9        2.58234   0.01176   0.05613   0.00000   0.05613   2.63846
   R10        2.09519  -0.00259  -0.00824   0.00000  -0.00824   2.08695
   R11        2.09563  -0.00175  -0.00865   0.00000  -0.00865   2.08698
   R12        1.82698   0.00217   0.00438   0.00000   0.00438   1.83136
   R13        2.26647   0.02305   0.02159   0.00000   0.02159   2.28806
   R14        2.25851   0.02457   0.02259   0.00000   0.02259   2.28110
    A1        1.94630  -0.00770  -0.06612   0.00000  -0.06612   1.88018
    A2        1.92515  -0.01158  -0.03643   0.00000  -0.03642   1.88873
    A3        1.95028   0.00496  -0.00436   0.00000  -0.00436   1.94592
    A4        1.96332   0.00334  -0.00155   0.00000  -0.00158   1.96173
    A5        1.88209   0.00206   0.01282   0.00000   0.01287   1.89497
    A6        1.86313   0.00210   0.01852   0.00000   0.01856   1.88169
    A7        1.87575  -0.00076   0.01295   0.00000   0.01301   1.88876
    A8        1.90806   0.00252  -0.00399   0.00000  -0.00398   1.90408
    A9        2.02776  -0.00534  -0.00592   0.00000  -0.00599   2.02177
   A10        1.93664  -0.00761  -0.03646   0.00000  -0.03647   1.90017
   A11        1.90496  -0.00013   0.00906   0.00000   0.00910   1.91406
   A12        1.85218   0.00073   0.00331   0.00000   0.00342   1.85560
   A13        1.82524   0.01049   0.03544   0.00000   0.03548   1.86072
   A14        2.02628  -0.01369  -0.03528   0.00000  -0.03534   1.99094
   A15        1.83744   0.00748   0.05018   0.00000   0.05031   1.88775
   A16        1.84737   0.00339   0.02933   0.00000   0.02946   1.87683
   A17        1.99403   0.00168  -0.02939   0.00000  -0.02948   1.96455
   A18        1.86979   0.00351  -0.01415   0.00000  -0.01420   1.85558
   A19        1.87938  -0.00175   0.00362   0.00000   0.00393   1.88331
   A20        1.94035  -0.00199  -0.03397   0.00000  -0.03397   1.90638
   A21        2.03961  -0.00520   0.00492   0.00000   0.00774   2.04735
   A22        2.01674   0.00869   0.02025   0.00000   0.02307   2.03980
   A23        2.14862   0.00877   0.03924   0.00000   0.04207   2.19070
    D1       -3.09554   0.00035   0.01823   0.00000   0.01822  -3.07732
    D2        1.09423   0.00230   0.02874   0.00000   0.02877   1.12300
    D3       -1.01753  -0.00268   0.01622   0.00000   0.01620  -1.00134
    D4       -0.95254  -0.00055  -0.07168   0.00000  -0.07168  -1.02422
    D5        1.21229  -0.00266  -0.06726   0.00000  -0.06724   1.14504
    D6       -2.98948   0.00149  -0.05287   0.00000  -0.05287  -3.04235
    D7        1.18154  -0.00024  -0.09106   0.00000  -0.09105   1.09050
    D8       -2.93682  -0.00236  -0.08664   0.00000  -0.08661  -3.02343
    D9       -0.85540   0.00179  -0.07225   0.00000  -0.07223  -0.92763
   D10       -3.09054   0.00092  -0.05963   0.00000  -0.05967   3.13298
   D11       -0.92571  -0.00119  -0.05522   0.00000  -0.05523  -0.98095
   D12        1.15570   0.00296  -0.04082   0.00000  -0.04086   1.11485
   D13       -0.88403  -0.00112  -0.05162   0.00000  -0.05160  -0.93563
   D14       -3.10822   0.00033  -0.02762   0.00000  -0.02774  -3.13596
   D15        1.18741  -0.00237  -0.07000   0.00000  -0.06989   1.11752
   D16        1.28240  -0.00185  -0.05397   0.00000  -0.05394   1.22846
   D17       -0.94180  -0.00040  -0.02997   0.00000  -0.03008  -0.97187
   D18       -2.92935  -0.00310  -0.07236   0.00000  -0.07223  -3.00158
   D19       -3.02500   0.00406  -0.02769   0.00000  -0.02770  -3.05269
   D20        1.03400   0.00551  -0.00369   0.00000  -0.00384   1.03016
   D21       -0.95356   0.00281  -0.04607   0.00000  -0.04599  -0.99955
   D22       -0.13756   0.01583   0.14547   0.00000   0.14534   0.00778
   D23       -2.87836  -0.01607  -0.15083   0.00000  -0.15077  -3.02914
   D24       -2.20855   0.01647   0.16728   0.00000   0.16718  -2.04137
   D25        1.33383  -0.01542  -0.12902   0.00000  -0.12894   1.20490
   D26        2.06163   0.01166   0.13897   0.00000   0.13892   2.20055
   D27       -0.67917  -0.02024  -0.15733   0.00000  -0.15719  -0.83637
   D28       -0.69085  -0.00110  -0.02215   0.00000  -0.02213  -0.71298
   D29        1.45330  -0.00082  -0.00677   0.00000  -0.00681   1.44648
   D30       -2.74998   0.00042  -0.02834   0.00000  -0.02831  -2.77829
         Item               Value     Threshold  Converged?
 Maximum Force            0.024570     0.000015     NO 
 RMS     Force            0.007976     0.000010     NO 
 Maximum Displacement     0.249148     0.000060     NO 
 RMS     Displacement     0.083827     0.000040     NO 
 GradGradGradGradGradGradGradGradGradGradGradGradGradGradGradGradGradGrad

                    Distance matrix (angstroms):
                    1          2          3          4          5
     1  O    0.000000
     2  C    1.406947   0.000000
     3  C    2.372269   1.520180   0.000000
     4  Br   3.063744   2.841263   1.954033   0.000000
     5  C    3.011599   2.586066   1.531926   2.860071   0.000000
     6  O    2.764213   3.011150   2.457863   3.323936   1.396215
     7  N    3.697614   2.470886   1.517300   2.790431   2.444990
     8  O    3.982279   2.589939   2.335308   3.657516   3.387664
     9  O    4.682994   3.582297   2.327019   3.170724   2.729480
    10  H    0.965289   1.933468   3.211806   3.937940   3.860666
    11  H    2.081960   1.103401   2.144061   3.003908   3.508160
    12  H    2.095339   1.106549   2.136488   3.827486   2.788816
    13  H    3.972743   3.505633   2.149655   2.954644   1.104364
    14  H    3.464446   2.847071   2.141466   3.833297   1.104381
    15  H    2.480599   3.013639   2.516759   2.810330   1.944172
                    6          7          8          9         10
     6  O    0.000000
     7  N    3.722729   0.000000
     8  O    4.574300   1.210791   0.000000
     9  O    4.093089   1.207106   2.149723   0.000000
    10  H    3.552686   4.393288   4.457534   5.462143   0.000000
    11  H    4.047843   2.633458   2.416275   3.806195   2.348094
    12  H    3.267060   2.712781   2.568951   3.808567   2.320071
    13  H    2.086189   2.642018   3.767122   2.420343   4.872566
    14  H    2.008857   2.617246   3.304188   2.924269   4.148135
    15  H    0.969115   3.941152   4.818321   4.359372   3.325824
                   11         12         13         14         15
    11  H    0.000000
    12  H    1.790354   0.000000
    13  H    4.286393   3.781992   0.000000
    14  H    3.787024   2.601643   1.785842   0.000000
    15  H    3.933328   3.557913   2.494312   2.806612   0.000000
[...]
 ! D23   D(2,3,7,9)           -165.2954         -DE/DX =    0.0                 !
 ! D24   D(4,3,7,8)           -103.6223         -DE/DX =    0.0                 !
 ! D25   D(4,3,7,9)             76.203          -DE/DX =    0.0                 !
 ! D26   D(5,3,7,8)            137.7896         -DE/DX =    0.0                 !
 ! D27   D(5,3,7,9)            -42.3851         -DE/DX =    0.0                 !
 ! D28   D(3,5,6,15)            50.4721         -DE/DX =    0.0                 !
 ! D29   D(13,5,6,15)          170.6559         -DE/DX =    0.0                 !
 ! D30   D(14,5,6,15)          -70.268          -DE/DX =    0.0                 !
 --------------------------------------------------------------------------------
 GradGradGradGradGradGradGradGradGradGradGradGradGradGradGradGradGradGrad


 ----------------------------------------------------------------------

 Electric dipole moment (input orientation):
 (Debye = 10**-18 statcoulomb cm , SI units = C m)
                  (au)            (Debye)         (10**-30 SI)
   Tot        0.174617D+01      0.443831D+01      0.148046D+02
   x         -0.931416D+00     -0.236742D+01     -0.789687D+01
   y          0.147650D+01      0.375288D+01      0.125183D+02
   z         -0.389436D-01     -0.989847D-01     -0.330177D+00

 Dipole polarizability, Alpha (input orientation).
 (esu units = cm**3 , SI units = C**2 m**2 J**-1)
 Alpha(0;0):
               (au)            (10**-24 esu)      (10**-40 SI)
   iso        0.653562D+02      0.968479D+01      0.107758D+02
   aniso      0.907071D+01      0.134414D+01      0.149556D+01
   xx         0.632532D+02      0.937315D+01      0.104290D+02
   yx         0.621094D+00      0.920366D-01      0.102405D+00
   yy         0.695138D+02      0.103009D+02      0.114613D+02
   zx        -0.311475D+01     -0.461558D+00     -0.513553D+00
   zy        -0.209130D+01     -0.309898D+00     -0.344809D+00
   zz         0.633016D+02      0.938032D+01      0.104370D+02

 ----------------------------------------------------------------------

 Dipole orientation:
     8          1.13247160          0.93234318         -0.94374711
     6          3.14973750          2.04827026         -2.26421008
     6          2.50297424          1.96986619         -5.07877405
    35          2.72745780         -1.46325675         -6.35224270
     6         -0.11302293          3.10762763         -5.68358968
     8         -2.10721584          1.64605556         -4.83663985
     7          4.50932155          3.48607146         -6.49874285
     8          6.42752140          3.99106344         -5.36253658
     8          4.04696239          4.06842927         -8.65056332
     1          1.57349255          0.74409313          0.81604663
     1          4.95387205          1.06358826         -1.92535201
     1          3.39081513          4.05508012         -1.72393913
     1         -0.28254172          3.29611757         -7.74456532
     1         -0.11009533          5.04401968         -4.85994304
     1         -1.81583171          1.23908734         -3.06964957

 Electric dipole moment (dipole orientation):
 (Debye = 10**-18 statcoulomb cm , SI units = C m)
                  (au)            (Debye)         (10**-30 SI)
   Tot        0.174617D+01      0.443831D+01      0.148046D+02
   x          0.000000D+00      0.000000D+00      0.000000D+00
   y          0.000000D+00      0.000000D+00      0.000000D+00
   z          0.174617D+01      0.443831D+01      0.148046D+02

 Dipole polarizability, Alpha (dipole orientation).
 (esu units = cm**3 , SI units = C**2 m**2 J**-1)
 Alpha(0;0):
               (au)            (10**-24 esu)      (10**-40 SI)
   iso        0.653562D+02      0.968479D+01      0.107758D+02
   aniso      0.907071D+01      0.134414D+01      0.149556D+01
   xx         0.616205D+02      0.913122D+01      0.101598D+02
   yx         0.262159D+01      0.388479D+00      0.432242D+00
   yy         0.672741D+02      0.996899D+01      0.110920D+02
   zx         0.267479D+01      0.396364D+00      0.441014D+00
   zy         0.171163D+01      0.253637D+00      0.282209D+00
   zz         0.671739D+02      0.995415D+01      0.110755D+02

 ----------------------------------------------------------------------
 1\1\GINC-C243\Freq\RwB97XD\def2SVPP\C3H6Br1N1O4\PETERCHAO1\04-Aug-2022
 \0\\#T Geom=AllCheck Guess=TCheck SCRF=Check GenChk RwB97XD/def2SVPP F
 req\\Comment gs min\\0,1\O,0.9188715898,-0.0132508465,-0.0863840551\C,
 2.3208509901,0.0470351562,-0.0007198994\C,2.8535147701,-1.3813883246,-
 0.1149799982\Br,2.459103303,-2.3845794523,1.4995776961\C,2.3205126304,
 -2.1288458943,-1.3553455919\O,0.9764680466,-2.4445236712,-1.2742484828
 \N,4.3772003768,-1.3113744197,-0.2103294647\O,4.8994364244,-0.26289809
 52,0.0917436546\O,4.9532833156,-2.3042770823,-0.5760206063\H,0.5416480
 889,0.8550690681,0.1015656258\H,2.6616987864,0.499065048,0.945127069\H
 ,2.7486986719,0.6329916915,-0.8370029115\H,2.8846704235,-3.0656178773,
 -1.4632121964\H,2.5618334122,-1.4842418149,-2.2306859743\H,0.487679170
 2,-1.6406134853,-1.0307548648\\Version=ES64L-G16RevB.01\State=1-A\HF=-
 3046.8339345\RMSD=3.043e-10\RMSF=2.126e-06\ZeroPoint=0.1086824\Thermal
 =0.1182824\Dipole=-0.9314159,1.4764982,-0.0389436\DipoleDeriv=-0.98021
 78,0.1548452,-0.0333302,0.1307359,-0.4065138,0.0154871,-0.0167429,0.00
 15264,-0.4987713,0.7653543,-0.1462131,0.0681361,-0.0989644,0.1764834,-
 0.0188497,0.002767,0.0206822,0.2021964,0.0336137,-0.0148665,-0.0837549
 ,0.0064731,0.3091698,-0.3306118,-0.1016259,-0.3332628,0.5871757,-0.084
 5836,-0.0211571,0.0578868,-0.0375249,-0.1601854,0.1387458,0.0786785,0.
 1418098,-0.2814752,0.7165921,0.1594842,0.1290984,0.1792895,0.1833072,0
 .0566903,0.0979159,0.0240569,0.3286443,-0.9696995,-0.1234483,-0.112048
 4,-0.0680903,-0.3749679,-0.0312627,-0.0883168,-0.0446521,-0.5745533,1.
 2070526,0.1147534,-0.2225634,-0.0118253,1.406183,0.4608208,-0.136794,0
 .4476421,0.2482794,-0.6840587,-0.339354,-0.0318761,-0.0597193,-0.89787
 78,-0.197427,0.0198477,-0.1872837,-0.2534577,-0.6834821,0.2998575,0.19
 25164,0.0714566,-0.7860621,-0.2311626,0.0664075,-0.2263138,-0.3159943,
 0.3318878,-0.0831147,-0.0203982,-0.0233827,0.2223438,-0.0376813,-0.016
 8137,-0.0306006,0.3473329,-0.0048058,0.0071003,-0.0193472,-0.0106109,0
 .0410979,-0.02865,-0.0454569,-0.0583898,-0.0382998,-0.0332176,0.010697
 1,0.0140414,-0.0154797,-0.0285438,0.0856264,0.0641871,0.0764117,-0.056
 4591,0.0433377,0.0218727,0.0007231,0.0487285,0.0082331,-0.0168512,-0.0
 085267,0.0149874,0.0613995,-0.0304945,-0.0354133,-0.0008959,-0.0853448
 ,-0.0281304,0.0899191,0.0323191,0.0842758,-0.1397547,0.3727213,-0.0050
 434,0.061812,-0.0257411,0.3354632,0.0452069,0.0521542,0.0691103,0.3837
 372\Polar=63.2531578,0.6210939,69.5137969,-3.1147496,-2.0912985,63.301
 5683\Quadrupole=-5.1523111,4.0060362,1.1462749,-6.1469255,-0.78904,-2.
 3496463\PG=C01 [X(C3H6Br1N1O4)]\NImag=0\\0.46962105,-0.15017236,0.5347
 1467,-0.01530183,0.11466032,0.07805409,-0.26883438,0.01038311,-0.00377
 646,0.53775622,-0.03866908,-0.10099783,-0.01291748,0.02961383,0.543016
 76,-0.01902559,-0.00961544,-0.07238559,0.00043294,0.01691027,0.6368736
 0,-0.03015434,0.04178149,0.00453354,-0.08114625,0.02840169,-0.00289794
 ,0.39663698,0.00287607,0.00358170,0.00144251,0.03008039,-0.19131821,-0
 .01328385,-0.02528178,0.48860633,0.00082492,0.00315822,0.00039031,-0.0
 0362618,-0.01857394,-0.07664979,0.01039141,0.05749314,0.38139396,0.001
 26286,0.00145923,-0.00141299,0.00174362,0.00131177,-0.00352732,-0.0317
 3623,-0.00817715,0.01618129,0.03752867,0.00028814,0.00056811,0.0002124
 6,-0.00834238,-0.01924008,0.02710168,-0.00713064,-0.05151969,0.0348849
 7,0.01823425,0.07383614,-0.00064654,-0.00023652,0.00064237,0.00443347,
 0.00975983,-0.01171727,0.01154896,0.03466225,-0.08226213,-0.02872245,-
 0.06957226,0.14095228,-0.00284136,-0.00619019,-0.00347768,0.01691691,0
 .00392393,0.01358169,-0.07491065,0.00452922,-0.01158515,0.00121121,-0.
 00007873,0.00770497,0.57901593,-0.00301455,0.00116935,0.00005901,-0.01
 094314,-0.01859396,-0.02926254,0.00315602,-0.10336425,-0.03729158,0.00
 145420,0.00214683,0.01860016,-0.06000380,0.62546312,-0.00225986,0.0005
 2850,-0.00151705,0.00124049,-0.00870867,-0.00173562,-0.01287778,-0.046
 41181,-0.13476684,-0.00226432,0.00088153,-0.03443185,-0.04750507,-0.04
 176872,0.49038030,0.00693841,0.00172479,0.00202984,-0.00669073,0.00256
 102,-0.00074736,-0.03708785,-0.01245328,-0.00719203,0.00145345,0.00048
 884,0.00029204,-0.28649214,-0.05664154,0.01819200,0.52120565,0.0010861
 0,-0.01137721,-0.00568216,0.00504775,0.00026515,0.00173387,-0.02382499
 ,-0.00215929,0.00246543,0.00094135,0.00099466,-0.00009774,-0.02465288,
 -0.11251486,-0.00413125,-0.10665357,0.46003840,0.00113680,-0.00674065,
 0.00057247,0.00235287,0.00120898,0.00059864,-0.02919998,-0.00302269,0.
 00110037,-0.00394098,-0.00187762,0.00135164,0.02829045,0.00129345,-0.0
 6799072,-0.08076473,0.10851340,0.09938994,0.00262848,-0.00179544,0.000
 31024,-0.01990860,0.01188124,-0.00017223,-0.09961654,0.00443146,0.0026
 5052,-0.00828650,-0.00463658,0.00784227,-0.02313757,-0.01211392,-0.014
 59263,0.00549708,0.00339048,0.00210430,0.69154721,-0.00361083,-0.01091
 416,-0.00228977,0.03931692,0.01203707,-0.00059611,-0.00220747,-0.08228
 415,-0.00375606,-0.01429107,-0.00856086,0.00869670,-0.01847585,0.00426
 376,0.00539858,0.00126107,-0.00499518,-0.00525327,-0.01353598,1.054898
 34,-0.00248030,-0.00067430,-0.00000563,0.00476884,-0.00030533,-0.00129
 731,-0.00117583,-0.00271907,-0.09390573,0.02550088,0.00963674,-0.01513
 952,-0.03051744,0.00452194,0.01341725,-0.00341984,-0.00577738,-0.00727
 084,-0.02800344,0.25879829,0.34966465,-0.00177230,-0.00017635,-0.00043
 572,-0.00484547,-0.00130255,0.00076331,-0.02589622,-0.04275697,-0.0177
 2924,-0.00186233,-0.00104558,0.00098767,-0.00461661,0.00219633,0.00754
 325,-0.00381607,-0.00198994,-0.00356757,-0.26163061,-0.21263648,-0.053
 79225,0.25697916,0.00445495,0.00333284,0.00054144,-0.00001550,-0.00607
 006,0.00018913,-0.02351813,-0.01475435,-0.01084034,-0.00041786,0.00146
 978,-0.00005189,-0.00062431,0.00068582,0.00399651,-0.00398571,0.000530
 77,-0.00119828,-0.20436241,-0.49049938,-0.11911060,0.23629151,0.618387
 19,0.00066545,0.00012386,0.00146953,0.00030269,-0.00035001,-0.00273942
 ,-0.00250371,-0.00524834,0.01988649,-0.00134094,-0.00051743,0.00088873
 ,0.00123086,-0.00151362,-0.00235876,0.00050981,0.00089240,0.00082347,-
 0.05538765,-0.12092867,-0.11337518,0.06200867,0.17445082,0.08037494,-0
 .00336134,0.00423324,0.00044239,-0.00651773,-0.00708407,0.00047808,-0.
 03029359,0.04600173,0.01422234,-0.00142508,-0.00001512,0.00132851,-0.0
 0250920,0.00079401,0.00273370,-0.00130087,0.00023366,-0.00104958,-0.28
 728674,0.22081213,0.08729372,0.05184366,-0.01059482,-0.00535147,0.2839
 9970,0.00367640,0.00002071,0.00037107,-0.00132728,0.00075452,-0.000345
 97,0.02175733,-0.00899569,-0.00827834,-0.00067066,0.00226137,-0.000021
 54,-0.00195885,-0.00419151,-0.00437996,-0.00168582,0.00256969,0.001447
 11,0.21688497,-0.46736088,-0.14166924,0.02133312,-0.11642191,-0.048181
 87,-0.25612651,0.58779038,0.00206419,-0.00072195,0.00018535,0.00044710
 ,0.00194847,0.00156670,0.01192964,-0.01315111,0.01381147,-0.00043822,-
 0.00117246,0.00155998,-0.00010362,-0.00355851,-0.00338771,-0.00102796,
 0.00221007,0.00189771,0.08217731,-0.13977119,-0.13273139,0.00517220,-0
 .04748851,0.01299135,-0.09901597,0.19973260,0.10424998,-0.10635527,0.1
 2913846,0.02359818,-0.02132583,0.04249967,0.00887319,-0.00697960,-0.00
 268187,-0.00064134,0.00008624,-0.00030196,0.00010249,-0.00087330,-0.00
 048047,0.00019219,0.00054846,-0.00234333,-0.00144560,0.00004687,0.0023
 8637,0.00030098,0.00036530,-0.00066588,-0.00008177,-0.00058414,-0.0000
 7190,0.00006794,0.13113211,0.18138221,-0.42611442,-0.09455093,-0.00671
 502,0.00362419,0.00102291,-0.00005026,0.00030647,0.00044541,-0.0000230
 3,0.00024418,-0.00015258,-0.00132599,0.00000313,0.00000396,0.00024836,
 -0.00044699,-0.00065792,-0.00037463,-0.00035261,-0.00030352,-0.0002447
 2,0.00039582,0.00013718,-0.00027134,0.00020627,0.00013152,-0.17036645,
 0.42106488,0.03648664,-0.09765386,-0.02334971,-0.00215382,0.00406727,-
 0.00035451,-0.00179415,0.00003628,-0.00007895,0.00014367,-0.00011005,-
 0.00006572,-0.00086752,0.00010945,0.00027859,0.00023769,-0.00139461,-0
 .00063633,0.00003204,0.00044952,0.00048084,0.00003693,0.00003504,-0.00
 027475,-0.00035579,0.00010111,0.00010362,-0.03277120,0.09308017,0.0228
 1651,-0.02807690,-0.01581842,-0.03204579,-0.06836138,-0.02621809,-0.06
 026978,0.00510842,0.00248371,0.01060676,0.00033781,-0.00030632,-0.0000
 9207,-0.00269427,0.00268068,-0.00013235,0.00089640,-0.00080455,-0.0002
 8452,0.00057671,0.00064413,0.00008792,-0.00343312,0.00058322,0.0010154
 7,0.00012153,-0.00069728,-0.00013983,0.00152582,-0.00178345,-0.0007015
 6,0.08820901,-0.00042805,0.00384823,0.00038561,-0.03020257,-0.09791392
 ,-0.09149654,-0.00847522,-0.01466664,-0.02817076,-0.00005928,0.0009276
 1,-0.00083716,0.00478422,-0.00482473,0.00147816,-0.00070711,0.00062785
 ,0.00051728,-0.00138666,-0.00206885,-0.00032592,0.00026903,0.00125055,
 0.00091250,0.00010910,0.00069791,0.00025032,0.00019402,0.00091018,0.00
 114509,0.03279508,0.10257810,-0.00338818,0.00290445,0.00782220,-0.0623
 0110,-0.09769041,-0.25991160,0.00027281,0.00242208,-0.00154192,0.00024
 547,0.00122293,0.00114061,0.00032180,-0.00025282,0.00047642,-0.0003155
 5,-0.00023150,0.00003115,-0.00098041,-0.00310476,-0.00053653,-0.000866
 00,0.00207814,0.00120498,0.00019779,0.00112987,0.00018206,-0.00105779,
 -0.00018806,0.00070600,0.07276150,0.10225563,0.26726478,-0.03391651,-0
 .01950922,0.02410539,-0.07503576,-0.04284745,0.06657357,0.00438363,0.0
 0392652,-0.00708213,-0.00038654,0.00291815,-0.00134674,-0.00039975,-0.
 00072087,0.00022488,0.00073918,-0.00035424,-0.00033190,-0.00006278,0.0
 0065622,-0.00065208,-0.00264502,0.00119254,-0.00113368,0.00004760,-0.0
 0008781,-0.00012964,0.00058186,-0.00169689,0.00033511,0.00519885,0.003
 63577,-0.00484915,0.10151759,-0.00130258,0.00585650,-0.00164326,-0.046
 55735,-0.12763565,0.10107561,-0.00841260,-0.01754200,0.02331463,0.0009
 6615,-0.00412975,0.00140607,-0.00047024,0.00086915,0.00177452,0.000355
 97,0.00019332,-0.00066237,-0.00134926,-0.00181582,-0.00034346,0.000413
 74,0.00168221,-0.00023992,0.00006820,0.00049862,0.00012616,-0.00004984
 ,0.00039527,-0.00075490,0.00433421,0.00928017,-0.01056413,0.05179851,0
 .13239988,0.00177545,-0.00434206,0.01117927,0.06547534,0.10350128,-0.2
 0880975,-0.00047103,-0.00173939,-0.00005793,-0.00006785,0.00042576,0.0
 0097662,-0.00048155,-0.00063846,0.00028266,-0.00015044,-0.00010531,0.0
 0014500,0.00140418,0.00298864,0.00122694,0.00018832,-0.00228584,0.0007
 0843,-0.00033565,-0.00082890,-0.00050353,0.00066225,0.00034758,-0.0000
 4795,0.00848773,0.01549535,-0.01745439,-0.07650624,-0.11227270,0.21220
 450,0.00035529,0.00069325,0.00035366,-0.00182316,-0.00099134,-0.002336
 40,0.00695423,-0.00911985,0.00031863,0.00023742,0.00025011,0.00024035,
 -0.10868384,0.11277791,0.01229305,-0.03167045,0.03001236,0.00707803,0.
 00060937,-0.00168770,0.00000215,0.00028484,0.00128550,0.00037621,-0.00
 295722,-0.00024513,-0.00053136,-0.00000441,0.00014730,0.00001892,0.000
 69633,-0.00076123,-0.00020304,0.00002433,0.00018633,-0.00000069,0.1367
 0398,0.00004169,0.00036795,0.00019368,-0.00149800,-0.00009962,-0.00275
 652,0.00546399,-0.01356458,-0.00035119,-0.00038124,0.00075567,0.000504
 20,0.12153804,-0.26695577,-0.02309828,-0.00739465,0.01501843,0.0012965
 1,0.00239886,-0.00426203,-0.00215686,-0.00013765,0.00167246,0.00037978
 ,0.00084515,0.00293941,0.00245164,-0.00005387,0.00006117,0.00003563,0.
 00050962,-0.00064390,-0.00021526,0.00001119,0.00035050,0.00001460,-0.1
 2504321,0.27522501,0.00014113,0.00065190,0.00034288,-0.00352782,-0.000
 90797,-0.00441982,0.01242298,-0.02701418,-0.00514532,0.00008132,-0.000
 55901,0.00098857,0.01222109,-0.01721427,-0.05548013,0.00286458,-0.0022
 7329,0.00218562,0.00184360,-0.00113779,-0.00027521,0.00009514,0.000852
 22,0.00058193,-0.00024674,0.00139191,0.00025485,-0.00009673,0.00007721
 ,-0.00005192,0.00056309,-0.00167709,0.00021162,-0.00013540,-0.00023409
 ,0.00010603,-0.01526235,0.02555607,0.05538608,0.00024128,0.00059724,0.
 00011755,-0.00030131,-0.00000374,0.00024967,0.00355947,0.00512214,-0.0
 0608865,0.00009145,-0.00031950,-0.00332440,-0.05650958,-0.01670645,0.0
 2690670,-0.02513507,-0.02606596,0.03010868,0.00067931,0.00052215,0.000
 30783,0.00006597,0.00003623,-0.00002664,-0.00017217,-0.00007906,0.0001
 7677,0.00011292,0.00008820,0.00009081,0.00006841,0.00008058,-0.0000393
 3,0.00017704,0.00002689,0.00004236,0.00492294,0.00681497,-0.01162440,0
 .07073717,0.00016212,0.00033261,0.00019593,0.00019655,0.00042399,-0.00
 087788,0.00082445,0.00524044,-0.01359438,-0.00044367,0.00074557,-0.003
 26758,-0.01612663,-0.13542543,0.11002429,-0.01374090,0.00042551,0.0053
 7400,0.00022535,0.00061220,0.00070553,0.00024181,-0.00004457,0.0001640
 0,0.00071349,0.00026901,-0.00037200,0.00012075,0.00001672,0.00009110,-
 0.00001929,0.00024002,0.00010296,-0.00003040,-0.00023829,-0.00031610,-
 0.00474561,-0.01177270,0.02241802,0.03231239,0.13988344,-0.00001635,-0
 .00046209,0.00039077,0.00016312,0.00189958,0.00058346,0.00121908,0.014
 57415,-0.02582569,-0.00065823,-0.00095080,-0.00376380,0.02963283,0.107
 92859,-0.20133375,0.00690026,-0.00074295,0.00626393,0.00194913,-0.0002
 2484,-0.00082634,-0.00084972,-0.00079736,0.00006904,-0.00085660,0.0003
 9084,0.00040542,0.00008278,-0.00006317,-0.00013368,-0.00039352,0.00000
 269,0.00050140,-0.00009006,-0.00134960,0.00023770,-0.00087126,-0.00224
 833,0.00430933,-0.03659330,-0.11883797,0.21914688,-0.00573498,0.003651
 18,0.00095969,-0.00162615,-0.00307682,-0.00197583,0.00117856,0.0010196
 5,-0.00125114,-0.00025604,-0.00000268,-0.00034855,-0.03347578,0.037565
 57,0.01030575,-0.14508543,0.14597776,0.04951371,-0.00165569,0.00084641
 ,0.00177887,0.00097879,0.00034068,-0.00028332,0.00039557,-0.00070153,-
 0.00064855,0.00172298,0.00098571,0.00126222,-0.00017361,0.00015232,0.0
 0020117,-0.00022373,-0.00000814,-0.00002218,-0.00564965,-0.00311488,0.
 00066051,0.00146217,0.00030962,0.00038184,0.18814299,0.00322978,-0.004
 38905,-0.00097842,-0.00903731,0.00174766,0.00020141,-0.00248388,0.0024
 3389,-0.00090521,0.00009701,-0.00049953,0.00060808,-0.00486792,0.01126
 935,0.00441264,0.19662253,-0.34917026,-0.10023793,0.00034253,0.0013025
 7,-0.00027683,-0.00045532,-0.00161715,-0.00008068,0.00028115,-0.001037
 89,-0.00061506,0.00267631,-0.00031426,0.00076275,0.00161674,-0.0002425
 8,0.00013088,0.00110799,-0.00016409,-0.00024446,-0.00275866,0.00090798
 ,0.00007037,-0.00242606,-0.00070852,0.00088124,-0.18394487,0.34048190,
 0.00002405,-0.00158038,-0.00379125,-0.00423147,0.00015814,0.00039828,-
 0.00139800,0.00196004,0.00365170,0.00022066,0.00039355,-0.00112053,0.0
 0155434,-0.00101206,-0.00183278,0.06259168,-0.09537899,-0.03846202,-0.
 00117723,0.00073072,0.00057401,0.00044502,-0.00037048,-0.00025077,0.00
 051524,-0.00085868,-0.00058584,0.00221443,0.00067025,0.00060796,0.0005
 3695,0.00006484,-0.00009678,0.00101806,0.00036745,-0.00019359,-0.00147
 592,0.00039431,0.00100552,-0.00030364,-0.00180992,-0.00002468,-0.06053
 418,0.09627121,0.04012077\\0.00000167,0.00000320,-0.00000189,0.0000019
 0,0.00000097,-0.00000148,-0.00000127,-0.00000045,0.00000084,-0.0000034
 3,0.00000215,0.00000105,-0.00000121,-0.00000036,0.00000092,-0.00000220
 ,0.00000194,0.00000052,-0.00000003,-0.00000342,0.00000112,0.00000131,-
 0.00000355,0.00000051,-0.00000208,-0.00000452,0.00000247,0.00000319,0.
 00000417,-0.00000300,0.00000224,0.00000102,-0.00000143,0.00000341,-0.0
 0000087,-0.00000155,-0.00000307,-0.00000160,0.00000214,0.00000024,-0.0
 0000184,0.00000032,-0.00000068,0.00000316,-0.00000057\\\@


 I DON'T PRETEND TO UNDERSTAND THE UNIVERSE --
 IT'S A GREAT DEAL BIGGER THAN I AM.
       -- ATTR. TO WILLIAM ALLINGHAM (1828-89)
 File lengths (MBytes):  RWF=     58 Int=      0 D2E=      0 Chk=      3 Scr=      1
 Normal termination of Gaussian 16 at Thu Aug  4 16:41:15 2022.
real 1690.39
user 6223.37
sys 34.25
