 Entering Gaussian System, Link 0=g16
 Input=gaussian_test.inp
 Output=gaussian_test.log
 Initial command:
 /sw/restricted/lms/sw/Gaussian/g16_B01/g16/l1.exe "/scratch/user/peterchao1/peterchao1/9982553_1711744428000000306311940/Gau-11555.inp" -scrdir="/scratch/user/peterchao1/peterchao1/9982553_1711744428000000306311940/"
 Entering Link 1 = /sw/restricted/lms/sw/Gaussian/g16_B01/g16/l1.exe PID=     11556.
  
 Copyright (c) 1988-2017, Gaussian, Inc.  All Rights Reserved.
  
 This is part of the Gaussian(R) 16 program.  It is based on
 the Gaussian(R) 09 system (copyright 2009, Gaussian, Inc.),
 the Gaussian(R) 03 system (copyright 2003, Gaussian, Inc.),
 the Gaussian(R) 98 system (copyright 1998, Gaussian, Inc.),
 the Gaussian(R) 94 system (copyright 1995, Gaussian, Inc.),
 the Gaussian 92(TM) system (copyright 1992, Gaussian, Inc.),
 the Gaussian 90(TM) system (copyright 1990, Gaussian, Inc.),
 the Gaussian 88(TM) system (copyright 1988, Gaussian, Inc.),
 the Gaussian 86(TM) system (copyright 1986, Carnegie Mellon
 University), and the Gaussian 82(TM) system (copyright 1983,
 Carnegie Mellon University). Gaussian is a federally registered
 trademark of Gaussian, Inc.
  
 This software contains proprietary and confidential information,
 including trade secrets, belonging to Gaussian, Inc.
  
 This software is provided under written license and may be
 used, copied, transmitted, or stored only in accord with that
 written license.
  
 The following legend is applicable only to US Government
 contracts under FAR:
  
                    RESTRICTED RIGHTS LEGEND
  
 Use, reproduction and disclosure by the US Government is
 subject to restrictions as set forth in subparagraphs (a)
 and (c) of the Commercial Computer Software - Restricted
 Rights clause in FAR 52.227-19.
  
 Gaussian, Inc.
 340 Quinnipiac St., Bldg. 40, Wallingford CT 06492
  
  
 ---------------------------------------------------------------
 Warning -- This program may not be used in any manner that
 competes with the business of Gaussian, Inc. or will provide
 assistance to any competitor of Gaussian, Inc.  The licensee
 of this program is prohibited from giving any competitor of
 Gaussian, Inc. access to this program.  By using this program,
 the user acknowledges that Gaussian, Inc. is engaged in the
 business of creating and licensing software in the field of
 computational chemistry and represents and warrants to the
 licensee that it is not a competitor of Gaussian, Inc. and that
 it will not use this program in any manner prohibited above.
 ---------------------------------------------------------------
  

 Cite this work as:
 Gaussian 16, Revision B.01,
 M. J. Frisch, G. W. Trucks, H. B. Schlegel, G. E. Scuseria, 
 M. A. Robb, J. R. Cheeseman, G. Scalmani, V. Barone, 
 G. A. Petersson, H. Nakatsuji, X. Li, M. Caricato, A. V. Marenich, 
 J. Bloino, B. G. Janesko, R. Gomperts, B. Mennucci, H. P. Hratchian, 
 J. V. Ortiz, A. F. Izmaylov, J. L. Sonnenberg, D. Williams-Young, 
 F. Ding, F. Lipparini, F. Egidi, J. Goings, B. Peng, A. Petrone, 
 T. Henderson, D. Ranasinghe, V. G. Zakrzewski, J. Gao, N. Rega, 
 G. Zheng, W. Liang, M. Hada, M. Ehara, K. Toyota, R. Fukuda, 
 J. Hasegawa, M. Ishida, T. Nakajima, Y. Honda, O. Kitao, H. Nakai, 
 T. Vreven, K. Throssell, J. A. Montgomery, Jr., J. E. Peralta, 
 F. Ogliaro, M. J. Bearpark, J. J. Heyd, E. N. Brothers, K. N. Kudin, 
 V. N. Staroverov, T. A. Keith, R. Kobayashi, J. Normand, 
 K. Raghavachari, A. P. Rendell, J. C. Burant, S. S. Iyengar, 
 J. Tomasi, M. Cossi, J. M. Millam, M. Klene, C. Adamo, R. Cammi, 
 J. W. Ochterski, R. L. Martin, K. Morokuma, O. Farkas, 
 J. B. Foresman, and D. J. Fox, Gaussian, Inc., Wallingford CT, 2016.
 
 ******************************************
 Gaussian 16:  ES64L-G16RevB.01 20-Dec-2017
                29-Mar-2024 
 ******************************************
 %nprocshared=4
 Will use up to    4 processors via shared memory.
 %mem=8000mb
 %chk=monomer.chk
 %nprocshared=4
 Will use up to    4 processors via shared memory.
 %mem=8000mb
 ----------------------------------------------------------------------
 #T wB97XD/def2svpp opt=tight freq int(grid=ultrafine) scf=(verytight,q
 c) Volume=tight
 ----------------------------------------------------------------------
 -------
 Monomer
 -------
 Symbolic Z-matrix:
 Charge =  0 Multiplicity = 1
 C                     0.52699   0.8804   -1.25297 
 C                     0.44278   0.00499  0. 
 C                     1.60946  -0.98507   0.0026 
 C                     0.52636   0.88624   1.2489 
 C                    -0.8768   -0.80735   0.00151 
 N                    -2.11843  -0.06074   0.00012 
 H                     1.48335   1.39777  -1.28792 
 H                    -0.25939   1.63325  -1.26092 
 H                     0.43257   0.27285  -2.1509 
 H                     1.57244  -1.62277  -0.87788 
 H                     1.57162  -1.61911   0.88568 
 H                     2.55938  -0.45471   0.00194 
 H                    -0.25999   1.63916   1.25289 
 H                     1.48272   1.40374   1.28192 
 H                     0.43145   0.2829    2.1496 
 H                    -0.89026  -1.45085   0.88643 
 H                    -0.89022  -1.45424  -0.88094 
 H                    -2.17707   0.53043  -0.82151 
 H                    -2.17706   0.53338   0.81963 
 

 GradGradGradGradGradGradGradGradGradGradGradGradGradGradGradGradGradGrad
 Initialization pass.
                           ----------------------------
                           !    Initial Parameters    !
                           ! (Angstroms and Degrees)  !
 --------------------------                            --------------------------
 ! Name  Definition              Value          Derivative Info.                !
 --------------------------------------------------------------------------------
 ! R1    R(1,2)                  1.5308         estimate D2E/DX2                !
 ! R2    R(1,7)                  1.0879         estimate D2E/DX2                !
 ! R3    R(1,8)                  1.0887         estimate D2E/DX2                !
 ! R4    R(1,9)                  1.0883         estimate D2E/DX2                !
 ! R5    R(2,3)                  1.5301         estimate D2E/DX2                !
 ! R6    R(2,4)                  1.5308         estimate D2E/DX2                !
 ! R7    R(2,5)                  1.5496         estimate D2E/DX2                !
 ! R8    R(3,10)                 1.0878         estimate D2E/DX2                !
 ! R9    R(3,11)                 1.0878         estimate D2E/DX2                !
 ! R10   R(3,12)                 1.088          estimate D2E/DX2                !
 ! R11   R(4,13)                 1.0887         estimate D2E/DX2                !
 ! R12   R(4,14)                 1.0879         estimate D2E/DX2                !
 ! R13   R(4,15)                 1.0883         estimate D2E/DX2                !
 ! R14   R(5,6)                  1.4488         estimate D2E/DX2                !
 ! R15   R(5,16)                 1.0942         estimate D2E/DX2                !
 ! R16   R(5,17)                 1.0942         estimate D2E/DX2                !
 ! R17   R(6,18)                 1.0139         estimate D2E/DX2                !
 ! R18   R(6,19)                 1.0139         estimate D2E/DX2                !
 ! A1    A(2,1,7)              110.2802         estimate D2E/DX2                !
 ! A2    A(2,1,8)              111.2047         estimate D2E/DX2                !
 ! A3    A(2,1,9)              110.5679         estimate D2E/DX2                !
 ! A4    A(7,1,8)              107.8117         estimate D2E/DX2                !
 ! A5    A(7,1,9)              108.3765         estimate D2E/DX2                !
 ! A6    A(8,1,9)              108.5037         estimate D2E/DX2                !
 ! A7    A(1,2,3)              109.2362         estimate D2E/DX2                !
 ! A8    A(1,2,4)              109.6063         estimate D2E/DX2                !
 ! A9    A(1,2,5)              110.3303         estimate D2E/DX2                !
 ! A10   A(3,2,4)              109.2367         estimate D2E/DX2                !
 ! A11   A(3,2,5)              108.065          estimate D2E/DX2                !
 ! A12   A(4,2,5)              110.334          estimate D2E/DX2                !
 ! A13   A(2,3,10)             110.6091         estimate D2E/DX2                !
 ! A14   A(2,3,11)             110.6095         estimate D2E/DX2                !
 ! A15   A(2,3,12)             110.5064         estimate D2E/DX2                !
 ! A16   A(10,3,11)            108.3134         estimate D2E/DX2                !
 ! A17   A(10,3,12)            108.3612         estimate D2E/DX2                !
 ! A18   A(11,3,12)            108.3612         estimate D2E/DX2                !
 ! A19   A(2,4,13)             111.2042         estimate D2E/DX2                !
 ! A20   A(2,4,14)             110.2795         estimate D2E/DX2                !
 ! A21   A(2,4,15)             110.5676         estimate D2E/DX2                !
 ! A22   A(13,4,14)            107.8107         estimate D2E/DX2                !
 ! A23   A(13,4,15)            108.5055         estimate D2E/DX2                !
 ! A24   A(14,4,15)            108.3773         estimate D2E/DX2                !
 ! A25   A(2,5,6)              117.3638         estimate D2E/DX2                !
 ! A26   A(2,5,16)             108.6357         estimate D2E/DX2                !
 ! A27   A(2,5,17)             108.637          estimate D2E/DX2                !
 ! A28   A(6,5,16)             107.0551         estimate D2E/DX2                !
 ! A29   A(6,5,17)             107.0595         estimate D2E/DX2                !
 ! A30   A(16,5,17)            107.7209         estimate D2E/DX2                !
 ! A31   A(5,6,18)             110.5372         estimate D2E/DX2                !
 ! A32   A(5,6,19)             110.533          estimate D2E/DX2                !
 ! A33   A(18,6,19)            108.0589         estimate D2E/DX2                !
 ! D1    D(7,1,2,3)            -57.4339         estimate D2E/DX2                !
 ! D2    D(7,1,2,4)             62.2179         estimate D2E/DX2                !
 ! D3    D(7,1,2,5)           -176.0893         estimate D2E/DX2                !
 ! D4    D(8,1,2,3)           -176.9818         estimate D2E/DX2                !
 ! D5    D(8,1,2,4)            -57.33           estimate D2E/DX2                !
 ! D6    D(8,1,2,5)             64.3628         estimate D2E/DX2                !
 ! D7    D(9,1,2,3)             62.4097         estimate D2E/DX2                !
 ! D8    D(9,1,2,4)           -177.9386         estimate D2E/DX2                !
 ! D9    D(9,1,2,5)            -56.2457         estimate D2E/DX2                !
 ! D10   D(1,2,3,10)           -60.0382         estimate D2E/DX2                !
 ! D11   D(1,2,3,11)           179.957          estimate D2E/DX2                !
 ! D12   D(1,2,3,12)            59.9592         estimate D2E/DX2                !
 ! D13   D(4,2,3,10)          -179.9179         estimate D2E/DX2                !
 ! D14   D(4,2,3,11)            60.0773         estimate D2E/DX2                !
 ! D15   D(4,2,3,12)           -59.9204         estimate D2E/DX2                !
 ! D16   D(5,2,3,10)            60.0196         estimate D2E/DX2                !
 ! D17   D(5,2,3,11)           -59.9853         estimate D2E/DX2                !
 ! D18   D(5,2,3,12)          -179.983          estimate D2E/DX2                !
 ! D19   D(1,2,4,13)            57.3261         estimate D2E/DX2                !
 ! D20   D(1,2,4,14)           -62.2197         estimate D2E/DX2                !
 ! D21   D(1,2,4,15)           177.9364         estimate D2E/DX2                !
 ! D22   D(3,2,4,13)           176.9776         estimate D2E/DX2                !
 ! D23   D(3,2,4,14)            57.4318         estimate D2E/DX2                !
 ! D24   D(3,2,4,15)           -62.4121         estimate D2E/DX2                !
 ! D25   D(5,2,4,13)           -64.3644         estimate D2E/DX2                !
 ! D26   D(5,2,4,14)           176.0898         estimate D2E/DX2                !
 ! D27   D(5,2,4,15)            56.2458         estimate D2E/DX2                !
 ! D28   D(1,2,5,6)            -60.6616         estimate D2E/DX2                !
 ! D29   D(1,2,5,16)           177.8014         estimate D2E/DX2                !
 ! D30   D(1,2,5,17)            60.8824         estimate D2E/DX2                !
 ! D31   D(3,2,5,6)            179.9702         estimate D2E/DX2                !
 ! D32   D(3,2,5,16)            58.4333         estimate D2E/DX2                !
 ! D33   D(3,2,5,17)           -58.4858         estimate D2E/DX2                !
 ! D34   D(4,2,5,6)             60.5993         estimate D2E/DX2                !
 ! D35   D(4,2,5,16)           -60.9377         estimate D2E/DX2                !
 ! D36   D(4,2,5,17)          -177.8567         estimate D2E/DX2                !
 ! D37   D(2,5,6,18)            59.7919         estimate D2E/DX2                !
 ! D38   D(2,5,6,19)           -59.7989         estimate D2E/DX2                !
 ! D39   D(16,5,6,18)         -177.855          estimate D2E/DX2                !
 ! D40   D(16,5,6,19)           62.5542         estimate D2E/DX2                !
 ! D41   D(17,5,6,18)          -62.5665         estimate D2E/DX2                !
 ! D42   D(17,5,6,19)          177.8427         estimate D2E/DX2                !
 --------------------------------------------------------------------------------
 Number of steps in this run=    103 maximum allowed number of steps=    114.
 GradGradGradGradGradGradGradGradGradGradGradGradGradGradGradGradGradGrad

                    Distance matrix (angstroms):
                    1          2          3          4          5
     1  C    0.000000
     2  C    1.530810   0.000000
     3  C    2.495631   1.530147   0.000000
     4  C    2.501875   1.530799   2.495630   0.000000
     5  C    2.528412   1.549579   2.492604   2.528461   0.000000
     6  N    3.074766   2.562049   3.840771   3.074265   1.448818
     7  H    1.087897   2.163647   2.712792   2.759157   3.477861
     8  H    1.088682   2.175823   3.456104   2.733973   2.816289
     9  H    1.088255   2.167534   2.757711   3.455956   2.741193
    10  H    2.738525   2.167115   1.087787   3.451465   2.727087
    11  H    3.451474   2.167121   1.087788   2.738852   2.726809
    12  H    2.736415   2.165951   1.087953   2.736102   3.454235
    13  H    2.733933   2.175811   3.456102   1.088687   2.816358
    14  H    2.759159   2.163630   2.712765   1.087899   3.477892
    15  H    3.455957   2.167523   2.757728   1.088258   2.741254
    16  H    3.467039   2.163841   2.691969   2.756844   1.094236
    17  H    2.756345   2.163859   2.692427   3.467098   1.094238
    18  H    2.760537   2.795459   4.160974   3.423700   2.039053
    19  H    3.424607   2.795448   4.160638   2.759935   2.039004
                    6          7          8          9         10
     6  N    0.000000
     7  H    4.093786   0.000000
     8  H    2.813510   1.758785   0.000000
     9  H    3.353462   1.764737   1.766787   0.000000
    10  H    4.102842   3.049539   3.755524   2.552106   0.000000
    11  H    4.102342   3.719396   4.305621   3.754701   1.763568
    12  H    4.694373   2.500651   3.728254   3.112459   1.764232
    13  H    2.812988   3.090832   2.513821   3.732586   4.305598
    14  H    4.093406   2.569846   3.090898   3.763763   3.719207
    15  H    3.352644   3.763776   3.732610   4.300509   3.754874
    16  H    2.055812   4.298424   3.810616   3.734483   3.034342
    17  H    2.055871   3.732749   3.174103   2.519008   2.468421
    18  H    1.013901   3.790580   2.255393   2.940036   4.324149
    19  H    1.013903   4.311325   3.035763   3.962575   4.646419
                   11         12         13         14         15
    11  H    0.000000
    12  H    1.764233   0.000000
    13  H    3.755794   3.728006   0.000000
    14  H    3.050004   2.500271   1.758780   0.000000
    15  H    2.552475   3.112014   1.766813   1.764750   0.000000
    16  H    2.467622   3.697927   3.174857   3.733111   2.519600
    17  H    3.034601   3.698422   3.810456   4.298470   3.734788
    18  H    4.646261   4.907402   3.034411   4.310587   3.961459
    19  H    4.323211   4.907016   2.255137   3.790150   2.938686
                   16         17         18         19
    16  H    0.000000
    17  H    1.767375   0.000000
    18  H    2.915207   2.366101   0.000000
    19  H    2.365897   2.915217   1.641140   0.000000
 Framework group  C1[X(C5H13N)]
 Deg. of freedom    51
                         Standard orientation:                         
 ---------------------------------------------------------------------
 Center     Atomic      Atomic             Coordinates (Angstroms)
 Number     Number       Type             X           Y           Z
 ---------------------------------------------------------------------
      1          6           0        0.474393   -1.250493   -0.886437
      2          6           0        0.414319    0.000014   -0.005528
      3          6           0        1.607746   -0.000131    0.952117
      4          6           0        0.473727    1.251381   -0.885242
      5          6           0       -0.882457   -0.000793    0.842745
      6          7           0       -2.144117   -0.000124    0.130504
      7          1           0        1.416189   -1.283967   -1.429964
      8          1           0       -0.332360   -1.256354   -1.617426
      9          1           0        0.396649   -2.150121   -0.279046
     10          1           0        1.588209   -0.882399    1.588122
     11          1           0        1.587377    0.881168    1.589438
     12          1           0        2.542750    0.000725    0.395873
     13          1           0       -0.332997    1.257466   -1.616269
     14          1           0        1.415523    1.285878   -1.428707
     15          1           0        0.395465    2.150387   -0.276992
     16          1           0       -0.878194    0.882320    1.488847
     17          1           0       -0.878150   -0.885054    1.487276
     18          1           0       -2.219013   -0.820094   -0.461134
     19          1           0       -2.219000    0.821046   -0.459474
 ---------------------------------------------------------------------
 Rotational constants (GHZ):           4.3580139           2.5559401           2.5534564
   110 basis functions,   202 primitive gaussians,   116 cartesian basis functions
    25 alpha electrons       25 beta electrons
       nuclear repulsion energy       268.4987378682 Hartrees.
 NAtoms=   19 NActive=   19 NUniq=   19 SFac= 1.00D+00 NAtFMM=   60 NAOKFM=F Big=F
 Nuclear repulsion after empirical dispersion term =      268.4857209898 Hartrees.
   1 Symmetry operations used in ECPInt.
 ECPInt:  NShTT=    1953 NPrTT=    7867 LenC2=    1951 LenP2D=    6573.
 LDataN:  DoStor=T MaxTD1= 4 Len=   56
 ExpMin= 1.22D-01 ExpMax= 1.71D+03 ExpMxC= 2.58D+02 IAcc=3 IRadAn=         5 AccDes= 0.00D+00
 Harris functional with IExCor= 4639 and IRadAn=       5 diagonalized for initial guess.
 HarFok:  IExCor= 4639 AccDes= 0.00D+00 IRadAn=         5 IDoV= 1 UseB2=F ITyADJ=14
 ICtDFT=  3500011 ScaDFX=  1.000000  1.000000  1.000000  1.000000
 FoFCou: FMM=F IPFlag=           0 FMFlag=      100000 FMFlg1=           0
         NFxFlg=           0 DoJE=T BraDBF=F KetDBF=T FulRan=T
         wScrn=  0.000000 ICntrl=       500 IOpCl=  0 I1Cent=   200000004 NGrid=           0
         NMat0=    1 NMatS0=      1 NMatT0=    0 NMatD0=    1 NMtDS0=    0 NMtDT0=    0
 Petite list used in FoFCou.
     Minimum is close to point  3 DX=  4.82D-02 DF= -2.48D-04 DXR=  7.43D-02 DFR=  5.54D-03 which will be used.
     Minimum is close to point  3 DX=  5.38D-02 DF= -1.43D-05 DXR=  5.65D-02 DFR=  3.19D-03 which will be used.
     Accept linear search using points  1 and  2.
     Minimum is close to point  2 DX=  6.34D-05 DF= -1.99D-13 DXR=  6.34D-05 DFR=  4.10D-09 which will be used.
 SCF Done:  E(RwB97XD) =  -252.826586863     a.u. after    6 cycles
            Convg  =    0.8712D-09                    30 Fock formations.
              S**2 =  0.0000                  -V/T =  2.0102

 **********************************************************************

            Population analysis using the SCF Density.

 **********************************************************************

 Orbital symmetries:
       Occupied  (A) (A) (A) (A) (A) (A) (A) (A) (A) (A) (A) (A)
                 (A) (A) (A) (A) (A) (A) (A) (A) (A) (A) (A) (A)
                 (A)
       Virtual   (A) (A) (A) (A) (A) (A) (A) (A) (A) (A) (A) (A)
                 (A) (A) (A) (A) (A) (A) (A) (A) (A) (A) (A) (A)
                 (A) (A) (A) (A) (A) (A) (A) (A) (A) (A) (A) (A)
                 (A) (A) (A) (A) (A) (A) (A) (A) (A) (A) (A) (A)
                 (A) (A) (A) (A) (A) (A) (A) (A) (A) (A) (A) (A)
                 (A) (A) (A) (A) (A) (A) (A) (A) (A) (A) (A) (A)
                 (A) (A) (A) (A) (A) (A) (A) (A) (A) (A) (A) (A)
                 (A)
 The electronic state is 1-A.
 Alpha  occ. eigenvalues --  -14.40894 -10.30358 -10.29965 -10.27658 -10.27656
 Alpha  occ. eigenvalues --  -10.27402  -0.97553  -0.90001  -0.77957  -0.77866
 Alpha  occ. eigenvalues --   -0.74329  -0.62403  -0.58620  -0.55441  -0.53353
 Alpha  occ. eigenvalues --   -0.53133  -0.49652  -0.47496  -0.46178  -0.45141
 Alpha  occ. eigenvalues --   -0.44108  -0.42433  -0.40523  -0.40219  -0.30804
 Alpha virt. eigenvalues --    0.12354   0.15858   0.17225   0.18272   0.19394
 Alpha virt. eigenvalues --    0.19596   0.21216   0.22640   0.24258   0.25574
 Alpha virt. eigenvalues --    0.25930   0.27342   0.28199   0.28698   0.30315
 Alpha virt. eigenvalues --    0.32636   0.33552   0.34968   0.48132   0.49078
 Alpha virt. eigenvalues --    0.52207   0.52731   0.57187   0.61667   0.62700
 Alpha virt. eigenvalues --    0.65748   0.68490   0.69870   0.71453   0.75557
 Alpha virt. eigenvalues --    0.77519   0.77767   0.78707   0.79296   0.79685
 Alpha virt. eigenvalues --    0.80060   0.81082   0.82237   0.82530   0.84799
 Alpha virt. eigenvalues --    0.85368   0.85688   0.86050   0.86671   0.87734
 Alpha virt. eigenvalues --    0.89941   0.95204   0.97587   1.02592   1.11158
 Alpha virt. eigenvalues --    1.14444   1.23586   1.25378   1.27456   1.41925
 Alpha virt. eigenvalues --    1.47828   1.49078   1.77626   1.78070   1.80460
 Alpha virt. eigenvalues --    1.88189   1.91731   1.94080   2.04865   2.09869
 Alpha virt. eigenvalues --    2.12583   2.12837   2.14152   2.18461   2.25465
 Alpha virt. eigenvalues --    2.25685   2.26834   2.27339   2.27418   2.30315
 Alpha virt. eigenvalues --    2.40751   2.51717   2.53535   2.62710   2.65769
 Alpha virt. eigenvalues --    2.75411   2.77891   2.79692   2.86362   3.09765
          Condensed to atoms (all electrons):
 Mulliken charges:
               1
     1  C   -0.264739
     2  C   -0.286575
     3  C   -0.245463
     4  C   -0.264764
     5  C   -0.036737
     6  N   -0.502753
     7  H    0.112688
     8  H    0.100047
     9  H    0.109737
    10  H    0.109214
    11  H    0.109212
    12  H    0.109486
    13  H    0.100046
    14  H    0.112692
    15  H    0.109741
    16  H    0.095043
    17  H    0.095051
    18  H    0.219029
    19  H    0.219044
 Sum of Mulliken charges =   0.00000
 Mulliken charges with hydrogens summed into heavy atoms:
               1
     1  C    0.057734
     2  C   -0.286575
     3  C    0.082450
     4  C    0.057715
     5  C    0.153357
     6  N   -0.064680
 Electronic spatial extent (au):  <R**2>=            668.9245
 Charge=              0.0000 electrons
 Dipole moment (field-independent basis, Debye):
    X=              0.9230    Y=              0.0010    Z=             -1.0152  Tot=              1.3720
 Evaluate density.
 Using the total density.
 Monte-Carlo method of calculating molar volume:
 based on  0.001 e/bohr**3 density envelope.
 Number of points per bohr**3 =  100 CutOff= 1.00D-04
 Using the SCF density.
 There are      1774 points.  Will hold      1774 in memory.
 LenV=  1048350229 MDV=  1048576000.
 Box volume = 5590.819 fraction occupied=0.162
 Integrated density= 3.3639261519153642D+01 error=-1.6360738480846358D+01
 Molar volume =  907.641 bohr**3/mol ( 80.997 cm**3/mol)
 Recommended a0 for SCRF calculation =  4.00 angstrom (  7.56 bohr)
   1 Symmetry operations used in ECPInt.
 ECPInt:  NShTT=    1953 NPrTT=    7867 LenC2=    1951 LenP2D=    6573.
 LDataN:  DoStor=T MaxTD1= 5 Len=  102
 Calling FoFJK, ICntrl=      2127 FMM=F ISym2X=0 I1Cent= 0 IOpClX= 0 NMat=1 NMatS=1 NMatT=0.

 GradGradGradGradGradGradGradGradGradGradGradGradGradGradGradGradGradGrad
 FormGI is forming the generalized inverse of G from B-inverse, IUseBI=4.
 Internal  Forces:  Max     0.011563797 RMS     0.003941555
 Step number   1 out of a maximum of  103
 All quantities printed in internal units (Hartrees-Bohrs-Radians)
 Mixed Optimization -- RFO/linear search
 Second derivative matrix not updated -- first step.
 ITU=  0
     Eigenvalues ---    0.00230   0.00358   0.00359   0.00367   0.01046
     Eigenvalues ---    0.03744   0.04316   0.04580   0.04911   0.04958
     Eigenvalues ---    0.05341   0.05527   0.05527   0.05597   0.05607
     Eigenvalues ---    0.05624   0.05625   0.10197   0.13328   0.14305
     Eigenvalues ---    0.14543   0.16000   0.16000   0.16000   0.16000
     Eigenvalues ---    0.16000   0.16000   0.16000   0.16000   0.16000
     Eigenvalues ---    0.16000   0.16000   0.22086   0.27687   0.29349
     Eigenvalues ---    0.29350   0.29410   0.34327   0.34328   0.34965
     Eigenvalues ---    0.34965   0.35015   0.35015   0.35050   0.35057
     Eigenvalues ---    0.35057   0.35070   0.35070   0.38400   0.45325
     Eigenvalues ---    0.45325
 Linear search not attempted -- first point.
 Iteration  1 RMS(Cart)=  0.02335432 RMS(Int)=  0.00029098
 Iteration  2 RMS(Cart)=  0.00025700 RMS(Int)=  0.00011164
 Iteration  3 RMS(Cart)=  0.00000010 RMS(Int)=  0.00011164
 Variable       Old X    -DE/DX   Delta X   Delta X   Delta X     New X
                                 (Linear)    (Quad)   (Total)
    R1        2.89281   0.00356   0.00000   0.01194   0.01194   2.90475
    R2        2.05583   0.01114   0.00000   0.03136   0.03136   2.08719
    R3        2.05731   0.01064   0.00000   0.03005   0.03005   2.08736
    R4        2.05650   0.01145   0.00000   0.03227   0.03227   2.08877
    R5        2.89156   0.00403   0.00000   0.01349   0.01349   2.90505
    R6        2.89279   0.00356   0.00000   0.01194   0.01194   2.90473
    R7        2.92828   0.00152   0.00000   0.00541   0.00541   2.93369
    R8        2.05562   0.01156   0.00000   0.03255   0.03255   2.08817
    R9        2.05562   0.01156   0.00000   0.03255   0.03255   2.08817
   R10        2.05593   0.01120   0.00000   0.03155   0.03155   2.08748
   R11        2.05732   0.01064   0.00000   0.03004   0.03004   2.08736
   R12        2.05583   0.01113   0.00000   0.03135   0.03135   2.08718
   R13        2.05651   0.01145   0.00000   0.03227   0.03227   2.08878
   R14        2.73787   0.00525   0.00000   0.01352   0.01352   2.75139
   R15        2.06781   0.00768   0.00000   0.02208   0.02208   2.08988
   R16        2.06781   0.00768   0.00000   0.02207   0.02207   2.08988
   R17        1.91600   0.00456   0.00000   0.00996   0.00996   1.92595
   R18        1.91600   0.00455   0.00000   0.00995   0.00995   1.92595
    A1        1.92475   0.00149   0.00000   0.00892   0.00889   1.93364
    A2        1.94089   0.00097   0.00000   0.00585   0.00583   1.94672
    A3        1.92977   0.00130   0.00000   0.00805   0.00802   1.93779
    A4        1.88167  -0.00131   0.00000  -0.00828  -0.00831   1.87336
    A5        1.89153  -0.00143   0.00000  -0.00857  -0.00861   1.88292
    A6        1.89375  -0.00118   0.00000  -0.00697  -0.00699   1.88676
    A7        1.90653   0.00019   0.00000   0.00280   0.00279   1.90932
    A8        1.91299   0.00000   0.00000   0.00156   0.00155   1.91454
    A9        1.92563  -0.00006   0.00000  -0.00188  -0.00188   1.92375
   A10        1.90654   0.00019   0.00000   0.00280   0.00279   1.90933
   A11        1.88609  -0.00026   0.00000  -0.00332  -0.00332   1.88278
   A12        1.92569  -0.00006   0.00000  -0.00192  -0.00191   1.92378
   A13        1.93049   0.00121   0.00000   0.00730   0.00727   1.93777
   A14        1.93050   0.00121   0.00000   0.00730   0.00727   1.93777
   A15        1.92870   0.00147   0.00000   0.00910   0.00906   1.93776
   A16        1.89043  -0.00130   0.00000  -0.00816  -0.00818   1.88224
   A17        1.89126  -0.00138   0.00000  -0.00824  -0.00828   1.88298
   A18        1.89126  -0.00138   0.00000  -0.00824  -0.00827   1.88299
   A19        1.94088   0.00097   0.00000   0.00587   0.00584   1.94672
   A20        1.92474   0.00148   0.00000   0.00892   0.00889   1.93363
   A21        1.92977   0.00130   0.00000   0.00806   0.00803   1.93780
   A22        1.88165  -0.00131   0.00000  -0.00827  -0.00829   1.87336
   A23        1.89378  -0.00118   0.00000  -0.00699  -0.00701   1.88677
   A24        1.89154  -0.00143   0.00000  -0.00859  -0.00863   1.88291
   A25        2.04838   0.00269   0.00000   0.01765   0.01756   2.06595
   A26        1.89605  -0.00130   0.00000  -0.00877  -0.00898   1.88707
   A27        1.89607  -0.00130   0.00000  -0.00883  -0.00904   1.88703
   A28        1.86846   0.00031   0.00000   0.01068   0.01069   1.87915
   A29        1.86854   0.00031   0.00000   0.01058   0.01060   1.87914
   A30        1.88008  -0.00094   0.00000  -0.02480  -0.02497   1.85511
   A31        1.92924   0.00337   0.00000   0.02572   0.02534   1.95458
   A32        1.92916   0.00338   0.00000   0.02578   0.02540   1.95456
   A33        1.88598  -0.00244   0.00000  -0.00466  -0.00534   1.88065
    D1       -1.00241  -0.00031   0.00000  -0.01550  -0.01551  -1.01792
    D2        1.08591   0.00004   0.00000  -0.00944  -0.00944   1.07647
    D3       -3.07334  -0.00007   0.00000  -0.01203  -0.01203  -3.08537
    D4       -3.08891  -0.00027   0.00000  -0.01476  -0.01476  -3.10367
    D5       -1.00060   0.00008   0.00000  -0.00869  -0.00869  -1.00929
    D6        1.12334  -0.00003   0.00000  -0.01128  -0.01128   1.11206
    D7        1.08925  -0.00030   0.00000  -0.01527  -0.01527   1.07398
    D8       -3.10561   0.00005   0.00000  -0.00921  -0.00920  -3.11482
    D9       -0.98167  -0.00006   0.00000  -0.01180  -0.01179  -0.99347
   D10       -1.04786   0.00009   0.00000   0.00210   0.00210  -1.04577
   D11        3.14084   0.00013   0.00000   0.00280   0.00280  -3.13954
   D12        1.04649   0.00011   0.00000   0.00245   0.00245   1.04894
   D13       -3.14016  -0.00014   0.00000  -0.00318  -0.00318   3.13984
   D14        1.04855  -0.00010   0.00000  -0.00248  -0.00248   1.04607
   D15       -1.04581  -0.00012   0.00000  -0.00283  -0.00283  -1.04864
   D16        1.04754  -0.00002   0.00000  -0.00052  -0.00052   1.04702
   D17       -1.04694   0.00002   0.00000   0.00018   0.00018  -1.04676
   D18       -3.14130  -0.00000   0.00000  -0.00017  -0.00017  -3.14147
   D19        1.00053  -0.00008   0.00000   0.00867   0.00867   1.00920
   D20       -1.08594  -0.00004   0.00000   0.00939   0.00939  -1.07655
   D21        3.10558  -0.00005   0.00000   0.00917   0.00917   3.11475
   D22        3.08884   0.00027   0.00000   0.01473   0.01473   3.10357
   D23        1.00237   0.00031   0.00000   0.01545   0.01546   1.01783
   D24       -1.08930   0.00030   0.00000   0.01524   0.01523  -1.07406
   D25       -1.12337   0.00003   0.00000   0.01124   0.01124  -1.11214
   D26        3.07335   0.00007   0.00000   0.01196   0.01196   3.08531
   D27        0.98167   0.00006   0.00000   0.01174   0.01174   0.99341
   D28       -1.05874   0.00004   0.00000   0.00065   0.00066  -1.05809
   D29        3.10322  -0.00123   0.00000  -0.01902  -0.01893   3.08429
   D30        1.06260   0.00131   0.00000   0.02016   0.02007   1.08267
   D31        3.14107   0.00000   0.00000   0.00037   0.00037   3.14144
   D32        1.01985  -0.00127   0.00000  -0.01931  -0.01922   1.00063
   D33       -1.02077   0.00127   0.00000   0.01988   0.01979  -1.00098
   D34        1.05766  -0.00003   0.00000   0.00011   0.00010   1.05776
   D35       -1.06356  -0.00131   0.00000  -0.01957  -0.01948  -1.08305
   D36       -3.10419   0.00124   0.00000   0.01961   0.01952  -3.08467
   D37        1.04357   0.00065   0.00000   0.01359   0.01377   1.05733
   D38       -1.04369  -0.00065   0.00000  -0.01374  -0.01392  -1.05760
   D39       -3.10416   0.00104   0.00000   0.02281   0.02308  -3.08108
   D40        1.09178  -0.00026   0.00000  -0.00452  -0.00460   1.08717
   D41       -1.09199   0.00026   0.00000   0.00452   0.00461  -1.08739
   D42        3.10394  -0.00104   0.00000  -0.02281  -0.02308   3.08086
         Item               Value     Threshold  Converged?
 Maximum Force            0.011564     0.000015     NO 
 RMS     Force            0.003942     0.000010     NO 
 Maximum Displacement     0.101396     0.000060     NO 
 RMS     Displacement     0.023323     0.000040     NO 
 GradGradGradGradGradGradGradGradGradGradGradGradGradGradGradGradGradGrad

                    Distance matrix (angstroms):
                    1          2          3          4          5
     1  C    0.000000
     2  C    1.537126   0.000000
     3  C    2.509082   1.537288   0.000000
     4  C    2.513570   1.537119   2.509086   0.000000
     5  C    2.534279   1.552441   2.497678   2.534301   0.000000
     6  N    3.100449   2.584176   3.861075   3.100311   1.455972
     7  H    1.104491   2.188113   2.747417   2.780524   3.503149
     8  H    1.104586   2.197625   3.486246   2.760709   2.828263
     9  H    1.105330   2.191752   2.777655   3.486418   2.765621
    10  H    2.764256   2.191637   1.105012   3.482991   2.744417
    11  H    3.482990   2.191639   1.105012   2.764407   2.744294
    12  H    2.765581   2.191357   1.104646   2.765449   3.478763
    13  H    2.760666   2.197618   3.486245   1.104583   2.828325
    14  H    2.780545   2.188093   2.747366   1.104489   3.503152
    15  H    3.486425   2.191753   2.777704   1.105333   2.765632
    16  H    3.479398   2.168203   2.682149   2.767372   1.105919
    17  H    2.767129   2.168176   2.682286   3.479403   1.105918
    18  H    2.821277   2.850036   4.215046   3.477997   2.066344
    19  H    3.478424   2.850132   4.215006   2.821221   2.066334
                    6          7          8          9         10
     6  N    0.000000
     7  H    4.135628   0.000000
     8  H    2.838963   1.779624   0.000000
     9  H    3.393419   1.786457   1.789027   0.000000
    10  H    4.130765   3.097033   3.794838   2.573508   0.000000
    11  H    4.130587   3.770900   4.353184   3.793744   1.786183
    12  H    4.738458   2.542212   3.777421   3.142299   1.786369
    13  H    2.838863   3.124737   2.546693   3.778626   4.353175
    14  H    4.135535   2.590528   3.124849   3.802566   3.770784
    15  H    3.393151   3.802578   3.778645   4.349741   3.793858
    16  H    2.078527   4.327996   3.837321   3.761459   3.034146
    17  H    2.078514   3.761125   3.196322   2.539696   2.458795
    18  H    1.019170   3.864698   2.307039   3.009549   4.383554
    19  H    1.019167   4.382104   3.085053   4.027388   4.706994
                   11         12         13         14         15
    11  H    0.000000
    12  H    1.786370   0.000000
    13  H    3.794974   3.777296   0.000000
    14  H    3.097187   2.542006   1.779620   0.000000
    15  H    2.573722   3.142156   1.789034   1.786457   0.000000
    16  H    2.458514   3.707692   3.196697   3.761292   2.539966
    17  H    3.034196   3.707847   3.837272   4.327972   3.761565
    18  H    4.706870   4.987831   3.084484   4.381737   4.026892
    19  H    4.383275   4.987792   2.307183   3.864730   3.009146
                   16         17         18         19
    16  H    0.000000
    17  H    1.769814   0.000000
    18  H    2.952013   2.408435   0.000000
    19  H    2.408361   2.951991   1.646463   0.000000
 Framework group  C1[X(C5H13N)]
 Deg. of freedom    51
                         Standard orientation:                         
 ---------------------------------------------------------------------
 Center     Atomic      Atomic             Coordinates (Angstroms)
 Number     Number       Type             X           Y           Z
 ---------------------------------------------------------------------
      1          6           0        0.479635   -1.256531   -0.892249
      2          6           0        0.419277    0.000012   -0.008953
      3          6           0        1.611769   -0.000165    0.961210
      4          6           0        0.479433    1.257039   -0.891563
      5          6           0       -0.882790   -0.000349    0.836443
      6          7           0       -2.160678   -0.000069    0.138691
      7          1           0        1.429133   -1.294769   -1.455180
      8          1           0       -0.341683   -1.272980   -1.630677
      9          1           0        0.410284   -2.174785   -0.280895
     10          1           0        1.593826   -0.893515    1.611330
     11          1           0        1.593525    0.892668    1.612031
     12          1           0        2.569921    0.000211    0.411494
     13          1           0       -0.341830    1.273713   -1.630042
     14          1           0        1.428964    1.295759   -1.454402
     15          1           0        0.409862    2.174955   -0.279721
     16          1           0       -0.862414    0.884263    1.499846
     17          1           0       -0.862391   -0.885550    1.499057
     18          1           0       -2.273143   -0.822991   -0.451950
     19          1           0       -2.273251    0.823471   -0.451064
 ---------------------------------------------------------------------
 Rotational constants (GHZ):           4.2995218           2.5199758           2.5167830
   110 basis functions,   202 primitive gaussians,   116 cartesian basis functions
    25 alpha electrons       25 beta electrons
       nuclear repulsion energy       266.4816191838 Hartrees.
 NAtoms=   19 NActive=   19 NUniq=   19 SFac= 1.00D+00 NAtFMM=   60 NAOKFM=F Big=F
 Nuclear repulsion after empirical dispersion term =      266.4686689444 Hartrees.
   1 Symmetry operations used in ECPInt.
 ECPInt:  NShTT=    1953 NPrTT=    7867 LenC2=    1951 LenP2D=    6550.
 LDataN:  DoStor=T MaxTD1= 4 Len=   56
 Initial guess from the checkpoint file:  "monomer.chk"
 B after Tr=     0.000000   -0.000000   -0.000000
         Rot=    1.000000    0.000115   -0.000463    0.000055 Ang=   0.06 deg.
 ExpMin= 1.22D-01 ExpMax= 1.71D+03 ExpMxC= 2.58D+02 IAcc=3 IRadAn=         5 AccDes= 0.00D+00
 Harris functional with IExCor= 4639 and IRadAn=       5 diagonalized for initial guess.
 HarFok:  IExCor= 4639 AccDes= 0.00D+00 IRadAn=         5 IDoV= 1 UseB2=F ITyADJ=14
 ICtDFT=  3500011 ScaDFX=  1.000000  1.000000  1.000000  1.000000
 FoFCou: FMM=F IPFlag=           0 FMFlag=      100000 FMFlg1=           0
         NFxFlg=           0 DoJE=T BraDBF=F KetDBF=T FulRan=T
         wScrn=  0.000000 ICntrl=       500 IOpCl=  0 I1Cent=   200000004 NGrid=           0
         NMat0=    1 NMatS0=      1 NMatT0=    0 NMatD0=    1 NMtDS0=    0 NMtDT0=    0
 Petite list used in FoFCou.
     Accept linear search using points  3 and  4.
     Minimum is close to point  3 DX=  8.51D-02 DF= -7.15D-07 DXR=  7.85D-02 DFR=  6.19D-03 which will be used.
     Accept linear search using points  1 and  2.
     Minimum is close to point  2 DX= -1.66D-04 DF= -1.56D-12 DXR=  1.66D-04 DFR=  2.75D-08 which will be used.
 SCF Done:  E(RwB97XD) =  -252.828769329     a.u. after    5 cycles
            Convg  =    0.7812D-09                    28 Fock formations.
              S**2 =  0.0000                  -V/T =  2.0114
   1 Symmetry operations used in ECPInt.
 ECPInt:  NShTT=    1953 NPrTT=    7867 LenC2=    1951 LenP2D=    6550.
 LDataN:  DoStor=T MaxTD1= 5 Len=  102
 Calling FoFJK, ICntrl=      2127 FMM=F ISym2X=0 I1Cent= 0 IOpClX= 0 NMat=1 NMatS=1 NMatT=0.

 GradGradGradGradGradGradGradGradGradGradGradGradGradGradGradGradGradGrad
 Using GEDIIS/GDIIS optimizer.
 FormGI is forming the generalized inverse of G from B-inverse, IUseBI=4.
 Internal  Forces:  Max     0.004613895 RMS     0.000604159
 Step number   2 out of a maximum of  103
 All quantities printed in internal units (Hartrees-Bohrs-Radians)
 Mixed Optimization -- En-DIIS/RFO-DIIS
 Trust test= 9.39D-01 RLast= 1.45D-01 DXMaxT set to 4.36D-01
 ITU=  1  0
 Use linear search instead of GDIIS.
     Eigenvalues ---    0.00230   0.00358   0.00358   0.00367   0.01046
     Eigenvalues ---    0.03604   0.04023   0.04592   0.04872   0.04985
     Eigenvalues ---    0.05350   0.05453   0.05457   0.05518   0.05521
     Eigenvalues ---    0.05539   0.05539   0.10400   0.13450   0.14294
     Eigenvalues ---    0.14555   0.15765   0.16000   0.16000   0.16000
     Eigenvalues ---    0.16000   0.16000   0.16000   0.16000   0.16000
     Eigenvalues ---    0.16000   0.16206   0.22120   0.27698   0.29349
     Eigenvalues ---    0.29359   0.29464   0.33116   0.34328   0.34427
     Eigenvalues ---    0.34965   0.34981   0.35015   0.35030   0.35053
     Eigenvalues ---    0.35057   0.35065   0.35070   0.41647   0.45325
     Eigenvalues ---    0.45685
 Quartic linear search produced a step of -0.02650.
 Iteration  1 RMS(Cart)=  0.01029538 RMS(Int)=  0.00007905
 Iteration  2 RMS(Cart)=  0.00008235 RMS(Int)=  0.00000252
 Iteration  3 RMS(Cart)=  0.00000000 RMS(Int)=  0.00000252
 Variable       Old X    -DE/DX   Delta X   Delta X   Delta X     New X
                                 (Linear)    (Quad)   (Total)
    R1        2.90475  -0.00165  -0.00032  -0.00486  -0.00518   2.89957
    R2        2.08719   0.00012  -0.00083   0.00190   0.00107   2.08825
    R3        2.08736   0.00007  -0.00080   0.00169   0.00090   2.08826
    R4        2.08877   0.00003  -0.00086   0.00169   0.00083   2.08960
    R5        2.90505  -0.00167  -0.00036  -0.00486  -0.00521   2.89984
    R6        2.90473  -0.00164  -0.00032  -0.00485  -0.00517   2.89956
    R7        2.93369  -0.00082  -0.00014  -0.00263  -0.00277   2.93092
    R8        2.08817   0.00006  -0.00086   0.00180   0.00094   2.08911
    R9        2.08817   0.00006  -0.00086   0.00180   0.00094   2.08911
   R10        2.08748   0.00003  -0.00084   0.00164   0.00081   2.08828
   R11        2.08736   0.00007  -0.00080   0.00169   0.00090   2.08826
   R12        2.08718   0.00012  -0.00083   0.00190   0.00107   2.08825
   R13        2.08878   0.00003  -0.00086   0.00168   0.00083   2.08961
   R14        2.75139  -0.00461  -0.00036  -0.01102  -0.01138   2.74001
   R15        2.08988   0.00010  -0.00059   0.00139   0.00081   2.09069
   R16        2.08988   0.00011  -0.00059   0.00140   0.00081   2.09070
   R17        1.92595  -0.00042  -0.00026  -0.00040  -0.00066   1.92529
   R18        1.92595  -0.00041  -0.00026  -0.00039  -0.00065   1.92529
    A1        1.93364   0.00048  -0.00024   0.00380   0.00357   1.93721
    A2        1.94672  -0.00014  -0.00015  -0.00080  -0.00096   1.94576
    A3        1.93779   0.00015  -0.00021   0.00106   0.00085   1.93864
    A4        1.87336  -0.00013   0.00022  -0.00077  -0.00054   1.87282
    A5        1.88292  -0.00028   0.00023  -0.00165  -0.00143   1.88149
    A6        1.88676  -0.00010   0.00019  -0.00186  -0.00167   1.88508
    A7        1.90932   0.00004  -0.00007   0.00105   0.00098   1.91030
    A8        1.91454  -0.00006  -0.00004  -0.00149  -0.00153   1.91300
    A9        1.92375  -0.00005   0.00005  -0.00110  -0.00106   1.92269
   A10        1.90933   0.00004  -0.00007   0.00105   0.00098   1.91031
   A11        1.88278   0.00010   0.00009   0.00171   0.00180   1.88457
   A12        1.92378  -0.00006   0.00005  -0.00113  -0.00108   1.92270
   A13        1.93777   0.00019  -0.00019   0.00158   0.00139   1.93915
   A14        1.93777   0.00019  -0.00019   0.00158   0.00138   1.93915
   A15        1.93776   0.00022  -0.00024   0.00167   0.00143   1.93919
   A16        1.88224  -0.00018   0.00022  -0.00133  -0.00111   1.88113
   A17        1.88298  -0.00023   0.00022  -0.00188  -0.00166   1.88132
   A18        1.88299  -0.00023   0.00022  -0.00189  -0.00167   1.88132
   A19        1.94672  -0.00014  -0.00015  -0.00081  -0.00096   1.94576
   A20        1.93363   0.00048  -0.00024   0.00382   0.00358   1.93721
   A21        1.93780   0.00015  -0.00021   0.00106   0.00084   1.93864
   A22        1.87336  -0.00013   0.00022  -0.00076  -0.00054   1.87283
   A23        1.88677  -0.00010   0.00019  -0.00187  -0.00168   1.88508
   A24        1.88291  -0.00028   0.00023  -0.00166  -0.00143   1.88149
   A25        2.06595  -0.00061  -0.00047  -0.00160  -0.00206   2.06388
   A26        1.88707   0.00052   0.00024   0.00352   0.00376   1.89082
   A27        1.88703   0.00053   0.00024   0.00355   0.00379   1.89082
   A28        1.87915  -0.00007  -0.00028  -0.00116  -0.00145   1.87771
   A29        1.87914  -0.00007  -0.00028  -0.00113  -0.00141   1.87773
   A30        1.85511  -0.00029   0.00066  -0.00356  -0.00290   1.85221
   A31        1.95458  -0.00052  -0.00067  -0.00201  -0.00267   1.95190
   A32        1.95456  -0.00052  -0.00067  -0.00200  -0.00267   1.95190
   A33        1.88065   0.00055   0.00014   0.00289   0.00305   1.88369
    D1       -1.01792  -0.00004   0.00041  -0.01895  -0.01853  -1.03645
    D2        1.07647  -0.00002   0.00025  -0.01793  -0.01768   1.05879
    D3       -3.08537  -0.00016   0.00032  -0.02102  -0.02070  -3.10607
    D4       -3.10367  -0.00010   0.00039  -0.01999  -0.01960  -3.12327
    D5       -1.00929  -0.00008   0.00023  -0.01897  -0.01874  -1.02803
    D6        1.11206  -0.00022   0.00030  -0.02207  -0.02177   1.09030
    D7        1.07398   0.00002   0.00040  -0.01781  -0.01741   1.05658
    D8       -3.11482   0.00005   0.00024  -0.01679  -0.01655  -3.13136
    D9       -0.99347  -0.00010   0.00031  -0.01988  -0.01957  -1.01303
   D10       -1.04577  -0.00000  -0.00006  -0.00023  -0.00029  -1.04606
   D11       -3.13954  -0.00003  -0.00007  -0.00066  -0.00073  -3.14027
   D12        1.04894  -0.00002  -0.00006  -0.00044  -0.00051   1.04843
   D13        3.13984   0.00003   0.00008   0.00031   0.00039   3.14024
   D14        1.04607   0.00000   0.00007  -0.00012  -0.00005   1.04602
   D15       -1.04864   0.00001   0.00007   0.00010   0.00017  -1.04847
   D16        1.04702   0.00001   0.00001   0.00005   0.00007   1.04708
   D17       -1.04676  -0.00001  -0.00000  -0.00037  -0.00038  -1.04713
   D18       -3.14147   0.00000   0.00000  -0.00016  -0.00015   3.14157
   D19        1.00920   0.00008  -0.00023   0.01903   0.01881   1.02800
   D20       -1.07655   0.00002  -0.00025   0.01797   0.01772  -1.05882
   D21        3.11475  -0.00005  -0.00024   0.01683   0.01659   3.13133
   D22        3.10357   0.00011  -0.00039   0.02006   0.01967   3.12324
   D23        1.01783   0.00004  -0.00041   0.01899   0.01858   1.03641
   D24       -1.07406  -0.00002  -0.00040   0.01785   0.01745  -1.05661
   D25       -1.11214   0.00022  -0.00030   0.02211   0.02181  -1.09032
   D26        3.08531   0.00016  -0.00032   0.02105   0.02073   3.10604
   D27        0.99341   0.00010  -0.00031   0.01991   0.01960   1.01301
   D28       -1.05809   0.00007  -0.00002   0.00190   0.00189  -1.05620
   D29        3.08429   0.00017   0.00050   0.00166   0.00216   3.08645
   D30        1.08267  -0.00002  -0.00053   0.00221   0.00168   1.08435
   D31        3.14144  -0.00000  -0.00001   0.00023   0.00022  -3.14152
   D32        1.00063   0.00010   0.00051  -0.00001   0.00050   1.00113
   D33       -1.00098  -0.00010  -0.00052   0.00054   0.00002  -1.00097
   D34        1.05776  -0.00007  -0.00000  -0.00142  -0.00142   1.05634
   D35       -1.08305   0.00002   0.00052  -0.00166  -0.00115  -1.08419
   D36       -3.08467  -0.00017  -0.00052  -0.00111  -0.00163  -3.08629
   D37        1.05733  -0.00001  -0.00036   0.00049   0.00012   1.05745
   D38       -1.05760   0.00001   0.00037  -0.00038  -0.00001  -1.05761
   D39       -3.08108   0.00019  -0.00061   0.00308   0.00246  -3.07861
   D40        1.08717   0.00022   0.00012   0.00221   0.00234   1.08951
   D41       -1.08739  -0.00022  -0.00012  -0.00217  -0.00230  -1.08968
   D42        3.08086  -0.00019   0.00061  -0.00304  -0.00242   3.07844
         Item               Value     Threshold  Converged?
 Maximum Force            0.004614     0.000015     NO 
 RMS     Force            0.000604     0.000010     NO 
 Maximum Displacement     0.032072     0.000060     NO 
 RMS     Displacement     0.010293     0.000040     NO 
 GradGradGradGradGradGradGradGradGradGradGradGradGradGradGradGradGradGrad

                    Distance matrix (angstroms):
                    1          2          3          4          5
     1  C    0.000000
     2  C    1.534385   0.000000
     3  C    2.505463   1.534530   0.000000
     4  C    2.507735   1.534382   2.505466   0.000000
     5  C    2.529900   1.550976   2.495900   2.529902   0.000000
     6  N    3.089785   2.576208   3.852205   3.089860   1.449952
     7  H    1.105057   2.188708   2.756372   2.769718   3.501724
     8  H    1.105060   2.194876   3.482722   2.762842   2.812874
     9  H    1.105770   2.190281   2.767331   3.481926   2.770975
    10  H    2.762772   2.190580   1.105508   3.480280   2.744578
    11  H    3.480279   2.190581   1.105508   2.762761   2.744602
    12  H    2.763733   2.190281   1.105073   2.763757   3.477763
    13  H    2.762824   2.194870   3.482721   1.105058   2.812887
    14  H    2.769732   2.188703   2.756356   1.105056   3.501724
    15  H    3.481928   2.190280   2.767353   1.105772   2.770969
    16  H    3.477475   2.170060   2.685031   2.767221   1.106347
    17  H    2.767292   2.170060   2.684948   3.477473   1.106348
    18  H    2.806633   2.839210   4.202636   3.465503   2.058948
    19  H    3.465494   2.839268   4.202708   2.806785   2.058945
                    6          7          8          9         10
     6  N    0.000000
     7  H    4.121329   0.000000
     8  H    2.815397   1.780105   0.000000
     9  H    3.398497   1.786341   1.788681   0.000000
    10  H    4.124515   3.111612   3.789077   2.563648   0.000000
    11  H    4.124574   3.778423   4.350224   3.786440   1.786260
    12  H    4.730067   2.553134   3.780881   3.128773   1.786031
    13  H    2.815494   3.121759   2.556925   3.783419   4.350219
    14  H    4.121394   2.572133   3.121807   3.791046   3.778420
    15  H    3.398593   3.791046   3.783428   4.346984   3.786447
    16  H    2.072592   4.330486   3.825844   3.766368   3.037593
    17  H    2.072608   3.768858   3.180477   2.549043   2.463184
    18  H    1.018821   3.844705   2.276426   3.012524   4.373455
    19  H    1.018820   4.361257   3.065206   4.029677   4.697970
                   11         12         13         14         15
    11  H    0.000000
    12  H    1.786032   0.000000
    13  H    3.789075   3.780889   0.000000
    14  H    3.111561   2.553139   1.780108   0.000000
    15  H    2.563656   3.128834   1.788681   1.786340   0.000000
    16  H    2.463300   3.711402   3.180385   3.768798   2.548952
    17  H    3.037502   3.711327   3.825888   4.330478   3.766322
    18  H    4.697962   4.975536   3.065251   4.361250   4.029713
    19  H    4.373570   4.975630   2.276598   3.844861   3.012687
                   16         17         18         19
    16  H    0.000000
    17  H    1.768574   0.000000
    18  H    2.945628   2.400586   0.000000
    19  H    2.400503   2.945634   1.647728   0.000000
 Framework group  C1[X(C5H13N)]
 Deg. of freedom    51
                         Standard orientation:                         
 ---------------------------------------------------------------------
 Center     Atomic      Atomic             Coordinates (Angstroms)
 Number     Number       Type             X           Y           Z
 ---------------------------------------------------------------------
      1          6           0        0.476259   -1.253826   -0.890805
      2          6           0        0.418793    0.000004   -0.008226
      3          6           0        1.610962   -0.000087    0.957960
      4          6           0        0.476343    1.253909   -0.890687
      5          6           0       -0.881979    0.000003    0.836474
      6          7           0       -2.153200   -0.000010    0.139080
      7          1           0        1.415450   -1.286021   -1.472213
      8          1           0       -0.358988   -1.278368   -1.613936
      9          1           0        0.425776   -2.173476   -0.278905
     10          1           0        1.595446   -0.893238    1.609256
     11          1           0        1.595534    0.893022    1.609317
     12          1           0        2.569239   -0.000116    0.407604
     13          1           0       -0.358885    1.278557   -1.613833
     14          1           0        1.415553    1.286112   -1.472063
     15          1           0        0.425890    2.173508   -0.278704
     16          1           0       -0.865372    0.884302    1.501112
     17          1           0       -0.865348   -0.884273    1.501144
     18          1           0       -2.262046   -0.823843   -0.450367
     19          1           0       -2.262115    0.823886   -0.450265
 ---------------------------------------------------------------------
 Rotational constants (GHZ):           4.3123451           2.5313132           2.5272163
   110 basis functions,   202 primitive gaussians,   116 cartesian basis functions
    25 alpha electrons       25 beta electrons
       nuclear repulsion energy       266.8952413568 Hartrees.
 NAtoms=   19 NActive=   19 NUniq=   19 SFac= 1.00D+00 NAtFMM=   60 NAOKFM=F Big=F
 Nuclear repulsion after empirical dispersion term =      266.8822887392 Hartrees.
   1 Symmetry operations used in ECPInt.
 ECPInt:  NShTT=    1953 NPrTT=    7867 LenC2=    1951 LenP2D=    6552.
 LDataN:  DoStor=T MaxTD1= 4 Len=   56
 Initial guess from the checkpoint file:  "monomer.chk"
 B after Tr=    -0.000000    0.000000    0.000000
         Rot=    1.000000    0.000125   -0.000923    0.000035 Ang=   0.11 deg.
 ExpMin= 1.22D-01 ExpMax= 1.71D+03 ExpMxC= 2.58D+02 IAcc=3 IRadAn=         5 AccDes= 0.00D+00
 Harris functional with IExCor= 4639 and IRadAn=       5 diagonalized for initial guess.
 HarFok:  IExCor= 4639 AccDes= 0.00D+00 IRadAn=         5 IDoV= 1 UseB2=F ITyADJ=14
 ICtDFT=  3500011 ScaDFX=  1.000000  1.000000  1.000000  1.000000
 FoFCou: FMM=F IPFlag=           0 FMFlag=      100000 FMFlg1=           0
         NFxFlg=           0 DoJE=T BraDBF=F KetDBF=T FulRan=T
         wScrn=  0.000000 ICntrl=       500 IOpCl=  0 I1Cent=   200000004 NGrid=           0
         NMat0=    1 NMatS0=      1 NMatT0=    0 NMatD0=    1 NMtDS0=    0 NMtDT0=    0
 Petite list used in FoFCou.
     Accept linear search using points  1 and  2.
     Minimum is close to point  2 DX= -2.54D-05 DF= -2.84D-14 DXR=  2.54D-05 DFR=  6.84D-10 which will be used.
 SCF Done:  E(RwB97XD) =  -252.828832767     a.u. after    4 cycles
            Convg  =    0.3024D-09                    27 Fock formations.
              S**2 =  0.0000                  -V/T =  2.0114
   1 Symmetry operations used in ECPInt.
 ECPInt:  NShTT=    1953 NPrTT=    7867 LenC2=    1951 LenP2D=    6552.
 LDataN:  DoStor=T MaxTD1= 5 Len=  102
 Calling FoFJK, ICntrl=      2127 FMM=F ISym2X=0 I1Cent= 0 IOpClX= 0 NMat=1 NMatS=1 NMatT=0.

 GradGradGradGradGradGradGradGradGradGradGradGradGradGradGradGradGradGrad
 Using GEDIIS/GDIIS optimizer.
 FormGI is forming the generalized inverse of G from B-inverse, IUseBI=4.
 Internal  Forces:  Max     0.000531084 RMS     0.000137665
 Step number   3 out of a maximum of  103
 All quantities printed in internal units (Hartrees-Bohrs-Radians)
 Mixed Optimization -- En-DIIS/RFO-DIIS
 Swapping is turned off.
 Trust test= 9.62D-01 RLast= 8.32D-02 DXMaxT set to 4.36D-01
 ITU=  1  1  0
     Eigenvalues ---    0.00230   0.00358   0.00362   0.00367   0.01046
     Eigenvalues ---    0.03607   0.04009   0.04648   0.04859   0.04967
     Eigenvalues ---    0.05204   0.05455   0.05491   0.05504   0.05508
     Eigenvalues ---    0.05513   0.05514   0.10652   0.13444   0.14296
     Eigenvalues ---    0.14553   0.14999   0.16000   0.16000   0.16000
     Eigenvalues ---    0.16000   0.16000   0.16000   0.16000   0.16000
     Eigenvalues ---    0.16001   0.16653   0.22461   0.27593   0.29210
     Eigenvalues ---    0.29349   0.29802   0.34179   0.34328   0.34965
     Eigenvalues ---    0.34974   0.35015   0.35020   0.35043   0.35057
     Eigenvalues ---    0.35064   0.35070   0.35730   0.40478   0.45325
     Eigenvalues ---    0.45394
 En-DIIS/RFO-DIIS/Sim-DIIS IScMMF=       -3 using points:     3    2
 RFO step:  Lambda=-1.13892214D-05.
 DidBck=F Rises=F RFO-DIIS coefs:    1.06373   -0.06373
 Iteration  1 RMS(Cart)=  0.00241936 RMS(Int)=  0.00000503
 Iteration  2 RMS(Cart)=  0.00000507 RMS(Int)=  0.00000203
 Iteration  3 RMS(Cart)=  0.00000000 RMS(Int)=  0.00000203
 Variable       Old X    -DE/DX   Delta X   Delta X   Delta X     New X
                                 (Linear)    (Quad)   (Total)
    R1        2.89957  -0.00012  -0.00033  -0.00053  -0.00086   2.89871
    R2        2.08825  -0.00025   0.00007  -0.00065  -0.00058   2.08768
    R3        2.08826  -0.00019   0.00006  -0.00047  -0.00041   2.08785
    R4        2.08960  -0.00020   0.00005  -0.00049  -0.00044   2.08917
    R5        2.89984  -0.00033  -0.00033  -0.00119  -0.00152   2.89832
    R6        2.89956  -0.00012  -0.00033  -0.00052  -0.00085   2.89871
    R7        2.93092   0.00039  -0.00018   0.00130   0.00112   2.93204
    R8        2.08911  -0.00022   0.00006  -0.00055  -0.00049   2.08862
    R9        2.08911  -0.00022   0.00006  -0.00054  -0.00049   2.08862
   R10        2.08828  -0.00017   0.00005  -0.00043  -0.00038   2.08790
   R11        2.08826  -0.00019   0.00006  -0.00047  -0.00041   2.08785
   R12        2.08825  -0.00025   0.00007  -0.00065  -0.00058   2.08768
   R13        2.08961  -0.00020   0.00005  -0.00049  -0.00044   2.08917
   R14        2.74001  -0.00003  -0.00073  -0.00034  -0.00107   2.73894
   R15        2.09069  -0.00002   0.00005  -0.00003   0.00003   2.09072
   R16        2.09070  -0.00002   0.00005  -0.00003   0.00002   2.09072
   R17        1.92529  -0.00014  -0.00004  -0.00032  -0.00036   1.92493
   R18        1.92529  -0.00014  -0.00004  -0.00031  -0.00036   1.92494
    A1        1.93721   0.00008   0.00023   0.00053   0.00076   1.93797
    A2        1.94576   0.00009  -0.00006   0.00050   0.00044   1.94620
    A3        1.93864   0.00011   0.00005   0.00080   0.00085   1.93949
    A4        1.87282  -0.00011  -0.00003  -0.00084  -0.00088   1.87194
    A5        1.88149  -0.00010  -0.00009  -0.00056  -0.00066   1.88083
    A6        1.88508  -0.00010  -0.00011  -0.00054  -0.00065   1.88443
    A7        1.91030  -0.00002   0.00006  -0.00031  -0.00024   1.91006
    A8        1.91300   0.00001  -0.00010   0.00022   0.00012   1.91312
    A9        1.92269   0.00002  -0.00007   0.00031   0.00024   1.92294
   A10        1.91031  -0.00002   0.00006  -0.00031  -0.00025   1.91006
   A11        1.88457  -0.00001   0.00011  -0.00023  -0.00011   1.88446
   A12        1.92270   0.00002  -0.00007   0.00030   0.00023   1.92293
   A13        1.93915   0.00006   0.00009   0.00041   0.00050   1.93965
   A14        1.93915   0.00006   0.00009   0.00041   0.00050   1.93965
   A15        1.93919   0.00012   0.00009   0.00080   0.00089   1.94009
   A16        1.88113  -0.00007  -0.00007  -0.00051  -0.00059   1.88054
   A17        1.88132  -0.00009  -0.00011  -0.00060  -0.00071   1.88061
   A18        1.88132  -0.00009  -0.00011  -0.00060  -0.00071   1.88061
   A19        1.94576   0.00009  -0.00006   0.00050   0.00044   1.94620
   A20        1.93721   0.00008   0.00023   0.00054   0.00077   1.93798
   A21        1.93864   0.00011   0.00005   0.00080   0.00085   1.93949
   A22        1.87283  -0.00011  -0.00003  -0.00084  -0.00088   1.87195
   A23        1.88508  -0.00010  -0.00011  -0.00054  -0.00065   1.88443
   A24        1.88149  -0.00010  -0.00009  -0.00056  -0.00065   1.88083
   A25        2.06388   0.00053  -0.00013   0.00296   0.00283   2.06671
   A26        1.89082  -0.00026   0.00024  -0.00159  -0.00135   1.88947
   A27        1.89082  -0.00026   0.00024  -0.00158  -0.00134   1.88948
   A28        1.87771  -0.00001  -0.00009   0.00115   0.00106   1.87876
   A29        1.87773  -0.00001  -0.00009   0.00114   0.00105   1.87878
   A30        1.85221  -0.00004  -0.00018  -0.00268  -0.00287   1.84934
   A31        1.95190   0.00031  -0.00017   0.00290   0.00272   1.95462
   A32        1.95190   0.00031  -0.00017   0.00290   0.00272   1.95462
   A33        1.88369  -0.00017   0.00019   0.00100   0.00118   1.88487
    D1       -1.03645  -0.00001  -0.00118  -0.00013  -0.00131  -1.03777
    D2        1.05879  -0.00003  -0.00113  -0.00057  -0.00170   1.05709
    D3       -3.10607   0.00001  -0.00132   0.00014  -0.00118  -3.10724
    D4       -3.12327   0.00002  -0.00125   0.00024  -0.00101  -3.12428
    D5       -1.02803  -0.00001  -0.00119  -0.00020  -0.00139  -1.02942
    D6        1.09030   0.00003  -0.00139   0.00052  -0.00087   1.08943
    D7        1.05658   0.00000  -0.00111   0.00004  -0.00107   1.05551
    D8       -3.13136  -0.00002  -0.00105  -0.00039  -0.00145  -3.13281
    D9       -1.01303   0.00002  -0.00125   0.00032  -0.00093  -1.01396
   D10       -1.04606  -0.00001  -0.00002  -0.00009  -0.00011  -1.04616
   D11       -3.14027   0.00000  -0.00005   0.00001  -0.00003  -3.14031
   D12        1.04843  -0.00000  -0.00003  -0.00004  -0.00007   1.04836
   D13        3.14024  -0.00000   0.00002   0.00003   0.00005   3.14029
   D14        1.04602   0.00001  -0.00000   0.00013   0.00012   1.04614
   D15       -1.04847   0.00000   0.00001   0.00008   0.00009  -1.04838
   D16        1.04708  -0.00000   0.00000  -0.00002  -0.00002   1.04707
   D17       -1.04713   0.00000  -0.00002   0.00008   0.00005  -1.04708
   D18        3.14157   0.00000  -0.00001   0.00003   0.00002   3.14159
   D19        1.02800   0.00001   0.00120   0.00026   0.00146   1.02946
   D20       -1.05882   0.00003   0.00113   0.00063   0.00176  -1.05706
   D21        3.13133   0.00002   0.00106   0.00045   0.00151   3.13284
   D22        3.12324  -0.00002   0.00125  -0.00018   0.00108   3.12432
   D23        1.03641   0.00001   0.00118   0.00020   0.00138   1.03780
   D24       -1.05661  -0.00000   0.00111   0.00002   0.00113  -1.05548
   D25       -1.09032  -0.00003   0.00139  -0.00046   0.00093  -1.08940
   D26        3.10604  -0.00001   0.00132  -0.00009   0.00123   3.10727
   D27        1.01301  -0.00002   0.00125  -0.00027   0.00098   1.01399
   D28       -1.05620  -0.00002   0.00012  -0.00049  -0.00037  -1.05657
   D29        3.08645  -0.00018   0.00014  -0.00288  -0.00274   3.08371
   D30        1.08435   0.00014   0.00011   0.00190   0.00201   1.08636
   D31       -3.14152  -0.00000   0.00001  -0.00016  -0.00015   3.14152
   D32        1.00113  -0.00016   0.00003  -0.00256  -0.00252   0.99861
   D33       -1.00097   0.00016   0.00000   0.00223   0.00223  -0.99874
   D34        1.05634   0.00002  -0.00009   0.00018   0.00009   1.05642
   D35       -1.08419  -0.00014  -0.00007  -0.00222  -0.00229  -1.08648
   D36       -3.08629   0.00017  -0.00010   0.00257   0.00246  -3.08383
   D37        1.05745   0.00011   0.00001   0.00274   0.00275   1.06020
   D38       -1.05761  -0.00011  -0.00000  -0.00267  -0.00267  -1.06028
   D39       -3.07861   0.00014   0.00016   0.00373   0.00389  -3.07472
   D40        1.08951  -0.00008   0.00015  -0.00168  -0.00153   1.08798
   D41       -1.08968   0.00008  -0.00015   0.00174   0.00160  -1.08808
   D42        3.07844  -0.00014  -0.00015  -0.00366  -0.00382   3.07462
         Item               Value     Threshold  Converged?
 Maximum Force            0.000531     0.000015     NO 
 RMS     Force            0.000138     0.000010     NO 
 Maximum Displacement     0.012143     0.000060     NO 
 RMS     Displacement     0.002417     0.000040     NO 
 GradGradGradGradGradGradGradGradGradGradGradGradGradGradGradGradGradGrad

                    Distance matrix (angstroms):
                    1          2          3          4          5
     1  C    0.000000
     2  C    1.533932   0.000000
     3  C    2.504219   1.533723   0.000000
     4  C    2.507101   1.533932   2.504220   0.000000
     5  C    2.530233   1.551570   2.495630   2.530226   0.000000
     6  N    3.093082   2.578418   3.852445   3.092996   1.449387
     7  H    1.104751   2.188628   2.756355   2.768904   3.502179
     8  H    1.104841   2.194625   3.481512   2.763225   2.812984
     9  H    1.105539   2.190324   2.766307   3.481447   2.772296
    10  H    2.761887   2.190035   1.105251   3.479128   2.744418
    11  H    3.479128   2.190034   1.105251   2.761878   2.744424
    12  H    2.763130   2.190062   1.104871   2.763142   3.477859
    13  H    2.763239   2.194622   3.481512   1.104842   2.812957
    14  H    2.768892   2.188630   2.756374   1.104751   3.502176
    15  H    3.481446   2.190322   2.766294   1.105539   2.772297
    16  H    3.476920   2.169576   2.682540   2.767641   1.106360
    17  H    2.767597   2.169582   2.682608   3.476922   1.106361
    18  H    2.814979   2.845176   4.206615   3.472073   2.060113
    19  H    3.472258   2.845205   4.206585   2.814908   2.060111
                    6          7          8          9         10
     6  N    0.000000
     7  H    4.124406   0.000000
     8  H    2.819463   1.779109   0.000000
     9  H    3.401953   1.785480   1.787896   0.000000
    10  H    4.124356   3.111957   3.787896   2.563024   0.000000
    11  H    4.124318   3.778235   4.349307   3.785554   1.785463
    12  H    4.731481   2.553938   3.780525   3.127623   1.785199
    13  H    2.819342   3.121574   2.558644   3.784031   4.349306
    14  H    4.124332   2.571225   3.121530   3.790110   3.778255
    15  H    3.401839   3.790110   3.784028   4.346955   3.785538
    16  H    2.072896   4.329958   3.826184   3.766377   3.034757
    17  H    2.072907   3.769070   3.181042   2.550661   2.460872
    18  H    1.018632   3.852821   2.285503   3.020188   4.376742
    19  H    1.018632   4.368352   3.072658   4.035608   4.700859
                   11         12         13         14         15
    11  H    0.000000
    12  H    1.785199   0.000000
    13  H    3.787881   3.780542   0.000000
    14  H    3.111966   2.553969   1.779113   0.000000
    15  H    2.562999   3.127619   1.787894   1.785479   0.000000
    16  H    2.460807   3.709213   3.181092   3.769107   2.550722
    17  H    3.034867   3.709264   3.826138   4.329968   3.766414
    18  H    4.700852   4.981379   3.072382   4.368179   4.035416
    19  H    4.376627   4.981367   2.285451   3.852770   3.020016
                   16         17         18         19
    16  H    0.000000
    17  H    1.766686   0.000000
    18  H    2.946737   2.402430   0.000000
    19  H    2.402376   2.946741   1.648129   0.000000
 Framework group  C1[X(C5H13N)]
 Deg. of freedom    51
                         Standard orientation:                         
 ---------------------------------------------------------------------
 Center     Atomic      Atomic             Coordinates (Angstroms)
 Number     Number       Type             X           Y           Z
 ---------------------------------------------------------------------
      1          6           0        0.479277   -1.254727   -0.888617
      2          6           0        0.419294   -0.000011   -0.008255
      3          6           0        1.608589    0.001332    0.960189
      4          6           0        0.479150    1.252371   -0.891942
      5          6           0       -0.883843    0.001048    0.833885
      6          7           0       -2.154999    0.000159    0.137547
      7          1           0        1.418799   -1.287518   -1.468873
      8          1           0       -0.354445   -1.281495   -1.613093
      9          1           0        0.428736   -2.173846   -0.276340
     10          1           0        1.592086   -0.890530    1.612790
     11          1           0        1.592009    0.894932    1.610407
     12          1           0        2.568457    0.000644    0.413021
     13          1           0       -0.354597    1.277147   -1.616461
     14          1           0        1.418654    1.283705   -1.472309
     15          1           0        0.428547    2.173105   -0.282103
     16          1           0       -0.866240    0.885241    1.498660
     17          1           0       -0.866225   -0.881444    1.500918
     18          1           0       -2.267775   -0.824630   -0.449492
     19          1           0       -2.267812    0.823498   -0.451518
 ---------------------------------------------------------------------
 Rotational constants (GHZ):           4.3137510           2.5293826           2.5252373
   110 basis functions,   202 primitive gaussians,   116 cartesian basis functions
    25 alpha electrons       25 beta electrons
       nuclear repulsion energy       266.8804026249 Hartrees.
 NAtoms=   19 NActive=   19 NUniq=   19 SFac= 1.00D+00 NAtFMM=   60 NAOKFM=F Big=F
 Nuclear repulsion after empirical dispersion term =      266.8674575329 Hartrees.
   1 Symmetry operations used in ECPInt.
 ECPInt:  NShTT=    1953 NPrTT=    7867 LenC2=    1951 LenP2D=    6552.
 LDataN:  DoStor=T MaxTD1= 4 Len=   56
 Initial guess from the checkpoint file:  "monomer.chk"
 B after Tr=    -0.000000   -0.000000   -0.000000
         Rot=    1.000000    0.000684    0.000727   -0.000025 Ang=   0.11 deg.
     Minimum is close to point  2 DX=  5.46D-05 DF=  0.00D+00 DXR=  5.46D-05 DFR=  0.00D+00 which will be used.
 QCLLim is confused:  Bigger=T Turned=T
 NLin=  5 IMin12=  1  2 I12=  0  2 IX=  1 XLMin= 0.000D+00 XLMax= 0.000D+00
 X = 0.000D+00 1.000D+00 2.000D+00 4.000D+00 8.000D+00
 DE= 0.000D+00 3.411D-13 5.684D-13 5.571D-12 3.126D-11
 QCLLim is confused:  Bigger=T Turned=T
 NLin=  6 IMin12=  1  2 I12=  0  2 IX=  1 XLMin= 0.000D+00 XLMax= 0.000D+00
 X = 0.000D+00 1.000D+00 2.000D+00 4.000D+00 8.000D+00 1.600D+01
 DE= 0.000D+00 3.411D-13 5.684D-13 5.571D-12 3.126D-11 1.450D-10
 QCLLim is confused:  Bigger=T Turned=T
 NLin= 16 IMin12=  1  2 I12=  0  2 IX=  1 XLMin= 0.000D+00 XLMax= 0.000D+00
 X = 0.000D+00 1.000D+00 2.000D+00 4.000D+00 8.000D+00 1.600D+01 3.200D+01 6.400D+01 1.280D+02 2.560D+02 5.120D+02 1.024D+03 2.048D+03 4.096D+03 8.192D+03 1.638D+04
 DE= 0.000D+00 3.411D-13 5.684D-13 5.571D-12 3.126D-11 1.450D-10 6.239D-10 2.586D-09 1.052D-08 4.243D-08 1.704D-07 6.831D-07 2.736D-06 1.095D-05 4.382D-05 1.754D-04
 Search did not lower the energy significantly.
 No lower point found -- using Newton-Raphson step.
 SCF Done:  E(RwB97XD) =  -252.828838877     a.u. after    4 cycles
            Convg  =    0.1876D-09                    48 Fock formations.
              S**2 =  0.0000                  -V/T =  2.0113
   1 Symmetry operations used in ECPInt.
 ECPInt:  NShTT=    1953 NPrTT=    7867 LenC2=    1951 LenP2D=    6552.
 LDataN:  DoStor=T MaxTD1= 5 Len=  102
 Calling FoFJK, ICntrl=      2127 FMM=F ISym2X=0 I1Cent= 0 IOpClX= 0 NMat=1 NMatS=1 NMatT=0.

 GradGradGradGradGradGradGradGradGradGradGradGradGradGradGradGradGradGrad
 Using GEDIIS/GDIIS optimizer.
 FormGI is forming the generalized inverse of G from B-inverse, IUseBI=4.
 Internal  Forces:  Max     0.000159425 RMS     0.000036192
 Step number   4 out of a maximum of  103
 All quantities printed in internal units (Hartrees-Bohrs-Radians)
 Mixed Optimization -- En-DIIS/RFO-DIIS
 Swapping is turned off.
 Trust test= 1.07D+00 RLast= 1.30D-02 DXMaxT set to 4.36D-01
 ITU=  1  1  1  0
     Eigenvalues ---    0.00230   0.00358   0.00365   0.00367   0.01046
     Eigenvalues ---    0.03315   0.03587   0.04637   0.04850   0.04968
     Eigenvalues ---    0.05416   0.05448   0.05492   0.05496   0.05505
     Eigenvalues ---    0.05506   0.05702   0.10336   0.13462   0.14296
     Eigenvalues ---    0.14547   0.14763   0.16000   0.16000   0.16000
     Eigenvalues ---    0.16000   0.16000   0.16000   0.16000   0.16000
     Eigenvalues ---    0.16060   0.16328   0.24012   0.27762   0.29349
     Eigenvalues ---    0.29413   0.30067   0.34235   0.34328   0.34960
     Eigenvalues ---    0.34965   0.35015   0.35022   0.35044   0.35057
     Eigenvalues ---    0.35061   0.35070   0.35601   0.40290   0.45182
     Eigenvalues ---    0.45325
 En-DIIS/RFO-DIIS/Sim-DIIS IScMMF=       -3 using points:     4    3    2
 RFO step:  Lambda=-1.20970725D-06.
 DidBck=F Rises=F RFO-DIIS coefs:    1.24228   -0.25408    0.01180
 Iteration  1 RMS(Cart)=  0.00052425 RMS(Int)=  0.00000091
 Iteration  2 RMS(Cart)=  0.00000040 RMS(Int)=  0.00000085
 Variable       Old X    -DE/DX   Delta X   Delta X   Delta X     New X
                                 (Linear)    (Quad)   (Total)
    R1        2.89871   0.00006  -0.00015   0.00020   0.00005   2.89876
    R2        2.08768  -0.00004  -0.00015   0.00000  -0.00015   2.08753
    R3        2.08785  -0.00001  -0.00011   0.00006  -0.00005   2.08780
    R4        2.08917  -0.00004  -0.00012  -0.00003  -0.00014   2.08902
    R5        2.89832   0.00007  -0.00031   0.00034   0.00004   2.89835
    R6        2.89871   0.00006  -0.00015   0.00020   0.00005   2.89876
    R7        2.93204   0.00004   0.00030  -0.00008   0.00022   2.93227
    R8        2.08862  -0.00003  -0.00013   0.00001  -0.00012   2.08850
    R9        2.08862  -0.00003  -0.00013   0.00001  -0.00012   2.08850
   R10        2.08790  -0.00004  -0.00010  -0.00003  -0.00013   2.08777
   R11        2.08785  -0.00001  -0.00011   0.00006  -0.00005   2.08780
   R12        2.08768  -0.00004  -0.00015   0.00000  -0.00015   2.08753
   R13        2.08917  -0.00004  -0.00012  -0.00002  -0.00014   2.08902
   R14        2.73894  -0.00016  -0.00012  -0.00062  -0.00075   2.73820
   R15        2.09072   0.00001  -0.00000   0.00004   0.00004   2.09076
   R16        2.09072   0.00001  -0.00000   0.00004   0.00004   2.09076
   R17        1.92493  -0.00006  -0.00008  -0.00010  -0.00018   1.92475
   R18        1.92494  -0.00006  -0.00008  -0.00010  -0.00018   1.92475
    A1        1.93797  -0.00001   0.00014  -0.00004   0.00010   1.93807
    A2        1.94620   0.00001   0.00012  -0.00003   0.00009   1.94629
    A3        1.93949   0.00001   0.00020  -0.00005   0.00015   1.93964
    A4        1.87194  -0.00000  -0.00021   0.00011  -0.00009   1.87185
    A5        1.88083   0.00000  -0.00014   0.00007  -0.00007   1.88076
    A6        1.88443  -0.00001  -0.00014  -0.00006  -0.00020   1.88424
    A7        1.91006   0.00002  -0.00007   0.00064   0.00057   1.91062
    A8        1.91312   0.00001   0.00005   0.00004   0.00009   1.91321
    A9        1.92294  -0.00003   0.00007  -0.00066  -0.00058   1.92235
   A10        1.91006   0.00002  -0.00007   0.00064   0.00057   1.91063
   A11        1.88446  -0.00000  -0.00005   0.00000  -0.00005   1.88442
   A12        1.92293  -0.00003   0.00007  -0.00065  -0.00058   1.92235
   A13        1.93965   0.00003   0.00010   0.00019   0.00030   1.93995
   A14        1.93965   0.00003   0.00010   0.00020   0.00030   1.93996
   A15        1.94009  -0.00001   0.00020  -0.00020   0.00000   1.94009
   A16        1.88054  -0.00003  -0.00013  -0.00006  -0.00019   1.88036
   A17        1.88061  -0.00001  -0.00015  -0.00008  -0.00023   1.88038
   A18        1.88061  -0.00001  -0.00015  -0.00007  -0.00023   1.88038
   A19        1.94620   0.00001   0.00012  -0.00003   0.00008   1.94628
   A20        1.93798  -0.00001   0.00014  -0.00004   0.00010   1.93808
   A21        1.93949   0.00001   0.00020  -0.00005   0.00015   1.93964
   A22        1.87195  -0.00000  -0.00021   0.00011  -0.00009   1.87185
   A23        1.88443  -0.00001  -0.00014  -0.00006  -0.00020   1.88424
   A24        1.88083   0.00000  -0.00014   0.00008  -0.00007   1.88076
   A25        2.06671  -0.00011   0.00071  -0.00103  -0.00032   2.06640
   A26        1.88947  -0.00001  -0.00037  -0.00004  -0.00041   1.88906
   A27        1.88948  -0.00002  -0.00037  -0.00005  -0.00042   1.88906
   A28        1.87876   0.00008   0.00027   0.00044   0.00071   1.87948
   A29        1.87878   0.00008   0.00027   0.00042   0.00070   1.87947
   A30        1.84934  -0.00001  -0.00066   0.00041  -0.00026   1.84908
   A31        1.95462   0.00007   0.00069   0.00046   0.00115   1.95577
   A32        1.95462   0.00007   0.00069   0.00046   0.00115   1.95576
   A33        1.88487  -0.00002   0.00025   0.00051   0.00076   1.88563
    D1       -1.03777  -0.00002  -0.00010  -0.00034  -0.00044  -1.03821
    D2        1.05709   0.00003  -0.00020   0.00087   0.00067   1.05776
    D3       -3.10724  -0.00001  -0.00004  -0.00034  -0.00038  -3.10762
    D4       -3.12428  -0.00002  -0.00001  -0.00044  -0.00045  -3.12473
    D5       -1.02942   0.00003  -0.00012   0.00077   0.00065  -1.02877
    D6        1.08943  -0.00001   0.00005  -0.00043  -0.00039   1.08904
    D7        1.05551  -0.00001  -0.00005  -0.00031  -0.00036   1.05515
    D8       -3.13281   0.00003  -0.00016   0.00090   0.00074  -3.13207
    D9       -1.01396  -0.00001   0.00001  -0.00030  -0.00030  -1.01426
   D10       -1.04616   0.00002  -0.00002   0.00052   0.00050  -1.04567
   D11       -3.14031   0.00001   0.00000   0.00033   0.00033  -3.13998
   D12        1.04836   0.00002  -0.00001   0.00042   0.00041   1.04877
   D13        3.14029  -0.00001   0.00001  -0.00032  -0.00031   3.13998
   D14        1.04614  -0.00002   0.00003  -0.00051  -0.00047   1.04567
   D15       -1.04838  -0.00002   0.00002  -0.00041  -0.00039  -1.04877
   D16        1.04707   0.00000  -0.00001   0.00010   0.00009   1.04716
   D17       -1.04708  -0.00000   0.00002  -0.00009  -0.00008  -1.04716
   D18        3.14159  -0.00000   0.00001  -0.00000   0.00000   3.14159
   D19        1.02946  -0.00003   0.00013  -0.00083  -0.00070   1.02876
   D20       -1.05706  -0.00003   0.00022  -0.00092  -0.00070  -1.05777
   D21        3.13284  -0.00003   0.00017  -0.00096  -0.00079   3.13206
   D22        3.12432   0.00002   0.00003   0.00037   0.00040   3.12472
   D23        1.03780   0.00002   0.00012   0.00028   0.00040   1.03819
   D24       -1.05548   0.00001   0.00007   0.00025   0.00031  -1.05517
   D25       -1.08940   0.00001  -0.00003   0.00038   0.00035  -1.08905
   D26        3.10727   0.00001   0.00005   0.00029   0.00034   3.10761
   D27        1.01399   0.00001   0.00001   0.00025   0.00026   1.01424
   D28       -1.05657   0.00001  -0.00011   0.00051   0.00040  -1.05618
   D29        3.08371   0.00000  -0.00069   0.00071   0.00002   3.08373
   D30        1.08636   0.00002   0.00047   0.00028   0.00074   1.08710
   D31        3.14152   0.00000  -0.00004   0.00011   0.00008  -3.14159
   D32        0.99861  -0.00001  -0.00062   0.00031  -0.00030   0.99831
   D33       -0.99874   0.00001   0.00054  -0.00011   0.00043  -0.99831
   D34        1.05642  -0.00001   0.00004  -0.00029  -0.00025   1.05617
   D35       -1.08648  -0.00002  -0.00054  -0.00009  -0.00063  -1.08711
   D36       -3.08383  -0.00000   0.00062  -0.00052   0.00009  -3.08374
   D37        1.06020   0.00004   0.00066   0.00066   0.00132   1.06152
   D38       -1.06028  -0.00004  -0.00065  -0.00067  -0.00132  -1.06160
   D39       -3.07472   0.00000   0.00091   0.00023   0.00114  -3.07358
   D40        1.08798  -0.00007  -0.00040  -0.00110  -0.00150   1.08648
   D41       -1.08808   0.00007   0.00041   0.00112   0.00153  -1.08655
   D42        3.07462  -0.00000  -0.00090  -0.00021  -0.00111   3.07351
[...]
 -0.00058786,0.01758789,0.02228684,0.58462437,0.00123089,0.01098053,0.0
 1459382,-0.00187635,-0.11672838,-0.05304215,0.00218723,-0.01886312,-0.
 02096401,-0.00244155,0.55480945,-0.00138034,-0.01479463,-0.03360847,-0
 .00302634,-0.05253766,-0.15572222,0.00281113,-0.00497999,-0.00280122,-
 0.00524140,-0.04964132,0.51622647,-0.00343072,-0.00771619,0.00694754,-
 0.12748185,-0.04015189,0.00008286,-0.03247523,-0.00634872,0.00000891,-
 0.00341971,-0.00774192,-0.00691305,0.47015156,-0.02035303,-0.01394750,
 0.00418337,-0.04252176,-0.11349965,0.00006060,0.01974835,0.01125710,-0
 .00002284,-0.02046738,-0.01404033,-0.00413886,-0.04139778,0.55886346,0
 .02577539,0.01650301,-0.00264321,0.00008802,0.00006093,-0.08338002,-0.
 00004984,-0.00002723,-0.00034279,-0.02568345,-0.01645419,-0.00256102,0
 .00006457,0.00018332,0.64373784,0.00106768,0.00116977,-0.00201135,-0.0
 3698371,0.02037487,-0.00005219,-0.00529946,-0.00675529,0.00001435,0.00
 106718,0.00117851,0.00200644,-0.19710228,0.06353596,-0.00015613,0.3156
 0363,0.00006533,-0.00122844,0.00046438,-0.00352733,0.01185125,-0.00002
 202,-0.00270022,-0.00094869,0.00000246,0.00006372,-0.00122882,-0.00045
 813,0.11320651,-0.12257786,0.00004238,-0.19986282,0.47721056,0.0003704
 0,-0.00044562,0.00016919,0.00000157,-0.00001836,0.00226264,0.00000509,
 0.00000176,0.00032252,-0.00037043,0.00045216,0.00016979,-0.00026658,0.
 00003383,-0.11203590,0.00037909,0.00048844,0.71084964,-0.25035841,-0.1
 1495790,0.00491991,-0.00155306,0.00021590,-0.00079895,0.00095695,0.000
 90019,-0.00043557,0.00020461,0.00025389,-0.00034246,0.00051684,0.00058
 410,0.00051030,0.00001088,-0.00063147,0.00015851,0.26562727,-0.1142776
 1,-0.11222189,0.00159228,-0.01661956,-0.01037249,-0.00065441,-0.001252
 02,0.00031552,-0.00059887,0.00036284,0.00042660,-0.00106946,0.00200394
 ,-0.00229138,0.00414939,0.00010133,0.00075665,-0.00031470,0.12468321,0
 .11841662,0.00357495,0.00104832,-0.04769538,0.02442461,0.01306305,-0.0
 0062364,0.00092803,-0.00076628,0.00083843,0.00109925,0.00057459,0.0012
 2082,-0.00142621,0.00277772,-0.00486541,0.00002675,-0.00006197,0.00027
 394,-0.00511331,-0.00559775,0.04981893,-0.19218367,0.13197859,-0.00312
 207,0.00215260,-0.00148035,-0.00041572,0.00041543,-0.00013092,-0.00065
 558,0.00018133,-0.00007689,0.00015875,-0.00091281,-0.00025720,-0.00042
 180,-0.00026983,-0.00083106,0.00034170,-0.01746265,0.01957546,0.000058
 65,0.20473700,0.13194956,-0.16864964,0.00185627,0.01330148,-0.01239010
 ,-0.00178774,-0.00146911,-0.00175851,0.00405022,-0.00034588,0.00050241
 ,-0.00117236,0.00225761,-0.00083012,-0.00026943,-0.00004282,0.00154913
 ,-0.00034896,-0.01223087,0.01255075,-0.00012996,-0.14411824,0.17889378
 ,-0.00257292,0.00075364,-0.04885731,-0.02123214,0.01645006,0.00072830,
 0.00124637,0.00278149,-0.00472260,-0.00110621,0.00088400,0.00137797,-0
 .00067812,-0.00019841,0.00066840,0.00005310,-0.00090239,0.00023488,0.0
 0012990,-0.00021824,-0.00097775,0.00316698,-0.00481099,0.04962368,-0.0
 5058099,-0.00914819,-0.01407138,-0.00150193,0.00111694,0.00180484,-0.0
 0001159,-0.00042077,-0.00075923,0.00012862,-0.00018642,0.00033668,0.00
 032304,0.00079662,0.00120185,-0.00025774,-0.00037439,-0.00022202,0.000
 53938,-0.01469756,-0.02351115,0.00323835,0.01223801,0.02049921,0.04708
 935,-0.00921057,-0.13322681,-0.12371533,0.00156115,0.01083577,0.015349
 51,-0.00021078,0.00121012,0.00067605,-0.00024719,-0.00182375,0.0028939
 0,-0.00010568,0.00117168,0.00055913,0.00043966,0.00020039,-0.00005505,
 0.00110282,-0.00782740,-0.01117148,-0.00380148,-0.01027537,-0.01591297
 ,0.01041173,0.13948812,-0.01396212,-0.12215693,-0.22664466,-0.00161717
 ,-0.01645809,-0.02106833,0.00046819,-0.00136345,0.00071111,0.00047718,
 0.00504925,-0.00396321,-0.00113283,-0.00168762,0.00056793,0.00062440,0
 .00031220,0.00015312,0.00024675,0.00206738,0.00206843,0.00028521,0.002
 07870,0.00212498,0.01476127,0.13102640,0.24586805,0.00066791,-0.000619
 91,0.00082059,0.00142127,0.01328856,0.02072621,-0.04908988,-0.00766445
 ,-0.01024054,-0.00390790,0.00274228,-0.00067802,0.00066958,0.00135872,
 0.00151248,0.00038706,-0.00040858,-0.00035227,-0.00006133,-0.00005616,
 -0.00017535,-0.00004248,-0.00027885,0.00008783,0.00012114,0.00002571,-
 0.00047305,0.05027870,-0.00069263,0.00046549,-0.00126657,-0.00238176,-
 0.01242748,-0.01727591,-0.00700713,-0.13856075,-0.12428661,0.00417068,
 -0.00274130,0.00116653,-0.00156490,0.00024202,-0.00005443,0.00022444,0
 .00012297,0.00042443,0.00000188,-0.00008224,-0.00003189,-0.00005946,0.
 00036690,0.00021642,0.00038140,-0.00021754,0.00087275,0.00416401,0.147
 29983,-0.00019392,0.00090251,0.00089853,0.00011420,0.00116692,-0.00052
 812,-0.00901404,-0.12517725,-0.22298784,0.00086710,-0.00028225,0.00088
 874,-0.00084378,-0.00012520,-0.00006679,0.00037551,0.00033370,0.000327
 10,0.00008063,-0.00000595,-0.00005254,0.00012529,-0.00001185,0.0001717
 1,-0.00016820,-0.00010050,0.00027066,0.01021722,0.13685400,0.23573320,
 -0.00390777,0.00274517,0.00066400,0.00142824,0.01319536,-0.02078527,-0
 .04909646,-0.00766071,0.01033436,0.00066813,-0.00062331,-0.00081789,0.
 00066976,0.00135197,-0.00151837,0.00038705,-0.00040687,0.00035411,0.00
 017206,0.00024503,0.00004561,0.00014614,0.00115027,-0.00114334,-0.0001
 0547,-0.00016295,0.00016905,-0.00088508,0.00129522,-0.00157288,0.05028
 584,0.00416704,-0.00274519,-0.00114872,-0.00238805,-0.01235470,0.01732
 853,-0.00700847,-0.13743725,0.12389898,-0.00069215,0.00046717,0.001268
 29,-0.00156109,0.00024274,0.00005249,0.00022291,0.00011956,-0.00042342
 ,0.00003606,0.00031075,-0.00034351,0.00017289,-0.00067035,0.00141114,0
 .00001860,0.00019751,0.00012815,0.00130766,0.01300932,-0.01573723,0.00
 416416,0.14606731,-0.00088755,0.00029958,0.00089258,-0.00010271,-0.001
 10910,-0.00060820,0.00910476,0.12478965,-0.22410765,0.00019695,-0.0009
 0075,0.00089668,0.00085111,0.00012427,-0.00006784,-0.00037650,-0.00033
 291,0.00033052,0.00012246,-0.00014650,-0.00000160,0.00015121,0.0003330
 8,0.00009149,0.00016534,-0.00013586,0.00038315,0.00157253,0.01560162,-
 0.01714535,-0.01029909,-0.13644899,0.23696194,0.00071565,-0.00120072,0
 .00057413,-0.02171957,-0.01317464,0.00002631,-0.25239439,-0.11239247,0
 .00021866,0.00071559,-0.00120347,-0.00056847,-0.00138977,0.00538448,-0
 .00001229,-0.00216623,-0.00060325,0.00000086,0.00033438,0.00078514,-0.
 00059618,0.00039794,0.00008834,0.00016607,-0.00003745,0.00005458,0.000
 02057,0.00079889,0.00106003,0.00021717,0.00079094,0.00105521,-0.000222
 30,0.27262866,0.00070065,0.00128032,-0.00050096,0.02019224,0.01025222,
 -0.00002331,-0.11392617,-0.10936734,0.00011784,0.00070459,0.00128468,0
 .00049571,0.00153467,-0.00342294,0.00000709,0.00204657,0.00076683,0.00
 000030,-0.00023141,-0.00024226,0.00009692,-0.00016162,0.00018939,-0.00
 022022,-0.00011342,-0.00010413,0.00006237,-0.01474927,-0.00790568,0.00
 208537,-0.01464245,-0.00786377,-0.00204673,0.11909497,0.11511690,-0.00
 093416,-0.00045049,0.00006796,-0.00004900,-0.00002902,-0.00161361,0.00
 022214,0.00011807,-0.04857452,0.00093120,0.00044459,0.00006383,-0.0000
 0361,0.00000777,-0.00039794,-0.00000510,-0.00000016,0.00075021,-0.0001
 0260,0.00043014,0.00008968,0.00019009,-0.00004459,-0.00008367,-0.00008
 286,-0.00009681,-0.00004130,-0.02347454,-0.01134838,0.00180360,0.02354
 048,0.01139240,0.00176953,-0.00022987,-0.00013623,0.04576726,0.0001809
 9,-0.00007731,-0.00015880,0.00214491,-0.00147253,0.00042294,0.00041562
 ,-0.00012701,0.00065793,-0.19218630,0.13199140,0.00247771,-0.00091319,
 -0.00025535,0.00042245,-0.00026990,-0.00083306,-0.00033811,-0.00013188
 ,0.00012161,-0.00000138,0.00030509,-0.00006064,0.00031760,0.00013617,-
 0.00020602,0.00008505,0.00014580,0.00017268,-0.00015198,-0.00004241,-0
 .00005995,-0.00012510,0.00039805,-0.00016254,-0.00018920,0.20474129,-0
 .00034130,0.00050377,0.00117622,0.01339635,-0.01245567,0.00185192,-0.0
 0147334,-0.00178942,-0.00406398,0.13196006,-0.16865818,-0.00127125,0.0
 0226058,-0.00082798,0.00027691,-0.00004292,0.00155496,0.00034317,-0.00
 012302,-0.00000367,-0.00003335,-0.00006197,0.00063612,-0.00040643,-0.0
 0025642,0.00000595,0.00005573,0.00115555,-0.00067822,-0.00032922,-0.00
 027925,0.00036596,0.00001088,0.00008756,0.00019060,0.00004339,-0.14413
 186,0.17893368,0.00110736,-0.00088003,0.00137704,0.02117214,-0.0163907
 1,0.00080162,-0.00123801,-0.00279478,-0.00469191,0.00192867,-0.0001686
 3,-0.04884662,0.00066737,0.00020506,0.00066653,-0.00005302,0.00089603,
 0.00022912,-0.00000860,0.00004778,-0.00004072,-0.00031693,0.00040017,-
 0.00076761,-0.00020249,0.00012563,0.00031327,0.00113817,-0.00140762,0.
 00009968,-0.00008664,-0.00021731,0.00017256,-0.00016632,0.00021895,-0.
 00008498,-0.00246340,0.00417887,0.04958150,0.00020489,0.00025563,0.000
 34096,-0.00154506,0.00022398,0.00079766,0.00095713,0.00090187,0.000431
 51,-0.25035613,-0.11497958,-0.00447018,0.00051647,0.00058277,-0.000511
 08,0.00001089,-0.00063229,-0.00015578,0.00024900,0.00013649,-0.0004720
 1,-0.00013189,-0.00012299,0.00000911,0.00022419,0.00017174,-0.00007524
 ,0.00017211,0.00003538,-0.00012256,-0.00006136,0.00000150,-0.00008064,
 0.00033411,-0.00023088,0.00010372,-0.01746253,-0.01223147,-0.00008025,
 0.26562439,0.00035750,0.00042884,0.00107313,-0.01672987,-0.01042828,0.
 00069302,-0.00125637,0.00032166,0.00060072,-0.11429303,-0.11223366,-0.
 00133988,0.00201179,-0.00232260,-0.00416020,0.00010119,0.00075842,0.00
 031259,0.00013871,0.00052859,-0.00023681,0.00012163,-0.00000374,-0.000
 04791,0.00022869,-0.00006156,0.00009265,0.00024477,0.00031295,0.000145
 16,-0.00005538,-0.00008210,0.00000607,0.00078793,-0.00024469,-0.000428
 38,0.01957472,0.01255205,0.00016377,0.12470422,0.11846696,-0.00110119,
 -0.00057092,0.00121827,-0.02434963,-0.01301874,-0.00057578,-0.00092232
 ,0.00076888,0.00083205,-0.00312826,-0.00079622,-0.04768764,0.00141895,
 -0.00278897,-0.00483376,-0.00002727,0.00005958,0.00027219,0.00047170,0
 .00023180,-0.00059873,0.00000080,0.00003314,-0.00004064,0.00025713,0.0
 0010502,0.00032577,-0.00004665,0.00034210,-0.00000387,0.00017561,0.000
 03202,-0.00005268,0.00059269,-0.00009553,0.00009228,-0.00015262,0.0000
 6474,-0.00097918,0.00462415,0.00533032,0.04977334,0.00012891,-0.000186
 22,-0.00033445,-0.00150180,0.00110343,-0.00180318,-0.00001168,-0.00041
 778,0.00076087,-0.05059027,-0.00912520,0.01417097,0.00032301,0.0007906
 0,-0.00120554,-0.00025758,-0.00037328,0.00022356,0.00022425,0.00022756
 ,-0.00025820,0.00013612,-0.00025549,0.00020359,0.00059190,0.00003337,-
 0.00009366,-0.00010535,0.00001790,-0.00016559,0.00012091,0.00038244,0.
 00016643,-0.00003749,-0.00011302,0.00008339,0.00324544,0.01214612,-0.0
 2055388,0.00053156,-0.01459061,0.02357666,0.04709896,-0.00024836,-0.00
 185965,-0.00290350,0.00157372,0.01084010,-0.01549300,-0.00021267,0.001
 21330,-0.00067828,-0.00918857,-0.13211887,0.12328548,-0.00010042,0.001
 17668,-0.00056195,0.00043684,0.00019925,0.00005500,0.00017211,-0.00006
 244,-0.00010320,-0.00020636,0.00000514,-0.00012432,0.00003411,0.000788
 36,-0.00093612,-0.00016378,0.00019757,0.00013665,0.00002783,-0.0002210
 6,0.00010270,0.00005447,-0.00010398,0.00009711,-0.00380812,-0.01021265
 ,0.01596729,0.00109792,-0.00778619,0.01121642,0.01038836,0.13830748,-0
 .00047469,-0.00505884,-0.00392763,0.00161678,0.01631454,-0.02107276,-0
 .00046747,0.00136105,0.00070816,0.01406196,0.12172715,-0.22774215,0.00
 113316,0.00168504,0.00056279,-0.00062652,-0.00031252,0.00015414,0.0000
 7443,-0.00009083,0.00032660,-0.00008418,-0.00005441,0.00031412,0.00009
 426,0.00092524,-0.00162571,-0.00016850,-0.00012728,0.00038300,0.000472
 85,-0.00087030,0.00027434,-0.00002079,-0.00006215,-0.00004144,-0.00026
 762,-0.00201886,0.00205530,-0.00025224,-0.00202788,0.00203504,-0.01487
 426,-0.13053739,0.24703783,-0.00519604,-0.00249336,-0.00087161,-0.0020
 5891,-0.01554475,0.02147434,0.00082431,-0.00132662,0.00128310,0.000803
 63,0.00059883,0.00100077,-0.04671661,-0.00534977,0.00839499,-0.0076980
 6,0.02087281,-0.02941998,-0.00004771,-0.00126582,0.00139498,0.00017247
 ,-0.00010507,-0.00014995,-0.00000390,0.00025299,-0.00019883,0.00000279
 ,0.00006213,-0.00002698,-0.00078083,0.00037082,-0.00052396,0.00030007,
 0.00016500,-0.00024626,-0.00002425,-0.00008474,-0.00012579,0.00007509,
 0.00028623,0.00001215,0.00000549,-0.00001337,-0.00065020,0.06361431,-0
 .00344523,-0.00096247,-0.00135591,-0.00235033,-0.01199718,0.01667313,0
 .00133013,0.00043030,-0.00026865,0.00082323,0.00036959,0.00129869,-0.0
 0347433,-0.13668450,0.11766063,0.00681447,-0.01102623,0.01593913,-0.00
 015319,-0.00057386,0.00103441,0.00022338,0.00011931,-0.00012146,0.0000
 0366,0.00015796,0.00015802,-0.00010119,0.00000414,-0.00010761,-0.00021
 426,0.00065290,-0.00020592,0.00003692,0.00002453,-0.00031723,-0.000008
 49,-0.00000151,-0.00001550,0.00010581,0.00035412,-0.00022170,-0.000349
 31,-0.00021249,-0.00090066,-0.00121510,0.14908185,0.00079725,0.0001740
 2,0.00084100,-0.00152111,-0.00066098,-0.00150349,-0.00023237,-0.000182
 25,0.00016218,-0.00042385,-0.00080542,0.00102239,0.00400314,0.12194621
 ,-0.22090506,-0.00196602,-0.00069491,0.00269412,0.00013205,0.00037464,
 0.00011325,-0.00000960,-0.00008386,0.00001657,-0.00012691,-0.00010023,
 0.00043585,0.00000151,0.00013345,-0.00008595,0.00053389,-0.00020333,0.
 00030875,0.00011721,-0.00026626,0.00019774,0.00004253,-0.00010832,-0.0
 0008673,0.00009080,0.00000233,0.00016890,0.00001542,0.00021448,0.00035
 309,-0.00193160,-0.13415788,0.23008560,0.00080389,0.00059403,-0.001003
 60,-0.00205237,-0.01564130,-0.02140449,0.00082478,-0.00133243,-0.00127
 683,-0.00519610,-0.00248933,0.00088081,-0.04671235,-0.00534802,-0.0083
 1502,-0.00770840,0.02100421,0.02932277,0.00007513,0.00028618,-0.000013
 49,-0.00002427,-0.00008420,0.00012621,0.00000519,-0.00001044,0.0006501
 9,-0.00078083,0.00037315,0.00052190,0.00000278,0.00006228,0.00002674,0
 .00030002,0.00016601,0.00024557,0.00017243,-0.00010442,0.00015046,-0.0
 0004718,-0.00127197,-0.00138930,-0.00000401,0.00025386,0.00019754,-0.0
 0022009,-0.00013336,0.00033533,0.06361280,0.00082566,0.00036746,-0.001
 29552,-0.00233817,-0.01206901,-0.01662642,0.00133097,0.00043222,0.0002
 6790,-0.00344930,-0.00095712,0.00136282,-0.00345443,-0.13776071,-0.118
 03419,0.00682855,-0.01109402,-0.01587498,0.00010535,0.00035511,0.00022
 088,-0.00000869,-0.00000098,0.00001512,-0.00034970,-0.00020943,0.00090
 303,-0.00021673,0.00065473,0.00020426,-0.00010122,0.00000402,0.0001071
 7,0.00003626,0.00002716,0.00031799,0.00022339,0.00012023,0.00012106,-0
 .00015343,-0.00058019,-0.00103133,0.00000429,0.00015768,-0.00015677,-0
 .00013962,0.01302635,0.01478510,-0.00124952,0.15028685,0.00042013,0.00
 080863,0.00102443,0.00153152,0.00070330,-0.00143828,0.00022657,0.00018
 058,0.00015976,-0.00078369,-0.00016671,0.00083569,-0.00393174,-0.12232
 031,-0.21983003,0.00193231,0.00076345,0.00277242,-0.00009131,-0.000003
 06,0.00016789,-0.00004249,0.00010789,-0.00008726,-0.00001391,-0.000211
 92,0.00035022,-0.00053329,0.00020190,0.00030689,-0.00000103,-0.0001338
 3,-0.00008581,-0.00011735,0.00026706,0.00019515,0.00000864,0.00008336,
 0.00001569,-0.00013141,-0.00037193,0.00011909,0.00012674,0.00010158,0.
 00043620,-0.00032942,-0.01491855,-0.01670131,0.00188341,0.13451494,0.2
 2887914,-0.00091269,0.00075884,0.00036477,0.00071650,0.00077258,-0.001
 97455,-0.00001333,0.00007141,0.00035460,-0.00024640,-0.00019629,-0.000
 03647,-0.00630286,0.02084102,-0.03018281,-0.03025696,0.02796403,0.0025
 9980,0.00061635,-0.00030441,0.00002072,-0.00079416,-0.00175953,0.00063
 367,-0.00002137,-0.00004962,0.00001705,0.00004301,0.00000801,-0.000076
 56,0.00016454,-0.00026019,0.00018376,0.00001527,-0.00013663,0.00014382
 ,-0.00006068,-0.00011270,-0.00024248,0.00008795,-0.00005559,0.00000655
 ,0.00012300,-0.00004785,0.00025222,-0.00396544,0.00252765,0.00074210,0
 .00091347,-0.00041761,0.00060180,0.04171006,-0.00062009,0.00067196,0.0
 0027027,-0.00057274,0.00077675,-0.00074334,-0.00020647,0.00000275,0.00
 024417,-0.00018836,-0.00011525,-0.00009611,-0.00483044,-0.01233376,0.0
 1736445,0.05152296,-0.17270108,0.19088717,0.00010347,-0.00000310,-0.00
 029637,-0.00091158,-0.00030943,0.00035007,0.00023340,-0.00017229,-0.00
 019751,0.00002695,-0.00006472,-0.00004716,-0.00005542,0.00000143,-0.00
 009548,0.00002453,0.00006080,-0.00005128,0.00003373,0.00007464,-0.0001
 0228,0.00003030,0.00002014,0.00004344,0.00008428,-0.00013811,0.0000079
 6,0.00515795,-0.00244204,-0.00036776,-0.00022986,-0.00032253,0.0000029
 0,-0.04465078,0.17336300,0.00000679,0.00054272,0.00038967,0.00131292,-
 0.00018574,-0.00026687,0.00010724,0.00016059,-0.00003724,-0.00025997,0
 .00003993,-0.00016301,0.00062871,0.00069715,0.00281808,-0.02660100,0.1
 6352239,-0.30575991,0.00007506,-0.00023137,-0.00010267,0.00055613,-0.0
 0017985,0.00030899,0.00016651,-0.00028682,-0.00031594,0.00002800,-0.00
 005420,-0.00005562,-0.00003739,-0.00003958,0.00004364,0.00008335,-0.00
 007413,0.00002043,-0.00003369,-0.00003555,-0.00012370,0.00002883,-0.00
 003766,0.00004046,0.00012858,-0.00012511,0.00008729,0.00061574,-0.0005
 6111,0.00232645,-0.00029736,-0.00038434,0.00055839,0.02502737,-0.18488
 990,0.32225004,-0.00024648,-0.00019611,0.00003730,0.00071634,0.0007813
 8,0.00197138,-0.00001318,0.00006985,-0.00035494,-0.00091219,0.00075728
 ,-0.00036863,-0.00631289,0.02097570,0.03008629,-0.03026420,0.02800801,
 -0.00263232,0.00008794,-0.00005562,-0.00000628,-0.00006071,-0.00011156
 ,0.00024304,0.00012312,-0.00004903,-0.00025198,0.00016459,-0.00026103,
 -0.00018253,0.00004299,0.00000834,0.00007655,0.00001534,-0.00013729,-0
 .00014320,-0.00079465,-0.00176281,-0.00062637,0.00061637,-0.00030455,-
 0.00001915,-0.00002138,-0.00004971,-0.00001675,0.00091366,-0.00042045,
 -0.00059978,-0.00396489,0.00252396,-0.00075551,-0.00181626,-0.00495185
 ,-0.00153583,0.04172650,-0.00018728,-0.00011506,0.00009585,-0.00057864
 ,0.00078071,0.00073845,-0.00020686,0.00000092,-0.00024444,-0.00061989,
 0.00066836,-0.00027178,-0.00482730,-0.01241436,-0.01729814,0.05170582,
 -0.17428483,-0.19145687,0.00003018,0.00002013,-0.00004333,0.00003387,0
 .00007531,0.00010140,0.00008369,-0.00013758,-0.00000692,-0.00005528,0.
 00000203,0.00009564,0.00002681,-0.00006425,0.00004722,0.00002414,0.000
 06136,0.00005111,-0.00091464,-0.00031068,-0.00034776,0.00010304,-0.000
 00074,0.00029593,0.00023258,-0.00017011,0.00019693,-0.00022854,-0.0003
 2074,0.00000097,0.00515513,-0.00243784,0.00039072,-0.00495233,0.013630
 81,0.02212258,-0.04482449,0.17501656,0.00026076,-0.00004015,-0.0001631
 3,-0.00130984,0.00018125,-0.00027089,-0.00010631,-0.00016074,-0.000035
 55,-0.00000443,-0.00054384,0.00039318,-0.00061038,-0.00062215,0.002908
 19,0.02646316,-0.16410001,-0.30416973,-0.00002893,0.00003772,0.0000404
 6,0.00003354,0.00003456,-0.00012424,-0.00012893,0.00012609,0.00008662,
 0.00003767,0.00003969,0.00004299,-0.00002808,0.00005423,-0.00005606,-0
 .00008346,0.00007390,0.00001979,-0.00055296,0.00018177,0.00030911,-0.0
 0007535,0.00023086,-0.00010509,-0.00016746,0.00028616,-0.00031819,0.00
 029848,0.00038817,0.00055665,-0.00064086,0.00058328,0.00232174,0.00156
 466,-0.02228324,-0.02201849,-0.02492130,0.18553245,0.32058262\\0.00000
 020,-0.00000182,0.00000069,0.00000317,-0.00000032,-0.00000005,-0.00000
 154,0.00000094,0.,0.00000009,-0.00000182,-0.00000072,-0.00000414,0.000
 00063,-0.00000014,0.00000124,0.00000013,0.00000003,0.00000041,-0.00000
 061,0.00000026,0.00000083,0.00000025,0.,-0.00000022,0.00000009,0.00000
 010,-0.00000084,-0.00000002,0.00000032,-0.00000087,-0.00000001,-0.0000
 0026,0.00000025,-0.00000116,0.00000003,0.00000078,0.00000026,0.0000000
 5,0.00000043,-0.00000060,-0.00000028,-0.00000017,0.00000012,-0.0000001
 5,0.00000053,0.00000024,-0.00000011,0.00000047,0.00000015,0.00000013,-
 0.00000029,0.00000181,0.00000027,-0.00000034,0.00000177,-0.00000018\\\
 @


 THE DIFFICULTY IN SCIENCE IS OFTEN NOT SO MUCH HOW
 TO MAKE A DISCOVERY BUT RATHER TO KNOW ONE HAS MADE IT.

                                                   -- J. D. BERNAL
 File lengths (MBytes):  RWF=     32 Int=      0 D2E=      0 Chk=      2 Scr=      1
 Normal termination of Gaussian 16 at Fri Mar 29 15:38:25 2024.
real 276.57
user 1039.48
sys 7.35
