 Entering Gaussian System, Link 0=g16
 Input=gaussian_test.inp
 Output=gaussian_test.log
 Initial command:
 /sw/restricted/lms/sw/Gaussian/g16_B01/g16/l1.exe "/scratch/user/peterchao1/peterchao1/6101755_1659722809000000954897366/Gau-186994.inp" -scrdir="/scratch/user/peterchao1/peterchao1/6101755_1659722809000000954897366/"
 Entering Link 1 = /sw/restricted/lms/sw/Gaussian/g16_B01/g16/l1.exe PID=    186995.
  
 Copyright (c) 1988-2017, Gaussian, Inc.  All Rights Reserved.
  
 This is part of the Gaussian(R) 16 program.  It is based on
 the Gaussian(R) 09 system (copyright 2009, Gaussian, Inc.),
 the Gaussian(R) 03 system (copyright 2003, Gaussian, Inc.),
 the Gaussian(R) 98 system (copyright 1998, Gaussian, Inc.),
 the Gaussian(R) 94 system (copyright 1995, Gaussian, Inc.),
 the Gaussian 92(TM) system (copyright 1992, Gaussian, Inc.),
 the Gaussian 90(TM) system (copyright 1990, Gaussian, Inc.),
 the Gaussian 88(TM) system (copyright 1988, Gaussian, Inc.),
 the Gaussian 86(TM) system (copyright 1986, Carnegie Mellon
 University), and the Gaussian 82(TM) system (copyright 1983,
 Carnegie Mellon University). Gaussian is a federally registered
 trademark of Gaussian, Inc.
  
 This software contains proprietary and confidential information,
 including trade secrets, belonging to Gaussian, Inc.
  
 This software is provided under written license and may be
 used, copied, transmitted, or stored only in accord with that
 written license.
  
 The following legend is applicable only to US Government
 contracts under FAR:
  
                    RESTRICTED RIGHTS LEGEND
  
 Use, reproduction and disclosure by the US Government is
 subject to restrictions as set forth in subparagraphs (a)
 and (c) of the Commercial Computer Software - Restricted
 Rights clause in FAR 52.227-19.
  
 Gaussian, Inc.
 340 Quinnipiac St., Bldg. 40, Wallingford CT 06492
  
  
 ---------------------------------------------------------------
 Warning -- This program may not be used in any manner that
 competes with the business of Gaussian, Inc. or will provide
 assistance to any competitor of Gaussian, Inc.  The licensee
 of this program is prohibited from giving any competitor of
 Gaussian, Inc. access to this program.  By using this program,
 the user acknowledges that Gaussian, Inc. is engaged in the
 business of creating and licensing software in the field of
 computational chemistry and represents and warrants to the
 licensee that it is not a competitor of Gaussian, Inc. and that
 it will not use this program in any manner prohibited above.
 ---------------------------------------------------------------
  

 Cite this work as:
 Gaussian 16, Revision B.01,
 M. J. Frisch, G. W. Trucks, H. B. Schlegel, G. E. Scuseria, 
 M. A. Robb, J. R. Cheeseman, G. Scalmani, V. Barone, 
 G. A. Petersson, H. Nakatsuji, X. Li, M. Caricato, A. V. Marenich, 
 J. Bloino, B. G. Janesko, R. Gomperts, B. Mennucci, H. P. Hratchian, 
 J. V. Ortiz, A. F. Izmaylov, J. L. Sonnenberg, D. Williams-Young, 
 F. Ding, F. Lipparini, F. Egidi, J. Goings, B. Peng, A. Petrone, 
 T. Henderson, D. Ranasinghe, V. G. Zakrzewski, J. Gao, N. Rega, 
 G. Zheng, W. Liang, M. Hada, M. Ehara, K. Toyota, R. Fukuda, 
 J. Hasegawa, M. Ishida, T. Nakajima, Y. Honda, O. Kitao, H. Nakai, 
 T. Vreven, K. Throssell, J. A. Montgomery, Jr., J. E. Peralta, 
 F. Ogliaro, M. J. Bearpark, J. J. Heyd, E. N. Brothers, K. N. Kudin, 
 V. N. Staroverov, T. A. Keith, R. Kobayashi, J. Normand, 
 K. Raghavachari, A. P. Rendell, J. C. Burant, S. S. Iyengar, 
 J. Tomasi, M. Cossi, J. M. Millam, M. Klene, C. Adamo, R. Cammi, 
 J. W. Ochterski, R. L. Martin, K. Morokuma, O. Farkas, 
 J. B. Foresman, and D. J. Fox, Gaussian, Inc., Wallingford CT, 2016.
 
 ******************************************
 Gaussian 16:  ES64L-G16RevB.01 20-Dec-2017
                 5-Aug-2022 
 ******************************************
 %nprocshared=4
 Will use up to    4 processors via shared memory.
 %mem=8000mb
 ------------------------------------------------------------------
 #T wB97XD/def2svpp opt freq int(grid=ultrafine) scf=(verytight,qc)
 ------------------------------------------------------------------
 --------------
 Comment gs min
 --------------
 Symbolic Z-matrix:
 Charge =  0 Multiplicity = 1
 F                     0.98723   0.08518   0.05238 
 C                     2.33076   0.08518   0.05238 
 F                     2.7786    1.34432  -0.08569 
 F                     2.7786   -0.42482   1.21187 
 F                     2.7786   -0.66397  -0.96903 
 

 GradGradGradGradGradGradGradGradGradGradGradGradGradGradGradGradGradGrad
 Initialization pass.
                           ----------------------------
                           !    Initial Parameters    !
                           ! (Angstroms and Degrees)  !
 --------------------------                            --------------------------
 ! Name  Definition              Value          Derivative Info.                !
 --------------------------------------------------------------------------------
 ! R1    R(1,2)                  1.3435         estimate D2E/DX2                !
 ! R2    R(2,3)                  1.3435         estimate D2E/DX2                !
 ! R3    R(2,4)                  1.3435         estimate D2E/DX2                !
 ! R4    R(2,5)                  1.3435         estimate D2E/DX2                !
 ! A1    A(1,2,3)              109.4712         estimate D2E/DX2                !
 ! A2    A(1,2,4)              109.471          estimate D2E/DX2                !
 ! A3    A(1,2,5)              109.4711         estimate D2E/DX2                !
 ! A4    A(3,2,4)              109.4713         estimate D2E/DX2                !
 ! A5    A(3,2,5)              109.4716         estimate D2E/DX2                !
 ! A6    A(4,2,5)              109.4711         estimate D2E/DX2                !
 ! D1    D(3,2,5,4)            120.0003         estimate D2E/DX2                !
 --------------------------------------------------------------------------------
 Number of steps in this run=     21 maximum allowed number of steps=    100.
 GradGradGradGradGradGradGradGradGradGradGradGradGradGradGradGradGradGrad

                    Distance matrix (angstroms):
                    1          2          3          4          5
     1  F    0.000000
     2  C    1.343530   0.000000
     3  F    2.193970   1.343524   0.000000
     4  F    2.193974   1.343532   2.193973   0.000000
     5  F    2.193971   1.343527   2.193973   2.193973   0.000000
 This structure is nearly, but not quite of a higher symmetry.
 Consider Symm=Loose if the higher symmetry is desired.
 This structure is nearly, but not quite of a higher symmetry.
 Consider Symm=Loose if the higher symmetry is desired.
 Framework group  C1[X(CF4)]
 Deg. of freedom     9
                         Standard orientation:                         
 ---------------------------------------------------------------------
 Center     Atomic      Atomic             Coordinates (Angstroms)
 Number     Number       Type             X           Y           Z
 ---------------------------------------------------------------------
      1          9           0       -0.374388   -0.897876    0.926671
      2          6           0        0.000004    0.000001   -0.000001
      3          9           0        1.083901   -0.453975   -0.651254
      4          9           0       -1.002848    0.185651   -0.874587
      5          9           0        0.293333    1.166198    0.599170
 ---------------------------------------------------------------------
 Rotational constants (GHZ):           5.5263487           5.5263434           5.5263334
    70 basis functions,   125 primitive gaussians,    75 cartesian basis functions
    21 alpha electrons       21 beta electrons
       nuclear repulsion energy       202.2974149953 Hartrees.
 NAtoms=    5 NActive=    5 NUniq=    5 SFac= 1.00D+00 NAtFMM=   60 NAOKFM=F Big=F
 Nuclear repulsion after empirical dispersion term =      202.2970377627 Hartrees.
   1 Symmetry operations used in ECPInt.
 ECPInt:  NShTT=     465 NPrTT=    1895 LenC2=     460 LenP2D=    1535.
 LDataN:  DoStor=T MaxTD1= 4 Len=   56
 ExpMin= 1.31D-01 ExpMax= 2.89D+03 ExpMxC= 4.35D+02 IAcc=3 IRadAn=         5 AccDes= 0.00D+00
 Harris functional with IExCor= 4639 and IRadAn=       5 diagonalized for initial guess.
 HarFok:  IExCor= 4639 AccDes= 0.00D+00 IRadAn=         5 IDoV= 1 UseB2=F ITyADJ=14
 ICtDFT=  3500011 ScaDFX=  1.000000  1.000000  1.000000  1.000000
 FoFCou: FMM=F IPFlag=           0 FMFlag=      100000 FMFlg1=           0
         NFxFlg=           0 DoJE=T BraDBF=F KetDBF=T FulRan=T
         wScrn=  0.000000 ICntrl=       500 IOpCl=  0 I1Cent=   200000004 NGrid=           0
         NMat0=    1 NMatS0=      1 NMatT0=    0 NMatD0=    1 NMtDS0=    0 NMtDT0=    0
 Petite list used in FoFCou.
     Accept linear search using points  1 and  2.
     Minimum is close to point  2 DX=  4.91D-04 DF= -6.08D-12 DXR=  4.90D-04 DFR=  2.42D-07 which will be used.
 SCF Done:  E(RwB97XD) =  -437.034679042     a.u. after    7 cycles
            Convg  =    0.9645D-09                    28 Fock formations.
              S**2 =  0.0000                  -V/T =  2.0060

 **********************************************************************

            Population analysis using the SCF Density.

 **********************************************************************

 Orbital symmetries:
       Occupied  (A) (A) (A) (A) (A) (A) (A) (A) (A) (A) (A) (A)
                 (A) (A) (A) (A) (A) (A) (A) (A) (A)
       Virtual   (A) (A) (A) (A) (A) (A) (A) (A) (A) (A) (A) (A)
                 (A) (A) (A) (A) (A) (A) (A) (A) (A) (A) (A) (A)
                 (A) (A) (A) (A) (A) (A) (A) (A) (A) (A) (A) (A)
                 (A) (A) (A) (A) (A) (A) (A) (A) (A) (A) (A) (A)
                 (A)
 The electronic state is 1-A.
 Alpha  occ. eigenvalues --  -24.88433 -24.88423 -24.88423 -24.88423 -10.64962
 Alpha  occ. eigenvalues --   -1.46160  -1.34832  -1.34831  -1.34831  -0.82673
 Alpha  occ. eigenvalues --   -0.73492  -0.73492  -0.73492  -0.60111  -0.60110
 Alpha  occ. eigenvalues --   -0.57503  -0.57503  -0.57503  -0.53400  -0.53400
 Alpha  occ. eigenvalues --   -0.53400
 Alpha virt. eigenvalues --    0.23313   0.24587   0.24588   0.24588   0.38442
 Alpha virt. eigenvalues --    0.51522   0.51523   0.51525   1.08048   1.08049
 Alpha virt. eigenvalues --    1.15233   1.15233   1.15233   1.18680   1.37647
 Alpha virt. eigenvalues --    1.37647   1.37648   1.50114   1.50114   1.50115
 Alpha virt. eigenvalues --    1.60592   1.60594   1.80996   1.80998   1.80998
 Alpha virt. eigenvalues --    1.97319   1.98856   1.98858   1.98859   3.05306
 Alpha virt. eigenvalues --    3.05306   3.05306   3.08986   3.08986   3.09495
 Alpha virt. eigenvalues --    3.09495   3.09496   3.10224   3.10224   3.10224
 Alpha virt. eigenvalues --    3.37598   3.37598   3.37598   3.64493   3.64714
 Alpha virt. eigenvalues --    3.64714   3.89437   3.89437   3.89438
          Condensed to atoms (all electrons):
 Mulliken charges:
               1
     1  F   -0.167280
     2  C    0.669141
     3  F   -0.167293
     4  F   -0.167282
     5  F   -0.167286
 Sum of Mulliken charges =   0.00000
 Mulliken charges with hydrogens summed into heavy atoms:
               1
     1  F   -0.167280
     2  C    0.669141
     3  F   -0.167293
     4  F   -0.167282
     5  F   -0.167286
 Electronic spatial extent (au):  <R**2>=            288.3585
 Charge=              0.0000 electrons
 Dipole moment (field-independent basis, Debye):
    X=              0.0000    Y=              0.0000    Z=             -0.0000  Tot=              0.0000
   1 Symmetry operations used in ECPInt.
 ECPInt:  NShTT=     465 NPrTT=    1895 LenC2=     460 LenP2D=    1535.
 LDataN:  DoStor=T MaxTD1= 5 Len=  102
 Calling FoFJK, ICntrl=      2127 FMM=F ISym2X=0 I1Cent= 0 IOpClX= 0 NMat=1 NMatS=1 NMatT=0.

 GradGradGradGradGradGradGradGradGradGradGradGradGradGradGradGradGradGrad
 FormGI is forming the generalized inverse of G from B-inverse, IUseBI=4.
 Internal  Forces:  Max     0.030025388 RMS     0.018099327
 Step number   1 out of a maximum of   21
 All quantities printed in internal units (Hartrees-Bohrs-Radians)
 Mixed Optimization -- RFO/linear search
 Second derivative matrix not updated -- first step.
 ITU=  0
     Eigenvalues ---    0.12319   0.25000   0.25000   0.25000   0.25000
     Eigenvalues ---    0.56421   0.56421   0.56422   0.56422
 Linear search not attempted -- first point.
 Iteration  1 RMS(Cart)=  0.03172368 RMS(Int)=  0.00000097
 Iteration  2 RMS(Cart)=  0.00000131 RMS(Int)=  0.00000000
 Iteration  3 RMS(Cart)=  0.00000000 RMS(Int)=  0.00000000
 Variable       Old X    -DE/DX   Delta X   Delta X   Delta X     New X
                                 (Linear)    (Quad)   (Total)
    R1        2.53890  -0.03003   0.00000  -0.05263  -0.05263   2.48628
    R2        2.53889  -0.03002   0.00000  -0.05261  -0.05261   2.48628
    R3        2.53891  -0.03001   0.00000  -0.05260  -0.05260   2.48631
    R4        2.53890  -0.03000   0.00000  -0.05259  -0.05259   2.48631
    A1        1.91063  -0.00002   0.00000  -0.00007  -0.00007   1.91056
    A2        1.91063  -0.00000   0.00000  -0.00002  -0.00002   1.91061
    A3        1.91063   0.00002   0.00000   0.00009   0.00009   1.91072
    A4        1.91063   0.00001   0.00000   0.00006   0.00006   1.91070
    A5        1.91064  -0.00002   0.00000  -0.00006  -0.00006   1.91057
    A6        1.91063   0.00000   0.00000   0.00000   0.00000   1.91064
    D1        2.09440   0.00001   0.00000   0.00004   0.00004   2.09444
         Item               Value     Threshold  Converged?
 Maximum Force            0.030025     0.000450     NO 
 RMS     Force            0.018099     0.000300     NO 
 Maximum Displacement     0.052623     0.001800     NO 
 RMS     Displacement     0.031724     0.001200     NO 
 GradGradGradGradGradGradGradGradGradGradGradGradGradGradGradGradGradGrad

                    Distance matrix (angstroms):
                    1          2          3          4          5
     1  F    0.000000
     2  C    1.315681   0.000000
     3  F    2.148442   1.315683   0.000000
     4  F    2.148497   1.315697   2.148561   0.000000
     5  F    2.148577   1.315697   2.148468   2.148527   0.000000
 Framework group  C1[X(CF4)]
 Deg. of freedom     9
                         Standard orientation:                         
 ---------------------------------------------------------------------
 Center     Atomic      Atomic             Coordinates (Angstroms)
 Number     Number       Type             X           Y           Z
 ---------------------------------------------------------------------
      1          9           0       -0.811466   -0.600829    0.843531
      2          6           0       -0.000003    0.000015    0.000009
      3          9           0        0.310168   -0.827333   -0.974830
      4          9           0       -0.594298    1.062562   -0.498856
      5          9           0        1.095597    0.365589    0.630148
 ---------------------------------------------------------------------
 Rotational constants (GHZ):           5.7628702           5.7628274           5.7623444
    70 basis functions,   125 primitive gaussians,    75 cartesian basis functions
    21 alpha electrons       21 beta electrons
       nuclear repulsion energy       206.5778422399 Hartrees.
 NAtoms=    5 NActive=    5 NUniq=    5 SFac= 1.00D+00 NAtFMM=   60 NAOKFM=F Big=F
 Nuclear repulsion after empirical dispersion term =      206.5775078104 Hartrees.
   1 Symmetry operations used in ECPInt.
 ECPInt:  NShTT=     465 NPrTT=    1895 LenC2=     460 LenP2D=    1535.
 LDataN:  DoStor=T MaxTD1= 4 Len=   56
 Initial guess from the checkpoint file:  "/scratch/user/peterchao1/peterchao1/6101755_1659722809000000954897366/Gau-186995.chk"
 B after Tr=     0.000000    0.000000   -0.000000
         Rot=    0.902768   -0.124035   -0.106874    0.397748 Ang= -50.95 deg.
 ExpMin= 1.31D-01 ExpMax= 2.89D+03 ExpMxC= 4.35D+02 IAcc=3 IRadAn=         5 AccDes= 0.00D+00
 Harris functional with IExCor= 4639 and IRadAn=       5 diagonalized for initial guess.
 HarFok:  IExCor= 4639 AccDes= 0.00D+00 IRadAn=         5 IDoV= 1 UseB2=F ITyADJ=14
 ICtDFT=  3500011 ScaDFX=  1.000000  1.000000  1.000000  1.000000
 FoFCou: FMM=F IPFlag=           0 FMFlag=      100000 FMFlg1=           0
         NFxFlg=           0 DoJE=T BraDBF=F KetDBF=T FulRan=T
         wScrn=  0.000000 ICntrl=       500 IOpCl=  0 I1Cent=   200000004 NGrid=           0
         NMat0=    1 NMatS0=      1 NMatT0=    0 NMatD0=    1 NMtDS0=    0 NMtDT0=    0
 Petite list used in FoFCou.
     Accept linear search using points  3 and  4.
     Minimum is close to point  2 DX=  1.26D-04 DF= -6.82D-13 DXR=  1.26D-04 DFR=  1.71D-08 which will be used.
 SCF Done:  E(RwB97XD) =  -437.037897831     a.u. after    5 cycles
            Convg  =    0.8194D-09                    25 Fock formations.
              S**2 =  0.0000                  -V/T =  2.0054
   1 Symmetry operations used in ECPInt.
 ECPInt:  NShTT=     465 NPrTT=    1895 LenC2=     460 LenP2D=    1535.
 LDataN:  DoStor=T MaxTD1= 5 Len=  102
 Calling FoFJK, ICntrl=      2127 FMM=F ISym2X=0 I1Cent= 0 IOpClX= 0 NMat=1 NMatS=1 NMatT=0.

 GradGradGradGradGradGradGradGradGradGradGradGradGradGradGradGradGradGrad
 Using GEDIIS/GDIIS optimizer.
 FormGI is forming the generalized inverse of G from B-inverse, IUseBI=4.
 Internal  Forces:  Max     0.000405633 RMS     0.000238131
 Step number   2 out of a maximum of   21
 All quantities printed in internal units (Hartrees-Bohrs-Radians)
 Mixed Optimization -- En-DIIS/RFO-DIIS
 Trust test= 1.01D+00 RLast= 1.05D-01 DXMaxT set to 3.16D-01
 ITU=  1  0
 Use linear search instead of GDIIS.
     Eigenvalues ---    0.12319   0.25000   0.25000   0.25000   0.25000
     Eigenvalues ---    0.56421   0.56422   0.56422   0.57803
 Quartic linear search produced a step of -0.01183.
 Iteration  1 RMS(Cart)=  0.00037994 RMS(Int)=  0.00000001
 Iteration  2 RMS(Cart)=  0.00000001 RMS(Int)=  0.00000000
 Variable       Old X    -DE/DX   Delta X   Delta X   Delta X     New X
                                 (Linear)    (Quad)   (Total)
    R1        2.48628   0.00039   0.00062  -0.00001   0.00061   2.48689
    R2        2.48628   0.00041   0.00062   0.00002   0.00064   2.48692
    R3        2.48631   0.00040   0.00062   0.00001   0.00063   2.48694
    R4        2.48631   0.00038   0.00062  -0.00002   0.00060   2.48691
    A1        1.91056   0.00001   0.00000   0.00005   0.00005   1.91061
    A2        1.91061   0.00001   0.00000   0.00003   0.00003   1.91064
    A3        1.91072  -0.00002  -0.00000  -0.00009  -0.00009   1.91063
    A4        1.91070  -0.00000  -0.00000  -0.00002  -0.00002   1.91068
    A5        1.91057   0.00002   0.00000   0.00008   0.00008   1.91065
    A6        1.91064  -0.00001  -0.00000  -0.00004  -0.00004   1.91059
    D1        2.09444   0.00000  -0.00000   0.00000   0.00000   2.09444
         Item               Value     Threshold  Converged?
 Maximum Force            0.000406     0.000450     YES
 RMS     Force            0.000238     0.000300     YES
 Maximum Displacement     0.000647     0.001800     YES
 RMS     Displacement     0.000380     0.001200     YES
 Optimization completed.
    -- Stationary point found.
                           ----------------------------
                           !   Optimized Parameters   !
                           ! (Angstroms and Degrees)  !
 --------------------------                            --------------------------
 ! Name  Definition              Value          Derivative Info.                !
 --------------------------------------------------------------------------------
 ! R1    R(1,2)                  1.3157         -DE/DX =    0.0004              !
 ! R2    R(2,3)                  1.3157         -DE/DX =    0.0004              !
 ! R3    R(2,4)                  1.3157         -DE/DX =    0.0004              !
 ! R4    R(2,5)                  1.3157         -DE/DX =    0.0004              !
 ! A1    A(1,2,3)              109.4669         -DE/DX =    0.0                 !
 ! A2    A(1,2,4)              109.4701         -DE/DX =    0.0                 !
 ! A3    A(1,2,5)              109.4762         -DE/DX =    0.0                 !
 ! A4    A(3,2,4)              109.4748         -DE/DX =    0.0                 !
 ! A5    A(3,2,5)              109.4679         -DE/DX =    0.0                 !
 ! A6    A(4,2,5)              109.4714         -DE/DX =    0.0                 !
 ! D1    D(3,2,5,4)            120.0025         -DE/DX =    0.0                 !
 --------------------------------------------------------------------------------
 GradGradGradGradGradGradGradGradGradGradGradGradGradGradGradGradGradGrad

                    Distance matrix (angstroms):
                    1          2          3          4          5
     1  F    0.000000
     2  C    1.315681   0.000000
     3  F    2.148442   1.315683   0.000000
     4  F    2.148497   1.315697   2.148561   0.000000
     5  F    2.148577   1.315697   2.148468   2.148527   0.000000
 Framework group  C1[X(CF4)]
 Deg. of freedom     9
                         Standard orientation:                         
 ---------------------------------------------------------------------
 Center     Atomic      Atomic             Coordinates (Angstroms)
 Number     Number       Type             X           Y           Z
 ---------------------------------------------------------------------
      1          9           0       -0.811466   -0.600829    0.843531
      2          6           0       -0.000003    0.000015    0.000009
      3          9           0        0.310168   -0.827333   -0.974830
      4          9           0       -0.594298    1.062562   -0.498856
      5          9           0        1.095597    0.365589    0.630148
 ---------------------------------------------------------------------
 Rotational constants (GHZ):           5.7628702           5.7628274           5.7623444

 **********************************************************************

            Population analysis using the SCF Density.

 **********************************************************************

 Orbital symmetries:
       Occupied  (A) (A) (A) (A) (A) (A) (A) (A) (A) (A) (A) (A)
                 (A) (A) (A) (A) (A) (A) (A) (A) (A)
       Virtual   (A) (A) (A) (A) (A) (A) (A) (A) (A) (A) (A) (A)
                 (A) (A) (A) (A) (A) (A) (A) (A) (A) (A) (A) (A)
                 (A) (A) (A) (A) (A) (A) (A) (A) (A) (A) (A) (A)
                 (A) (A) (A) (A) (A) (A) (A) (A) (A) (A) (A) (A)
                 (A)
 The electronic state is 1-A.
 Alpha  occ. eigenvalues --  -24.88117 -24.88110 -24.88109 -24.88109 -10.64067
 Alpha  occ. eigenvalues --   -1.47968  -1.35600  -1.35599  -1.35598  -0.82626
 Alpha  occ. eigenvalues --   -0.74279  -0.74279  -0.74279  -0.60589  -0.60588
 Alpha  occ. eigenvalues --   -0.57712  -0.57711  -0.57711  -0.53215  -0.53215
 Alpha  occ. eigenvalues --   -0.53214
 Alpha virt. eigenvalues --    0.26717   0.27741   0.27746   0.27746   0.40007
 Alpha virt. eigenvalues --    0.51508   0.51509   0.51510   1.08950   1.08952
 Alpha virt. eigenvalues --    1.15133   1.15134   1.15134   1.17729   1.38485
 Alpha virt. eigenvalues --    1.38485   1.38486   1.50437   1.50437   1.50439
 Alpha virt. eigenvalues --    1.60025   1.60026   1.80561   1.80563   1.80567
 Alpha virt. eigenvalues --    1.94366   2.02856   2.02858   2.02863   3.05389
 Alpha virt. eigenvalues --    3.05389   3.05389   3.08819   3.08819   3.09663
 Alpha virt. eigenvalues --    3.09664   3.09665   3.10585   3.10585   3.10586
 Alpha virt. eigenvalues --    3.40732   3.40733   3.40736   3.70728   3.71770
 Alpha virt. eigenvalues --    3.71775   3.93858   3.93858   3.93864
          Condensed to atoms (all electrons):
 Mulliken charges:
               1
     1  F   -0.150674
     2  C    0.602753
     3  F   -0.150695
     4  F   -0.150696
     5  F   -0.150688
 Sum of Mulliken charges =   0.00000
 Mulliken charges with hydrogens summed into heavy atoms:
               1
     1  F   -0.150674
     2  C    0.602753
     3  F   -0.150695
     4  F   -0.150696
     5  F   -0.150688
 Electronic spatial extent (au):  <R**2>=            278.5534
 Charge=              0.0000 electrons
 Dipole moment (field-independent basis, Debye):
    X=             -0.0000    Y=              0.0001    Z=              0.0000  Tot=              0.0001
 1\1\GINC-C249\FOpt\RwB97XD\def2SVPP\C1F4\PETERCHAO1\05-Aug-2022\0\\#T 
 wB97XD/def2svpp opt freq int(grid=ultrafine) scf=(verytight,qc)\\Comme
 nt gs min\\0,1\F,1.0150767414,0.0852269433,0.0524171048\C,2.3307575205
 ,0.0851618306,0.0523861114\F,2.7692827579,1.3182154488,-0.0828738892\F
 ,2.7693013983,-0.4142855015,1.1878555364\F,2.7693715818,-0.6484287212,
 -0.9478748634\\Version=ES64L-G16RevB.01\State=1-A\HF=-437.0378978\RMSD
 =1.806e-11\RMSF=2.041e-04\Dipole=0.0000006,-0.0000379,0.0000151\Quadru
 pole=0.0000742,-0.0000561,-0.0000181,0.0000807,0.0000692,0.0000838\PG=
 C01 [X(C1F4)]\\@


 Until you make peace with who you are,
 you'll never be content with what you have.
                           -- Doris Mortman
 File lengths (MBytes):  RWF=      6 Int=      0 D2E=      0 Chk=      1 Scr=      1
 Normal termination of Gaussian 16 at Fri Aug  5 13:07:05 2022.
 Link1:  Proceeding to internal job step number  2.
 ---------------------------------------------------------------------
 #T Geom=AllCheck Guess=TCheck SCRF=Check GenChk RwB97XD/def2SVPP Freq
 ---------------------------------------------------------------------
 Structure from the checkpoint file:  "/scratch/user/peterchao1/peterchao1/6101755_1659722809000000954897366/Gau-186995.chk"
 --------------
 Comment gs min
 --------------
 Charge =  0 Multiplicity = 1
 Redundant internal coordinates found in file.  (old form).
 F,0,1.0150767414,0.0852269433,0.0524171048
 C,0,2.3307575205,0.0851618306,0.0523861114
 F,0,2.7692827579,1.3182154488,-0.0828738892
 F,0,2.7693013983,-0.4142855015,1.1878555364
 F,0,2.7693715818,-0.6484287212,-0.9478748634
 Recover connectivity data from disk.

 GradGradGradGradGradGradGradGradGradGradGradGradGradGradGradGradGradGrad
 Initialization pass.
                           ----------------------------
                           !    Initial Parameters    !
                           ! (Angstroms and Degrees)  !
 --------------------------                            --------------------------
 ! Name  Definition              Value          Derivative Info.                !
 --------------------------------------------------------------------------------
 ! R1    R(1,2)                  1.3157         calculate D2E/DX2 analytically  !
 ! R2    R(2,3)                  1.3157         calculate D2E/DX2 analytically  !
 ! R3    R(2,4)                  1.3157         calculate D2E/DX2 analytically  !
 ! R4    R(2,5)                  1.3157         calculate D2E/DX2 analytically  !
 ! A1    A(1,2,3)              109.4669         calculate D2E/DX2 analytically  !
 ! A2    A(1,2,4)              109.4701         calculate D2E/DX2 analytically  !
 ! A3    A(1,2,5)              109.4762         calculate D2E/DX2 analytically  !
 ! A4    A(3,2,4)              109.4748         calculate D2E/DX2 analytically  !
 ! A5    A(3,2,5)              109.4679         calculate D2E/DX2 analytically  !
 ! A6    A(4,2,5)              109.4714         calculate D2E/DX2 analytically  !
 ! D1    D(3,2,5,4)            120.0025         calculate D2E/DX2 analytically  !
 --------------------------------------------------------------------------------
 Number of steps in this run=      2 maximum allowed number of steps=      2.
 GradGradGradGradGradGradGradGradGradGradGradGradGradGradGradGradGradGrad

                    Distance matrix (angstroms):
                    1          2          3          4          5
     1  F    0.000000
     2  C    1.315681   0.000000
     3  F    2.148442   1.315683   0.000000
     4  F    2.148497   1.315697   2.148561   0.000000
     5  F    2.148577   1.315697   2.148468   2.148527   0.000000
 Framework group  C1[X(CF4)]
 Deg. of freedom     9
                         Standard orientation:                         
 ---------------------------------------------------------------------
 Center     Atomic      Atomic             Coordinates (Angstroms)
 Number     Number       Type             X           Y           Z
 ---------------------------------------------------------------------
      1          9           0       -0.811466   -0.600829    0.843531
      2          6           0       -0.000003    0.000015    0.000009
      3          9           0        0.310168   -0.827333   -0.974830
      4          9           0       -0.594298    1.062562   -0.498856
      5          9           0        1.095597    0.365589    0.630148
 ---------------------------------------------------------------------
 Rotational constants (GHZ):           5.7628702           5.7628274           5.7623444
    70 basis functions,   125 primitive gaussians,    75 cartesian basis functions
    21 alpha electrons       21 beta electrons
       nuclear repulsion energy       206.5778422399 Hartrees.
 NAtoms=    5 NActive=    5 NUniq=    5 SFac= 1.00D+00 NAtFMM=   60 NAOKFM=F Big=F
 Nuclear repulsion after empirical dispersion term =      206.5775078104 Hartrees.
   1 Symmetry operations used in ECPInt.
 ECPInt:  NShTT=     465 NPrTT=    1895 LenC2=     460 LenP2D=    1535.
 LDataN:  DoStor=T MaxTD1= 4 Len=   56
 Initial guess from the checkpoint file:  "/scratch/user/peterchao1/peterchao1/6101755_1659722809000000954897366/Gau-186995.chk"
 B after Tr=     0.000000    0.000000   -0.000000
         Rot=    1.000000   -0.000000   -0.000000   -0.000000 Ang=   0.00 deg.
 SCF Done:  E(RwB97XD) =  -437.037897831     a.u. after    1 cycles
            Convg  =    0.8193D-09                     1 Fock formations.
              S**2 =  0.0000                  -V/T =  2.0054
 DoSCS=F DFT=T ScalE2(SS,OS)=  1.000000  1.000000
 NROrb=     70 NOA=    21 NOB=    21 NVA=    49 NVB=    49
   1 Symmetry operations used in ECPInt.
 ECPInt:  NShTT=     465 NPrTT=    1895 LenC2=     460 LenP2D=    1535.
 LDataN:  DoStor=T MaxTD1= 5 Len=  102
 Symmetrizing basis deriv contribution to polar:
 IMax=3 JMax=2 DiffMx= 0.00D+00
 Calling FoFCou, ICntrl=  3107 FMM=F I1Cent=   0 AccDes= 0.00D+00.
 End of G2Drv F.D. properties file   721 does not exist.
 End of G2Drv F.D. properties file   722 does not exist.
 End of G2Drv F.D. properties file   788 does not exist.
          IDoAtm=11111
 End of Minotr F.D. properties file   721 does not exist.
 End of Minotr F.D. properties file   722 does not exist.
 End of Minotr F.D. properties file   788 does not exist.

 **********************************************************************

            Population analysis using the SCF Density.

 **********************************************************************

 Orbital symmetries:
       Occupied  (A) (A) (A) (A) (A) (A) (A) (A) (A) (A) (A) (A)
                 (A) (A) (A) (A) (A) (A) (A) (A) (A)
       Virtual   (A) (A) (A) (A) (A) (A) (A) (A) (A) (A) (A) (A)
                 (A) (A) (A) (A) (A) (A) (A) (A) (A) (A) (A) (A)
                 (A) (A) (A) (A) (A) (A) (A) (A) (A) (A) (A) (A)
                 (A) (A) (A) (A) (A) (A) (A) (A) (A) (A) (A) (A)
                 (A)
 The electronic state is 1-A.
 Alpha  occ. eigenvalues --  -24.88117 -24.88110 -24.88109 -24.88109 -10.64067
 Alpha  occ. eigenvalues --   -1.47968  -1.35600  -1.35599  -1.35598  -0.82626
 Alpha  occ. eigenvalues --   -0.74279  -0.74279  -0.74279  -0.60589  -0.60588
 Alpha  occ. eigenvalues --   -0.57712  -0.57711  -0.57711  -0.53215  -0.53215
 Alpha  occ. eigenvalues --   -0.53214
 Alpha virt. eigenvalues --    0.26717   0.27741   0.27746   0.27746   0.40007
 Alpha virt. eigenvalues --    0.51508   0.51509   0.51510   1.08950   1.08952
 Alpha virt. eigenvalues --    1.15133   1.15134   1.15134   1.17729   1.38485
 Alpha virt. eigenvalues --    1.38485   1.38486   1.50437   1.50437   1.50439
 Alpha virt. eigenvalues --    1.60025   1.60026   1.80561   1.80563   1.80567
 Alpha virt. eigenvalues --    1.94366   2.02856   2.02858   2.02863   3.05389
 Alpha virt. eigenvalues --    3.05389   3.05389   3.08819   3.08819   3.09663
 Alpha virt. eigenvalues --    3.09664   3.09665   3.10585   3.10585   3.10586
 Alpha virt. eigenvalues --    3.40732   3.40733   3.40736   3.70728   3.71770
 Alpha virt. eigenvalues --    3.71775   3.93858   3.93858   3.93864
          Condensed to atoms (all electrons):
 Mulliken charges:
               1
     1  F   -0.150674
     2  C    0.602753
     3  F   -0.150695
     4  F   -0.150696
     5  F   -0.150688
 Sum of Mulliken charges =  -0.00000
 Mulliken charges with hydrogens summed into heavy atoms:
               1
     1  F   -0.150674
     2  C    0.602753
     3  F   -0.150695
     4  F   -0.150696
     5  F   -0.150688
 APT charges:
               1
     1  F   -0.543662
     2  C    2.174365
     3  F   -0.543558
     4  F   -0.543538
     5  F   -0.543607
 Sum of APT charges =   0.00000
 APT charges with hydrogens summed into heavy atoms:
               1
     1  F   -0.543662
     2  C    2.174365
     3  F   -0.543558
     4  F   -0.543538
     5  F   -0.543607
 Electronic spatial extent (au):  <R**2>=            278.5534
 Charge=              0.0000 electrons
 Dipole moment (field-independent basis, Debye):
    X=             -0.0000    Y=              0.0001    Z=              0.0000  Tot=              0.0001
  Exact polarizability:  12.029  -0.002  12.028  -0.000  -0.000  12.030
 Approx polarizability:  13.051  -0.000  13.051   0.000  -0.000  13.050
   1 Symmetry operations used in ECPInt.
 ECPInt:  NShTT=     465 NPrTT=    1895 LenC2=     460 LenP2D=    1535.
 LDataN:  DoStor=T MaxTD1= 6 Len=  172
 Calling FoFJK, ICntrl=    100127 FMM=F ISym2X=0 I1Cent= 0 IOpClX= 0 NMat=1 NMatS=1 NMatT=0.
 Full mass-weighted force constant matrix:
 Low frequencies ---  -12.4053   -0.0012   -0.0010   -0.0006    9.6223   11.5535
 Low frequencies ---  444.3070  444.4753  642.5968
 Diagonal vibrational polarizability:
        7.2155756       7.2149813       7.2188854
 Harmonic frequencies (cm**-1), IR intensities (KM/Mole), Raman scattering
 activities (A**4/AMU), depolarization ratios for plane and unpolarized
 incident light, reduced masses (AMU), force constants (mDyne/A),
 and normal coordinates:
                      1                      2                      3
                      A                      A                      A
 Frequencies --    444.3070               444.4753               642.5968
 Red. masses --     18.9984                18.9984                18.1751
 Frc consts  --      2.2097                 2.2114                 4.4218
 IR Inten    --      0.0000                 0.0000                 5.9646
  Atom  AN      X      Y      Z        X      Y      Z        X      Y      Z
     1   9    -0.36   0.00  -0.35     0.16  -0.44  -0.17    -0.18   0.07  -0.35
     2   6     0.00   0.00  -0.00    -0.00  -0.00   0.00     0.29   0.03   0.18
     3   9     0.26  -0.28   0.32    -0.41  -0.27   0.10    -0.38   0.12  -0.02
     4   9    -0.11   0.15   0.46     0.43   0.25   0.02    -0.10  -0.44  -0.01
     5   9     0.21   0.12  -0.44    -0.18   0.46   0.04     0.49   0.23   0.26
                      4                      5                      6
                      A                      A                      A
 Frequencies --    642.6720               642.7264               938.9449
 Red. masses --     18.1750                18.1756                18.9984
 Frc consts  --      4.4229                 4.4237                 9.8684
 IR Inten    --      5.9636                 5.9576                 0.0000
  Atom  AN      X      Y      Z        X      Y      Z        X      Y      Z
     1   9    -0.39  -0.33   0.28     0.21  -0.28  -0.19    -0.31  -0.23   0.32
     2   6    -0.17  -0.09   0.29    -0.07   0.33   0.06     0.00  -0.00   0.00
     3   9     0.05   0.46   0.10    -0.10   0.11   0.51     0.12  -0.31  -0.37
     4   9     0.32  -0.14  -0.21    -0.28   0.28  -0.37    -0.23   0.40  -0.19
     5   9     0.13   0.08  -0.36     0.22  -0.32   0.02     0.42   0.14   0.24
                      7                      8                      9
                      A                      A                      A
 Frequencies --   1339.4921              1339.5353              1339.8968
 Red. masses --     13.0270                13.0272                13.0271
 Frc consts  --     13.7713                13.7724                13.7798
 IR Inten    --    455.4677               455.3735               455.1870
  Atom  AN      X      Y      Z        X      Y      Z        X      Y      Z
     1   9     0.11   0.03  -0.12     0.06   0.09  -0.13    -0.16  -0.12   0.12
     2   6    -0.45   0.50   0.64     0.34  -0.54   0.67     0.73   0.56   0.08
     3   9     0.09  -0.19  -0.23    -0.02   0.02  -0.06    -0.03  -0.08  -0.05
     4   9     0.07  -0.12  -0.00    -0.13   0.23  -0.13    -0.03  -0.06   0.00
     5   9     0.01  -0.04  -0.05    -0.13  -0.00  -0.10    -0.24  -0.10  -0.11
 
 Temperature   298.150 Kelvin.  Pressure   1.00000 Atm.
 Zero-point correction=                           0.017712 (Hartree/Particle)
 Thermal correction to Energy=                    0.021571
 Thermal correction to Enthalpy=                  0.022515
 Thermal correction to Gibbs Free Energy=        -0.009428
 Sum of electronic and zero-point Energies=           -437.020186
 Sum of electronic and thermal Energies=              -437.016327
 Sum of electronic and thermal Enthalpies=            -437.015383
 Sum of electronic and thermal Free Energies=         -437.047326
 FormGI is forming the generalized inverse of G from B-inverse, IUseBI=4.

 GradGradGradGradGradGradGradGradGradGradGradGradGradGradGradGradGradGrad
 Internal  Forces:  Max     0.000405633 RMS     0.000238131
 Step number   1 out of a maximum of    2
 All quantities printed in internal units (Hartrees-Bohrs-Radians)
 Second derivative matrix not updated -- analytic derivatives used.
 ITU=  0
     Eigenvalues ---    0.15932   0.29299   0.29375   0.29727   0.29739
     Eigenvalues ---    0.44960   0.54376   0.54393   0.63385
 Angle between quadratic step and forces=   2.49 degrees.
 Linear search not attempted -- first point.
 Iteration  1 RMS(Cart)=  0.00037794 RMS(Int)=  0.00000001
 Iteration  2 RMS(Cart)=  0.00000001 RMS(Int)=  0.00000000
 Variable       Old X    -DE/DX   Delta X   Delta X   Delta X     New X
                                 (Linear)    (Quad)   (Total)
    R1        2.48628   0.00039   0.00000   0.00061   0.00061   2.48689
    R2        2.48628   0.00041   0.00000   0.00064   0.00064   2.48692
    R3        2.48631   0.00040   0.00000   0.00064   0.00064   2.48695
    R4        2.48631   0.00038   0.00000   0.00060   0.00060   2.48691
    A1        1.91056   0.00001   0.00000   0.00003   0.00003   1.91059
    A2        1.91061   0.00001   0.00000   0.00003   0.00003   1.91064
    A3        1.91072  -0.00002   0.00000  -0.00006  -0.00006   1.91066
    A4        1.91070  -0.00000   0.00000  -0.00003  -0.00003   1.91067
    A5        1.91057   0.00002   0.00000   0.00006   0.00006   1.91063
    A6        1.91064  -0.00001   0.00000  -0.00002  -0.00002   1.91061
    D1        2.09444   0.00000   0.00000  -0.00002  -0.00002   2.09442
         Item               Value     Threshold  Converged?
 Maximum Force            0.000406     0.000450     YES
 RMS     Force            0.000238     0.000300     YES
 Maximum Displacement     0.000623     0.001800     YES
 RMS     Displacement     0.000378     0.001200     YES
 Optimization completed.
    -- Stationary point found.
                           ----------------------------
                           !   Optimized Parameters   !
                           ! (Angstroms and Degrees)  !
 --------------------------                            --------------------------
 ! Name  Definition              Value          Derivative Info.                !
 --------------------------------------------------------------------------------
 ! R1    R(1,2)                  1.3157         -DE/DX =    0.0004              !
 ! R2    R(2,3)                  1.3157         -DE/DX =    0.0004              !
 ! R3    R(2,4)                  1.3157         -DE/DX =    0.0004              !
 ! R4    R(2,5)                  1.3157         -DE/DX =    0.0004              !
 ! A1    A(1,2,3)              109.4669         -DE/DX =    0.0                 !
 ! A2    A(1,2,4)              109.4701         -DE/DX =    0.0                 !
 ! A3    A(1,2,5)              109.4762         -DE/DX =    0.0                 !
 ! A4    A(3,2,4)              109.4748         -DE/DX =    0.0                 !
 ! A5    A(3,2,5)              109.4679         -DE/DX =    0.0                 !
 ! A6    A(4,2,5)              109.4714         -DE/DX =    0.0                 !
 ! D1    D(3,2,5,4)            120.0025         -DE/DX =    0.0                 !
 --------------------------------------------------------------------------------
 GradGradGradGradGradGradGradGradGradGradGradGradGradGradGradGradGradGrad


 ----------------------------------------------------------------------

 Electric dipole moment (input orientation):
 (Debye = 10**-18 statcoulomb cm , SI units = C m)
                  (au)            (Debye)         (10**-30 SI)
   Tot        0.408097D-04      0.103728D-03      0.345999D-03
   x          0.000000D+00      0.000000D+00      0.000000D+00
   y         -0.379262D-04     -0.963989D-04     -0.321552D-03
   z          0.150676D-04      0.382980D-04      0.127748D-03

 Dipole polarizability, Alpha (input orientation).
 (esu units = cm**3 , SI units = C**2 m**2 J**-1)
 Alpha(0;0):
               (au)            (10**-24 esu)      (10**-40 SI)
   iso        0.120291D+02      0.178253D+01      0.198333D+01
   aniso      0.383888D-02      0.568863D-03      0.632945D-03
   xx         0.120288D+02      0.178249D+01      0.198328D+01
   yx         0.197753D-02      0.293040D-03      0.326051D-03
   yy         0.120284D+02      0.178242D+01      0.198321D+01
   zx         0.267986D-03      0.397115D-04      0.441850D-04
   zy        -0.394404D-03     -0.584447D-04     -0.650284D-04
   zz         0.120301D+02      0.178267D+01      0.198349D+01

 ----------------------------------------------------------------------

 Dipole orientation:
     9          1.91809020          0.16956323         -0.08651865
     6          4.40401769          0.19284017         -0.05198212
     9          5.25804386          0.82367690         -2.30015295
     9          5.19402926          1.84598602          1.62870675
     9          5.24591393         -2.06784511          0.54988013

 Electric dipole moment (dipole orientation):
 (Debye = 10**-18 statcoulomb cm , SI units = C m)
                  (au)            (Debye)         (10**-30 SI)
   Tot        0.408136D-04      0.103738D-03      0.346032D-03
   x          0.000000D+00      0.000000D+00      0.000000D+00
   y          0.000000D+00      0.000000D+00      0.000000D+00
   z          0.408136D-04      0.103738D-03      0.346032D-03

 Dipole polarizability, Alpha (dipole orientation).
 (esu units = cm**3 , SI units = C**2 m**2 J**-1)
 Alpha(0;0):
               (au)            (10**-24 esu)      (10**-40 SI)
   iso        0.120291D+02      0.178253D+01      0.198333D+01
   aniso      0.383888D-02      0.568863D-03      0.632945D-03
   xx         0.120288D+02      0.178249D+01      0.198329D+01
   yx         0.960272D-03      0.142298D-03      0.158327D-03
   yy         0.120296D+02      0.178260D+01      0.198341D+01
   zx        -0.174723D-02     -0.258913D-03     -0.288080D-03
   zy         0.866116D-03      0.128345D-03      0.142803D-03
   zz         0.120288D+02      0.178249D+01      0.198328D+01

 ----------------------------------------------------------------------
 1\1\GINC-C249\Freq\RwB97XD\def2SVPP\C1F4\PETERCHAO1\05-Aug-2022\0\\#T 
 Geom=AllCheck Guess=TCheck SCRF=Check GenChk RwB97XD/def2SVPP Freq\\Co
 mment gs min\\0,1\F,1.0150767414,0.0852269433,0.0524171048\C,2.3307575
 205,0.0851618306,0.0523861114\F,2.7692827579,1.3182154488,-0.082873889
 2\F,2.7693013983,-0.4142855015,1.1878555364\F,2.7693715818,-0.64842872
 12,-0.9478748634\\Version=ES64L-G16RevB.01\State=1-A\HF=-437.0378978\R
 MSD=1.806e-11\RMSF=2.041e-04\ZeroPoint=0.0177119\Thermal=0.0215707\Dip
 ole=0.0000006,-0.0000379,0.0000151\DipoleDeriv=-0.9453794,-0.0003335,0
 .0000077,-0.0001339,-0.342999,0.000118,0.0001259,0.0001191,-0.3426087,
 2.1743784,0.0004681,-0.0000458,0.0001664,2.1742827,-0.000057,0.0000761
 ,-0.0002084,2.1744349,-0.409903,-0.1884513,0.0207163,-0.1883099,-0.871
 9393,0.057996,0.0206193,0.0580524,-0.3488319,-0.4093675,0.0763705,-0.1
 731238,0.0763113,-0.4294529,0.1972664,-0.1733039,0.1973699,-0.791794,-
 0.4097286,0.1119461,0.1524456,0.1119661,-0.5298915,-0.2553234,0.152482
 6,-0.255333,-0.6912004\Polar=12.0288117,0.0019775,12.0283685,0.000268,
 -0.0003944,12.0300651\Quadrupole=0.0000742,-0.0000561,-0.0000181,0.000
 0807,0.0000692,0.0000838\PG=C01 [X(C1F4)]\NImag=0\\0.46685262,-0.00003
 274,0.08765271,-0.00000161,-0.00007410,0.08757699,-0.31229008,0.000015
 67,-0.00005280,0.65516551,0.00004584,-0.08956899,-0.00002983,-0.000158
 06,0.65512129,-0.00002502,-0.00003282,-0.08962769,-0.00009474,0.000079
 67,0.65506218,-0.05160995,-0.06112623,0.00673274,-0.11424390,-0.069464
 80,0.00763391,0.12977725,-0.04063240,-0.01500591,0.00345845,-0.0694460
 7,-0.28500988,0.02146297,0.11833495,0.42059787,0.00447360,0.00346014,0
 .01623478,0.00766860,0.02146604,-0.09185517,-0.01303739,-0.03648322,0.
 09159713,-0.05150783,0.02475340,-0.05628176,-0.11425242,0.02816023,-0.
 06399271,0.01803751,-0.00360888,0.00512232,0.12968184,0.01644378,0.011
 42490,0.01183505,0.02816670,-0.12164629,0.07290206,0.00598983,-0.05025
 057,0.05947743,-0.04797355,0.14231706,-0.03740794,0.01183717,-0.010162
 16,-0.06397010,0.07290080,-0.25530266,-0.00190927,0.04264589,-0.018016
 03,0.10898512,-0.12420699,0.36993768,-0.05144476,0.03638990,0.04960344
 ,-0.11437911,0.04141679,0.05647856,0.01803910,-0.00464760,-0.00422714,
 0.01804091,-0.00262677,-0.00569781,0.12974387,0.02417552,0.00549728,-0
 .01518957,0.04142176,-0.15889614,-0.09441188,0.00626625,-0.07033151,-0
 .04792039,-0.00133121,0.01815489,-0.00317688,-0.07053231,0.20557548,0.
 03296097,-0.01519039,-0.00402191,0.05644903,-0.09441668,-0.21827665,0.
 00058001,-0.03108410,0.00203929,0.00616704,-0.02000754,-0.08645683,-0.
 09615705,0.16069872,0.30671610\\0.00039001,-0.00000161,-0.00000175,0.0
 0000275,-0.00000590,0.00000967,-0.00014586,-0.00037906,0.00001713,-0.0
 0014422,0.00017494,-0.00032917,-0.00010267,0.00021163,0.00030413\\\@


 RESEARCH IS WHAT I AM DOING WHEN I DON'T KNOW WHAT I AM DOING.
     -- WERNER VON BRAUN
 File lengths (MBytes):  RWF=      7 Int=      0 D2E=      0 Chk=      1 Scr=      1
 Normal termination of Gaussian 16 at Fri Aug  5 13:07:16 2022.
real 26.13
user 83.67
sys 3.81
