 Entering Gaussian System, Link 0=g16
 Input=gaussian_test.inp
 Output=gaussian_test.log
 Initial command:
 /sw/restricted/lms/sw/Gaussian/g16_B01/g16/l1.exe "/scratch/user/peterchao1/peterchao1/6991780_1675632276000000721125752/Gau-64875.inp" -scrdir="/scratch/user/peterchao1/peterchao1/6991780_1675632276000000721125752/"
 Entering Link 1 = /sw/restricted/lms/sw/Gaussian/g16_B01/g16/l1.exe PID=     64886.
  
 Copyright (c) 1988-2017, Gaussian, Inc.  All Rights Reserved.
  
 This is part of the Gaussian(R) 16 program.  It is based on
 the Gaussian(R) 09 system (copyright 2009, Gaussian, Inc.),
 the Gaussian(R) 03 system (copyright 2003, Gaussian, Inc.),
 the Gaussian(R) 98 system (copyright 1998, Gaussian, Inc.),
 the Gaussian(R) 94 system (copyright 1995, Gaussian, Inc.),
 the Gaussian 92(TM) system (copyright 1992, Gaussian, Inc.),
 the Gaussian 90(TM) system (copyright 1990, Gaussian, Inc.),
 the Gaussian 88(TM) system (copyright 1988, Gaussian, Inc.),
 the Gaussian 86(TM) system (copyright 1986, Carnegie Mellon
 University), and the Gaussian 82(TM) system (copyright 1983,
 Carnegie Mellon University). Gaussian is a federally registered
 trademark of Gaussian, Inc.
  
 This software contains proprietary and confidential information,
 including trade secrets, belonging to Gaussian, Inc.
  
 This software is provided under written license and may be
 used, copied, transmitted, or stored only in accord with that
 written license.
  
 The following legend is applicable only to US Government
 contracts under FAR:
  
                    RESTRICTED RIGHTS LEGEND
  
 Use, reproduction and disclosure by the US Government is
 subject to restrictions as set forth in subparagraphs (a)
 and (c) of the Commercial Computer Software - Restricted
 Rights clause in FAR 52.227-19.
  
 Gaussian, Inc.
 340 Quinnipiac St., Bldg. 40, Wallingford CT 06492
  
  
 ---------------------------------------------------------------
 Warning -- This program may not be used in any manner that
 competes with the business of Gaussian, Inc. or will provide
 assistance to any competitor of Gaussian, Inc.  The licensee
 of this program is prohibited from giving any competitor of
 Gaussian, Inc. access to this program.  By using this program,
 the user acknowledges that Gaussian, Inc. is engaged in the
 business of creating and licensing software in the field of
 computational chemistry and represents and warrants to the
 licensee that it is not a competitor of Gaussian, Inc. and that
 it will not use this program in any manner prohibited above.
 ---------------------------------------------------------------
  

 Cite this work as:
 Gaussian 16, Revision B.01,
 M. J. Frisch, G. W. Trucks, H. B. Schlegel, G. E. Scuseria, 
 M. A. Robb, J. R. Cheeseman, G. Scalmani, V. Barone, 
 G. A. Petersson, H. Nakatsuji, X. Li, M. Caricato, A. V. Marenich, 
 J. Bloino, B. G. Janesko, R. Gomperts, B. Mennucci, H. P. Hratchian, 
 J. V. Ortiz, A. F. Izmaylov, J. L. Sonnenberg, D. Williams-Young, 
 F. Ding, F. Lipparini, F. Egidi, J. Goings, B. Peng, A. Petrone, 
 T. Henderson, D. Ranasinghe, V. G. Zakrzewski, J. Gao, N. Rega, 
 G. Zheng, W. Liang, M. Hada, M. Ehara, K. Toyota, R. Fukuda, 
 J. Hasegawa, M. Ishida, T. Nakajima, Y. Honda, O. Kitao, H. Nakai, 
 T. Vreven, K. Throssell, J. A. Montgomery, Jr., J. E. Peralta, 
 F. Ogliaro, M. J. Bearpark, J. J. Heyd, E. N. Brothers, K. N. Kudin, 
 V. N. Staroverov, T. A. Keith, R. Kobayashi, J. Normand, 
 K. Raghavachari, A. P. Rendell, J. C. Burant, S. S. Iyengar, 
 J. Tomasi, M. Cossi, J. M. Millam, M. Klene, C. Adamo, R. Cammi, 
 J. W. Ochterski, R. L. Martin, K. Morokuma, O. Farkas, 
 J. B. Foresman, and D. J. Fox, Gaussian, Inc., Wallingford CT, 2016.
 
 ******************************************
 Gaussian 16:  ES64L-G16RevB.01 20-Dec-2017
                 5-Feb-2023 
 ******************************************
 %nprocshared=4
 Will use up to    4 processors via shared memory.
 %mem=8000mb
 %chk=19.chk
 %nprocshared=4
 Will use up to    4 processors via shared memory.
 %mem=8000mb
 ----------------------------------------------------------------------
 #T wB97XD/def2svpp opt=tight freq int(grid=ultrafine) scf=(verytight,q
 c) Volume=tight
 ----------------------------------------------------------------------
 -----
 Dimer
 -----
 Symbolic Z-matrix:
 Charge =  0 Multiplicity = 1
 O                     1.00481  -0.87377   1.81629 
 C                     2.26483  -0.33977   1.5583 
 C                     2.45878  -0.00149   0.07609 
 Cl                    4.0979    0.61944  -0.18367 
 Cl                    2.24171  -1.48796  -0.89302 
 Cl                    1.27492   1.20627  -0.46061 
 H                     0.85887  -1.64148   1.2427 
 H                     3.06469  -1.03179   1.8559 
 H                     2.34424   0.57715   2.14775 
 O                    -1.12936   1.00798   1.86813 
 C                    -2.33593   0.41022   1.56088 
 C                    -2.45816   0.02876   0.07487 
 Cl                   -4.10254  -0.56231  -0.25096 
 Cl                   -2.12268   1.42788  -0.95809 
 Cl                   -1.31547  -1.26592  -0.33728 
 H                    -0.40572   0.3544    1.83356 
 H                    -3.1181    1.14508   1.77702 
 H                    -2.52456  -0.49617   2.15389 
 
 Add virtual bond connecting atoms H16        and O1         Dist= 3.53D+00.

 GradGradGradGradGradGradGradGradGradGradGradGradGradGradGradGradGradGrad
 Initialization pass.
                           ----------------------------
                           !    Initial Parameters    !
                           ! (Angstroms and Degrees)  !
 --------------------------                            --------------------------
 ! Name  Definition              Value          Derivative Info.                !
 --------------------------------------------------------------------------------
 ! R1    R(1,2)                  1.3926         estimate D2E/DX2                !
 ! R2    R(1,7)                  0.9694         estimate D2E/DX2                !
 ! R3    R(1,16)                 1.8704         estimate D2E/DX2                !
 ! R4    R(2,3)                  1.5326         estimate D2E/DX2                !
 ! R5    R(2,8)                  1.0987         estimate D2E/DX2                !
 ! R6    R(2,9)                  1.0929         estimate D2E/DX2                !
 ! R7    R(3,4)                  1.7719         estimate D2E/DX2                !
 ! R8    R(3,5)                  1.7877         estimate D2E/DX2                !
 ! R9    R(3,6)                  1.7743         estimate D2E/DX2                !
 ! R10   R(10,11)                1.3811         estimate D2E/DX2                !
 ! R11   R(10,16)                0.9757         estimate D2E/DX2                !
 ! R12   R(11,12)                1.5391         estimate D2E/DX2                !
 ! R13   R(11,17)                1.0948         estimate D2E/DX2                !
 ! R14   R(11,18)                1.0994         estimate D2E/DX2                !
 ! R15   R(12,13)                1.7775         estimate D2E/DX2                !
 ! R16   R(12,14)                1.7712         estimate D2E/DX2                !
 ! R17   R(12,15)                1.7753         estimate D2E/DX2                !
 ! A1    A(2,1,7)              109.2853         estimate D2E/DX2                !
 ! A2    A(2,1,16)             115.611          estimate D2E/DX2                !
 ! A3    A(7,1,16)             114.3284         estimate D2E/DX2                !
 ! A4    A(1,2,3)              112.228          estimate D2E/DX2                !
 ! A5    A(1,2,8)              111.5297         estimate D2E/DX2                !
 ! A6    A(1,2,9)              106.7098         estimate D2E/DX2                !
 ! A7    A(3,2,8)              107.9894         estimate D2E/DX2                !
 ! A8    A(3,2,9)              109.0998         estimate D2E/DX2                !
 ! A9    A(8,2,9)              109.2333         estimate D2E/DX2                !
 ! A10   A(2,3,4)              109.6442         estimate D2E/DX2                !
 ! A11   A(2,3,5)              108.9877         estimate D2E/DX2                !
 ! A12   A(2,3,6)              110.9981         estimate D2E/DX2                !
 ! A13   A(4,3,5)              108.9185         estimate D2E/DX2                !
 ! A14   A(4,3,6)              109.5321         estimate D2E/DX2                !
 ! A15   A(5,3,6)              108.7234         estimate D2E/DX2                !
 ! A16   A(11,10,16)           110.4944         estimate D2E/DX2                !
 ! A17   A(10,11,12)           113.0451         estimate D2E/DX2                !
 ! A18   A(10,11,17)           106.841          estimate D2E/DX2                !
 ! A19   A(10,11,18)           112.7497         estimate D2E/DX2                !
 ! A20   A(12,11,17)           107.4726         estimate D2E/DX2                !
 ! A21   A(12,11,18)           107.6275         estimate D2E/DX2                !
 ! A22   A(17,11,18)           108.9232         estimate D2E/DX2                !
 ! A23   A(11,12,13)           109.4438         estimate D2E/DX2                !
 ! A24   A(11,12,14)           110.6263         estimate D2E/DX2                !
 ! A25   A(11,12,15)           110.7186         estimate D2E/DX2                !
 ! A26   A(13,12,14)           109.3295         estimate D2E/DX2                !
 ! A27   A(13,12,15)           108.0828         estimate D2E/DX2                !
 ! A28   A(14,12,15)           108.5879         estimate D2E/DX2                !
 ! A29   L(1,16,10,6,-1)       180.5553         estimate D2E/DX2                !
 ! A30   L(1,16,10,6,-2)       181.7974         estimate D2E/DX2                !
 ! D1    D(7,1,2,3)             54.8255         estimate D2E/DX2                !
 ! D2    D(7,1,2,8)            -66.4987         estimate D2E/DX2                !
 ! D3    D(7,1,2,9)            174.2811         estimate D2E/DX2                !
 ! D4    D(16,1,2,3)           -75.8475         estimate D2E/DX2                !
 ! D5    D(16,1,2,8)           162.8282         estimate D2E/DX2                !
 ! D6    D(16,1,2,9)            43.6081         estimate D2E/DX2                !
 ! D7    D(2,1,10,11)          154.4243         estimate D2E/DX2                !
 ! D8    D(7,1,10,11)           25.8558         estimate D2E/DX2                !
 ! D9    D(1,2,3,4)           -178.096          estimate D2E/DX2                !
 ! D10   D(1,2,3,5)            -58.9594         estimate D2E/DX2                !
 ! D11   D(1,2,3,6)             60.7557         estimate D2E/DX2                !
 ! D12   D(8,2,3,4)            -54.7618         estimate D2E/DX2                !
 ! D13   D(8,2,3,5)             64.3747         estimate D2E/DX2                !
 ! D14   D(8,2,3,6)           -175.9101         estimate D2E/DX2                !
 ! D15   D(9,2,3,4)             63.856          estimate D2E/DX2                !
 ! D16   D(9,2,3,5)           -177.0075         estimate D2E/DX2                !
 ! D17   D(9,2,3,6)            -57.2923         estimate D2E/DX2                !
 ! D18   D(16,10,11,12)        -71.1579         estimate D2E/DX2                !
 ! D19   D(16,10,11,17)        170.8287         estimate D2E/DX2                !
 ! D20   D(16,10,11,18)         51.202          estimate D2E/DX2                !
 ! D21   D(10,11,12,13)       -173.7567         estimate D2E/DX2                !
 ! D22   D(10,11,12,14)        -53.2302         estimate D2E/DX2                !
 ! D23   D(10,11,12,15)         67.2015         estimate D2E/DX2                !
 ! D24   D(17,11,12,13)        -56.1127         estimate D2E/DX2                !
 ! D25   D(17,11,12,14)         64.4138         estimate D2E/DX2                !
 ! D26   D(17,11,12,15)       -175.1545         estimate D2E/DX2                !
 ! D27   D(18,11,12,13)         61.0653         estimate D2E/DX2                !
 ! D28   D(18,11,12,14)       -178.4082         estimate D2E/DX2                !
 ! D29   D(18,11,12,15)        -57.9765         estimate D2E/DX2                !
 --------------------------------------------------------------------------------
 Number of steps in this run=     86 maximum allowed number of steps=    108.
 GradGradGradGradGradGradGradGradGradGradGradGradGradGradGradGradGradGrad

                    Distance matrix (angstroms):
                    1          2          3          4          5
     1  O    0.000000
     2  C    1.392614   0.000000
     3  C    2.429655   1.532645   0.000000
     4  Cl   3.974513   2.704569   1.771933   0.000000
     5  Cl   3.040980   2.707001   1.787709   2.896504   0.000000
     6  Cl   3.095777   2.728766   1.774325   2.896594   2.894917
     7  H    0.969375   1.941847   2.571041   4.199712   2.548944
     8  H    2.066313   1.098738   2.143919   2.820271   2.905510
     9  H    2.002278   1.092934   2.154002   2.917643   3.677159
    10  O    2.845767   3.665106   4.135842   5.628956   5.021738
    11  C    3.588089   4.661487   5.036197   6.669434   5.529872
    12  C    3.979864   4.964179   4.917035   6.587695   5.032504
    13  Cl   5.518653   6.623166   6.593356   8.285423   6.443493
    14  Cl   4.772420   5.357896   4.909412   6.320511   5.249213
    15  Cl   3.189884   4.155664   4.001829   5.734351   3.607179
    16  H    1.870371   2.772989   3.379451   4.941866   4.223440
    17  H    4.590828   5.588256   5.942168   7.496086   6.541380
    18  H    3.565534   4.828819   5.421775   7.110962   5.743233
                    6          7          8          9         10
     6  Cl   0.000000
     7  H    3.344254   0.000000
     8  H    3.684887   2.369260   0.000000
     9  H    2.888390   2.819178   1.786864   0.000000
    10  O    3.353050   3.371038   4.663786   3.511376   0.000000
    11  C    4.214066   3.810175   5.597596   4.719776   1.381130
    12  C    3.950851   3.893102   5.899049   5.259345   2.437288
    13  Cl   5.664709   5.292560   7.485215   6.972314   3.974430
    14  Cl   3.440971   4.811867   6.393536   5.506668   3.024982
    15  Cl   3.582889   2.713879   4.904152   4.792264   3.173180
    16  H    2.968748   2.435536   3.737076   2.776799   0.975722
    17  H    4.930458   4.885359   6.555295   5.504291   1.995539
    18  H    4.916299   3.686414   5.622762   4.985712   2.071401
                   11         12         13         14         15
    11  C    0.000000
    12  C    1.539051   0.000000
    13  Cl   2.710990   1.777494   0.000000
    14  Cl   2.725130   1.771187   2.894953   0.000000
    15  Cl   2.730153   1.775328   2.875803   2.879849   0.000000
    16  H    1.950175   2.722424   4.341896   3.448718   2.857556
    17  H    1.094778   2.139863   2.827892   2.924329   3.678671
    18  H    1.099443   2.145293   2.877092   3.680747   2.874077
                   16         17         18
    16  H    0.000000
    17  H    2.825847   0.000000
    18  H    2.305554   1.785497   0.000000
 Framework group  C1[X(C4H6Cl6O2)]
 Deg. of freedom    48
                         Standard orientation:                         
 ---------------------------------------------------------------------
 Center     Atomic      Atomic             Coordinates (Angstroms)
 Number     Number       Type             X           Y           Z
 ---------------------------------------------------------------------
      1          8           0       -1.008522    0.907123    1.743419
      2          6           0       -2.265928    0.360957    1.498457
      3          6           0       -2.458360   -0.013386    0.024741
      4         17           0       -4.094434   -0.648356   -0.219840
      5         17           0       -2.248714    1.450702   -0.979448
      6         17           0       -1.268634   -1.227713   -0.483384
      7          1           0       -0.866423    1.661699    1.151718
      8          1           0       -3.069153    1.055901    1.779719
      9          1           0       -2.340767   -0.542084    2.109537
     10          8           0        1.134891   -0.962354    1.839458
     11          6           0        2.338465   -0.366129    1.517831
     12          6           0        2.458670   -0.019473    0.023154
     13         17           0        4.100082    0.571767   -0.316977
     14         17           0        2.129963   -1.444365   -0.976215
     15         17           0        1.309580    1.259415   -0.419368
     16          1           0        0.408032   -0.313342    1.789540
     17          1           0        3.124270   -1.091795    1.751193
     18          1           0        2.522701    0.554998    2.089108
 ---------------------------------------------------------------------
 Rotational constants (GHZ):           0.8704534           0.2266297           0.2211717
   204 basis functions,   396 primitive gaussians,   216 cartesian basis functions
    74 alpha electrons       74 beta electrons
       nuclear repulsion energy      1532.1871589402 Hartrees.
 NAtoms=   18 NActive=   18 NUniq=   18 SFac= 1.00D+00 NAtFMM=   60 NAOKFM=F Big=F
 Nuclear repulsion after empirical dispersion term =     1532.1753908348 Hartrees.
   1 Symmetry operations used in ECPInt.
 ECPInt:  NShTT=    4656 NPrTT=   21144 LenC2=    4268 LenP2D=   12826.
 LDataN:  DoStor=T MaxTD1= 4 Len=   56
 ExpMin= 1.22D-01 ExpMax= 1.04D+04 ExpMxC= 1.57D+03 IAcc=3 IRadAn=         5 AccDes= 0.00D+00
 Harris functional with IExCor= 4639 and IRadAn=       5 diagonalized for initial guess.
 HarFok:  IExCor= 4639 AccDes= 0.00D+00 IRadAn=         5 IDoV= 1 UseB2=F ITyADJ=14
 ICtDFT=  3500011 ScaDFX=  1.000000  1.000000  1.000000  1.000000
 FoFCou: FMM=F IPFlag=           0 FMFlag=      100000 FMFlg1=           0
         NFxFlg=           0 DoJE=T BraDBF=F KetDBF=T FulRan=T
         wScrn=  0.000000 ICntrl=       500 IOpCl=  0 I1Cent=   200000004 NGrid=           0
         NMat0=    1 NMatS0=      1 NMatT0=    0 NMatD0=    1 NMtDS0=    0 NMtDT0=    0
 Petite list used in FoFCou.
     Minimum is close to point  2 DX=  2.20D-02 DF= -5.47D-07 DXR=  3.54D-02 DFR=  1.25D-03 which will be used.
     Minimum is close to point  2 DX=  1.14D-03 DF= -4.50D-11 DXR=  1.13D-03 DFR=  1.27D-06 which will be used.
 SCF Done:  E(RwB97XD) =  -3066.42692416     a.u. after    8 cycles
            Convg  =    0.1052D-08                    39 Fock formations.
              S**2 =  0.0000                  -V/T =  2.0025

 **********************************************************************

            Population analysis using the SCF Density.

 **********************************************************************

 Orbital symmetries:
       Occupied  (A) (A) (A) (A) (A) (A) (A) (A) (A) (A) (A) (A)
                 (A) (A) (A) (A) (A) (A) (A) (A) (A) (A) (A) (A)
                 (A) (A) (A) (A) (A) (A) (A) (A) (A) (A) (A) (A)
                 (A) (A) (A) (A) (A) (A) (A) (A) (A) (A) (A) (A)
                 (A) (A) (A) (A) (A) (A) (A) (A) (A) (A) (A) (A)
                 (A) (A) (A) (A) (A) (A) (A) (A) (A) (A) (A) (A)
                 (A) (A)
       Virtual   (A) (A) (A) (A) (A) (A) (A) (A) (A) (A) (A) (A)
                 (A) (A) (A) (A) (A) (A) (A) (A) (A) (A) (A) (A)
                 (A) (A) (A) (A) (A) (A) (A) (A) (A) (A) (A) (A)
                 (A) (A) (A) (A) (A) (A) (A) (A) (A) (A) (A) (A)
                 (A) (A) (A) (A) (A) (A) (A) (A) (A) (A) (A) (A)
                 (A) (A) (A) (A) (A) (A) (A) (A) (A) (A) (A) (A)
                 (A) (A) (A) (A) (A) (A) (A) (A) (A) (A) (A) (A)
                 (A) (A) (A) (A) (A) (A) (A) (A) (A) (A) (A) (A)
                 (A) (A) (A) (A) (A) (A) (A) (A) (A) (A) (A) (A)
                 (A) (A) (A) (A) (A) (A) (A) (A) (A) (A) (A) (A)
                 (A) (A) (A) (A) (A) (A) (A) (A) (A) (A)
 The electronic state is 1-A.
 Alpha  occ. eigenvalues -- -101.71054-101.70683-101.69866-101.69641-101.69195
 Alpha  occ. eigenvalues -- -101.68663 -19.30444 -19.24999 -10.48521 -10.46790
 Alpha  occ. eigenvalues --  -10.39174 -10.36473  -9.61907  -9.61551  -9.60707
 Alpha  occ. eigenvalues --   -9.60524  -9.60065  -9.59524  -7.37312  -7.36981
 Alpha  occ. eigenvalues --   -7.36302  -7.36256  -7.36154  -7.35927  -7.35914
 Alpha  occ. eigenvalues --   -7.35905  -7.35486  -7.35058  -7.35051  -7.34960
 Alpha  occ. eigenvalues --   -7.34908  -7.34882  -7.34429  -7.34428  -7.33894
 Alpha  occ. eigenvalues --   -7.33867  -1.17437  -1.12668  -1.05871  -1.04384
 Alpha  occ. eigenvalues --   -0.95110  -0.94476  -0.93707  -0.93164  -0.84658
 Alpha  occ. eigenvalues --   -0.81838  -0.71891  -0.69410  -0.65106  -0.62803
 Alpha  occ. eigenvalues --   -0.60774  -0.60393  -0.58371  -0.58198  -0.55611
 Alpha  occ. eigenvalues --   -0.54517  -0.53548  -0.51407  -0.48198  -0.45383
 Alpha  occ. eigenvalues --   -0.44804  -0.44128  -0.43608  -0.43231  -0.42688
 Alpha  occ. eigenvalues --   -0.41890  -0.41049  -0.40662  -0.40125  -0.39615
 Alpha  occ. eigenvalues --   -0.39352  -0.38769  -0.38062  -0.36434
 Alpha virt. eigenvalues --    0.05530   0.06780   0.07913   0.08524   0.09604
 Alpha virt. eigenvalues --    0.10225   0.13384   0.16290   0.17661   0.18920
 Alpha virt. eigenvalues --    0.21221   0.22719   0.23515   0.25544   0.26790
 Alpha virt. eigenvalues --    0.33251   0.45347   0.46978   0.48644   0.49886
 Alpha virt. eigenvalues --    0.50471   0.50707   0.51829   0.52719   0.53797
 Alpha virt. eigenvalues --    0.54726   0.56160   0.57901   0.61013   0.61807
 Alpha virt. eigenvalues --    0.62573   0.64440   0.65615   0.66722   0.68184
 Alpha virt. eigenvalues --    0.69849   0.70720   0.71705   0.73347   0.74902
 Alpha virt. eigenvalues --    0.76175   0.76746   0.78211   0.79298   0.79741
 Alpha virt. eigenvalues --    0.80723   0.80865   0.81574   0.81813   0.82266
 Alpha virt. eigenvalues --    0.83002   0.83733   0.84146   0.84452   0.84859
 Alpha virt. eigenvalues --    0.85430   0.85645   0.86001   0.86435   0.86733
 Alpha virt. eigenvalues --    0.87091   0.87439   0.87840   0.88426   0.88954
 Alpha virt. eigenvalues --    0.89226   0.89674   0.91046   0.92317   0.92617
 Alpha virt. eigenvalues --    0.95281   0.97190   0.98698   1.00543   1.02338
 Alpha virt. eigenvalues --    1.03348   1.07600   1.09055   1.10655   1.12467
 Alpha virt. eigenvalues --    1.14581   1.15513   1.16651   1.17762   1.19429
 Alpha virt. eigenvalues --    1.24289   1.28689   1.31217   1.33360   1.34259
 Alpha virt. eigenvalues --    1.35402   1.37246   1.39479   1.40263   1.41385
 Alpha virt. eigenvalues --    1.44603   1.46251   1.55298   1.65711   1.65789
 Alpha virt. eigenvalues --    1.68537   1.70545   1.71430   1.78696   1.87207
 Alpha virt. eigenvalues --    1.88829   1.95529   1.97871   1.99110   2.05321
 Alpha virt. eigenvalues --    2.20307   2.21096   2.22817   2.23806   2.25668
 Alpha virt. eigenvalues --    2.26512   2.27986   2.28440   2.52324   2.54475
 Alpha virt. eigenvalues --    2.68555   2.72187   2.87298   2.92062   3.00273
 Alpha virt. eigenvalues --    3.05389   3.06992   3.14512   3.42889   3.49878
          Condensed to atoms (all electrons):
 Mulliken charges:
               1
     1  O   -0.485978
     2  C    0.118451
     3  C   -0.125260
     4  Cl  -0.026228
     5  Cl  -0.052681
     6  Cl  -0.005002
     7  H    0.332932
     8  H    0.136440
     9  H    0.153483
    10  O   -0.493921
    11  C    0.116291
    12  C   -0.109638
    13  Cl  -0.044023
    14  Cl  -0.031467
    15  Cl  -0.068201
    16  H    0.339489
    17  H    0.128357
    18  H    0.116958
 Sum of Mulliken charges =   0.00000
 Mulliken charges with hydrogens summed into heavy atoms:
               1
     1  O   -0.153046
     2  C    0.408374
     3  C   -0.125260
     4  Cl  -0.026228
     5  Cl  -0.052681
     6  Cl  -0.005002
    10  O   -0.154432
    11  C    0.361605
    12  C   -0.109638
    13  Cl  -0.044023
    14  Cl  -0.031467
    15  Cl  -0.068201
 Electronic spatial extent (au):  <R**2>=           4796.7643
 Charge=              0.0000 electrons
 Dipole moment (field-independent basis, Debye):
    X=             -1.6836    Y=              1.9261    Z=              1.3461  Tot=              2.8908
 Evaluate density.
 Using the total density.
 Monte-Carlo method of calculating molar volume:
 based on  0.001 e/bohr**3 density envelope.
 Number of points per bohr**3 =  100 CutOff= 1.00D-04
 Using the SCF density.
 There are      2374 points.  Will hold      2374 in memory.
 LenV=  1048009374 MDV=  1048576000.
 Box volume =13387.153 fraction occupied=0.127
 Integrated density= 5.8429273113923685D+01 error=-8.9570726886076315D+01
 Molar volume = 1702.999 bohr**3/mol (151.974 cm**3/mol)
 Recommended a0 for SCRF calculation =  4.81 angstrom (  9.10 bohr)
   1 Symmetry operations used in ECPInt.
 ECPInt:  NShTT=    4656 NPrTT=   21144 LenC2=    4268 LenP2D=   12826.
 LDataN:  DoStor=T MaxTD1= 5 Len=  102
 Calling FoFJK, ICntrl=      2127 FMM=F ISym2X=0 I1Cent= 0 IOpClX= 0 NMat=1 NMatS=1 NMatT=0.

 GradGradGradGradGradGradGradGradGradGradGradGradGradGradGradGradGradGrad
 FormGI is forming the generalized inverse of G from B-inverse, IUseBI=4.
 Internal  Forces:  Max     0.014091223 RMS     0.004187821
 Step number   1 out of a maximum of   86
 All quantities printed in internal units (Hartrees-Bohrs-Radians)
 Mixed Optimization -- RFO/linear search
 Second derivative matrix not updated -- first step.
 ITU=  0
     Eigenvalues ---    0.00230   0.00249   0.00334   0.01299   0.01350
     Eigenvalues ---    0.01789   0.01941   0.03191   0.04543   0.04856
     Eigenvalues ---    0.05380   0.05711   0.06075   0.08516   0.08618
     Eigenvalues ---    0.08737   0.08967   0.09595   0.11650   0.12898
     Eigenvalues ---    0.13697   0.14029   0.16000   0.16000   0.22039
     Eigenvalues ---    0.22136   0.25000   0.25000   0.25000   0.25000
     Eigenvalues ---    0.25000   0.25000   0.27109   0.27973   0.28161
     Eigenvalues ---    0.28248   0.28459   0.28525   0.28603   0.29180
     Eigenvalues ---    0.33744   0.33822   0.34266   0.34476   0.46867
     Eigenvalues ---    0.48896   0.52225   0.53505
 Linear search not attempted -- first point.
 Maximum step size (   0.300) exceeded in Quadratic search.
    -- Step size scaled by   0.700
 Iteration  1 RMS(Cart)=  0.27707682 RMS(Int)=  0.01772874
 Iteration  2 RMS(Cart)=  0.08377425 RMS(Int)=  0.00172101
 Iteration  3 RMS(Cart)=  0.00413348 RMS(Int)=  0.00061001
 Iteration  4 RMS(Cart)=  0.00000390 RMS(Int)=  0.00061001
 Iteration  5 RMS(Cart)=  0.00000000 RMS(Int)=  0.00061001
 Variable       Old X    -DE/DX   Delta X   Delta X   Delta X     New X
                                 (Linear)    (Quad)   (Total)
    R1        2.63166   0.00536   0.00000   0.00779   0.00778   2.63944
    R2        1.83185   0.00116   0.00000   0.00148   0.00148   1.83333
    R3        3.53449   0.00077   0.00000   0.00807   0.00812   3.54261
    R4        2.89628   0.00202   0.00000   0.00464   0.00464   2.90092
    R5        2.07631   0.00472   0.00000   0.00941   0.00941   2.08572
    R6        2.06535   0.00494   0.00000   0.00966   0.00966   2.07501
    R7        3.34847   0.00398   0.00000   0.00937   0.00937   3.35783
    R8        3.37828   0.00491   0.00000   0.01209   0.01209   3.39037
    R9        3.35299  -0.00007   0.00000  -0.00017  -0.00017   3.35282
   R10        2.60996   0.00252   0.00000   0.00351   0.00351   2.61347
   R11        1.84385   0.00276   0.00000   0.00362   0.00354   1.84738
   R12        2.90839   0.00347   0.00000   0.00812   0.00812   2.91651
   R13        2.06883   0.00470   0.00000   0.00924   0.00924   2.07807
   R14        2.07765   0.00574   0.00000   0.01146   0.01146   2.08911
   R15        3.35898   0.00468   0.00000   0.01119   0.01119   3.37017
   R16        3.34706   0.00430   0.00000   0.01008   0.01008   3.35714
   R17        3.35488   0.00927   0.00000   0.02202   0.02202   3.37691
    A1        1.90739   0.00037   0.00000   0.01476   0.01243   1.91982
    A2        2.01779   0.00726   0.00000   0.03842   0.03700   2.05479
    A3        1.99541  -0.00329   0.00000  -0.00364  -0.00401   1.99139
    A4        1.95875   0.00940   0.00000   0.03088   0.03083   1.98958
    A5        1.94656  -0.00212   0.00000  -0.00333  -0.00315   1.94341
    A6        1.86244  -0.00085   0.00000   0.00797   0.00801   1.87044
    A7        1.88477  -0.00399   0.00000  -0.01738  -0.01749   1.86728
    A8        1.90415  -0.00364   0.00000  -0.01285  -0.01313   1.89102
    A9        1.90648   0.00109   0.00000  -0.00600  -0.00622   1.90026
   A10        1.91365  -0.00615   0.00000  -0.01878  -0.01887   1.89478
   A11        1.90219  -0.00305   0.00000  -0.00722  -0.00729   1.89490
   A12        1.93728  -0.00106   0.00000  -0.00129  -0.00129   1.93599
   A13        1.90099   0.00355   0.00000   0.00628   0.00614   1.90713
   A14        1.91170   0.00336   0.00000   0.00734   0.00729   1.91899
   A15        1.89758   0.00350   0.00000   0.01406   0.01405   1.91163
   A16        1.92849   0.01110   0.00000   0.04495   0.04495   1.97344
   A17        1.97301   0.01409   0.00000   0.04624   0.04615   2.01916
   A18        1.86473  -0.00174   0.00000  -0.00071  -0.00019   1.86454
   A19        1.96785  -0.00272   0.00000   0.00624   0.00594   1.97380
   A20        1.87575  -0.00741   0.00000  -0.03468  -0.03477   1.84099
   A21        1.87845  -0.00403   0.00000  -0.01007  -0.01071   1.86774
   A22        1.90107   0.00128   0.00000  -0.01084  -0.01135   1.88971
   A23        1.91015  -0.00666   0.00000  -0.02299  -0.02306   1.88710
   A24        1.93079  -0.00122   0.00000  -0.00187  -0.00201   1.92878
   A25        1.93240   0.00280   0.00000   0.01137   0.01135   1.94375
   A26        1.90816   0.00193   0.00000  -0.00242  -0.00259   1.90557
   A27        1.88640   0.00127   0.00000   0.00079   0.00085   1.88725
   A28        1.89522   0.00202   0.00000   0.01533   0.01524   1.91046
   A29        3.15129   0.00544   0.00000   0.15873   0.15792   3.30921
   A30        3.17296   0.00836   0.00000   0.22791   0.22751   3.40047
    D1        0.95689   0.00059   0.00000   0.01120   0.01045   0.96734
    D2       -1.16062   0.00060   0.00000   0.01413   0.01342  -1.14720
    D3        3.04178   0.00100   0.00000   0.01834   0.01781   3.05959
    D4       -1.32379  -0.00145   0.00000  -0.03098  -0.03044  -1.35423
    D5        2.84189  -0.00144   0.00000  -0.02805  -0.02747   2.81442
    D6        0.76110  -0.00103   0.00000  -0.02383  -0.02308   0.73803
    D7        2.69521   0.00684   0.00000   0.21980   0.22257   2.91778
    D8        0.45127   0.00003   0.00000   0.09653   0.09376   0.54503
    D9       -3.10836   0.00086   0.00000   0.01172   0.01170  -3.09666
   D10       -1.02904  -0.00030   0.00000   0.00388   0.00392  -1.02512
   D11        1.06039   0.00143   0.00000   0.01584   0.01581   1.07620
   D12       -0.95577   0.00154   0.00000   0.01559   0.01544  -0.94033
   D13        1.12355   0.00039   0.00000   0.00775   0.00766   1.13121
   D14       -3.07021   0.00211   0.00000   0.01971   0.01955  -3.05066
   D15        1.11450  -0.00147   0.00000  -0.00870  -0.00860   1.10590
   D16       -3.08936  -0.00263   0.00000  -0.01654  -0.01638  -3.10574
   D17       -0.99994  -0.00090   0.00000  -0.00458  -0.00449  -1.00443
   D18       -1.24194  -0.00517   0.00000  -0.08642  -0.08653  -1.32847
   D19        2.98152  -0.00297   0.00000  -0.06974  -0.06993   2.91159
   D20        0.89364  -0.00182   0.00000  -0.05958  -0.05928   0.83437
   D21       -3.03263   0.00116   0.00000   0.00957   0.00969  -3.02294
   D22       -0.92904  -0.00151   0.00000  -0.00945  -0.00924  -0.93828
   D23        1.17289   0.00206   0.00000   0.01606   0.01628   1.18917
   D24       -0.97935   0.00238   0.00000   0.01306   0.01267  -0.96668
   D25        1.12423  -0.00029   0.00000  -0.00596  -0.00626   1.11797
   D26       -3.05702   0.00328   0.00000   0.01955   0.01927  -3.03776
   D27        1.06579  -0.00205   0.00000  -0.02281  -0.02274   1.04306
   D28       -3.11381  -0.00472   0.00000  -0.04183  -0.04166   3.12771
   D29       -1.01188  -0.00115   0.00000  -0.01632  -0.01614  -1.02802
         Item               Value     Threshold  Converged?
 Maximum Force            0.014091     0.000015     NO 
 RMS     Force            0.004188     0.000010     NO 
 Maximum Displacement     1.169023     0.000060     NO 
 RMS     Displacement     0.351663     0.000040     NO 
 GradGradGradGradGradGradGradGradGradGradGradGradGradGradGradGradGradGrad

                    Distance matrix (angstroms):
                    1          2          3          4          5
     1  O    0.000000
     2  C    1.396732   0.000000
     3  C    2.459923   1.535103   0.000000
     4  Cl   3.985263   2.692692   1.776889   0.000000
     5  Cl   3.069309   2.707312   1.794106   2.912106   0.000000
     6  Cl   3.139543   2.729440   1.774235   2.908018   2.914589
     7  H    0.970158   1.954193   2.623416   4.236258   2.603247
     8  H    2.071590   1.103718   2.136531   2.779796   2.894530
     9  H    2.015439   1.098046   2.150220   2.886933   3.678880
    10  O    2.824768   3.680705   4.305034   5.779870   5.216908
    11  C    3.667175   4.775300   5.358797   6.962088   5.941880
    12  C    4.369715   5.432659   5.631359   7.300849   5.918379
    13  Cl   5.867263   7.055881   7.336575   9.041015   7.444405
    14  Cl   5.235234   5.967634   5.854742   7.318988   6.379844
    15  Cl   3.856538   4.903198   4.866442   6.609823   4.655397
    16  H    1.874669   2.811056   3.477266   5.036919   4.306143
    17  H    4.601412   5.628321   6.254905   7.768852   6.975019
    18  H    3.587278   4.869538   5.631899   7.284268   6.016326
                    6          7          8          9         10
     6  Cl   0.000000
     7  H    3.412001   0.000000
     8  H    3.681152   2.378168   0.000000
     9  H    2.881187   2.837523   1.791116   0.000000
    10  O    3.659524   3.397053   4.647509   3.496855   0.000000
    11  C    4.678887   3.974645   5.674556   4.762690   1.382988
    12  C    4.696424   4.420373   6.378246   5.597332   2.478933
    13  Cl   6.462309   5.817203   7.927246   7.248946   3.987257
    14  Cl   4.462447   5.422295   7.028942   5.957093   3.084977
    15  Cl   4.213962   3.537146   5.730087   5.401873   3.253325
    16  H    3.118334   2.437372   3.764872   2.828939   0.977593
    17  H    5.458278   5.005587   6.534219   5.450803   2.000648
    18  H    5.265103   3.762166   5.616615   4.990499   2.081830
                   11         12         13         14         15
    11  C    0.000000
    12  C    1.543349   0.000000
    13  Cl   2.697185   1.783416   0.000000
    14  Cl   2.731181   1.776523   2.901464   0.000000
    15  Cl   2.754097   1.786982   2.890918   2.909414   0.000000
    16  H    1.981894   2.841232   4.429609   3.590196   3.038707
    17  H    1.099669   2.120659   2.770389   2.897771   3.686565
    18  H    1.105507   2.145350   2.837196   3.687847   2.899928
                   16         17         18
    16  H    0.000000
    17  H    2.846981   0.000000
    18  H    2.335120   1.787107   0.000000
 Framework group  C1[X(C4H6Cl6O2)]
 Deg. of freedom    48
                         Standard orientation:                         
 ---------------------------------------------------------------------
 Center     Atomic      Atomic             Coordinates (Angstroms)
 Number     Number       Type             X           Y           Z
 ---------------------------------------------------------------------
      1          8           0       -1.165914    0.906114    1.589089
      2          6           0       -2.416107    0.294496    1.471622
      3          6           0       -2.817859   -0.032329    0.026520
      4         17           0       -4.451201   -0.731898    0.037921
      5         17           0       -2.832866    1.491206   -0.920810
      6         17           0       -1.675040   -1.174892   -0.705891
      7          1           0       -1.135013    1.705913    1.040845
      8          1           0       -3.214996    0.929008    1.892766
      9          1           0       -2.372103   -0.644605    2.038948
     10          8           0        1.100061   -0.779519    1.646684
     11          6           0        2.335651   -0.178800    1.488224
     12          6           0        2.813435   -0.005677    0.030940
     13         17           0        4.491569    0.597037    0.065233
     14         17           0        2.769061   -1.560372   -0.827541
     15         17           0        1.811971    1.187055   -0.845282
     16          1           0        0.354271   -0.181139    1.443145
     17          1           0        3.074642   -0.840617    1.962737
     18          1           0        2.399917    0.814208    1.969836
 ---------------------------------------------------------------------
 Rotational constants (GHZ):           0.8831104           0.1798247           0.1753969
   204 basis functions,   396 primitive gaussians,   216 cartesian basis functions
    74 alpha electrons       74 beta electrons
       nuclear repulsion energy      1451.8585248237 Hartrees.
 NAtoms=   18 NActive=   18 NUniq=   18 SFac= 1.00D+00 NAtFMM=   60 NAOKFM=F Big=F
 Nuclear repulsion after empirical dispersion term =     1451.8480563915 Hartrees.
   1 Symmetry operations used in ECPInt.
 ECPInt:  NShTT=    4656 NPrTT=   21144 LenC2=    4173 LenP2D=   12403.
 LDataN:  DoStor=T MaxTD1= 4 Len=   56
 Initial guess from the checkpoint file:  "19.chk"
 B after Tr=    -0.000000    0.000000   -0.000000
         Rot=    0.999768    0.020248    0.005607   -0.004640 Ang=   2.47 deg.
 ExpMin= 1.22D-01 ExpMax= 1.04D+04 ExpMxC= 1.57D+03 IAcc=3 IRadAn=         5 AccDes= 0.00D+00
 Harris functional with IExCor= 4639 and IRadAn=       5 diagonalized for initial guess.
 HarFok:  IExCor= 4639 AccDes= 0.00D+00 IRadAn=         5 IDoV= 1 UseB2=F ITyADJ=14
 ICtDFT=  3500011 ScaDFX=  1.000000  1.000000  1.000000  1.000000
 FoFCou: FMM=F IPFlag=           0 FMFlag=      100000 FMFlg1=           0
         NFxFlg=           0 DoJE=T BraDBF=F KetDBF=T FulRan=T
         wScrn=  0.000000 ICntrl=       500 IOpCl=  0 I1Cent=   200000004 NGrid=           0
         NMat0=    1 NMatS0=      1 NMatT0=    0 NMatD0=    1 NMtDS0=    0 NMtDT0=    0
 Petite list used in FoFCou.
     Minimum is close to point  4 DX=  2.15D-02 DF= -2.49D-05 DXR=  1.76D-02 DFR=  3.10D-04 which will be used.
     Accept linear search using points  2 and  3.
     Accept linear search using points  1 and  2.
     Minimum is close to point  2 DX= -6.37D-02 DF= -3.06D-05 DXR=  6.15D-02 DFR=  4.44D-03 which will be used.
     Accept linear search using points  1 and  2.
     Accept linear search using points  1 and  2.
     Accept linear search using points  1 and  2.
     Accept linear search using points  2 and  3.
     Accept linear search using points  1 and  2.
     Accept linear search using points  1 and  2.
     Minimum is close to point  2 DX= -1.73D-05 DF=  0.00D+00 DXR=  1.73D-05 DFR=  0.00D+00 which will be used.
 SCF Done:  E(RwB97XD) =  -3066.42607064     a.u. after   13 cycles
            Convg  =    0.2119D-08                    48 Fock formations.
              S**2 =  0.0000                  -V/T =  2.0026
   1 Symmetry operations used in ECPInt.
 ECPInt:  NShTT=    4656 NPrTT=   21144 LenC2=    4173 LenP2D=   12403.
 LDataN:  DoStor=T MaxTD1= 5 Len=  102
 Calling FoFJK, ICntrl=      2127 FMM=F ISym2X=0 I1Cent= 0 IOpClX= 0 NMat=1 NMatS=1 NMatT=0.

 GradGradGradGradGradGradGradGradGradGradGradGradGradGradGradGradGradGrad
 Using GEDIIS/GDIIS optimizer.
 FormGI is forming the generalized inverse of G from B-inverse, IUseBI=4.
 Internal  Forces:  Max     0.014823976 RMS     0.003274580
 Step number   2 out of a maximum of   86
 All quantities printed in internal units (Hartrees-Bohrs-Radians)
 Mixed Optimization -- RFO/linear search
 Trust test=-1.22D-01 RLast= 4.13D-01 DXMaxT set to 1.50D-01
 ITU= -1  0
 Use linear search instead of GDIIS.
     Eigenvalues ---    0.00248   0.00257   0.00335   0.01324   0.01719
     Eigenvalues ---    0.01797   0.02486   0.02932   0.04390   0.04838
     Eigenvalues ---    0.05407   0.05786   0.06196   0.08622   0.08799
     Eigenvalues ---    0.09041   0.09208   0.09731   0.11651   0.13068
     Eigenvalues ---    0.14123   0.14254   0.15818   0.17836   0.22035
     Eigenvalues ---    0.23150   0.24577   0.25000   0.25000   0.25000
     Eigenvalues ---    0.25000   0.26894   0.27558   0.27988   0.28247
     Eigenvalues ---    0.28323   0.28431   0.28511   0.29161   0.32674
     Eigenvalues ---    0.33380   0.33793   0.34173   0.34424   0.47137
     Eigenvalues ---    0.50866   0.52923   0.53497
 Quartic linear search produced a step of -0.69446.
 Maximum step size (   0.150) exceeded in Quadratic search.
    -- Step size scaled by   0.906
 Iteration  1 RMS(Cart)=  0.20468298 RMS(Int)=  0.04321781
 Iteration  2 RMS(Cart)=  0.16928017 RMS(Int)=  0.01060264
 Iteration  3 RMS(Cart)=  0.05025589 RMS(Int)=  0.00056432
 Iteration  4 RMS(Cart)=  0.00082931 RMS(Int)=  0.00024162
 Iteration  5 RMS(Cart)=  0.00000027 RMS(Int)=  0.00024162
 Variable       Old X    -DE/DX   Delta X   Delta X   Delta X     New X
                                 (Linear)    (Quad)   (Total)
    R1        2.63944  -0.00409  -0.00540   0.00671   0.00131   2.64075
    R2        1.83333   0.00070  -0.00103   0.00220   0.00118   1.83451
    R3        3.54261  -0.00218  -0.00564  -0.00458  -0.01023   3.53238
    R4        2.90092  -0.00033  -0.00323   0.00514   0.00191   2.90283
    R5        2.08572   0.00142  -0.00654   0.01252   0.00598   2.09171
    R6        2.07501   0.00139  -0.00671   0.01278   0.00607   2.08108
    R7        3.35783   0.00107  -0.00650   0.01222   0.00571   3.36355
    R8        3.39037   0.00115  -0.00840   0.01554   0.00714   3.39751
    R9        3.35282   0.00014   0.00012  -0.00004   0.00008   3.35289
   R10        2.61347  -0.00942  -0.00244  -0.00172  -0.00416   2.60931
   R11        1.84738  -0.00280  -0.00246   0.00269   0.00024   1.84762
   R12        2.91651  -0.00283  -0.00564   0.00655   0.00091   2.91741
   R13        2.07807   0.00174  -0.00642   0.01260   0.00618   2.08425
   R14        2.08911   0.00177  -0.00796   0.01528   0.00732   2.09643
   R15        3.37017   0.00262  -0.00777   0.01608   0.00831   3.37848
   R16        3.35714   0.00066  -0.00700   0.01263   0.00562   3.36276
   R17        3.37691   0.00253  -0.01529   0.02876   0.01346   3.39037
    A1        1.91982  -0.00055  -0.00864   0.00265  -0.00498   1.91484
    A2        2.05479  -0.00102  -0.02570   0.03247   0.00735   2.06214
    A3        1.99139   0.00104   0.00279  -0.01127  -0.00808   1.98331
    A4        1.98958  -0.00583  -0.02141   0.02606   0.00465   1.99423
    A5        1.94341   0.00234   0.00219   0.00078   0.00286   1.94627
    A6        1.87044   0.00155  -0.00556   0.00565   0.00008   1.87052
    A7        1.86728   0.00186   0.01215  -0.01485  -0.00265   1.86463
    A8        1.89102   0.00092   0.00912  -0.01609  -0.00676   1.88426
    A9        1.90026  -0.00076   0.00432  -0.00297   0.00149   1.90175
   A10        1.89478  -0.00102   0.01310  -0.02196  -0.00881   1.88597
   A11        1.89490  -0.00075   0.00506  -0.01013  -0.00504   1.88986
   A12        1.93599  -0.00158   0.00090  -0.00435  -0.00345   1.93254
   A13        1.90713   0.00137  -0.00427   0.01051   0.00631   1.91344
   A14        1.91899   0.00177  -0.00506   0.01181   0.00677   1.92576
   A15        1.91163   0.00021  -0.00976   0.01381   0.00403   1.91566
   A16        1.97344  -0.01482  -0.03121   0.02231  -0.00891   1.96453
   A17        2.01916  -0.01157  -0.03205   0.03477   0.00276   2.02192
   A18        1.86454   0.00451   0.00013   0.01171   0.01147   1.87601
   A19        1.97380   0.00420  -0.00413   0.00166  -0.00228   1.97152
   A20        1.84099   0.00395   0.02414  -0.02677  -0.00260   1.83838
   A21        1.86774   0.00037   0.00744  -0.01937  -0.01151   1.85623
   A22        1.88971  -0.00096   0.00788  -0.00581   0.00241   1.89212
   A23        1.88710  -0.00050   0.01601  -0.02403  -0.00800   1.87910
   A24        1.92878   0.00014   0.00140  -0.00309  -0.00161   1.92717
   A25        1.94375  -0.00835  -0.00788   0.00024  -0.00765   1.93611
   A26        1.90557   0.00210   0.00180   0.00476   0.00668   1.91225
   A27        1.88725   0.00491  -0.00059   0.00870   0.00804   1.89529
   A28        1.91046   0.00196  -0.01058   0.01334   0.00281   1.91327
   A29        3.30921  -0.00163  -0.10967  -0.04101  -0.15043   3.15878
   A30        3.40047  -0.00533  -0.15800  -0.09382  -0.25169   3.14878
    D1        0.96734   0.00074  -0.00726   0.01177   0.00470   0.97204
    D2       -1.14720   0.00077  -0.00932   0.01176   0.00261  -1.14458
    D3        3.05959  -0.00060  -0.01237   0.01144  -0.00088   3.05871
    D4       -1.35423   0.00078   0.02114  -0.00621   0.01485  -1.33938
    D5        2.81442   0.00081   0.01908  -0.00621   0.01276   2.82718
    D6        0.73803  -0.00056   0.01603  -0.00653   0.00927   0.74729
    D7        2.91778  -0.00102  -0.15456  -0.32798  -0.48349   2.43429
    D8        0.54503   0.00129  -0.06511  -0.33290  -0.39707   0.14796
    D9       -3.09666  -0.00072  -0.00812  -0.01271  -0.02083  -3.11749
   D10       -1.02512  -0.00008  -0.00272  -0.01831  -0.02106  -1.04618
   D11        1.07620  -0.00127  -0.01098  -0.01043  -0.02141   1.05479
   D12       -0.94033  -0.00023  -0.01072  -0.00540  -0.01603  -0.95637
   D13        1.13121   0.00042  -0.00532  -0.01101  -0.01627   1.11494
   D14       -3.05066  -0.00077  -0.01358  -0.00313  -0.01661  -3.06727
   D15        1.10590   0.00035   0.00597  -0.02504  -0.01913   1.08677
   D16       -3.10574   0.00099   0.01138  -0.03064  -0.01937  -3.12511
   D17       -1.00443  -0.00020   0.00312  -0.02276  -0.01971  -1.02414
   D18       -1.32847   0.00374   0.06009  -0.00848   0.05172  -1.27676
   D19        2.91159   0.00243   0.04856  -0.00338   0.04530   2.95689
   D20        0.83437  -0.00179   0.04117  -0.00486   0.03609   0.87046
   D21       -3.02294  -0.00245  -0.00673  -0.01208  -0.01887  -3.04182
   D22       -0.93828  -0.00013   0.00642  -0.02285  -0.01657  -0.95486
   D23        1.18917  -0.00325  -0.01131  -0.00785  -0.01931   1.16986
   D24       -0.96668  -0.00067  -0.00880   0.00375  -0.00478  -0.97146
   D25        1.11797   0.00166   0.00435  -0.00703  -0.00248   1.11549
   D26       -3.03776  -0.00146  -0.01338   0.00798  -0.00521  -3.04297
   D27        1.04306   0.00026   0.01579  -0.02410  -0.00836   1.03470
   D28        3.12771   0.00258   0.02893  -0.03487  -0.00606   3.12165
   D29       -1.02802  -0.00054   0.01121  -0.01987  -0.00879  -1.03681
         Item               Value     Threshold  Converged?
 Maximum Force            0.014824     0.000015     NO 
 RMS     Force            0.003275     0.000010     NO 
 Maximum Displacement     1.265386     0.000060     NO 
 RMS     Displacement     0.380681     0.000040     NO 
 GradGradGradGradGradGradGradGradGradGradGradGradGradGradGradGradGradGrad

                    Distance matrix (angstroms):
                    1          2          3          4          5
     1  O    0.000000
     2  C    1.397425   0.000000
     3  C    2.465057   1.536114   0.000000
     4  Cl   3.985461   2.687531   1.779913   0.000000
     5  Cl   3.083896   2.706408   1.797886   2.924171   0.000000
     6  Cl   3.128663   2.727057   1.774275   2.917417   2.921868
     7  H    0.970780   1.952017   2.627690   4.243467   2.618672
     8  H    2.076642   1.106883   2.137694   2.778411   2.881650
     9  H    2.018496   1.101258   2.148414   2.864203   3.679675
    10  O    2.846867   3.719195   4.253800   5.752842   5.128328
    11  C    3.612031   4.675833   5.025444   6.668010   5.507418
    12  C    4.091889   4.973810   4.857231   6.504467   5.055699
    13  Cl   5.619259   6.628679   6.506567   8.179997   6.405406
    14  Cl   4.930613   5.420707   5.000113   6.354815   5.538339
    15  Cl   3.371460   4.143479   3.804753   5.510013   3.496970
    16  H    1.869257   2.812795   3.477082   5.029312   4.317862
    17  H    4.617876   5.632921   5.988034   7.559714   6.566169
    18  H    3.593587   4.857852   5.368033   7.084286   5.600340
                    6          7          8          9         10
     6  Cl   0.000000
     7  H    3.397029   0.000000
     8  H    3.681847   2.378592   0.000000
     9  H    2.883046   2.839253   1.797259   0.000000
    10  O    3.524032   3.357778   4.710266   3.597393   0.000000
    11  C    4.187347   3.794130   5.627769   4.780276   1.380788
    12  C    3.780287   4.039157   5.948881   5.254503   2.479661
    13  Cl   5.475980   5.403669   7.533353   6.983134   3.985715
    14  Cl   3.437879   5.076870   6.492114   5.474176   3.096003
    15  Cl   3.194099   2.971589   4.957347   4.760844   3.239257
    16  H    3.102014   2.427256   3.770334   2.839518   0.977720
    17  H    4.986277   4.871842   6.607320   5.599132   2.009554
    18  H    4.840015   3.599746   5.669553   5.113276   2.081437
                   11         12         13         14         15
    11  C    0.000000
    12  C    1.543829   0.000000
    13  Cl   2.693464   1.787814   0.000000
    14  Cl   2.732572   1.779498   2.914367   0.000000
    15  Cl   2.753395   1.794106   2.908675   2.920560   0.000000
    16  H    1.974425   2.813943   4.404749   3.570397   2.985437
    17  H    1.102938   2.121394   2.764741   2.895836   3.690455
    18  H    1.109382   2.139776   2.817164   3.687795   2.891546
                   16         17         18
    16  H    0.000000
    17  H    2.854130   0.000000
    18  H    2.336661   1.794457   0.000000
 Framework group  C1[X(C4H6Cl6O2)]
 Deg. of freedom    48
                         Standard orientation:                         
 ---------------------------------------------------------------------
 Center     Atomic      Atomic             Coordinates (Angstroms)
 Number     Number       Type             X           Y           Z
 ---------------------------------------------------------------------
      1          8           0       -1.107783    0.806002    1.893247
      2          6           0       -2.308343    0.206078    1.503960
      3          6           0       -2.430660   -0.038536   -0.007611
      4         17           0       -4.025010   -0.764788   -0.321771
      5         17           0       -2.313240    1.547124   -0.846830
      6         17           0       -1.139872   -1.115048   -0.575978
      7          1           0       -0.985083    1.637924    1.408207
      8          1           0       -3.182380    0.816490    1.801693
      9          1           0       -2.363768   -0.769706    2.011448
     10          8           0        1.233406   -0.809423    2.011095
     11          6           0        2.352941   -0.161727    1.527665
     12          6           0        2.426404    0.001673   -0.005734
     13         17           0        4.021114    0.706969   -0.400370
     14         17           0        2.258802   -1.578266   -0.807181
     15         17           0        1.147584    1.114188   -0.593735
     16          1           0        0.428545   -0.256777    1.958964
     17          1           0        3.231308   -0.771359    1.798390
     18          1           0        2.484940    0.852826    1.956600
 ---------------------------------------------------------------------
 Rotational constants (GHZ):           0.8415715           0.2280243           0.2234799
   204 basis functions,   396 primitive gaussians,   216 cartesian basis functions
    74 alpha electrons       74 beta electrons
       nuclear repulsion energy      1529.5946182995 Hartrees.
 NAtoms=   18 NActive=   18 NUniq=   18 SFac= 1.00D+00 NAtFMM=   60 NAOKFM=F Big=F
 Nuclear repulsion after empirical dispersion term =     1529.5829042564 Hartrees.
   1 Symmetry operations used in ECPInt.
 ECPInt:  NShTT=    4656 NPrTT=   21144 LenC2=    4274 LenP2D=   12806.
 LDataN:  DoStor=T MaxTD1= 4 Len=   56
 Lowest energy guess from the checkpoint file:  "19.chk"
 B after Tr=     0.000000    0.000000   -0.000000
         Rot=    0.999892    0.007276    0.000881   -0.012749 Ang=   1.69 deg.
 B after Tr=     0.000000    0.000000    0.000000
         Rot=    0.999899   -0.011894   -0.005347   -0.005715 Ang=  -1.63 deg.
     Accept linear search using points  3 and  4.
     Accept linear search using points  2 and  3.
     Accept linear search using points  1 and  2.
     Minimum is close to point  2 DX=  4.77D-02 DF= -5.61D-06 DXR=  7.37D-02 DFR=  5.46D-03 which will be used.
     Accept linear search using points  1 and  2.
     Minimum is close to point  3 DX=  1.04D-01 DF= -4.47D-06 DXR=  9.40D-02 DFR=  8.91D-03 which will be used.
     Accept linear search using points  1 and  2.
     Accept linear search using points  2 and  3.
     Accept linear search using points  1 and  2.
     Accept linear search using points  3 and  4.
     Minimum is close to point  3 DX=  4.55D-03 DF= -6.90D-09 DXR=  1.49D-02 DFR=  2.23D-04 which will be used.
     Accept linear search using points  1 and  2.
     Minimum is close to point  2 DX= -5.61D-05 DF=  0.00D+00 DXR=  5.61D-05 DFR=  0.00D+00 which will be used.
 SCF Done:  E(RwB97XD) =  -3066.42541230     a.u. after   14 cycles
            Convg  =    0.5061D-09                    51 Fock formations.
              S**2 =  0.0000                  -V/T =  2.0026
   1 Symmetry operations used in ECPInt.
 ECPInt:  NShTT=    4656 NPrTT=   21144 LenC2=    4274 LenP2D=   12806.
 LDataN:  DoStor=T MaxTD1= 5 Len=  102
 Calling FoFJK, ICntrl=      2127 FMM=F ISym2X=0 I1Cent= 0 IOpClX= 0 NMat=1 NMatS=1 NMatT=0.

 GradGradGradGradGradGradGradGradGradGradGradGradGradGradGradGradGradGrad
 Using GEDIIS/GDIIS optimizer.
 FormGI is forming the generalized inverse of G from B-inverse, IUseBI=4.
 Internal  Forces:  Max     0.023309904 RMS     0.005938479
 Step number   3 out of a maximum of   86
 All quantities printed in internal units (Hartrees-Bohrs-Radians)
 Mixed Optimization -- RFO/linear search
 Iteration  1 RMS(Cart)=  0.23952073 RMS(Int)=  0.04240428
 Iteration  2 RMS(Cart)=  0.14282089 RMS(Int)=  0.00915943
 Iteration  3 RMS(Cart)=  0.03858692 RMS(Int)=  0.00036404
 Iteration  4 RMS(Cart)=  0.00076158 RMS(Int)=  0.00000005
 Iteration  5 RMS(Cart)=  0.00000008 RMS(Int)=  0.00000000
 Trust test=-3.59D-01 RLast= 4.13D-01 DXMaxT set to 7.50D-02
 ITU= -1 -1  0
 Use linear search instead of GDIIS.
 Energy rises -- skip Quadratic/GDIIS search.
 Quartic linear search produced a step of -0.69446.
 Iteration  1 RMS(Cart)=  0.25055199 RMS(Int)=  0.01097173
 Iteration  2 RMS(Cart)=  0.04175254 RMS(Int)=  0.00047296
 Iteration  3 RMS(Cart)=  0.00035510 RMS(Int)=  0.00042936
 Iteration  4 RMS(Cart)=  0.00000012 RMS(Int)=  0.00042936
 Variable       Old X    -DE/DX   Delta X   Delta X   Delta X     New X
                                 (Linear)    (Quad)   (Total)
    R1        2.63944  -0.00409  -0.00540   0.00000  -0.00409   2.63535
    R2        1.83333   0.00070  -0.00103   0.00000   0.00015   1.83348
    R3        3.54261  -0.00218  -0.00564   0.00000  -0.01588   3.52673
    R4        2.90092  -0.00033  -0.00323   0.00000  -0.00132   2.89961
    R5        2.08572   0.00142  -0.00654   0.00000  -0.00055   2.08517
    R6        2.07501   0.00139  -0.00671   0.00000  -0.00064   2.07437
    R7        3.35783   0.00107  -0.00650   0.00000  -0.00079   3.35704
    R8        3.39037   0.00115  -0.00840   0.00000  -0.00125   3.38912
    R9        3.35282   0.00014   0.00012   0.00000   0.00019   3.35301
   R10        2.61347  -0.00942  -0.00244   0.00000  -0.00660   2.60687
   R11        1.84738  -0.00280  -0.00246   0.00000  -0.00218   1.84520
   R12        2.91651  -0.00283  -0.00564   0.00000  -0.00473   2.91177
   R13        2.07807   0.00174  -0.00642   0.00000  -0.00024   2.07783
   R14        2.08911   0.00177  -0.00796   0.00000  -0.00064   2.08847
   R15        3.37017   0.00262  -0.00777   0.00000   0.00054   3.37071
   R16        3.35714   0.00066  -0.00700   0.00000  -0.00138   3.35576
   R17        3.37691   0.00253  -0.01529   0.00000  -0.00183   3.37507
    A1        1.91982  -0.00055  -0.00864   0.00000  -0.01501   1.90481
    A2        2.05479  -0.00102  -0.02570   0.00000  -0.01864   2.03615
    A3        1.99139   0.00104   0.00279   0.00000  -0.00483   1.98657
    A4        1.98958  -0.00583  -0.02141   0.00000  -0.01677   1.97281
    A5        1.94341   0.00234   0.00219   0.00000   0.00499   1.94840
    A6        1.87044   0.00155  -0.00556   0.00000  -0.00557   1.86487
    A7        1.86728   0.00186   0.01215   0.00000   0.00959   1.87687
    A8        1.89102   0.00092   0.00912   0.00000   0.00244   1.89346
    A9        1.90026  -0.00076   0.00432   0.00000   0.00595   1.90621
   A10        1.89478  -0.00102   0.01310   0.00000   0.00438   1.89916
   A11        1.89490  -0.00075   0.00506   0.00000   0.00007   1.89498
   A12        1.93599  -0.00158   0.00090   0.00000  -0.00254   1.93345
   A13        1.90713   0.00137  -0.00427   0.00000   0.00215   1.90928
   A14        1.91899   0.00177  -0.00506   0.00000   0.00176   1.92075
   A15        1.91163   0.00021  -0.00976   0.00000  -0.00572   1.90591
   A16        1.97344  -0.01482  -0.03121   0.00000  -0.04012   1.93332
   A17        2.01916  -0.01157  -0.03205   0.00000  -0.02940   1.98976
   A18        1.86454   0.00451   0.00013   0.00000   0.01149   1.87603
   A19        1.97380   0.00420  -0.00413   0.00000  -0.00662   1.96717
   A20        1.84099   0.00395   0.02414   0.00000   0.02176   1.86275
   A21        1.86774   0.00037   0.00744   0.00000  -0.00399   1.86375
   A22        1.88971  -0.00096   0.00788   0.00000   0.01064   1.90035
   A23        1.88710  -0.00050   0.01601   0.00000   0.00808   1.89518
   A24        1.92878   0.00014   0.00140   0.00000  -0.00019   1.92859
   A25        1.94375  -0.00835  -0.00788   0.00000  -0.01553   1.92822
   A26        1.90557   0.00210   0.00180   0.00000   0.00857   1.91414
   A27        1.88725   0.00491  -0.00059   0.00000   0.00749   1.89474
   A28        1.91046   0.00196  -0.01058   0.00000  -0.00781   1.90264
   A29        3.30921  -0.00163  -0.10967   0.00000  -0.26062   3.04859
   A30        3.40047  -0.00533  -0.15800   0.00000  -0.40994   2.99053
    D1        0.96734   0.00074  -0.00726   0.00000  -0.00311   0.96423
    D2       -1.14720   0.00077  -0.00932   0.00000  -0.00725  -1.15445
    D3        3.05959  -0.00060  -0.01237   0.00000  -0.01387   3.04573
    D4       -1.35423   0.00078   0.02114   0.00000   0.03659  -1.31764
    D5        2.81442   0.00081   0.01908   0.00000   0.03245   2.84687
    D6        0.73803  -0.00056   0.01603   0.00000   0.02583   0.76386
    D7        2.91778  -0.00102  -0.15456   0.00000  -0.63595   2.28183
    D8        0.54503   0.00129  -0.06511   0.00000  -0.46429   0.08074
    D9       -3.09666  -0.00072  -0.00812   0.00000  -0.02892  -3.12558
   D10       -1.02512  -0.00008  -0.00272   0.00000  -0.02380  -1.04892
   D11        1.07620  -0.00127  -0.01098   0.00000  -0.03235   1.04385
   D12       -0.94033  -0.00023  -0.01072   0.00000  -0.02667  -0.96700
   D13        1.13121   0.00042  -0.00532   0.00000  -0.02155   1.10966
   D14       -3.05066  -0.00077  -0.01358   0.00000  -0.03010  -3.08076
   D15        1.10590   0.00035   0.00597   0.00000  -0.01322   1.09268
   D16       -3.10574   0.00099   0.01138   0.00000  -0.00810  -3.11384
   D17       -1.00443  -0.00020   0.00312   0.00000  -0.01665  -1.02108
   D18       -1.32847   0.00374   0.06009   0.00000   0.11172  -1.21675
   D19        2.91159   0.00243   0.04856   0.00000   0.09401   3.00561
   D20        0.83437  -0.00179   0.04117   0.00000   0.07720   0.91156
   D21       -3.02294  -0.00245  -0.00673   0.00000  -0.02558  -3.04852
   D22       -0.93828  -0.00013   0.00642   0.00000  -0.01018  -0.94846
   D23        1.18917  -0.00325  -0.01131   0.00000  -0.03058   1.15859
   D24       -0.96668  -0.00067  -0.00880   0.00000  -0.01341  -0.98009
   D25        1.11797   0.00166   0.00435   0.00000   0.00199   1.11996
   D26       -3.03776  -0.00146  -0.01338   0.00000  -0.01842  -3.05617
   D27        1.04306   0.00026   0.01579   0.00000   0.00728   1.05033
   D28        3.12771   0.00258   0.02893   0.00000   0.02268  -3.13280
   D29       -1.02802  -0.00054   0.01121   0.00000   0.00227  -1.02575
         Item               Value     Threshold  Converged?
 Maximum Force            0.023310     0.000015     NO 
 RMS     Force            0.005938     0.000010     NO 
 Maximum Displacement     0.893812     0.000060     NO 
 RMS     Displacement     0.286853     0.000040     NO 
 GradGradGradGradGradGradGradGradGradGradGradGradGradGradGradGradGradGrad

                    Distance matrix (angstroms):
                    1          2          3          4          5
     1  O    0.000000
     2  C    1.394567   0.000000
     3  C    2.444125   1.534406   0.000000
     4  Cl   3.978511   2.695992   1.776471   0.000000
     5  Cl   3.064552   2.706282   1.793444   2.913448   0.000000
     6  Cl   3.098270   2.726606   1.774338   2.909551   2.908228
     7  H    0.970237   1.942513   2.590089   4.217379   2.580055
     8  H    2.072933   1.103425   2.142959   2.806808   2.889622
     9  H    2.009284   1.097708   2.151173   2.886071   3.678735
    10  O    2.832953   3.684896   4.113957   5.630119   4.959629
    11  C    3.462940   4.490353   4.690208   6.349895   5.088043
    12  C    3.726970   4.513913   4.220480   5.856875   4.299196
    13  Cl   5.244414   6.138337   5.782514   7.409549   5.454853
    14  Cl   4.567279   4.911934   4.265993   5.553988   4.727696
    15  Cl   2.819946   3.477189   3.069465   4.771267   2.651474
    16  H    1.866263   2.786315   3.408572   4.963496   4.259937
    17  H    4.508246   5.486069   5.641780   7.232449   6.102297
    18  H    3.452245   4.693982   5.079015   6.815196   5.226527
                    6          7          8          9         10
     6  Cl   0.000000
     7  H    3.348965   0.000000
     8  H    3.684457   2.371486   0.000000
     9  H    2.888105   2.825826   1.794403   0.000000
    10  O    3.302258   3.304636   4.692469   3.594594   0.000000
    11  C    3.796368   3.568272   5.448957   4.665799   1.379497
    12  C    3.181225   3.578692   5.460095   4.895569   2.450850
    13  Cl   4.810614   4.889955   6.992598   6.622550   3.977561
    14  Cl   2.670511   4.638486   5.949345   5.058616   3.054646
    15  Cl   2.758693   2.327007   4.219036   4.200680   3.183404
    16  H    2.997222   2.426311   3.751131   2.803237   0.976437
    17  H    4.535557   4.664188   6.477535   5.542216   2.005904
    18  H    4.514357   3.386103   5.511339   5.009007   2.074038
                   11         12         13         14         15
    11  C    0.000000
    12  C    1.540844   0.000000
    13  Cl   2.703284   1.783702   0.000000
    14  Cl   2.728398   1.775793   2.909915   0.000000
    15  Cl   2.736727   1.786012   2.898187   2.899970   0.000000
    16  H    1.952386   2.731029   4.344178   3.471288   2.859781
    17  H    1.099541   2.135054   2.805131   2.914741   3.685140
    18  H    1.105171   2.139890   2.845415   3.683178   2.873635
                   16         17         18
    16  H    0.000000
    17  H    2.838752   0.000000
    18  H    2.316404   1.793577   0.000000
 Framework group  C1[X(C4H6Cl6O2)]
 Deg. of freedom    48
                         Standard orientation:                         
 ---------------------------------------------------------------------
 Center     Atomic      Atomic             Coordinates (Angstroms)
 Number     Number       Type             X           Y           Z
 ---------------------------------------------------------------------
      1          8           0       -0.938330    0.113411    2.126233
      2          6           0       -2.133938   -0.246866    1.505314
      3          6           0       -2.113454   -0.022880   -0.012518
      4         17           0       -3.691074   -0.490617   -0.681987
      5         17           0       -1.824830    1.718638   -0.329137
      6         17           0       -0.823652   -0.975663   -0.772050
      7          1           0       -0.729899    1.034739    1.904714
      8          1           0       -2.990189    0.317129    1.913100
      9          1           0       -2.282112   -1.317466    1.697205
     10          8           0        1.304245   -1.560338    1.684597
     11          6           0        2.328959   -0.709169    1.326148
     12          6           0        2.106911    0.007259   -0.019819
     13         17           0        3.573765    0.941971   -0.415099
     14         17           0        1.785276   -1.173087   -1.306976
     15         17           0        0.727050    1.135568    0.093058
     16          1           0        0.500389   -1.056494    1.915649
     17          1           0        3.239109   -1.316063    1.215254
     18          1           0        2.513420    0.077724    2.079922
 ---------------------------------------------------------------------
 Rotational constants (GHZ):           0.8244332           0.2832362           0.2784791
   204 basis functions,   396 primitive gaussians,   216 cartesian basis functions
    74 alpha electrons       74 beta electrons
       nuclear repulsion energy      1622.7965647338 Hartrees.
 NAtoms=   18 NActive=   18 NUniq=   18 SFac= 1.00D+00 NAtFMM=   60 NAOKFM=F Big=F
 Nuclear repulsion after empirical dispersion term =     1622.7844092111 Hartrees.
   1 Symmetry operations used in ECPInt.
 ECPInt:  NShTT=    4656 NPrTT=   21144 LenC2=    4354 LenP2D=   13210.
 LDataN:  DoStor=T MaxTD1= 4 Len=   56
 Lowest energy guess from the checkpoint file:  "19.chk"
 B after Tr=    -0.000000   -0.000000    0.000000
         Rot=    0.985912   -0.166685   -0.004462   -0.013143 Ang= -19.26 deg.
 B after Tr=    -0.000000   -0.000000    0.000000
         Rot=    0.984928   -0.172749   -0.008559    0.001411 Ang= -19.92 deg.
     Accept linear search using points  1 and  2.
     Accept linear search using points  1 and  2.
     Minimum is close to point  3 DX= -1.06D-02 DF= -8.53D-07 DXR=  3.67D-02 DFR=  1.35D-03 which will be used.
     Accept linear search using points  1 and  2.
     Accept linear search using points  1 and  2.
     Minimum is close to point  3 DX= -1.13D-03 DF= -6.86D-10 DXR=  3.78D-03 DFR=  1.43D-05 which will be used.
     Accept linear search using points  1 and  2.
     Minimum is close to point  2 DX= -3.74D-02 DF= -3.60D-08 DXR=  2.74D-02 DFR=  1.28D-03 which will be used.
     Minimum is close to point  3 DX= -6.66D-03 DF= -1.03D-08 DXR=  2.27D-02 DFR=  5.15D-04 which will be used.
     Accept linear search using points  1 and  2.
     Minimum is close to point  2 DX= -1.60D-04 DF= -9.09D-13 DXR=  1.60D-04 DFR=  2.58D-08 which will be used.
 SCF Done:  E(RwB97XD) =  -3066.37799761     a.u. after   16 cycles
            Convg  =    0.1315D-08                    58 Fock formations.
              S**2 =  0.0000                  -V/T =  2.0025
   1 Symmetry operations used in ECPInt.
 ECPInt:  NShTT=    4656 NPrTT=   21144 LenC2=    4354 LenP2D=   13210.
 LDataN:  DoStor=T MaxTD1= 5 Len=  102
 Calling FoFJK, ICntrl=      2127 FMM=F ISym2X=0 I1Cent= 0 IOpClX= 0 NMat=1 NMatS=1 NMatT=0.

 GradGradGradGradGradGradGradGradGradGradGradGradGradGradGradGradGradGrad
 Using GEDIIS/GDIIS optimizer.
 FormGI is forming the generalized inverse of G from B-inverse, IUseBI=4.
 Internal  Forces:  Max     0.337642739 RMS     0.079435561
 Step number   4 out of a maximum of   86
 All quantities printed in internal units (Hartrees-Bohrs-Radians)
 Mixed Optimization -- RFO/linear search
 ITU=  0 -1 -1  0
 Use linear search instead of GDIIS.
 Skip linear search -- no minimum in search direction.
 Steepest descent instead of Quadratic search.
 Maximum step size (   0.075) exceeded in Quadratic search.
    -- Step size scaled by   0.240
 Steepest descent step scaled to max of 0.05000.
 Iteration  1 RMS(Cart)=  0.13586990 RMS(Int)=  0.00253286
 Iteration  2 RMS(Cart)=  0.00669548 RMS(Int)=  0.00004870
 Iteration  3 RMS(Cart)=  0.00002123 RMS(Int)=  0.00004833
 Iteration  4 RMS(Cart)=  0.00000000 RMS(Int)=  0.00004833
 Variable       Old X    -DE/DX   Delta X   Delta X   Delta X     New X
                                 (Linear)    (Quad)   (Total)
    R1        2.63535   0.07524   0.00000   0.01114   0.01114   2.64649
    R2        1.83348  -0.00191   0.00000  -0.00028  -0.00028   1.83320
    R3        3.52673   0.05827   0.00000   0.00863   0.00863   3.53535
    R4        2.89961   0.00484   0.00000   0.00072   0.00072   2.90032
    R5        2.08517   0.00168   0.00000   0.00025   0.00025   2.08542
    R6        2.07437   0.00167   0.00000   0.00025   0.00025   2.07461
    R7        3.35704   0.00188   0.00000   0.00028   0.00028   3.35732
    R8        3.38912   0.00665   0.00000   0.00098   0.00098   3.39010
    R9        3.35301  -0.02460   0.00000  -0.00364  -0.00364   3.34937
   R10        2.60687   0.07391   0.00000   0.01095   0.01095   2.61782
   R11        1.84520   0.06705   0.00000   0.00993   0.00993   1.85513
   R12        2.91177  -0.00108   0.00000  -0.00016  -0.00016   2.91161
   R13        2.07783   0.00156   0.00000   0.00023   0.00023   2.07806
   R14        2.08847   0.00225   0.00000   0.00033   0.00033   2.08880
   R15        3.37071   0.00127   0.00000   0.00019   0.00019   3.37090
   R16        3.35576   0.00389   0.00000   0.00058   0.00058   3.35634
   R17        3.37507  -0.02853   0.00000  -0.00423  -0.00423   3.37085
    A1        1.90481   0.00873   0.00000   0.00129   0.00110   1.90591
    A2        2.03615   0.18538   0.00000   0.02745   0.02734   2.06348
    A3        1.98657  -0.06768   0.00000  -0.01002  -0.01014   1.97643
    A4        1.97281   0.22383   0.00000   0.03315   0.03319   2.00600
    A5        1.94840  -0.06903   0.00000  -0.01022  -0.01020   1.93820
    A6        1.86487  -0.05987   0.00000  -0.00887  -0.00888   1.85599
    A7        1.87687  -0.07466   0.00000  -0.01106  -0.01103   1.86584
    A8        1.89346  -0.05027   0.00000  -0.00744  -0.00745   1.88601
    A9        1.90621   0.02767   0.00000   0.00410   0.00399   1.91020
   A10        1.89916  -0.02322   0.00000  -0.00344  -0.00344   1.89572
   A11        1.89498   0.01504   0.00000   0.00223   0.00222   1.89720
   A12        1.93345   0.02427   0.00000   0.00359   0.00359   1.93704
   A13        1.90928  -0.01792   0.00000  -0.00265  -0.00265   1.90663
   A14        1.92075  -0.02044   0.00000  -0.00303  -0.00302   1.91772
   A15        1.90591   0.02210   0.00000   0.00327   0.00326   1.90916
   A16        1.93332   0.33764   0.00000   0.05000   0.05000   1.98332
   A17        1.98976   0.24263   0.00000   0.03593   0.03596   2.02572
   A18        1.87603  -0.07501   0.00000  -0.01111  -0.01104   1.86499
   A19        1.96717  -0.06755   0.00000  -0.01000  -0.01009   1.95709
   A20        1.86275  -0.07957   0.00000  -0.01178  -0.01173   1.85101
   A21        1.86375  -0.04632   0.00000  -0.00686  -0.00690   1.85685
   A22        1.90035   0.01943   0.00000   0.00288   0.00277   1.90312
   A23        1.89518  -0.02266   0.00000  -0.00336  -0.00335   1.89182
   A24        1.92859   0.00328   0.00000   0.00049   0.00047   1.92907
   A25        1.92822   0.03803   0.00000   0.00563   0.00562   1.93385
   A26        1.91414  -0.01281   0.00000  -0.00190  -0.00190   1.91224
   A27        1.89474  -0.02956   0.00000  -0.00438  -0.00437   1.89037
   A28        1.90264   0.02263   0.00000   0.00335   0.00333   1.90598
   A29        3.04859   0.15009   0.00000   0.02223   0.02219   3.07078
   A30        2.99053   0.20784   0.00000   0.03078   0.03076   3.02129
    D1        0.96423   0.02486   0.00000   0.00368   0.00367   0.96790
    D2       -1.15445   0.01138   0.00000   0.00168   0.00171  -1.15273
    D3        3.04573   0.05451   0.00000   0.00807   0.00804   3.05376
    D4       -1.31764  -0.05184   0.00000  -0.00768  -0.00767  -1.32531
    D5        2.84687  -0.06533   0.00000  -0.00967  -0.00964   2.83723
    D6        0.76386  -0.02220   0.00000  -0.00329  -0.00331   0.76055
    D7        2.28183   0.23066   0.00000   0.03416   0.03430   2.31613
    D8        0.08074   0.06135   0.00000   0.00908   0.00894   0.08968
    D9       -3.12558   0.00961   0.00000   0.00142   0.00143  -3.12415
   D10       -1.04892  -0.01657   0.00000  -0.00245  -0.00245  -1.05137
   D11        1.04385   0.03479   0.00000   0.00515   0.00517   1.04901
   D12       -0.96700   0.01628   0.00000   0.00241   0.00238  -0.96462
   D13        1.10966  -0.00991   0.00000  -0.00147  -0.00150   1.10816
   D14       -3.08076   0.04146   0.00000   0.00614   0.00612  -3.07464
   D15        1.09268  -0.01876   0.00000  -0.00278  -0.00276   1.08991
   D16       -3.11384  -0.04495   0.00000  -0.00666  -0.00665  -3.12049
   D17       -1.02108   0.00642   0.00000   0.00095   0.00097  -1.02011
   D18       -1.21675  -0.05842   0.00000  -0.00865  -0.00866  -1.22541
   D19        3.00561  -0.05311   0.00000  -0.00787  -0.00780   2.99781
   D20        0.91156   0.01353   0.00000   0.00200   0.00194   0.91351
   D21       -3.04852   0.02190   0.00000   0.00324   0.00328  -3.04524
   D22       -0.94846  -0.00611   0.00000  -0.00091  -0.00087  -0.94933
   D23        1.15859   0.04938   0.00000   0.00731   0.00736   1.16595
   D24       -0.98009   0.01721   0.00000   0.00255   0.00251  -0.97758
   D25        1.11996  -0.01081   0.00000  -0.00160  -0.00164   1.11832
   D26       -3.05617   0.04468   0.00000   0.00662   0.00659  -3.04959
   D27        1.05033  -0.02149   0.00000  -0.00318  -0.00319   1.04715
   D28       -3.13280  -0.04950   0.00000  -0.00733  -0.00734  -3.14014
   D29       -1.02575   0.00599   0.00000   0.00089   0.00089  -1.02486
         Item               Value     Threshold  Converged?
 Maximum Force            0.337643     0.000015     NO 
 RMS     Force            0.079436     0.000010     NO 
 Maximum Displacement     0.488184     0.000060     NO 
 RMS     Displacement     0.141451     0.000040     NO 
 GradGradGradGradGradGradGradGradGradGradGradGradGradGradGradGradGradGrad

                    Distance matrix (angstroms):
                    1          2          3          4          5
     1  O    0.000000
     2  C    1.400463   0.000000
     3  C    2.475728   1.534785   0.000000
     4  Cl   3.996480   2.693119   1.776619   0.000000
     5  Cl   3.106466   2.709153   1.793964   2.911254   0.000000
     6  Cl   3.142223   2.728610   1.772410   2.905015   2.910447
     7  H    0.970087   1.948326   2.632655   4.249565   2.642128
     8  H    2.071088   1.103556   2.135042   2.791788   2.882706
     9  H    2.007901   1.097838   2.146052   2.874578   3.677964
    10  O    2.846548   3.725981   4.215664   5.732023   5.062322
    11  C    3.556847   4.607465   4.885900   6.543844   5.310282
    12  C    3.909347   4.747882   4.553242   6.207322   4.654931
    13  Cl   5.451288   6.401429   6.171099   7.831304   5.931161
    14  Cl   4.710470   5.124489   4.579251   5.924496   5.024276
    15  Cl   3.096870   3.826052   3.489574   5.200236   3.077195
    16  H    1.870828   2.817769   3.483952   5.035448   4.329986
    17  H    4.579965   5.577395   5.827365   7.415740   6.335037
    18  H    3.564893   4.820999   5.278107   7.005651   5.465393
                    6          7          8          9         10
     6  Cl   0.000000
     7  H    3.402156   0.000000
     8  H    3.679989   2.368731   0.000000
     9  H    2.884384   2.825995   1.797157   0.000000
    10  O    3.463712   3.319034   4.719839   3.630133   0.000000
    11  C    4.039171   3.677894   5.556000   4.757848   1.385289
    12  C    3.534896   3.778569   5.694544   5.099067   2.483676
    13  Cl   5.197137   5.142897   7.268781   6.835399   3.995428
    14  Cl   3.028854   4.786057   6.168656   5.257590   3.096818
    15  Cl   3.085216   2.611813   4.577720   4.515938   3.230958
    16  H    3.115236   2.423500   3.769436   2.835628   0.981692
    17  H    4.780844   4.765863   6.559039   5.598249   2.002928
    18  H    4.747344   3.518796   5.628283   5.107577   2.072346
                   11         12         13         14         15
    11  C    0.000000
    12  C    1.540759   0.000000
    13  Cl   2.700066   1.783801   0.000000
    14  Cl   2.729034   1.776098   2.908296   0.000000
    15  Cl   2.740046   1.783776   2.891894   2.901835   0.000000
    16  H    1.993286   2.812981   4.417262   3.543172   2.970130
    17  H    1.099664   2.126117   2.789125   2.904467   3.680901
    18  H    1.105347   2.134672   2.833587   3.680582   2.872216
                   16         17         18
    16  H    0.000000
    17  H    2.861872   0.000000
    18  H    2.356137   1.795592   0.000000
 Framework group  C1[X(C4H6Cl6O2)]
 Deg. of freedom    48
                         Standard orientation:                         
 ---------------------------------------------------------------------
 Center     Atomic      Atomic             Coordinates (Angstroms)
 Number     Number       Type             X           Y           Z
 ---------------------------------------------------------------------
      1          8           0       -1.007733    0.479283    2.054742
      2          6           0       -2.217435    0.014361    1.523924
      3          6           0       -2.278657   -0.025111   -0.009131
      4         17           0       -3.884060   -0.608420   -0.497806
      5         17           0       -2.037347    1.637810   -0.637439
      6         17           0       -1.024337   -1.090490   -0.667225
      7          1           0       -0.814223    1.356079    1.687520
      8          1           0       -3.063972    0.635851    1.862984
      9          1           0       -2.344400   -1.010627    1.896119
     10          8           0        1.280284   -1.208470    1.915817
     11          6           0        2.362625   -0.481580    1.447632
     12          6           0        2.274522   -0.001455   -0.013756
     13         17           0        3.825997    0.763441   -0.449424
     14         17           0        1.960202   -1.370172   -1.101110
     15         17           0        0.979182    1.209806   -0.205591
     16          1           0        0.467398   -0.671199    2.035295
     17          1           0        3.238013   -1.145263    1.497456
     18          1           0        2.556624    0.417788    2.060244
 ---------------------------------------------------------------------
 Rotational constants (GHZ):           0.8295422           0.2522340           0.2482558
   204 basis functions,   396 primitive gaussians,   216 cartesian basis functions
    74 alpha electrons       74 beta electrons
       nuclear repulsion energy      1569.1987803249 Hartrees.
 NAtoms=   18 NActive=   18 NUniq=   18 SFac= 1.00D+00 NAtFMM=   60 NAOKFM=F Big=F
 Nuclear repulsion after empirical dispersion term =     1569.1868462329 Hartrees.
   1 Symmetry operations used in ECPInt.
 ECPInt:  NShTT=    4656 NPrTT=   21144 LenC2=    4312 LenP2D=   12973.
 LDataN:  DoStor=T MaxTD1= 4 Len=   56
 Initial guess from the checkpoint file:  "19.chk"
 B after Tr=    -0.000000    0.000000    0.000000
         Rot=    0.996116    0.087915    0.002018    0.004412 Ang=  10.10 deg.
 ExpMin= 1.22D-01 ExpMax= 1.04D+04 ExpMxC= 1.57D+03 IAcc=3 IRadAn=         5 AccDes= 0.00D+00
 Harris functional with IExCor= 4639 and IRadAn=       5 diagonalized for initial guess.
 HarFok:  IExCor= 4639 AccDes= 0.00D+00 IRadAn=         5 IDoV= 1 UseB2=F ITyADJ=14
 ICtDFT=  3500011 ScaDFX=  1.000000  1.000000  1.000000  1.000000
 FoFCou: FMM=F IPFlag=           0 FMFlag=      100000 FMFlg1=           0
[...]
 534551,-0.0454423,0.0950918,-0.1495627,0.5321477,0.0359305,0.0575752,0
 .046039,0.2666245,-0.0731494,0.0946095,-0.0876545,0.2951917,-0.0829635
 ,0.0278087,-0.0010601,0.072224,-0.0545706,0.0485051,0.0251377,0.021517
 6,0.0444558,0.005624,-0.0057041,0.0185514,-0.0506845,0.0266449,-0.0506
 351,-0.0137997,-0.0328542,0.0169146,-1.1131724,-0.2839885,-0.0614493,-
 0.2683998,-0.5552546,-0.0769654,-0.025655,-0.0397215,-0.5089132,0.6486
 197,0.3118589,0.1017804,0.4109785,0.359763,0.0796697,0.1399857,0.10932
 33,0.2834587,1.2860197,-0.1119021,-0.2116147,-0.2196258,1.0829381,-0.3
 02862,-0.3765973,-0.3546636,0.6494728,-0.5373586,-0.2459897,0.1235385,
 -0.2756204,-0.3640485,0.1161176,0.1024477,0.0818375,-0.1908648,-0.2226
 943,0.1423818,-0.0843116,0.1426523,-0.4345875,0.230642,-0.0981243,0.27
 2724,-0.3340494,-0.6535842,0.2083378,0.1227645,0.3225648,-0.3079548,-0
 .0773787,0.1849566,-0.0949303,-0.2573332,0.7206902,-0.0727072,0.000737
 3,-0.2324689,0.2544908,0.014683,0.0326827,0.0091831,0.3037777,-0.08308
 22,0.0103115,0.0306231,0.0428911,0.0239112,-0.0485061,0.0294286,-0.032
 7238,0.0295121,0.0291132,0.013203,-0.0589727,-0.0447527,-0.0684149,0.0
 687439,-0.0469677,0.0458082,-0.0182142\Polar=126.6151092,-2.1943462,99
 .8107137,1.9895202,-1.077189,89.3499937\Quadrupole=0.0409479,-1.100750
 4,1.0598025,-0.7674297,1.1724415,-1.3746073\PG=C01 [X(C4H6Cl6O2)]\NIma
 g=0\\0.47327587,0.08664071,0.29081148,0.08683911,0.23462775,0.32897125
 ,-0.28330776,-0.01960040,-0.02182566,0.55113053,0.00991443,-0.09037999
 ,-0.02093442,-0.02098466,0.64158169,0.00725062,-0.01981228,-0.08428131
 ,0.05866986,0.07200090,0.53437085,-0.04134991,-0.01331384,0.02831696,-
 0.06508362,-0.01100358,0.02924004,0.30898278,-0.00565828,-0.00355591,0
 .00044709,-0.00946034,-0.08021649,0.03212382,0.00794869,0.29593457,0.0
 0571416,0.00052689,-0.00032262,0.03360282,0.03533722,-0.15853846,-0.02
 997380,-0.03506824,0.35425943,-0.00331325,-0.00243476,0.00626601,-0.03
 144606,-0.00052271,-0.00574190,-0.13161010,-0.01018688,0.00948801,0.21
 231283,-0.00181824,0.00140022,0.00208440,-0.00951053,0.00116697,-0.000
 77129,-0.00476065,-0.03306100,0.00154069,0.00834902,0.03821873,0.00450
 527,0.00171292,-0.00215986,0.02029270,0.00091273,0.00382227,-0.0065910
 1,0.00114043,-0.03564312,0.01242920,0.00086222,0.03641856,0.00254157,0
 .00235437,0.00394490,-0.00042161,0.00030713,0.00283734,-0.03491982,-0.
 01117734,-0.01559785,-0.02091937,-0.01790799,-0.02219530,0.04857031,0.
 00061511,0.00209060,0.00114492,-0.00362751,-0.00345239,-0.00541014,-0.
 00888458,-0.06158618,-0.04416197,-0.01448705,-0.00265880,-0.00947477,0
 .02329926,0.10255735,-0.00006545,-0.00066426,-0.00039999,-0.00932637,-
 0.02709960,-0.03218940,-0.00807416,-0.03185901,-0.08751924,-0.01521587
 ,-0.00759918,-0.00557458,0.02732863,0.07668180,0.12830951,0.00277805,-
 0.00316489,0.00190677,0.00017142,-0.00042585,0.00080272,-0.04320885,0.
 03280510,-0.01151542,-0.02599629,0.02565396,-0.00941458,0.00571781,0.0
 0163194,0.00175684,0.06090277,-0.00108360,0.00167715,-0.00053766,0.012
 56856,-0.02601085,0.00867953,0.02411650,-0.11397995,0.03372831,0.01858
 207,-0.00593457,0.00480736,0.00365815,-0.03866932,-0.01092139,-0.05666
 646,0.18390124,0.00053621,0.00013687,0.00072783,-0.01077895,0.02781655
 ,-0.00642596,-0.00403420,0.02142959,-0.04461954,-0.00584512,0.00409363
 ,0.00296239,0.00282561,-0.01780891,0.00261532,0.01541512,-0.03926031,0
 .04778202,-0.07896293,-0.05780858,-0.06512231,-0.01968285,-0.03074242,
 -0.03171085,-0.00105130,-0.00379663,-0.00092457,0.00103887,0.00064740,
 -0.00000676,-0.00013487,0.00142917,0.00059775,-0.00010500,0.00074783,-
 0.00012129,0.10251843,-0.08877088,-0.20733462,-0.21520312,-0.00230692,
 -0.00118621,0.00044198,0.00010366,0.00101644,-0.00130479,0.00058191,0.
 00004995,-0.00024248,0.00002130,-0.00094594,0.00023806,0.00019344,-0.0
 0064103,0.00033073,0.08791383,0.21024010,-0.09869532,-0.21849760,-0.24
 652409,-0.00164003,0.00084168,0.00016839,0.00330246,0.00291633,0.00462
 785,-0.00019004,-0.00017982,-0.00113969,-0.00023733,-0.00120137,-0.001
 54209,-0.00001405,-0.00006766,-0.00073663,0.09502983,0.21744991,0.2459
 6178,-0.03505710,0.03011868,-0.00749865,-0.08687868,0.08822344,-0.0215
 4504,0.00487191,-0.00870202,0.00188715,0.00011202,-0.00114241,0.000516
 56,0.00014546,0.00009130,-0.00039982,0.00024222,-0.00215274,0.00262736
 ,0.00095674,0.00126611,0.00132744,0.11050703,-0.00045699,0.01242215,-0
 .00059348,0.09036666,-0.26621209,0.04698016,0.00542722,-0.01092415,-0.
 00006796,-0.00077113,0.00085070,-0.00025690,-0.00039747,0.00133238,-0.
 00097805,-0.00041077,-0.00027630,0.00231556,0.00057392,0.00094820,-0.0
 0060364,-0.10056225,0.27507296,0.00052561,-0.00125283,0.00447984,-0.02
 149091,0.04105036,-0.06371339,-0.00779509,0.02793850,-0.01031743,-0.00
 061338,-0.00095484,0.00032280,0.00006521,0.00007466,0.00090300,0.00052
 913,0.00351916,-0.00338058,-0.00072889,0.00108576,-0.00029266,0.020860
 61,-0.05253855,0.06438500,-0.02240922,-0.02825101,-0.02958429,-0.06065
 607,-0.03515468,-0.03829990,0.00342460,0.00780484,0.00644451,-0.000352
 60,0.00039063,0.00069229,0.00019621,-0.00001227,0.00342550,-0.00002610
 ,0.00013202,-0.00067850,-0.00584165,0.00021523,0.00057389,0.00460081,0
 .00645446,0.00880454,0.08127791,-0.00346085,0.00199201,0.00009398,-0.0
 4179805,-0.17719604,-0.13458143,0.00081130,0.00530944,0.01023336,0.000
 95962,0.00025083,0.00013610,-0.00014806,0.00148065,0.00203289,0.000124
 23,0.00062532,0.00079092,0.00057080,0.00178324,0.00108585,-0.00592045,
 -0.01327624,-0.01913641,0.04881920,0.17913277,-0.00010972,0.00206280,0
 .00384762,-0.04746392,-0.12951068,-0.19220522,-0.00506926,-0.01827837,
 -0.02201308,-0.00039519,0.00079547,0.00102797,0.00081721,-0.00004008,-
 0.00460428,0.00030374,-0.00021338,0.00140132,0.00080010,0.00018340,0.0
 0082156,0.00221584,0.00571811,0.00768291,0.04910359,0.13932591,0.20407
 338,-0.01030991,0.01020668,-0.00126761,0.00462200,0.00295391,0.0000936
 1,0.00132027,-0.00222419,-0.00109850,-0.00100922,0.00023074,0.00029220
 ,-0.00003087,0.00066922,0.00072931,-0.00107528,0.00106447,0.00035576,-
 0.00289969,-0.00101936,-0.00099691,-0.00161470,0.00010736,0.00008833,0
 .00011661,-0.00033693,0.00018995,0.62819560,0.00839857,-0.00109522,0.0
 0095140,-0.00203384,-0.00249156,0.00036293,0.00048977,-0.00209006,0.00
 020100,-0.00013201,0.00039738,-0.00019169,0.00014922,0.00058638,0.0002
 0386,-0.00054433,0.00108158,-0.00005785,-0.00053628,0.00016915,0.00019
 666,0.00082173,0.00015855,-0.00012777,0.00027870,0.00002446,0.00011916
 ,-0.04079508,0.38246178,-0.00105945,0.00066805,0.00307153,0.00069543,0
 .00025322,-0.00018617,-0.00060241,0.00097331,-0.00069871,0.00033529,-0
 .00020660,0.00022423,0.00006259,-0.00006484,0.00026955,0.00039746,-0.0
 0057930,0.00026675,-0.00104274,0.00120711,-0.00100468,-0.00013697,-0.0
 0004089,0.00008561,0.00021306,-0.00004650,-0.00003144,-0.01993660,-0.0
 4378869,0.06458482,0.00328558,-0.00323424,0.00059530,-0.00181241,-0.00
 142746,-0.00015960,-0.00062186,0.00191624,0.00076918,0.00048923,-0.000
 24170,-0.00018267,-0.00002782,-0.00065427,-0.00061580,0.00027767,-0.00
 087472,-0.00000454,0.00143491,0.00154770,0.00080633,0.00074273,-0.0001
 1768,-0.00002282,-0.00015640,0.00014767,-0.00012325,-0.21953693,-0.072
 55637,0.02015936,0.62578267,0.00320959,-0.00520704,0.00122787,-0.00103
 623,-0.00075235,-0.00003563,-0.00086834,0.00145170,0.00026413,0.000412
 43,-0.00020399,-0.00002140,-0.00004276,-0.00040713,-0.00025803,0.00051
 948,-0.00069963,-0.00004956,0.00154743,0.00084077,-0.00044689,0.000543
 23,-0.00009003,-0.00000790,-0.00015628,0.00013603,-0.00011041,-0.11488
 263,-0.18913776,0.02820813,-0.05858246,0.59594647,0.00040446,0.0009457
 0,-0.00042013,-0.00052070,-0.00005189,-0.00021779,0.00027450,0.0000675
 8,0.00033446,0.00001491,0.00000653,-0.00011692,-0.00010359,-0.00009284
 ,-0.00017215,-0.00002423,0.00003249,-0.00007336,0.00005407,-0.00028511
 ,0.00109347,0.00003827,-0.00001197,-0.00000668,0.00000989,-0.00001150,
 0.00000521,0.03619753,0.03256730,-0.07363207,-0.04726855,-0.05884144,0
 .49168945,0.00289680,0.00113719,0.00173893,-0.00208055,0.00010711,0.00
 025860,-0.00105291,-0.00121591,-0.00093635,0.00082917,0.00023436,0.000
 10238,0.00041822,0.00065515,0.00054130,0.00022196,0.00029169,0.0001107
 2,-0.00394005,0.00043299,-0.00192942,0.00030461,-0.00008168,-0.0001352
 4,0.00037816,0.00008830,0.00003979,-0.02823861,-0.02334698,-0.01625762
 ,-0.06508706,-0.00035327,-0.02677991,0.28722347,-0.00092360,-0.0007663
 1,-0.00090600,0.00085695,-0.00030804,-0.00032353,0.00040226,0.00173793
 ,0.00078117,-0.00031584,-0.00029471,-0.00011141,-0.00055228,-0.0006881
 7,-0.00051645,0.00001026,-0.00063193,0.00000366,0.00216132,0.00005461,
 0.00179208,-0.00003512,0.00000120,0.00010240,-0.00022999,-0.00002331,-
 0.00005300,-0.02226623,-0.02197979,-0.01433375,-0.00217977,-0.07111089
 ,-0.03138281,0.01586879,0.29601003,0.00038198,-0.00056331,-0.00105819,
 -0.00020686,-0.00038349,-0.00018418,0.00056880,0.00048629,0.00080003,-
 0.00026802,-0.00005784,-0.00019877,-0.00047123,-0.00036416,-0.00037075
 ,0.00000336,-0.00002165,-0.00017664,0.00132638,0.00057069,0.00250286,0
 .00010213,0.00001511,0.00003157,-0.00016025,0.00000643,-0.00002507,-0.
 00331591,-0.00529353,0.00836027,-0.02614027,-0.02712143,-0.14728866,0.
 02919524,0.01740592,0.34978738,-0.00104517,0.00026723,-0.00061162,0.00
 073038,0.00001169,-0.00000060,0.00051137,0.00013805,0.00032229,-0.0003
 6107,-0.00004310,-0.00005374,-0.00028886,-0.00014545,-0.00014941,-0.00
 012139,0.00006843,-0.00004975,0.00072254,-0.00035147,0.00078190,-0.000
 14112,0.00004259,0.00003852,-0.00006835,-0.00003910,-0.00000015,-0.001
 53842,-0.00340594,-0.00525635,-0.01895354,-0.01560379,0.00911208,-0.08
 834797,-0.04687231,0.00137718,0.13711989,-0.00049123,0.00047323,-0.000
 18054,0.00029509,0.00007086,0.00004393,0.00022233,-0.00033163,0.000002
 15,-0.00014941,0.00004366,-0.00000508,-0.00003005,0.00007034,0.0000356
 3,-0.00008507,0.00019223,-0.00002247,0.00000028,-0.00023412,0.00010454
 ,-0.00009229,0.00002921,0.00000252,0.00000689,-0.00002381,0.00001710,-
 0.00360453,-0.00050228,-0.00443922,-0.01851178,-0.01276927,0.00805140,
 -0.04481124,-0.06947322,0.00008660,0.07940383,0.10146075,-0.00011905,0
 .00021596,0.00030455,0.00008640,0.00013111,0.00002285,-0.00014675,-0.0
 0023965,-0.00027213,0.00007956,0.00003438,0.00006459,0.00013887,0.0001
 3125,0.00015337,-0.00000984,0.00004401,0.00004951,-0.00034770,0.000041
 39,-0.00058699,-0.00003176,-0.00000075,-0.00000787,0.00004355,-0.00000
 425,0.00001461,-0.00295574,-0.00217024,-0.00173260,-0.01363324,-0.0109
 2461,0.00505434,0.01428268,0.01175847,-0.03671696,-0.02674080,-0.02165
 867,0.04370310,-0.00070892,-0.00025240,-0.00021199,0.00055666,-0.00001
 445,-0.00005896,0.00017551,0.00031063,0.00013100,-0.00016105,-0.000061
 32,-0.00000238,-0.00012224,-0.00015634,-0.00006920,-0.00001112,-0.0000
 9594,0.00000936,0.00082876,0.00022574,0.00047428,-0.00006142,0.0000158
 3,0.00003662,-0.00007484,-0.00002093,-0.00000658,0.00068397,0.00076972
 ,-0.00111317,-0.00275502,0.01121778,-0.01093483,-0.04330794,0.01782359
 ,-0.02335628,0.00457943,-0.01301216,0.00984671,0.05504385,0.00071902,0
 .00050258,0.00022372,-0.00060525,0.00005525,0.00013336,-0.00008811,-0.
 00066389,-0.00016266,0.00011729,0.00011816,-0.00000125,0.00017362,0.00
 025424,0.00011202,-0.00000099,0.00027251,-0.00003744,-0.00105362,-0.00
 036117,-0.00061503,0.00004075,-0.00000334,-0.00005020,0.00010750,0.000
 01375,0.00001815,-0.00021628,0.00254681,-0.00247594,0.00059729,-0.0044
 6225,0.00416661,0.02519889,-0.07934622,0.05191620,-0.00790861,-0.02621
 271,0.02154025,-0.04004490,0.12954269,-0.00079566,-0.00016492,0.000161
 45,0.00058467,0.00010766,-0.00000960,-0.00003267,0.00022510,-0.0001226
 6,-0.00005695,-0.00005481,0.00006046,-0.00003928,-0.00004808,0.0000514
 5,-0.00001709,-0.00012725,0.00006255,0.00024484,0.00000688,-0.00022099
 ,-0.00008295,0.00000432,0.00002661,-0.00001797,-0.00001415,-0.00000369
 ,-0.00040536,-0.00127816,0.00183564,-0.01121899,0.02880300,-0.02425525
 ,-0.02306871,0.03603162,-0.08051517,0.00531592,0.01768572,-0.00766837,
 0.03397727,-0.08077350,0.10799942,-0.00529510,-0.00103551,-0.00334027,
 0.00168486,-0.00051668,-0.00106459,0.00081004,0.00056450,0.00020988,-0
 .00040342,-0.00010511,0.00006067,-0.00087626,-0.00014649,0.00014993,-0
 .00010694,-0.00017553,-0.00000076,0.00126026,-0.00030884,-0.00020568,-
 0.00024221,0.00004275,0.00008112,-0.00057954,-0.00007186,0.00000041,0.
 00473781,-0.00051144,-0.00190234,-0.00813596,0.00260355,0.00289145,-0.
 06328506,0.03111340,0.03030267,-0.03407919,0.00101721,0.01985568,-0.01
 497499,0.02372189,-0.00173804,0.11857011,0.00005357,0.00107278,0.00028
 557,-0.00057427,0.00031771,0.00005638,-0.00026136,-0.00119254,-0.00062
 335,0.00030842,0.00020467,0.00012115,0.00060169,0.00052116,0.00039007,
 -0.00002468,0.00033634,0.00001283,-0.00157268,-0.00057003,-0.00184920,
 -0.00001841,-0.00001550,-0.00007184,0.00016824,0.00000759,0.00004370,-
 0.00052187,0.00149808,0.00034319,0.01739993,-0.00966383,-0.01070423,0.
 02300687,-0.05361325,-0.02560989,-0.00481806,0.00771553,0.00260471,0.0
 2485259,-0.02371758,0.00074618,-0.05714546,0.07831383,-0.00406884,0.00
 004236,-0.00090422,0.00031734,-0.00016451,-0.00077310,-0.00035112,-0.0
 0060282,-0.00074902,0.00016776,0.00008034,0.00018778,0.00069267,0.0003
 8462,0.00031879,0.00000932,0.00012556,0.00010725,-0.00108466,-0.001140
 15,-0.00388775,-0.00014759,-0.00000182,-0.00004093,-0.00018038,-0.0000
 2676,0.00003895,-0.00162382,0.00113882,0.00175043,0.02650591,-0.017792
 49,-0.01450775,0.01916488,-0.02228732,-0.05745542,0.01502232,-0.000038
 22,-0.00343975,-0.00672402,0.00614190,0.00667054,-0.04649303,0.0378149
 3,0.07614249,-0.00272136,-0.00275671,0.00019615,-0.00744655,-0.0007078
 6,-0.00042264,-0.00152081,0.00143748,0.00146160,0.00086095,-0.00000354
 ,-0.00040657,0.00015649,-0.00040146,-0.00067215,0.00050424,-0.00042075
 ,-0.00035529,0.00401109,0.00050953,0.00149556,0.00154216,-0.00026315,-
 0.00022647,0.00012786,0.00028909,-0.00033992,-0.34139644,0.16134705,-0
 .00219218,-0.03922182,0.00753347,0.00122324,-0.00024502,-0.00042202,-0
 .00152337,0.00100499,0.00074625,0.00065864,0.00005706,0.00010677,0.000
 59879,-0.00083179,0.00072582,0.00019377,0.38176819,-0.00701446,-0.0057
 5347,-0.00215801,0.00757575,0.00487607,0.00019112,-0.00060165,0.002686
 22,-0.00123417,-0.00025138,-0.00064000,0.00065082,-0.00035280,-0.00061
 987,0.00016068,0.00054453,-0.00148904,0.00031987,0.00047231,-0.0037452
 2,-0.00110279,-0.00241002,-0.00003202,0.00038770,-0.00061917,-0.000217
 36,-0.00011710,0.20923979,-0.16299129,0.00890014,-0.03036255,0.0150927
 9,-0.00072078,-0.00456190,0.00071273,0.00174200,-0.00021532,-0.0011261
 8,-0.00078851,0.00041683,-0.00037798,0.00021067,0.00151940,-0.00125589
 ,-0.00064418,-0.16770656,0.15845024,-0.00039235,0.00073065,-0.00547468
 ,-0.00162734,-0.00036626,0.00010786,0.00108567,-0.00171121,0.00097786,
 -0.00038909,0.00035058,-0.00033484,-0.00007671,0.00022838,-0.00032187,
 -0.00012433,0.00083148,-0.00060346,0.00248337,-0.00334433,0.00145031,0
 .00035405,0.00003804,-0.00017586,-0.00033440,0.00013687,-0.00004038,-0
 .01378160,0.01329940,-0.00813386,0.00982372,-0.00317171,-0.00294433,-0
 .00417243,0.00034847,0.00099728,0.00016273,-0.00038595,-0.00043967,0.0
 0012716,-0.00014176,-0.00038266,0.00055247,-0.00047133,-0.00062492,0.0
 0099521,-0.00749043,0.01540779,-0.00081553,0.00079225,-0.00023047,0.00
 053948,0.00014604,0.00007948,0.00014505,-0.00026316,-0.00011155,-0.000
 12337,0.00002802,0.00003392,-0.00001020,0.00007420,0.00007794,-0.00012
 967,0.00011228,0.00003683,-0.00014821,-0.00019382,-0.00018226,-0.00013
 432,0.00002876,0.00000572,-0.00000303,-0.00003076,0.00002411,-0.033084
 71,0.00256766,0.00803011,-0.19894070,0.10526594,0.08076808,0.00505836,
 -0.00381786,-0.00434504,0.00091711,-0.00067308,-0.00073252,0.00054323,
 -0.00035720,-0.00024319,0.00133941,-0.00178107,-0.00231066,-0.00001161
 ,-0.00396285,0.00471523,0.22830845,0.00000884,0.00077754,-0.00012949,-
 0.00004906,0.00005901,-0.00002160,0.00004932,-0.00016875,-0.00005444,0
 .00000659,0.00002860,0.00000121,0.00002849,0.00005728,0.00003909,-0.00
 006675,0.00005583,0.00002482,-0.00041008,-0.00003382,0.00000644,-0.000
 03069,0.00000063,-0.00001030,0.00002874,-0.00000165,0.00001029,-0.0290
 3404,0.01282884,0.00986223,0.11020941,-0.12404755,-0.05745887,0.010803
 87,-0.00590695,-0.00400948,-0.00062972,-0.00034888,0.00007668,-0.00052
 086,0.00061773,0.00126008,-0.00021239,-0.00067132,-0.00286909,-0.00288
 494,-0.00247900,0.00243501,-0.10177461,0.12733519,-0.00009458,-0.00020
 164,0.00016800,0.00015802,0.00000932,0.00009101,-0.00006941,-0.0001008
 2,-0.00010714,0.00000409,0.00001093,0.00003082,0.00002005,0.00005195,0
 .00006170,0.00000634,0.00002698,0.00001280,-0.00006234,0.00001040,-0.0
 0033944,-0.00000834,0.00000764,-0.00000302,0.00000130,-0.00000517,0.00
 000566,0.00363038,0.00024975,0.00292915,0.08028664,-0.05031327,-0.0942
 1721,0.01939830,-0.01867972,-0.01729830,-0.00022668,0.00126145,0.00062
 577,0.00002445,-0.00009116,0.00090291,0.00066033,-0.00310748,-0.004155
 81,-0.00042489,0.00036856,-0.00012841,-0.08891941,0.06098057,0.1010274
 7,0.00051829,0.00033523,-0.00011128,-0.00061916,-0.00016340,-0.0002281
 9,0.00017764,-0.00024077,0.00012743,0.00005273,0.00006047,-0.00007219,
 0.00000584,0.00005007,-0.00001897,-0.00003551,0.00012773,-0.00004856,-
 0.00000507,-0.00006014,0.00029935,0.00010386,0.00000158,-0.00002260,0.
 00004564,0.00001678,0.00001323,0.00105850,-0.03096016,0.01960650,-0.07
 676327,0.05867287,-0.04535667,-0.00174556,0.00937845,-0.00347051,-0.00
 064063,-0.00023104,-0.00027467,-0.00029093,-0.00050807,-0.00300462,0.0
 0040796,-0.00039925,0.00091017,0.00336234,-0.00170995,0.00059864,-0.00
 344974,0.01447789,-0.01438425,0.07781709,0.00011829,0.00087282,-0.0004
 4398,-0.00007592,0.00007845,-0.00005823,0.00021106,-0.00036576,0.00006
 265,-0.00006620,0.00006322,-0.00003997,0.00001552,0.00007743,0.0000018
 6,-0.00009315,0.00019041,-0.00003851,-0.00014399,-0.00005030,0.0001704
 8,-0.00003883,0.00001370,-0.00001042,0.00001697,-0.00001770,0.00002895
 ,-0.00957103,-0.02146506,0.01556035,0.05692476,-0.19491604,0.11372383,
 -0.00345423,0.00562631,-0.00880446,0.00010104,0.00096628,-0.00079152,-
 0.00145342,0.00122141,-0.00262037,-0.00035339,0.00071226,-0.00016117,0
 .00287153,-0.00109071,-0.00131588,0.00383925,-0.00810274,0.00952170,-0
 .04884826,0.21618602,-0.00075699,-0.00051310,-0.00018698,0.00047349,0.
 00005010,0.00014136,-0.00004852,0.00011206,-0.00007648,-0.00006928,-0.
 00003481,0.00004591,-0.00001182,-0.00003042,0.00001165,-0.00001125,-0.
 00006629,0.00002843,0.00061575,-0.00004632,-0.00035120,-0.00007831,0.0
 0001507,0.00002107,-0.00005645,-0.00001614,0.00000396,0.00380501,0.003
 61767,0.00204156,-0.03957671,0.11059162,-0.14032465,-0.01155316,0.0203
 7020,-0.02119126,0.00095617,-0.00056091,0.00087164,-0.00214944,0.00009
 672,-0.00459262,-0.00001989,0.00001860,0.00132246,-0.00025948,0.001324
 41,0.00066382,0.00330368,-0.01014315,0.01039405,0.04543720,-0.12478530
 ,0.15117727\\-0.00000078,-0.00000175,0.00000168,-0.00000176,-0.0000011
 9,0.00000218,0.00000139,-0.00000007,0.00000423,0.00000012,-0.00000164,
 0.00000632,0.00000186,0.00000117,0.00000165,0.00000274,-0.00000015,0.0
 0000505,-0.00000085,-0.00000082,-0.00000141,-0.00000196,-0.00000258,0.
 00000163,-0.00000224,-0.00000336,0.00000371,-0.00000092,-0.00000073,0.
 00000047,-0.00000033,0.00000073,-0.00000255,0.00000014,0.00000217,-0.0
 0000383,0.00000018,0.00000259,-0.00000749,0.00000316,0.00000375,-0.000
 00287,0.00000123,0.00000244,-0.00000361,0.00000083,-0.00000002,0.00000
 079,-0.00000096,-0.00000003,-0.00000285,-0.00000186,-0.00000052,-0.000
 00311\\\@


 "I COULD HAVE DONE IT IN A MUCH MORE COMPLICATED WAY"
 SAID THE RED QUEEN, IMMENSELY PROUD.

                                      -- LEWIS CARROLL
 File lengths (MBytes):  RWF=    120 Int=      0 D2E=      0 Chk=      4 Scr=      1
 Normal termination of Gaussian 16 at Sun Feb  5 16:10:04 2023.
real 2726.36
user 9438.82
sys 69.41
