 Entering Gaussian System, Link 0=g16
 Input=gaussian_test.inp
 Output=gaussian_test.log
 Initial command:
 /sw/restricted/lms/sw/Gaussian/g16_B01/g16/l1.exe "/scratch/user/peterchao1/peterchao1/6950591_1675450396000000660868418/Gau-208635.inp" -scrdir="/scratch/user/peterchao1/peterchao1/6950591_1675450396000000660868418/"
 Entering Link 1 = /sw/restricted/lms/sw/Gaussian/g16_B01/g16/l1.exe PID=    208636.
  
 Copyright (c) 1988-2017, Gaussian, Inc.  All Rights Reserved.
  
 This is part of the Gaussian(R) 16 program.  It is based on
 the Gaussian(R) 09 system (copyright 2009, Gaussian, Inc.),
 the Gaussian(R) 03 system (copyright 2003, Gaussian, Inc.),
 the Gaussian(R) 98 system (copyright 1998, Gaussian, Inc.),
 the Gaussian(R) 94 system (copyright 1995, Gaussian, Inc.),
 the Gaussian 92(TM) system (copyright 1992, Gaussian, Inc.),
 the Gaussian 90(TM) system (copyright 1990, Gaussian, Inc.),
 the Gaussian 88(TM) system (copyright 1988, Gaussian, Inc.),
 the Gaussian 86(TM) system (copyright 1986, Carnegie Mellon
 University), and the Gaussian 82(TM) system (copyright 1983,
 Carnegie Mellon University). Gaussian is a federally registered
 trademark of Gaussian, Inc.
  
 This software contains proprietary and confidential information,
 including trade secrets, belonging to Gaussian, Inc.
  
 This software is provided under written license and may be
 used, copied, transmitted, or stored only in accord with that
 written license.
  
 The following legend is applicable only to US Government
 contracts under FAR:
  
                    RESTRICTED RIGHTS LEGEND
  
 Use, reproduction and disclosure by the US Government is
 subject to restrictions as set forth in subparagraphs (a)
 and (c) of the Commercial Computer Software - Restricted
 Rights clause in FAR 52.227-19.
  
 Gaussian, Inc.
 340 Quinnipiac St., Bldg. 40, Wallingford CT 06492
  
  
 ---------------------------------------------------------------
 Warning -- This program may not be used in any manner that
 competes with the business of Gaussian, Inc. or will provide
 assistance to any competitor of Gaussian, Inc.  The licensee
 of this program is prohibited from giving any competitor of
 Gaussian, Inc. access to this program.  By using this program,
 the user acknowledges that Gaussian, Inc. is engaged in the
 business of creating and licensing software in the field of
 computational chemistry and represents and warrants to the
 licensee that it is not a competitor of Gaussian, Inc. and that
 it will not use this program in any manner prohibited above.
 ---------------------------------------------------------------
  

 Cite this work as:
 Gaussian 16, Revision B.01,
 M. J. Frisch, G. W. Trucks, H. B. Schlegel, G. E. Scuseria, 
 M. A. Robb, J. R. Cheeseman, G. Scalmani, V. Barone, 
 G. A. Petersson, H. Nakatsuji, X. Li, M. Caricato, A. V. Marenich, 
 J. Bloino, B. G. Janesko, R. Gomperts, B. Mennucci, H. P. Hratchian, 
 J. V. Ortiz, A. F. Izmaylov, J. L. Sonnenberg, D. Williams-Young, 
 F. Ding, F. Lipparini, F. Egidi, J. Goings, B. Peng, A. Petrone, 
 T. Henderson, D. Ranasinghe, V. G. Zakrzewski, J. Gao, N. Rega, 
 G. Zheng, W. Liang, M. Hada, M. Ehara, K. Toyota, R. Fukuda, 
 J. Hasegawa, M. Ishida, T. Nakajima, Y. Honda, O. Kitao, H. Nakai, 
 T. Vreven, K. Throssell, J. A. Montgomery, Jr., J. E. Peralta, 
 F. Ogliaro, M. J. Bearpark, J. J. Heyd, E. N. Brothers, K. N. Kudin, 
 V. N. Staroverov, T. A. Keith, R. Kobayashi, J. Normand, 
 K. Raghavachari, A. P. Rendell, J. C. Burant, S. S. Iyengar, 
 J. Tomasi, M. Cossi, J. M. Millam, M. Klene, C. Adamo, R. Cammi, 
 J. W. Ochterski, R. L. Martin, K. Morokuma, O. Farkas, 
 J. B. Foresman, and D. J. Fox, Gaussian, Inc., Wallingford CT, 2016.
 
 ******************************************
 Gaussian 16:  ES64L-G16RevB.01 20-Dec-2017
                 3-Feb-2023 
 ******************************************
 %nprocshared=4
 Will use up to    4 processors via shared memory.
 %mem=8000mb
 %chk=33.chk
 %nprocshared=4
 Will use up to    4 processors via shared memory.
 %mem=8000mb
 ----------------------------------------------------------------------
 #T wB97XD/def2svpp opt=tight freq int(grid=ultrafine) scf=(verytight,q
 c) Volume=tight
 ----------------------------------------------------------------------
 -----
 Dimer
 -----
 Symbolic Z-matrix:
 Charge =  0 Multiplicity = 1
 C                     1.95045  -2.23245   0.33232 
 C                     1.98838  -1.13731  -0.72646 
 C                     2.58888   0.18885  -0.24976 
 C                     3.98792   0.02379   0.3292 
 C                     2.59924   1.19661  -1.39398 
 S                     1.53462   0.88286   1.1075 
 H                     2.95105  -2.58316   0.57176 
 H                     1.37215  -3.07851  -0.03129 
 H                     1.48568  -1.86367   1.24428 
 H                     0.97172  -0.94435  -1.07859 
 H                     2.5722   -1.48276  -1.58412 
 H                     4.63756  -0.46099  -0.39738 
 H                     3.96488  -0.57497   1.23627 
 H                     4.40668   0.99719   0.57718 
 H                     3.28289   0.86573  -2.17429 
 H                     2.92523   2.17244  -1.03987 
 H                     1.60521   1.29862  -1.82689 
 H                     0.47171   1.07727   0.32573 
 C                    -1.9887   -2.23557  -0.33461 
 C                    -1.97403  -1.13736   0.72195 
 C                    -2.57236   0.19698   0.26834 
 C                    -4.00146   0.05747  -0.23898 
 C                    -2.49869   1.20746   1.40745 
 S                    -1.51972   0.82204  -1.1339 
 H                    -1.51023  -1.894    -1.25004 
 H                    -3.00366  -2.54654  -0.56864 
 H                    -1.44448  -3.10258   0.03161 
 H                    -0.94344  -0.95883   1.03607 
 H                    -2.53185  -1.47359   1.5998 
 H                    -4.0363   -0.53983  -1.14644 
 H                    -4.42644   1.03587  -0.45844 
 H                    -4.61773  -0.42189   0.51976 
 H                    -3.10866   0.86275   2.24072 
 H                    -2.87146   2.18114   1.093 
 H                    -1.47518   1.32455   1.75773 
 H                    -2.10021   2.01599  -1.21406 
 
 Add virtual bond connecting atoms S24        and H18        Dist= 4.69D+00.
 Add virtual bond connecting atoms H28        and H18        Dist= 4.87D+00.
 Add virtual bond connecting atoms H35        and H18        Dist= 4.59D+00.

 GradGradGradGradGradGradGradGradGradGradGradGradGradGradGradGradGradGrad
 Initialization pass.
                           ----------------------------
                           !    Initial Parameters    !
                           ! (Angstroms and Degrees)  !
 --------------------------                            --------------------------
 ! Name  Definition              Value          Derivative Info.                !
 --------------------------------------------------------------------------------
 ! R1    R(1,2)                  1.5237         estimate D2E/DX2                !
 ! R2    R(1,7)                  1.087          estimate D2E/DX2                !
 ! R3    R(1,8)                  1.0874         estimate D2E/DX2                !
 ! R4    R(1,9)                  1.088          estimate D2E/DX2                !
 ! R5    R(2,3)                  1.5318         estimate D2E/DX2                !
 ! R6    R(2,10)                 1.0931         estimate D2E/DX2                !
 ! R7    R(2,11)                 1.0935         estimate D2E/DX2                !
 ! R8    R(3,4)                  1.5231         estimate D2E/DX2                !
 ! R9    R(3,5)                  1.5248         estimate D2E/DX2                !
 ! R10   R(3,6)                  1.8535         estimate D2E/DX2                !
 ! R11   R(4,12)                 1.0886         estimate D2E/DX2                !
 ! R12   R(4,13)                 1.0871         estimate D2E/DX2                !
 ! R13   R(4,14)                 1.0883         estimate D2E/DX2                !
 ! R14   R(5,15)                 1.0889         estimate D2E/DX2                !
 ! R15   R(5,16)                 1.0881         estimate D2E/DX2                !
 ! R16   R(5,17)                 1.089          estimate D2E/DX2                !
 ! R17   R(6,18)                 1.3337         estimate D2E/DX2                !
 ! R18   R(18,24)                2.4822         estimate D2E/DX2                !
 ! R19   R(18,28)                2.5793         estimate D2E/DX2                !
 ! R20   R(18,35)                2.4294         estimate D2E/DX2                !
 ! R21   R(19,20)                1.524          estimate D2E/DX2                !
 ! R22   R(19,25)                1.0879         estimate D2E/DX2                !
 ! R23   R(19,26)                1.087          estimate D2E/DX2                !
 ! R24   R(19,27)                1.0872         estimate D2E/DX2                !
 ! R25   R(20,21)                1.5311         estimate D2E/DX2                !
 ! R26   R(20,28)                1.0921         estimate D2E/DX2                !
 ! R27   R(20,29)                1.0931         estimate D2E/DX2                !
 ! R28   R(21,22)                1.5229         estimate D2E/DX2                !
 ! R29   R(21,23)                1.5245         estimate D2E/DX2                !
 ! R30   R(21,24)                1.8615         estimate D2E/DX2                !
 ! R31   R(22,30)                1.0869         estimate D2E/DX2                !
 ! R32   R(22,31)                1.0891         estimate D2E/DX2                !
 ! R33   R(22,32)                1.0887         estimate D2E/DX2                !
 ! R34   R(23,33)                1.0887         estimate D2E/DX2                !
 ! R35   R(23,34)                1.089          estimate D2E/DX2                !
 ! R36   R(23,35)                1.0881         estimate D2E/DX2                !
 ! R37   R(24,36)                1.33           estimate D2E/DX2                !
 ! A1    A(2,1,7)              111.2251         estimate D2E/DX2                !
 ! A2    A(2,1,8)              109.8822         estimate D2E/DX2                !
 ! A3    A(2,1,9)              110.4544         estimate D2E/DX2                !
 ! A4    A(7,1,8)              108.1901         estimate D2E/DX2                !
 ! A5    A(7,1,9)              108.5403         estimate D2E/DX2                !
 ! A6    A(8,1,9)              108.4713         estimate D2E/DX2                !
 ! A7    A(1,2,3)              114.5658         estimate D2E/DX2                !
 ! A8    A(1,2,10)             109.1213         estimate D2E/DX2                !
 ! A9    A(1,2,11)             109.3441         estimate D2E/DX2                !
 ! A10   A(3,2,10)             108.1811         estimate D2E/DX2                !
 ! A11   A(3,2,11)             107.9552         estimate D2E/DX2                !
 ! A12   A(10,2,11)            107.4374         estimate D2E/DX2                !
 ! A13   A(2,3,4)              112.6162         estimate D2E/DX2                !
 ! A14   A(2,3,5)              109.9575         estimate D2E/DX2                !
 ! A15   A(2,3,6)              109.2125         estimate D2E/DX2                !
 ! A16   A(4,3,5)              110.5265         estimate D2E/DX2                !
 ! A17   A(4,3,6)              106.5413         estimate D2E/DX2                !
 ! A18   A(5,3,6)              107.8126         estimate D2E/DX2                !
 ! A19   A(3,4,12)             110.0432         estimate D2E/DX2                !
 ! A20   A(3,4,13)             110.9402         estimate D2E/DX2                !
 ! A21   A(3,4,14)             110.0685         estimate D2E/DX2                !
 ! A22   A(12,4,13)            108.9227         estimate D2E/DX2                !
 ! A23   A(12,4,14)            108.7099         estimate D2E/DX2                !
 ! A24   A(13,4,14)            108.0991         estimate D2E/DX2                !
 ! A25   A(3,5,15)             109.9485         estimate D2E/DX2                !
 ! A26   A(3,5,16)             110.5217         estimate D2E/DX2                !
 ! A27   A(3,5,17)             110.7336         estimate D2E/DX2                !
 ! A28   A(15,5,16)            108.5193         estimate D2E/DX2                !
 ! A29   A(15,5,17)            108.4618         estimate D2E/DX2                !
 ! A30   A(16,5,17)            108.5934         estimate D2E/DX2                !
 ! A31   A(3,6,18)              94.5113         estimate D2E/DX2                !
 ! A32   A(6,18,28)             99.2514         estimate D2E/DX2                !
 ! A33   A(6,18,35)            107.9386         estimate D2E/DX2                !
 ! A34   A(24,18,28)            68.9369         estimate D2E/DX2                !
 ! A35   A(24,18,35)            73.3903         estimate D2E/DX2                !
 ! A36   A(28,18,35)            58.5566         estimate D2E/DX2                !
 ! A37   A(20,19,25)           110.6628         estimate D2E/DX2                !
 ! A38   A(20,19,26)           111.3698         estimate D2E/DX2                !
 ! A39   A(20,19,27)           109.653          estimate D2E/DX2                !
 ! A40   A(25,19,26)           108.6212         estimate D2E/DX2                !
 ! A41   A(25,19,27)           108.28           estimate D2E/DX2                !
 ! A42   A(26,19,27)           108.1658         estimate D2E/DX2                !
 ! A43   A(19,20,21)           114.7623         estimate D2E/DX2                !
 ! A44   A(19,20,28)           109.0438         estimate D2E/DX2                !
 ! A45   A(19,20,29)           109.2812         estimate D2E/DX2                !
 ! A46   A(21,20,28)           108.1512         estimate D2E/DX2                !
 ! A47   A(21,20,29)           107.853          estimate D2E/DX2                !
 ! A48   A(28,20,29)           107.5094         estimate D2E/DX2                !
 ! A49   A(20,21,22)           112.6794         estimate D2E/DX2                !
 ! A50   A(20,21,23)           109.7183         estimate D2E/DX2                !
 ! A51   A(20,21,24)           107.1473         estimate D2E/DX2                !
 ! A52   A(22,21,23)           110.793          estimate D2E/DX2                !
 ! A53   A(22,21,24)           108.0885         estimate D2E/DX2                !
 ! A54   A(23,21,24)           108.2388         estimate D2E/DX2                !
 ! A55   A(21,22,30)           111.0108         estimate D2E/DX2                !
 ! A56   A(21,22,31)           110.5497         estimate D2E/DX2                !
 ! A57   A(21,22,32)           109.8387         estimate D2E/DX2                !
 ! A58   A(30,22,31)           108.2363         estimate D2E/DX2                !
 ! A59   A(30,22,32)           108.7684         estimate D2E/DX2                !
 ! A60   A(31,22,32)           108.3678         estimate D2E/DX2                !
 ! A61   A(21,23,33)           109.5705         estimate D2E/DX2                !
 ! A62   A(21,23,34)           111.1216         estimate D2E/DX2                !
 ! A63   A(21,23,35)           110.9362         estimate D2E/DX2                !
 ! A64   A(33,23,34)           108.1989         estimate D2E/DX2                !
 ! A65   A(33,23,35)           108.3427         estimate D2E/DX2                !
 ! A66   A(34,23,35)           108.5856         estimate D2E/DX2                !
 ! A67   A(18,24,21)            92.5929         estimate D2E/DX2                !
 ! A68   A(18,24,36)           107.055          estimate D2E/DX2                !
 ! A69   A(21,24,36)            95.7404         estimate D2E/DX2                !
 ! A70   A(18,28,20)           124.5824         estimate D2E/DX2                !
 ! A71   A(18,35,23)           123.5797         estimate D2E/DX2                !
 ! A72   L(6,18,24,28,-1)      168.1882         estimate D2E/DX2                !
 ! A73   L(6,18,24,28,-2)      188.3393         estimate D2E/DX2                !
 ! D1    D(7,1,2,3)            -69.2337         estimate D2E/DX2                !
 ! D2    D(7,1,2,10)           169.3274         estimate D2E/DX2                !
 ! D3    D(7,1,2,11)            52.079          estimate D2E/DX2                !
 ! D4    D(8,1,2,3)            170.993          estimate D2E/DX2                !
 ! D5    D(8,1,2,10)            49.5541         estimate D2E/DX2                !
 ! D6    D(8,1,2,11)           -67.6943         estimate D2E/DX2                !
 ! D7    D(9,1,2,3)             51.3584         estimate D2E/DX2                !
 ! D8    D(9,1,2,10)           -70.0806         estimate D2E/DX2                !
 ! D9    D(9,1,2,11)           172.671          estimate D2E/DX2                !
 ! D10   D(1,2,3,4)             55.2093         estimate D2E/DX2                !
 ! D11   D(1,2,3,5)            178.9474         estimate D2E/DX2                !
 ! D12   D(1,2,3,6)            -62.9411         estimate D2E/DX2                !
 ! D13   D(10,2,3,4)           177.1622         estimate D2E/DX2                !
 ! D14   D(10,2,3,5)           -59.0998         estimate D2E/DX2                !
 ! D15   D(10,2,3,6)            59.0117         estimate D2E/DX2                !
 ! D16   D(11,2,3,4)           -66.8625         estimate D2E/DX2                !
 ! D17   D(11,2,3,5)            56.8755         estimate D2E/DX2                !
 ! D18   D(11,2,3,6)           174.987          estimate D2E/DX2                !
 ! D19   D(2,3,4,12)            55.5062         estimate D2E/DX2                !
 ! D20   D(2,3,4,13)           -65.1055         estimate D2E/DX2                !
 ! D21   D(2,3,4,14)           175.2953         estimate D2E/DX2                !
 ! D22   D(5,3,4,12)           -67.9157         estimate D2E/DX2                !
 ! D23   D(5,3,4,13)           171.4726         estimate D2E/DX2                !
 ! D24   D(5,3,4,14)            51.8734         estimate D2E/DX2                !
 ! D25   D(6,3,4,12)           175.2157         estimate D2E/DX2                !
 ! D26   D(6,3,4,13)            54.604          estimate D2E/DX2                !
 ! D27   D(6,3,4,14)           -64.9952         estimate D2E/DX2                !
 ! D28   D(2,3,5,15)           -66.2108         estimate D2E/DX2                !
 ! D29   D(2,3,5,16)           174.0104         estimate D2E/DX2                !
 ! D30   D(2,3,5,17)            53.6309         estimate D2E/DX2                !
 ! D31   D(4,3,5,15)            58.7365         estimate D2E/DX2                !
 ! D32   D(4,3,5,16)           -61.0424         estimate D2E/DX2                !
 ! D33   D(4,3,5,17)           178.5781         estimate D2E/DX2                !
 ! D34   D(6,3,5,15)           174.8159         estimate D2E/DX2                !
 ! D35   D(6,3,5,16)            55.0371         estimate D2E/DX2                !
 ! D36   D(6,3,5,17)           -65.3424         estimate D2E/DX2                !
 ! D37   D(2,3,6,18)           -65.2229         estimate D2E/DX2                !
 ! D38   D(4,3,6,18)           172.8853         estimate D2E/DX2                !
 ! D39   D(5,3,6,18)            54.2245         estimate D2E/DX2                !
 ! D40   D(3,6,18,28)          102.0565         estimate D2E/DX2                !
 ! D41   D(3,6,18,35)          161.8708         estimate D2E/DX2                !
 ! D42   D(3,6,24,21)          138.3733         estimate D2E/DX2                !
 ! D43   D(3,6,24,36)         -125.0751         estimate D2E/DX2                !
 ! D44   D(28,18,24,21)         34.6896         estimate D2E/DX2                !
 ! D45   D(28,18,24,36)        131.5022         estimate D2E/DX2                !
 ! D46   D(35,18,24,21)        -27.3758         estimate D2E/DX2                !
 ! D47   D(35,18,24,36)         69.4368         estimate D2E/DX2                !
 ! D48   D(6,18,28,20)         172.4786         estimate D2E/DX2                !
 ! D49   D(24,18,28,20)        -15.8607         estimate D2E/DX2                !
 ! D50   D(35,18,28,20)         67.042          estimate D2E/DX2                !
 ! D51   D(6,18,35,23)        -161.6498         estimate D2E/DX2                !
 ! D52   D(24,18,35,23)          3.4527         estimate D2E/DX2                !
 ! D53   D(28,18,35,23)        -71.6429         estimate D2E/DX2                !
 ! D54   D(25,19,20,21)         54.0471         estimate D2E/DX2                !
 ! D55   D(25,19,20,28)        -67.4298         estimate D2E/DX2                !
 ! D56   D(25,19,20,29)        175.3153         estimate D2E/DX2                !
 ! D57   D(26,19,20,21)        -66.885          estimate D2E/DX2                !
 ! D58   D(26,19,20,28)        171.6381         estimate D2E/DX2                !
 ! D59   D(26,19,20,29)         54.3833         estimate D2E/DX2                !
 ! D60   D(27,19,20,21)        173.4299         estimate D2E/DX2                !
 ! D61   D(27,19,20,28)         51.953          estimate D2E/DX2                !
 ! D62   D(27,19,20,29)        -65.3018         estimate D2E/DX2                !
 ! D63   D(19,20,21,22)         56.0838         estimate D2E/DX2                !
 ! D64   D(19,20,21,23)       -179.9652         estimate D2E/DX2                !
 ! D65   D(19,20,21,24)        -62.6732         estimate D2E/DX2                !
 ! D66   D(28,20,21,22)        178.0466         estimate D2E/DX2                !
 ! D67   D(28,20,21,23)        -58.0024         estimate D2E/DX2                !
 ! D68   D(28,20,21,24)         59.2896         estimate D2E/DX2                !
 ! D69   D(29,20,21,22)        -65.9625         estimate D2E/DX2                !
 ! D70   D(29,20,21,23)         57.9885         estimate D2E/DX2                !
 ! D71   D(29,20,21,24)        175.2805         estimate D2E/DX2                !
 ! D72   D(19,20,28,18)        104.7387         estimate D2E/DX2                !
 ! D73   D(21,20,28,18)        -20.675          estimate D2E/DX2                !
 ! D74   D(29,20,28,18)       -136.8895         estimate D2E/DX2                !
 ! D75   D(20,21,22,30)        -65.4935         estimate D2E/DX2                !
 ! D76   D(20,21,22,31)        174.3749         estimate D2E/DX2                !
 ! D77   D(20,21,22,32)         54.8362         estimate D2E/DX2                !
 ! D78   D(23,21,22,30)        171.1513         estimate D2E/DX2                !
 ! D79   D(23,21,22,31)         51.0197         estimate D2E/DX2                !
 ! D80   D(23,21,22,32)        -68.519          estimate D2E/DX2                !
 ! D81   D(24,21,22,30)         52.7126         estimate D2E/DX2                !
 ! D82   D(24,21,22,31)        -67.419          estimate D2E/DX2                !
 ! D83   D(24,21,22,32)        173.0423         estimate D2E/DX2                !
 ! D84   D(20,21,23,33)        -63.428          estimate D2E/DX2                !
 ! D85   D(20,21,23,34)        177.0558         estimate D2E/DX2                !
 ! D86   D(20,21,23,35)         56.1505         estimate D2E/DX2                !
 ! D87   D(22,21,23,33)         61.6174         estimate D2E/DX2                !
 ! D88   D(22,21,23,34)        -57.8987         estimate D2E/DX2                !
 ! D89   D(22,21,23,35)       -178.8041         estimate D2E/DX2                !
 ! D90   D(24,21,23,33)        179.9649         estimate D2E/DX2                !
 ! D91   D(24,21,23,34)         60.4487         estimate D2E/DX2                !
 ! D92   D(24,21,23,35)        -60.4567         estimate D2E/DX2                !
 ! D93   D(20,21,24,18)        -64.4663         estimate D2E/DX2                !
 ! D94   D(20,21,24,36)       -171.9012         estimate D2E/DX2                !
 ! D95   D(22,21,24,18)        173.8473         estimate D2E/DX2                !
 ! D96   D(22,21,24,36)         66.4124         estimate D2E/DX2                !
 ! D97   D(23,21,24,18)         53.7919         estimate D2E/DX2                !
 ! D98   D(23,21,24,36)        -53.6431         estimate D2E/DX2                !
 ! D99   D(21,23,35,18)         31.0234         estimate D2E/DX2                !
 ! D100  D(33,23,35,18)        151.334          estimate D2E/DX2                !
 ! D101  D(34,23,35,18)        -91.3677         estimate D2E/DX2                !
 --------------------------------------------------------------------------------
 Number of steps in this run=    216 maximum allowed number of steps=    216.
 GradGradGradGradGradGradGradGradGradGradGradGradGradGradGradGradGradGrad

                    Distance matrix (angstroms):
                    1          2          3          4          5
     1  C    0.000000
     2  C    1.523739   0.000000
     3  C    2.570816   1.531842   0.000000
     4  C    3.040049   2.541792   1.523073   0.000000
     5  C    3.893522   2.503185   1.524773   2.504655   0.000000
     6  S    3.237124   2.765939   1.853451   2.713384   2.736649
     7  H    1.086981   2.168539   2.913775   2.816045   4.274877
     8  H    1.087411   2.152033   3.493391   4.073874   4.651810
     9  H    1.087966   2.159655   2.768038   3.265132   4.191150
    10  H    2.146579   1.093087   2.141565   3.466499   2.707764
    11  H    2.149740   1.093509   2.138940   2.816867   2.686246
    12  H    3.300166   2.753874   2.154333   1.088554   2.809909
    13  H    2.760849   2.841666   2.164505   1.087115   3.452780
    14  H    4.064922   3.479043   2.154451   1.088284   2.681810
    15  H    4.202051   2.790009   2.154912   2.733751   1.088928
    16  H    4.715523   3.454037   2.161490   2.760499   1.088071
    17  H    4.153290   2.700283   2.164839   3.457053   1.088994
    18  H    3.625038   2.883010   2.367037   3.670630   2.738247
    19  C    3.995206   4.144500   5.180656   6.423805   5.826771
    20  C    4.092991   4.218841   4.850073   6.086656   5.553319
    21  C    5.134398   4.854931   5.187185   6.562848   5.523401
    22  C    6.402759   6.127265   6.591658   8.009628   6.797122
    23  C    5.725700   5.494116   5.446764   6.681300   5.816952
    24  S    4.849925   4.038793   4.250085   5.754299   4.144121
    25  H    3.820298   3.617591   4.705470   6.033363   5.143954
    26  H    5.045156   5.189543   6.233824   7.502994   6.788584
    27  H    3.517539   4.027590   5.213507   6.274845   6.071820
    28  H    3.239131   3.425487   3.930371   5.077750   4.806415
    29  H    4.719463   5.094805   5.692661   6.809104   6.513115
    30  H    6.394757   6.068792   6.725180   8.178222   6.863446
    31  H    7.209150   6.778235   7.069345   8.511525   7.089510
    32  H    6.815733   6.760595   7.273266   8.619289   7.639802
    33  H    6.230310   6.227697   6.254481   7.397239   6.775138
    34  H    6.580977   6.159603   5.965533   7.231092   6.089574
    35  H    5.139937   4.922219   4.672944   5.794663   5.152715
    36  H    6.070282   5.186294   5.124046   6.589066   4.773732
                    6          7          8          9         10
     6  S    0.000000
     7  H    3.782407   0.000000
     8  H    4.125009   1.761238   0.000000
     9  H    2.750370   1.765577   1.765161   0.000000
    10  H    2.904232   3.054031   2.410775   2.550497   0.000000
    11  H    3.730626   2.449946   2.529395   3.053764   1.762662
    12  H    3.701192   2.878742   4.200991   3.820590   3.759792
    13  H    2.836906   2.345688   3.820558   2.794148   3.801847
    14  H    2.922855   3.864942   5.117609   4.142681   4.279032
    15  H    3.718458   4.421057   4.878567   4.729294   3.133439
    16  H    2.864966   5.021327   5.567922   4.855906   3.678595
    17  H    2.964535   4.757414   4.736848   4.409807   2.447885
    18  H    1.333685   4.427904   4.267166   3.243599   2.511784
    19  C    4.921183   5.034223   3.478194   3.834379   3.314338
    20  C    4.067010   5.135107   3.941111   3.573506   3.457842
    21  C    4.247575   6.191067   5.135931   4.654720   3.959467
    22  C    5.756947   7.481149   6.225204   5.999957   5.142093
    23  C    4.057448   6.690797   5.951709   5.033249   4.780628
    24  S    3.789007   5.873024   4.979249   4.679868   3.054578
    25  H    4.747630   4.867940   3.346117   3.898454   2.662946
    26  H    5.930111   6.063038   4.440660   4.889492   4.316336
    27  H    5.090808   4.458947   2.817431   3.404596   3.424696
    28  H    3.088319   4.245126   3.315759   2.600521   2.853044
    29  H    4.725604   5.687720   4.525197   4.052043   4.441720
    30  H    6.175714   7.480007   6.077815   6.161197   5.024794
    31  H    6.165203   8.281662   7.122790   6.801442   5.783248
    32  H    6.316581   7.871479   6.575708   6.313098   5.836924
    33  H    4.779600   7.167967   6.385387   5.434533   5.561737
    34  H    4.593396   7.541347   6.851001   5.947105   5.408752
    35  H    3.110749   6.022310   5.540290   4.381216   4.379493
    36  H    4.459323   7.060913   6.277747   5.826982   4.268336
                   11         12         13         14         15
    11  H    0.000000
    12  H    2.591924   0.000000
    13  H    3.273873   1.770394   0.000000
    14  H    3.766521   1.768992   1.761040   0.000000
    15  H    2.523642   2.598596   3.764658   2.975028   0.000000
    16  H    3.712317   3.206208   3.716172   2.488127   1.767010
    17  H    2.954668   3.786137   4.296663   3.703873   1.767120
    18  H    3.822735   4.499260   3.970033   3.943809   3.767970
    19  C    4.788505   6.860051   6.377330   7.223778   6.386871
    20  C    5.109353   6.739694   5.987613   6.729844   6.327387
    21  C    5.720109   7.270419   6.653445   7.031557   6.379470
    22  C    6.884382   8.656009   8.126434   8.499771   7.580272
    23  C    6.473071   7.547654   6.707016   6.958286   6.809722
    24  S    4.717900   6.332508   6.135975   6.170961   4.914204
    25  H    4.116665   6.369910   6.156162   6.834287   5.607522
    26  H    5.766550   7.922568   7.463603   8.293621   7.330927
    27  H    4.622566   6.644786   6.091075   7.165323   6.554503
    28  H    4.415840   5.783612   4.927381   5.714932   5.612248
    29  H    6.015707   7.510953   6.568647   7.435972   7.316238
    30  H    6.689769   8.706500   8.348502   8.753133   7.523477
    31  H    7.522736   9.186961   8.710971   8.893707   7.899801
    32  H    7.566167   9.300699   8.613827   9.135488   8.446049
    33  H    7.238988   8.289490   7.287721   7.698427   7.768154
    34  H    7.086934   8.098608   7.372399   7.391837   7.090954
    35  H    5.952330   6.722958   5.785702   6.008093   6.189552
    36  H    5.848895   7.224944   7.035798   6.825404   5.587747
                   16         17         18         19         20
    16  H    0.000000
    17  H    1.767886   0.000000
    18  H    3.013973   2.442861   0.000000
    19  C    6.638872   5.256759   4.179061   0.000000
    20  C    6.169406   5.024091   3.323135   1.524006   0.000000
    21  C    5.986431   4.801627   3.169319   2.573232   1.531088
    22  C    7.286536   5.957904   4.622573   3.052602   2.541938
    23  C    6.028224   5.226010   3.163914   3.892208   2.498666
    24  S    4.646507   3.236127   2.482235   3.194959   2.736753
    25  H    6.021075   4.497940   3.903783   1.087938   2.162482
    26  H    7.592274   6.132710   5.100011   1.087027   2.170605
    27  H    6.933130   5.667905   4.607541   1.087201   2.149211
    28  H    5.392681   4.448391   2.579327   2.145081   1.092089
    29  H    7.073971   6.045039   4.141432   2.148854   1.093083
    30  H    7.471996   5.972398   5.010439   2.779803   2.846202
    31  H    7.461696   6.190510   4.960697   4.081691   3.482886
    32  H    8.127688   6.869634   5.309197   3.306237   2.746253
    33  H    6.991806   6.241464   4.065985   4.181653   2.755808
    34  H    6.176642   5.417118   3.603343   4.724904   3.457677
    35  H    5.282906   4.726406   2.429436   4.161257   2.717115
    36  H    5.030892   3.823647   3.141168   4.342995   3.702382
                   21         22         23         24         25
    21  C    0.000000
    22  C    1.522879   0.000000
    23  C    1.524486   2.508290   0.000000
    24  S    1.861457   2.746725   2.750527   0.000000
    25  H    2.793883   3.322152   4.202175   2.718531   0.000000
    26  H    2.900598   2.808047   4.272282   3.724101   1.766487
    27  H    3.495041   4.073979   4.645508   4.094719   1.762843
    28  H    2.139786   3.465554   2.692490   2.865720   2.534174
    29  H    2.136641   2.808023   2.688137   3.710447   3.056470
    30  H    2.165088   1.086948   3.455371   2.861472   2.868028
    31  H    2.160907   1.089051   2.688341   2.991820   4.208921
    32  H    2.151688   1.088699   2.816575   3.725540   3.867282
    33  H    2.149685   2.755807   1.088678   3.730208   4.726520
    34  H    2.169431   2.749741   1.088993   2.938282   4.893829
    35  H    2.166452   3.460412   1.088109   2.935312   4.405330
    36  H    2.393573   2.898507   2.772146   1.330005   3.954410
                   26         27         28         29         30
    26  H    0.000000
    27  H    1.760834   0.000000
    28  H    3.056206   2.419846   0.000000
    29  H    2.464944   2.509031   1.762326   0.000000
    30  H    2.329615   3.830547   3.808500   3.267586   0.000000
    31  H    3.856173   5.124354   4.282941   3.758078   1.763054
    32  H    2.881659   4.182577   3.749033   2.573605   1.768671
    33  H    4.418909   4.834620   3.075303   2.490373   3.781610
    34  H    5.012935   5.575001   3.685096   3.705297   3.711554
    35  H    4.767976   4.751840   2.453033   2.995174   4.297611
    36  H    4.695687   5.308621   3.905214   4.503468   3.207060
                   31         32         33         34         35
    31  H    0.000000
    32  H    1.765936   0.000000
    33  H    3.008644   2.624745   0.000000
    34  H    2.477210   3.186511   1.763991   0.000000
    35  H    3.701979   3.802401   1.764876   1.767829   0.000000
    36  H    2.634946   3.909900   3.779203   2.438162   3.114523
                   36
    36  H    0.000000
 Framework group  C1[X(C10H24S2)]
 Deg. of freedom   102
                         Standard orientation:                         
 ---------------------------------------------------------------------
 Center     Atomic      Atomic             Coordinates (Angstroms)
 Number     Number       Type             X           Y           Z
 ---------------------------------------------------------------------
      1          6           0       -1.959170    2.195639    0.331944
      2          6           0       -2.007622    1.086540   -0.711768
      3          6           0       -2.597290   -0.235107   -0.209692
      4          6           0       -3.989006   -0.066830    0.385758
      5          6           0       -2.619597   -1.257883   -1.340340
      6         16           0       -1.522684   -0.907870    1.142304
      7          1           0       -2.957637    2.546329    0.580150
      8          1           0       -1.388592    3.038649   -0.050466
      9          1           0       -1.481028    1.840364    1.242345
     10          1           0       -0.995122    0.892148   -1.074941
     11          1           0       -2.603993    1.418823   -1.565987
     12          1           0       -4.649900    0.406289   -0.338346
     13          1           0       -3.955831    0.543891    1.284500
     14          1           0       -4.401189   -1.038188    0.652089
     15          1           0       -3.314717   -0.939452   -2.115694
     16          1           0       -2.937594   -2.229978   -0.969114
     17          1           0       -1.631111   -1.362458   -1.785162
     18          1           0       -0.469687   -1.109214    0.348973
     19          6           0        1.970677    2.202347   -0.387736
     20          6           0        1.973780    1.118107    0.683248
     21          6           0        2.570413   -0.220209    0.239212
     22          6           0        3.992133   -0.082898   -0.289009
     23          6           0        2.515325   -1.215817    1.392376
     24         16           0        1.501201   -0.866978   -1.140462
     25          1           0        1.481147    1.847246   -1.292099
     26          1           0        2.981387    2.513395   -0.639411
     27          1           0        1.428528    3.072397   -0.025666
     28          1           0        0.948079    0.940494    1.013476
     29          1           0        2.542159    1.467616    1.549053
     30          1           0        4.012863    0.502498   -1.204616
     31          1           0        4.417380   -1.062764   -0.501281
     32          1           0        4.616897    0.408345    0.455045
     33          1           0        3.135230   -0.858254    2.212794
     34          1           0        2.887090   -2.192386    1.085770
     35          1           0        1.496983   -1.331504    1.757857
     36          1           0        2.084523   -2.060054   -1.212709
 ---------------------------------------------------------------------
 Rotational constants (GHZ):           1.0459562           0.3559446           0.3281490
   224 basis functions,   420 primitive gaussians,   236 cartesian basis functions
    58 alpha electrons       58 beta electrons
       nuclear repulsion energy      1010.6043778344 Hartrees.
 NAtoms=   36 NActive=   36 NUniq=   36 SFac= 1.00D+00 NAtFMM=   60 NAOKFM=F Big=F
 Nuclear repulsion after empirical dispersion term =     1010.5744638275 Hartrees.
   1 Symmetry operations used in ECPInt.
 ECPInt:  NShTT=    7750 NPrTT=   32126 LenC2=    7514 LenP2D=   22168.
 LDataN:  DoStor=T MaxTD1= 4 Len=   56
 ExpMin= 1.22D-01 ExpMax= 9.18D+03 ExpMxC= 1.38D+03 IAcc=3 IRadAn=         5 AccDes= 0.00D+00
 Harris functional with IExCor= 4639 and IRadAn=       5 diagonalized for initial guess.
 HarFok:  IExCor= 4639 AccDes= 0.00D+00 IRadAn=         5 IDoV= 1 UseB2=F ITyADJ=14
 ICtDFT=  3500011 ScaDFX=  1.000000  1.000000  1.000000  1.000000
 FoFCou: FMM=F IPFlag=           0 FMFlag=      100000 FMFlg1=           0
         NFxFlg=           0 DoJE=T BraDBF=F KetDBF=T FulRan=T
         wScrn=  0.000000 ICntrl=       500 IOpCl=  0 I1Cent=   200000004 NGrid=           0
         NMat0=    1 NMatS0=      1 NMatT0=    0 NMatD0=    1 NMtDS0=    0 NMtDT0=    0
 Petite list used in FoFCou.
     Minimum is close to point  3 DX=  4.57D-02 DF= -1.07D-03 DXR=  7.08D-02 DFR=  4.99D-03 which will be used.
     Minimum is close to point  3 DX=  4.72D-03 DF= -3.64D-07 DXR=  5.22D-03 DFR=  2.71D-05 which will be used.
     Accept linear search using points  1 and  2.
     Minimum is close to point  2 DX=  1.41D-04 DF= -4.55D-13 DXR=  1.41D-04 DFR=  1.80D-08 which will be used.
 SCF Done:  E(RwB97XD) =  -1191.21701335     a.u. after    7 cycles
            Convg  =    0.6109D-09                    34 Fock formations.
              S**2 =  0.0000                  -V/T =  2.0050

 **********************************************************************

            Population analysis using the SCF Density.

 **********************************************************************

 Orbital symmetries:
       Occupied  (A) (A) (A) (A) (A) (A) (A) (A) (A) (A) (A) (A)
                 (A) (A) (A) (A) (A) (A) (A) (A) (A) (A) (A) (A)
                 (A) (A) (A) (A) (A) (A) (A) (A) (A) (A) (A) (A)
                 (A) (A) (A) (A) (A) (A) (A) (A) (A) (A) (A) (A)
                 (A) (A) (A) (A) (A) (A) (A) (A) (A) (A)
       Virtual   (A) (A) (A) (A) (A) (A) (A) (A) (A) (A) (A) (A)
                 (A) (A) (A) (A) (A) (A) (A) (A) (A) (A) (A) (A)
                 (A) (A) (A) (A) (A) (A) (A) (A) (A) (A) (A) (A)
                 (A) (A) (A) (A) (A) (A) (A) (A) (A) (A) (A) (A)
                 (A) (A) (A) (A) (A) (A) (A) (A) (A) (A) (A) (A)
                 (A) (A) (A) (A) (A) (A) (A) (A) (A) (A) (A) (A)
                 (A) (A) (A) (A) (A) (A) (A) (A) (A) (A) (A) (A)
                 (A) (A) (A) (A) (A) (A) (A) (A) (A) (A) (A) (A)
                 (A) (A) (A) (A) (A) (A) (A) (A) (A) (A) (A) (A)
                 (A) (A) (A) (A) (A) (A) (A) (A) (A) (A) (A) (A)
                 (A) (A) (A) (A) (A) (A) (A) (A) (A) (A) (A) (A)
                 (A) (A) (A) (A) (A) (A) (A) (A) (A) (A) (A) (A)
                 (A) (A) (A) (A) (A) (A) (A) (A) (A) (A) (A) (A)
                 (A) (A) (A) (A) (A) (A) (A) (A) (A) (A)
 The electronic state is 1-A.
 Alpha  occ. eigenvalues --  -89.00131 -88.97372 -10.34375 -10.32745 -10.29440
 Alpha  occ. eigenvalues --  -10.28756 -10.28742 -10.28295 -10.27940 -10.27776
 Alpha  occ. eigenvalues --  -10.27347 -10.26762  -8.05437  -8.02759  -6.00881
 Alpha  occ. eigenvalues --   -6.00513  -5.99855  -5.98180  -5.97838  -5.97192
 Alpha  occ. eigenvalues --   -0.94305  -0.92802  -0.84354  -0.82946  -0.80750
 Alpha  occ. eigenvalues --   -0.79252  -0.78746  -0.77889  -0.72531  -0.71159
 Alpha  occ. eigenvalues --   -0.63165  -0.61821  -0.56933  -0.55631  -0.54970
 Alpha  occ. eigenvalues --   -0.54234  -0.53209  -0.52399  -0.51541  -0.50386
 Alpha  occ. eigenvalues --   -0.49049  -0.48178  -0.47823  -0.47153  -0.46608
 Alpha  occ. eigenvalues --   -0.45414  -0.44393  -0.44087  -0.43779  -0.43131
 Alpha  occ. eigenvalues --   -0.41858  -0.41376  -0.40803  -0.40424  -0.38514
 Alpha  occ. eigenvalues --   -0.37119  -0.31649  -0.29797
 Alpha virt. eigenvalues --    0.09025   0.11241   0.12533   0.14116   0.14984
 Alpha virt. eigenvalues --    0.15352   0.17631   0.18328   0.18631   0.19319
 Alpha virt. eigenvalues --    0.19848   0.20081   0.20790   0.21561   0.22026
 Alpha virt. eigenvalues --    0.22579   0.23246   0.23876   0.24204   0.24578
 Alpha virt. eigenvalues --    0.24837   0.25283   0.25865   0.27094   0.27994
 Alpha virt. eigenvalues --    0.28540   0.29664   0.30057   0.30068   0.31058
 Alpha virt. eigenvalues --    0.31428   0.32282   0.33033   0.34646   0.41421
 Alpha virt. eigenvalues --    0.46044   0.47080   0.47742   0.48802   0.49391
 Alpha virt. eigenvalues --    0.49836   0.50969   0.52767   0.54729   0.55581
 Alpha virt. eigenvalues --    0.56930   0.57826   0.58849   0.60032   0.61111
 Alpha virt. eigenvalues --    0.63700   0.65668   0.66252   0.66939   0.68217
 Alpha virt. eigenvalues --    0.70216   0.70985   0.71863   0.72302   0.73056
 Alpha virt. eigenvalues --    0.74252   0.74548   0.74842   0.75292   0.76073
 Alpha virt. eigenvalues --    0.76715   0.77103   0.77640   0.78903   0.79174
 Alpha virt. eigenvalues --    0.79541   0.79625   0.80039   0.80190   0.80785
 Alpha virt. eigenvalues --    0.81445   0.81758   0.82201   0.82476   0.82715
 Alpha virt. eigenvalues --    0.83448   0.83850   0.84634   0.84775   0.84919
 Alpha virt. eigenvalues --    0.86128   0.86761   0.87983   0.88578   0.89070
 Alpha virt. eigenvalues --    0.90057   0.90680   0.91868   0.92678   0.93959
 Alpha virt. eigenvalues --    0.96394   0.97192   0.99247   1.00862   1.01961
 Alpha virt. eigenvalues --    1.04589   1.06953   1.07528   1.11113   1.12204
 Alpha virt. eigenvalues --    1.17538   1.18311   1.20301   1.21275   1.23149
 Alpha virt. eigenvalues --    1.23893   1.24327   1.28240   1.31732   1.33918
 Alpha virt. eigenvalues --    1.37989   1.49880   1.50661   1.51713   1.53730
 Alpha virt. eigenvalues --    1.68805   1.70219   1.81960   1.83621   1.91097
 Alpha virt. eigenvalues --    1.92267   1.92828   1.94851   1.96113   1.97528
 Alpha virt. eigenvalues --    1.98598   1.99790   2.00098   2.01757   2.05513
 Alpha virt. eigenvalues --    2.07061   2.07653   2.08224   2.12028   2.13499
 Alpha virt. eigenvalues --    2.15626   2.17288   2.19990   2.23217   2.24635
 Alpha virt. eigenvalues --    2.25038   2.26005   2.26478   2.29368   2.31284
 Alpha virt. eigenvalues --    2.33699   2.34960   2.36752   2.37871   2.45989
 Alpha virt. eigenvalues --    2.47565   2.54961   2.55181   2.56108   2.56796
 Alpha virt. eigenvalues --    2.68962   2.70109   2.79079   2.80537   2.81195
 Alpha virt. eigenvalues --    2.82628
          Condensed to atoms (all electrons):
 Mulliken charges:
               1
     1  C   -0.315645
     2  C   -0.142684
     3  C   -0.380505
     4  C   -0.237032
     5  C   -0.207971
     6  S   -0.217886
     7  H    0.113785
     8  H    0.117282
     9  H    0.138349
    10  H    0.107126
    11  H    0.097038
    12  H    0.115911
    13  H    0.130595
    14  H    0.124435
    15  H    0.105750
    16  H    0.121306
    17  H    0.116891
    18  H    0.188332
    19  C   -0.315023
    20  C   -0.178973
    21  C   -0.380163
    22  C   -0.215623
    23  C   -0.210333
    24  S   -0.161630
    25  H    0.135411
    26  H    0.118908
    27  H    0.128509
    28  H    0.120813
    29  H    0.109055
    30  H    0.134663
    31  H    0.111168
    32  H    0.114660
    33  H    0.115076
    34  H    0.111928
    35  H    0.131426
    36  H    0.155053
 Sum of Mulliken charges =   0.00000
 Mulliken charges with hydrogens summed into heavy atoms:
               1
     1  C    0.053771
     2  C    0.061480
     3  C   -0.380505
     4  C    0.133909
     5  C    0.135975
     6  S   -0.029553
    19  C    0.067805
    20  C    0.050894
    21  C   -0.380163
    22  C    0.144867
    23  C    0.148097
    24  S   -0.006577
 Electronic spatial extent (au):  <R**2>=           3820.6246
 Charge=              0.0000 electrons
 Dipole moment (field-independent basis, Debye):
    X=              1.6818    Y=              0.2892    Z=             -0.6027  Tot=              1.8098
 Evaluate density.
 Using the total density.
 Monte-Carlo method of calculating molar volume:
 based on  0.001 e/bohr**3 density envelope.
 Number of points per bohr**3 =  100 CutOff= 1.00D-04
 Using the SCF density.
 There are      2329 points.  Will hold      2329 in memory.
 LenV=  1047963874 MDV=  1048576000.
 Box volume =12642.554 fraction occupied=0.156
 Integrated density= 7.1381714384486756D+01 error=-4.4618285615513244D+01
 Molar volume = 1970.480 bohr**3/mol (175.843 cm**3/mol)
 Recommended a0 for SCRF calculation =  5.03 angstrom (  9.50 bohr)
   1 Symmetry operations used in ECPInt.
 ECPInt:  NShTT=    7750 NPrTT=   32126 LenC2=    7514 LenP2D=   22168.
 LDataN:  DoStor=T MaxTD1= 5 Len=  102
 Calling FoFJK, ICntrl=      2127 FMM=F ISym2X=0 I1Cent= 0 IOpClX= 0 NMat=1 NMatS=1 NMatT=0.

 GradGradGradGradGradGradGradGradGradGradGradGradGradGradGradGradGradGrad
 FormGI is forming the generalized inverse of G from B-inverse, IUseBI=4.
 Internal  Forces:  Max     0.014406717 RMS     0.003924252
 Step number   1 out of a maximum of  216
 All quantities printed in internal units (Hartrees-Bohrs-Radians)
 Mixed Optimization -- RFO/linear search
 Second derivative matrix not updated -- first step.
 ITU=  0
     Eigenvalues ---    0.00230   0.00345   0.00363   0.00413   0.00438
     Eigenvalues ---    0.00448   0.00452   0.00461   0.00463   0.00524
     Eigenvalues ---    0.01018   0.02070   0.02443   0.02595   0.03276
     Eigenvalues ---    0.03426   0.03529   0.03830   0.04240   0.04274
     Eigenvalues ---    0.04321   0.04738   0.04846   0.05496   0.05564
     Eigenvalues ---    0.05600   0.05631   0.05639   0.05657   0.05722
     Eigenvalues ---    0.05735   0.05739   0.05747   0.05750   0.05752
     Eigenvalues ---    0.06007   0.06485   0.06498   0.07175   0.08536
     Eigenvalues ---    0.08627   0.08745   0.09211   0.11205   0.11528
     Eigenvalues ---    0.12273   0.12410   0.14178   0.15716   0.16000
     Eigenvalues ---    0.16000   0.16000   0.16000   0.16000   0.16000
     Eigenvalues ---    0.16000   0.16000   0.16000   0.16000   0.16000
     Eigenvalues ---    0.16000   0.16000   0.16000   0.16000   0.16062
     Eigenvalues ---    0.16287   0.16497   0.20545   0.21988   0.22321
     Eigenvalues ---    0.26837   0.26934   0.27238   0.27701   0.29254
     Eigenvalues ---    0.29911   0.29984   0.30009   0.30073   0.30091
     Eigenvalues ---    0.30358   0.33477   0.34410   0.34458   0.34459
     Eigenvalues ---    0.34923   0.34929   0.34929   0.34937   0.34963
     Eigenvalues ---    0.34966   0.34980   0.35012   0.35036   0.35049
     Eigenvalues ---    0.35052   0.35114   0.35138   0.35148   0.35159
     Eigenvalues ---    0.35164   0.35168
 Linear search not attempted -- first point.
 Iteration  1 RMS(Cart)=  0.06382801 RMS(Int)=  0.00097854
 Iteration  2 RMS(Cart)=  0.00211723 RMS(Int)=  0.00010076
 Iteration  3 RMS(Cart)=  0.00000270 RMS(Int)=  0.00010076
 Iteration  4 RMS(Cart)=  0.00000000 RMS(Int)=  0.00010076
 Variable       Old X    -DE/DX   Delta X   Delta X   Delta X     New X
                                 (Linear)    (Quad)   (Total)
    R1        2.87945   0.00440   0.00000   0.01412   0.01412   2.89357
    R2        2.05410   0.01106   0.00000   0.03045   0.03045   2.08454
    R3        2.05491   0.01093   0.00000   0.03014   0.03014   2.08504
    R4        2.05596   0.00975   0.00000   0.02692   0.02692   2.08287
    R5        2.89476   0.00857   0.00000   0.02817   0.02817   2.92293
    R6        2.06563   0.00756   0.00000   0.02121   0.02121   2.08685
    R7        2.06643   0.00918   0.00000   0.02580   0.02580   2.09224
    R8        2.87819   0.00542   0.00000   0.01734   0.01734   2.89553
    R9        2.88140   0.00549   0.00000   0.01765   0.01765   2.89906
   R10        3.50252   0.00413   0.00000   0.01758   0.01758   3.52009
   R11        2.05707   0.01106   0.00000   0.03060   0.03060   2.08767
   R12        2.05435   0.01070   0.00000   0.02946   0.02946   2.08381
   R13        2.05656   0.01016   0.00000   0.02808   0.02808   2.08464
   R14        2.05778   0.01181   0.00000   0.03272   0.03272   2.09050
   R15        2.05616   0.00989   0.00000   0.02731   0.02731   2.08347
   R16        2.05790   0.00974   0.00000   0.02698   0.02698   2.08488
   R17        2.52030   0.01441   0.00000   0.05126   0.05126   2.57156
   R18        4.69075   0.00376   0.00000   0.07291   0.07297   4.76371
   R19        4.87422  -0.00068   0.00000  -0.01722  -0.01728   4.85695
   R20        4.59097   0.00067   0.00000   0.01626   0.01615   4.60712
   R21        2.87995   0.00532   0.00000   0.01709   0.01709   2.89704
   R22        2.05590   0.01036   0.00000   0.02860   0.02860   2.08450
   R23        2.05418   0.01067   0.00000   0.02936   0.02936   2.08354
   R24        2.05451   0.01061   0.00000   0.02922   0.02922   2.08374
   R25        2.89334   0.00603   0.00000   0.02113   0.02125   2.91459
   R26        2.06375   0.00766   0.00000   0.02252   0.02255   2.08630
   R27        2.06563   0.00832   0.00000   0.02336   0.02336   2.08899
   R28        2.87782   0.00617   0.00000   0.01974   0.01974   2.89756
   R29        2.88086   0.00439   0.00000   0.01715   0.01721   2.89807
   R30        3.51764   0.00270   0.00000   0.00951   0.00954   3.52718
   R31        2.05403   0.00974   0.00000   0.02680   0.02680   2.08084
   R32        2.05801   0.00985   0.00000   0.02729   0.02729   2.08529
   R33        2.05734   0.01184   0.00000   0.03276   0.03276   2.09010
   R34        2.05730   0.01145   0.00000   0.03169   0.03169   2.08899
   R35        2.05790   0.00999   0.00000   0.02767   0.02767   2.08557
   R36        2.05623   0.00908   0.00000   0.02699   0.02689   2.08312
   R37        2.51335   0.01276   0.00000   0.04492   0.04492   2.55827
    A1        1.94124   0.00159   0.00000   0.00877   0.00874   1.94999
    A2        1.91781   0.00145   0.00000   0.00803   0.00801   1.92582
    A3        1.92779   0.00067   0.00000   0.00481   0.00478   1.93258
    A4        1.88827  -0.00183   0.00000  -0.01244  -0.01246   1.87582
    A5        1.89439  -0.00108   0.00000  -0.00553  -0.00556   1.88883
    A6        1.89318  -0.00094   0.00000  -0.00446  -0.00448   1.88870
    A7        1.99955   0.00845   0.00000   0.04235   0.04214   2.04169
    A8        1.90453  -0.00126   0.00000   0.00608   0.00572   1.91025
    A9        1.90841  -0.00267   0.00000  -0.01392  -0.01376   1.89465
   A10        1.88812  -0.00265   0.00000  -0.00495  -0.00555   1.88257
   A11        1.88417  -0.00257   0.00000  -0.01384  -0.01376   1.87042
   A12        1.87514   0.00029   0.00000  -0.01954  -0.01967   1.85547
   A13        1.96552  -0.00061   0.00000  -0.01192  -0.01214   1.95338
   A14        1.91912  -0.00169   0.00000  -0.01279  -0.01315   1.90597
   A15        1.90612   0.00263   0.00000   0.02956   0.02961   1.93573
   A16        1.92905   0.00038   0.00000  -0.01047  -0.01070   1.91835
   A17        1.85950  -0.00140   0.00000  -0.00607  -0.00592   1.85358
   A18        1.88169   0.00085   0.00000   0.01393   0.01394   1.89563
   A19        1.92062  -0.00047   0.00000  -0.00520  -0.00517   1.91544
   A20        1.93627   0.00280   0.00000   0.01742   0.01735   1.95362
   A21        1.92106   0.00144   0.00000   0.00977   0.00969   1.93074
   A22        1.90106  -0.00158   0.00000  -0.01178  -0.01174   1.88932
   A23        1.89735  -0.00081   0.00000  -0.00689  -0.00687   1.89048
   A24        1.88669  -0.00149   0.00000  -0.00395  -0.00413   1.88256
   A25        1.91896   0.00046   0.00000   0.00213   0.00212   1.92108
   A26        1.92897   0.00109   0.00000   0.00750   0.00748   1.93645
   A27        1.93267   0.00096   0.00000   0.00495   0.00494   1.93760
   A28        1.89402  -0.00061   0.00000  -0.00235  -0.00237   1.89165
   A29        1.89302  -0.00106   0.00000  -0.00849  -0.00848   1.88453
   A30        1.89531  -0.00091   0.00000  -0.00425  -0.00428   1.89103
   A31        1.64953   0.00301   0.00000   0.01780   0.01781   1.66734
   A32        1.73226  -0.00132   0.00000  -0.01093  -0.01087   1.72139
   A33        1.88388  -0.00103   0.00000   0.00094   0.00090   1.88479
   A34        1.20318   0.00104   0.00000   0.00204   0.00194   1.20511
   A35        1.28090   0.00129   0.00000   0.00230   0.00231   1.28321
   A36        1.02201   0.00108   0.00000  -0.00054  -0.00059   1.02142
   A37        1.93143   0.00256   0.00000   0.01544   0.01537   1.94680
   A38        1.94377   0.00149   0.00000   0.00855   0.00850   1.95227
   A39        1.91381   0.00109   0.00000   0.00592   0.00589   1.91969
   A40        1.89580  -0.00206   0.00000  -0.01122  -0.01129   1.88450
   A41        1.88984  -0.00181   0.00000  -0.01027  -0.01032   1.87952
   A42        1.88785  -0.00148   0.00000  -0.00965  -0.00966   1.87819
   A43        2.00298   0.00461   0.00000   0.03301   0.03289   2.03587
   A44        1.90317  -0.00110   0.00000   0.00313   0.00263   1.90580
   A45        1.90732  -0.00083   0.00000  -0.00379  -0.00357   1.90375
   A46        1.88759  -0.00112   0.00000   0.00144   0.00122   1.88882
   A47        1.88239  -0.00181   0.00000  -0.01952  -0.01961   1.86278
   A48        1.87639   0.00001   0.00000  -0.01754  -0.01759   1.85880
   A49        1.96663  -0.00041   0.00000  -0.00711  -0.00725   1.95938
   A50        1.91495   0.00011   0.00000  -0.00949  -0.00945   1.90550
   A51        1.87007  -0.00093   0.00000  -0.00612  -0.00602   1.86405
   A52        1.93370  -0.00080   0.00000  -0.00620  -0.00649   1.92721
   A53        1.88650   0.00164   0.00000   0.01811   0.01815   1.90465
   A54        1.88912   0.00045   0.00000   0.01220   0.01216   1.90128
   A55        1.93750   0.00198   0.00000   0.01271   0.01267   1.95018
   A56        1.92946   0.00074   0.00000   0.00361   0.00359   1.93305
   A57        1.91705   0.00066   0.00000   0.00340   0.00338   1.92042
   A58        1.88908  -0.00129   0.00000  -0.00660  -0.00664   1.88244
   A59        1.89837  -0.00117   0.00000  -0.00550  -0.00554   1.89283
   A60        1.89137  -0.00105   0.00000  -0.00839  -0.00839   1.88299
   A61        1.91237   0.00113   0.00000   0.00421   0.00416   1.91652
   A62        1.93944   0.00074   0.00000   0.00585   0.00584   1.94528
   A63        1.93620  -0.00094   0.00000   0.00311   0.00322   1.93942
   A64        1.88843  -0.00079   0.00000  -0.00667  -0.00668   1.88175
   A65        1.89094  -0.00018   0.00000  -0.00552  -0.00553   1.88541
   A66        1.89518   0.00001   0.00000  -0.00156  -0.00166   1.89352
   A67        1.61605   0.00028   0.00000  -0.00979  -0.00975   1.60631
   A68        1.86846  -0.00011   0.00000  -0.00005   0.00001   1.86847
   A69        1.67099   0.00050   0.00000   0.01264   0.01263   1.68362
   A70        2.17437   0.00005   0.00000   0.00367   0.00375   2.17812
   A71        2.15687  -0.00053   0.00000  -0.00053  -0.00064   2.15624
   A72        2.93544  -0.00029   0.00000  -0.00890  -0.00893   2.92650
   A73        3.28714   0.00020   0.00000   0.00935   0.00937   3.29651
    D1       -1.20836   0.00027   0.00000   0.01348   0.01362  -1.19474
    D2        2.95532  -0.00114   0.00000  -0.01370  -0.01383   2.94149
    D3        0.90895   0.00075   0.00000   0.01428   0.01426   0.92321
    D4        2.98439   0.00059   0.00000   0.01815   0.01830   3.00269
    D5        0.86488  -0.00082   0.00000  -0.00903  -0.00915   0.85573
    D6       -1.18149   0.00107   0.00000   0.01895   0.01894  -1.16255
    D7        0.89637   0.00041   0.00000   0.01555   0.01569   0.91206
    D8       -1.22314  -0.00101   0.00000  -0.01163  -0.01176  -1.23489
    D9        3.01368   0.00089   0.00000   0.01635   0.01633   3.03001
   D10        0.96358  -0.00065   0.00000  -0.02035  -0.02046   0.94312
   D11        3.12322  -0.00186   0.00000  -0.05197  -0.05194   3.07128
   D12       -1.09853  -0.00025   0.00000  -0.02488  -0.02492  -1.12345
   D13        3.09206   0.00144   0.00000   0.01228   0.01218   3.10425
   D14       -1.03149   0.00023   0.00000  -0.01934  -0.01930  -1.05079
   D15        1.02995   0.00183   0.00000   0.00774   0.00772   1.03767
   D16       -1.16697  -0.00096   0.00000  -0.02048  -0.02049  -1.18746
   D17        0.99266  -0.00216   0.00000  -0.05210  -0.05197   0.94070
   D18        3.05410  -0.00056   0.00000  -0.02502  -0.02495   3.02915
   D19        0.96877  -0.00142   0.00000  -0.01659  -0.01659   0.95218
   D20       -1.13630  -0.00095   0.00000  -0.00973  -0.00966  -1.14597
   D21        3.05948  -0.00181   0.00000  -0.02224  -0.02228   3.03720
   D22       -1.18535   0.00095   0.00000   0.01650   0.01650  -1.16886
   D23        2.99276   0.00142   0.00000   0.02337   0.02342   3.01618
   D24        0.90536   0.00056   0.00000   0.01086   0.01080   0.91616
   D25        3.05809   0.00055   0.00000   0.00887   0.00886   3.06695
   D26        0.95302   0.00102   0.00000   0.01574   0.01579   0.96881
   D27       -1.13438   0.00016   0.00000   0.00323   0.00317  -1.13122
   D28       -1.15560   0.00183   0.00000   0.03477   0.03471  -1.12089
   D29        3.03705   0.00161   0.00000   0.03158   0.03152   3.06857
   D30        0.93604   0.00142   0.00000   0.02873   0.02866   0.96469
   D31        1.02514   0.00011   0.00000   0.00305   0.00311   1.02825
   D32       -1.06539  -0.00011   0.00000  -0.00014  -0.00008  -1.06547
   D33        3.11678  -0.00030   0.00000  -0.00299  -0.00294   3.11384
   D34        3.05111  -0.00088   0.00000  -0.00188  -0.00187   3.04925
   D35        0.96058  -0.00110   0.00000  -0.00507  -0.00506   0.95552
   D36       -1.14044  -0.00129   0.00000  -0.00792  -0.00792  -1.14836
   D37       -1.13835   0.00053   0.00000   0.03470   0.03451  -1.10384
   D38        3.01742   0.00061   0.00000   0.03588   0.03585   3.05327
   D39        0.94640   0.00047   0.00000   0.04417   0.04439   0.99079
   D40        1.78122  -0.00139   0.00000  -0.06479  -0.06477   1.71645
   D41        2.82518  -0.00062   0.00000  -0.06842  -0.06848   2.75670
   D42        2.41507  -0.00131   0.00000  -0.06382  -0.06379   2.35128
   D43       -2.18297  -0.00067   0.00000  -0.05407  -0.05406  -2.23703
   D44        0.60545   0.00065   0.00000   0.00048   0.00046   0.60591
   D45        2.29515   0.00125   0.00000   0.01066   0.01065   2.30580
   D46       -0.47780  -0.00003   0.00000   0.00198   0.00199  -0.47581
   D47        1.21190   0.00058   0.00000   0.01216   0.01218   1.22408
   D48        3.01032   0.00140   0.00000   0.02293   0.02293   3.03325
   D49       -0.27682   0.00119   0.00000   0.01358   0.01356  -0.26326
   D50        1.17010   0.00182   0.00000   0.01538   0.01544   1.18554
   D51       -2.82132   0.00016   0.00000   0.01692   0.01691  -2.80441
   D52        0.06026  -0.00012   0.00000   0.00408   0.00403   0.06429
   D53       -1.25041  -0.00047   0.00000   0.00287   0.00293  -1.24747
   D54        0.94330   0.00038   0.00000   0.01847   0.01859   0.96189
   D55       -1.17687  -0.00051   0.00000  -0.00844  -0.00857  -1.18544
   D56        3.05983   0.00058   0.00000   0.01301   0.01305   3.07288
   D57       -1.16736   0.00024   0.00000   0.01640   0.01650  -1.15087
   D58        2.99565  -0.00065   0.00000  -0.01051  -0.01066   2.98499
   D59        0.94917   0.00044   0.00000   0.01094   0.01095   0.96012
   D60        3.02692   0.00043   0.00000   0.01914   0.01926   3.04618
   D61        0.90675  -0.00047   0.00000  -0.00777  -0.00790   0.89885
   D62       -1.13973   0.00063   0.00000   0.01368   0.01372  -1.12601
   D63        0.97885   0.00081   0.00000   0.00463   0.00452   0.98337
   D64       -3.14099  -0.00044   0.00000  -0.01556  -0.01575   3.12645
   D65       -1.09385  -0.00037   0.00000  -0.00955  -0.00968  -1.10354
   D66        3.10750   0.00167   0.00000   0.03201   0.03196   3.13946
   D67       -1.01233   0.00041   0.00000   0.01182   0.01169  -1.00064
   D68        1.03480   0.00049   0.00000   0.01782   0.01776   1.05255
   D69       -1.15126   0.00015   0.00000   0.00200   0.00210  -1.14916
   D70        1.01209  -0.00110   0.00000  -0.01819  -0.01817   0.99392
   D71        3.05922  -0.00103   0.00000  -0.01218  -0.01210   3.04712
   D72        1.82803   0.00306   0.00000   0.02753   0.02733   1.85536
   D73       -0.36085  -0.00121   0.00000  -0.01638  -0.01641  -0.37726
   D74       -2.38917   0.00148   0.00000   0.01486   0.01473  -2.37445
   D75       -1.14308   0.00004   0.00000   0.00503   0.00506  -1.13802
   D76        3.04342  -0.00013   0.00000   0.00260   0.00261   3.04603
   D77        0.95707   0.00028   0.00000   0.00857   0.00860   0.96568
   D78        2.98715   0.00080   0.00000   0.02727   0.02723   3.01438
   D79        0.89046   0.00063   0.00000   0.02483   0.02478   0.91524
   D80       -1.19588   0.00104   0.00000   0.03080   0.03077  -1.16511
   D81        0.92001  -0.00029   0.00000   0.00500   0.00501   0.92502
   D82       -1.17668  -0.00045   0.00000   0.00256   0.00257  -1.17412
   D83        3.02016  -0.00004   0.00000   0.00853   0.00856   3.02872
   D84       -1.10703   0.00012   0.00000  -0.00162  -0.00160  -1.10863
   D85        3.09021  -0.00009   0.00000   0.00028   0.00033   3.09053
   D86        0.98001   0.00003   0.00000  -0.00382  -0.00376   0.97625
   D87        1.07543  -0.00090   0.00000  -0.02188  -0.02186   1.05357
   D88       -1.01052  -0.00111   0.00000  -0.01998  -0.01993  -1.03045
   D89       -3.12072  -0.00098   0.00000  -0.02408  -0.02402   3.13845
   D90        3.14098   0.00091   0.00000   0.00399   0.00398  -3.13823
   D91        1.05503   0.00070   0.00000   0.00589   0.00591   1.06093
   D92       -1.05517   0.00083   0.00000   0.00179   0.00182  -1.05335
   D93       -1.12515   0.00001   0.00000   0.00386   0.00381  -1.12134
   D94       -3.00024   0.00005   0.00000   0.00409   0.00406  -2.99619
   D95        3.03421   0.00011   0.00000   0.00565   0.00573   3.03993
   D96        1.15911   0.00015   0.00000   0.00587   0.00598   1.16509
   D97        0.93885  -0.00013   0.00000  -0.00418  -0.00422   0.93463
   D98       -0.93625  -0.00009   0.00000  -0.00395  -0.00397  -0.94022
   D99        0.54146  -0.00062   0.00000  -0.01129  -0.01122   0.53024
   D100       2.64128   0.00009   0.00000  -0.00773  -0.00768   2.63360
   D101      -1.59467  -0.00095   0.00000  -0.01955  -0.01949  -1.61416
         Item               Value     Threshold  Converged?
 Maximum Force            0.014407     0.000015     NO 
 RMS     Force            0.003924     0.000010     NO 
 Maximum Displacement     0.238304     0.000060     NO 
 RMS     Displacement     0.064483     0.000040     NO 
 GradGradGradGradGradGradGradGradGradGradGradGradGradGradGradGradGradGrad

                    Distance matrix (angstroms):
                    1          2          3          4          5
     1  C    0.000000
     2  C    1.531210   0.000000
     3  C    2.624127   1.546749   0.000000
     4  C    3.085439   2.551426   1.532249   0.000000
     5  C    3.930102   2.511368   1.534115   2.510491   0.000000
     6  S    3.358844   2.814041   1.862753   2.722211   2.765393
     7  H    1.103093   2.193603   2.981428   2.874935   4.318366
     8  H    1.103358   2.176362   3.555400   4.129584   4.687341
     9  H    1.102210   2.180406   2.846676   3.333766   4.274641
    10  H    2.165680   1.104313   2.158668   3.485798   2.720843
    11  H    2.156241   1.107163   2.151548   2.827640   2.658472
    12  H    3.310088   2.752213   2.170734   1.104747   2.807756
    13  H    2.830348   2.872940   2.196821   1.102702   3.484087
    14  H    4.137936   3.508989   2.180698   1.103144   2.702375
    15  H    4.205029   2.785986   2.177626   2.746197   1.106243
    16  H    4.786200   3.483265   2.186005   2.775428   1.102525
    17  H    4.204944   2.725229   2.187403   3.480372   1.103270
    18  H    3.721996   2.939753   2.410469   3.719342   2.820982
    19  C    3.848999   4.063377   5.133099   6.348517   5.839076
    20  C    4.005534   4.153421   4.804973   6.025273   5.572196
    21  C    5.110392   4.849403   5.203647   6.573429   5.615199
    22  C    6.361904   6.133549   6.630131   8.037484   6.924893
    23  C    5.729834   5.504459   5.476868   6.705764   5.934537
    24  S    4.885506   4.086497   4.315719   5.826391   4.272853
    25  H    3.693232   3.550386   4.683116   5.988941   5.171214
    26  H    4.901695   5.123494   6.207712   7.446174   6.828243
    27  H    3.337607   3.934769   5.147367   6.165491   6.060477
    28  H    3.182140   3.362911   3.869334   5.001403   4.803678
    29  H    4.621349   5.026506   5.639118   6.728742   6.530586
    30  H    6.360283   6.095110   6.788006   8.229976   7.009101
    31  H    7.209084   6.822181   7.148390   8.586928   7.264442
    32  H    6.753609   6.753416   7.296117   8.621795   7.757409
    33  H    6.212551   6.225927   6.275124   7.402860   6.888703
    34  H    6.622671   6.210266   6.037944   7.303769   6.256939
    35  H    5.167633   4.936071   4.695023   5.811475   5.254515
    36  H    6.142338   5.268167   5.227314   6.705037   4.952131
                    6          7          8          9         10
     6  S    0.000000
     7  H    3.907797   0.000000
     8  H    4.268234   1.779110   0.000000
     9  H    2.911165   1.786636   1.786764   0.000000
    10  H    2.962698   3.090190   2.439570   2.584372   0.000000
    11  H    3.774686   2.471171   2.539567   3.079673   1.769763
    12  H    3.724546   2.893542   4.214953   3.857894   3.768008
    13  H    2.871338   2.427546   3.906442   2.872178   3.846324
    14  H    2.941111   3.944690   5.199092   4.250988   4.319497
    15  H    3.760358   4.427074   4.870392   4.783260   3.135350
    16  H    2.905682   5.095179   5.638524   4.981906   3.714960
    17  H    3.009700   4.817988   4.785518   4.507269   2.469760
    18  H    1.360811   4.537603   4.379815   3.360391   2.567816
    19  C    4.944616   4.894238   3.331953   3.665241   3.270891
    20  C    4.080078   5.055567   3.881924   3.459482   3.421423
    21  C    4.288766   6.180801   5.121882   4.616350   3.964533
    22  C    5.813616   7.452699   6.179399   5.936350   5.159712
    23  C    4.097132   6.706092   5.971287   5.025313   4.804012
    24  S    3.851404   5.931619   5.010682   4.716462   3.090455
    25  H    4.800713   4.752083   3.198476   3.775915   2.620074
    26  H    5.973792   5.919048   4.281375   4.724103   4.285626
    27  H    5.106936   4.272836   2.643468   3.191187   3.393654
    28  H    3.083360   4.192359   3.314747   2.516187   2.829350
    29  H    4.726965   5.587103   4.463765   3.912411   4.413799
    30  H    6.259947   7.458828   6.026246   6.105127   5.059714
    31  H    6.246428   8.298174   7.111866   6.783002   5.829648
    32  H    6.363802   7.813636   6.515527   6.218400   5.853262
    33  H    4.820590   7.154249   6.386991   5.395673   5.583232
    34  H    4.652403   7.598874   6.899731   5.979137   5.463485
    35  H    3.137662   6.058788   5.592349   4.405112   4.409150
    36  H    4.539211   7.158966   6.340456   5.902036   4.332182
                   11         12         13         14         15
    11  H    0.000000
    12  H    2.582963   0.000000
    13  H    3.314533   1.788689   0.000000
    14  H    3.784597   1.789797   1.783012   0.000000
    15  H    2.468464   2.588522   3.793668   3.004911   0.000000
    16  H    3.701025   3.212311   3.759014   2.507631   1.791268
    17  H    2.941232   3.800657   4.348378   3.740337   1.787260
    18  H    3.880451   4.559482   4.031970   4.013147   3.861747
    19  C    4.722528   6.766971   6.295711   7.192587   6.375487
    20  C    5.062185   6.670778   5.922488   6.711966   6.332554
    21  C    5.729470   7.281696   6.657249   7.086350   6.469825
    22  C    6.908279   8.684190   8.137312   8.577134   7.708209
    23  C    6.498930   7.578680   6.717295   7.029755   6.930904
    24  S    4.773706   6.410228   6.209866   6.277835   5.051576
    25  H    4.051557   6.302214   6.113302   6.833530   5.607218
    26  H    5.710777   7.844764   7.395123   8.284691   7.344805
    27  H    4.546421   6.512399   5.971063   7.097314   6.512178
    28  H    4.375346   5.705582   4.852139   5.676132   5.599479
    29  H    5.968037   7.424051   6.474927   7.399326   7.319021
    30  H    6.731935   8.755212   8.384798   8.853281   7.666885
    31  H    7.583622   9.267353   8.767354   9.020399   8.082575
    32  H    7.579387   9.302137   8.592801   9.188860   8.560331
    33  H    7.254311   8.298854   7.271610   7.754425   7.880695
    34  H    7.153317   8.183388   7.427841   7.511524   7.270895
    35  H    5.980034   6.749219   5.792269   6.066395   6.296203
    36  H    5.938521   7.352222   7.148695   6.978830   5.784419
                   16         17         18         19         20
    16  H    0.000000
    17  H    1.788457   0.000000
    18  H    3.115732   2.532145   0.000000
    19  C    6.690290   5.314274   4.209604   0.000000
    20  C    6.229906   5.080724   3.326158   1.533049   0.000000
    21  C    6.120854   4.920105   3.189450   2.617235   1.542335
    22  C    7.460368   6.114664   4.663762   3.104298   2.553801
    23  C    6.194554   5.368547   3.182603   3.926520   2.506920
    24  S    4.804020   3.378050   2.520847   3.245667   2.743530
    25  H    6.087373   4.564462   3.967764   1.103071   2.192931
    26  H    7.675038   6.216942   5.148692   1.102563   2.196457
    27  H    6.956355   5.711889   4.642866   1.102665   2.172995
    28  H    5.425176   4.485677   2.570185   2.163798   1.104024
    29  H    7.133274   6.106716   4.137704   2.163335   1.105446
    30  H    7.660420   6.145384   5.081477   2.842576   2.870017
    31  H    7.684979   6.386503   5.021507   4.149673   3.511140
    32  H    8.293027   7.024203   5.347505   3.361403   2.768104
    33  H    7.157630   6.387003   4.093817   4.210971   2.772030
    34  H    6.393252   5.601849   3.639516   4.786428   3.484056
    35  H    5.429155   4.852125   2.437984   4.193868   2.728093
    36  H    5.242822   4.005647   3.192057   4.425681   3.740971
                   21         22         23         24         25
    21  C    0.000000
    22  C    1.533323   0.000000
    23  C    1.533592   2.518715   0.000000
    24  S    1.866504   2.776790   2.773713   0.000000
    25  H    2.872460   3.412345   4.280328   2.806037   0.000000
    26  H    2.956640   2.868874   4.322366   3.783113   1.784102
    27  H    3.547819   4.131866   4.679115   4.163671   1.780950
    28  H    2.159290   3.490394   2.697485   2.885629   2.574986
    29  H    2.140644   2.804565   2.671349   3.720253   3.093569
    30  H    2.194117   1.101132   3.487079   2.915727   2.967079
    31  H    2.183576   1.103490   2.715004   3.033113   4.318429
    32  H    2.176291   1.106033   2.820600   3.768384   3.959383
    33  H    2.173229   2.763659   1.105446   3.767046   4.800708
    34  H    2.192748   2.777329   1.103635   2.978028   5.002755
    35  H    2.187551   3.486778   1.102341   2.968513   4.480874
    36  H    2.426004   2.954184   2.818830   1.353778   4.072530
                   26         27         28         29         30
    26  H    0.000000
    27  H    1.779671   0.000000
    28  H    3.092244   2.445854   0.000000
    29  H    2.494939   2.528336   1.770364   0.000000
    30  H    2.387373   3.904286   3.854708   3.279075   0.000000
    31  H    3.930225   5.199504   4.323299   3.768879   1.781945
    32  H    2.949840   4.235964   3.775404   2.569126   1.790730
    33  H    4.461814   4.856254   3.086921   2.469528   3.805026
    34  H    5.089790   5.636347   3.707854   3.705797   3.762120
    35  H    4.819258   4.780287   2.450687   2.981739   4.347479
    36  H    4.789997   5.405443   3.949419   4.539243   3.282920
                   31         32         33         34         35
    31  H    0.000000
    32  H    1.786261   0.000000
    33  H    3.033463   2.611933   0.000000
    34  H    2.512943   3.205835   1.785097   0.000000
    35  H    3.746384   3.819355   1.786433   1.790206   0.000000
    36  H    2.693879   3.977568   3.841972   2.490889   3.168773
                   36
    36  H    0.000000
 Framework group  C1[X(C10H24S2)]
 Deg. of freedom   102
                         Standard orientation:                         
 ---------------------------------------------------------------------
 Center     Atomic      Atomic             Coordinates (Angstroms)
 Number     Number       Type             X           Y           Z
 ---------------------------------------------------------------------
      1          6           0       -1.894312    2.237451    0.334953
      2          6           0       -1.992114    1.100051   -0.685518
      3          6           0       -2.603952   -0.232868   -0.194178
      4          6           0       -3.984603   -0.029682    0.438521
      5          6           0       -2.708660   -1.205874   -1.375620
      6         16           0       -1.538094   -1.008389    1.122014
      7          1           0       -2.889655    2.622810    0.613528
      8          1           0       -1.318105    3.080032   -0.083903
      9          1           0       -1.387780    1.895968    1.252385
     10          1           0       -0.988299    0.882787   -1.091299
     11          1           0       -2.605008    1.445459   -1.540424
     12          1           0       -4.645844    0.499889   -0.270548
     13          1           0       -3.929074    0.562521    1.367049
     14          1           0       -4.446368   -1.001039    0.683809
     15          1           0       -3.413198   -0.810818   -2.131483
     16          1           0       -3.072477   -2.192078   -1.043057
     17          1           0       -1.728451   -1.343536   -1.862904
     18          1           0       -0.454413   -1.194710    0.320314
     19          6           0        1.894480    2.235051   -0.343168
     20          6           0        1.929471    1.096378    0.682717
     21          6           0        2.582552   -0.224724    0.227778
     22          6           0        4.022554   -0.023462   -0.259014
     23          6           0        2.544559   -1.230188    1.385147
     24         16           0        1.547367   -0.881731   -1.179550
     25          1           0        1.410509    1.919068   -1.282685
     26          1           0        2.906263    2.598864   -0.587258
     27          1           0        1.321500    3.087105    0.058789
     28          1           0        0.900159    0.875942    1.015572
     29          1           0        2.483540    1.433498    1.577909
     30          1           0        4.062503    0.593218   -1.170388
     31          1           0        4.497912   -0.993207   -0.485549
     32          1           0        4.622049    0.473476    0.526458
     33          1           0        3.151120   -0.853217    2.228940
     34          1           0        2.956670   -2.208585    1.083628
     35          1           0        1.514119   -1.381210    1.746451
     36          1           0        2.164101   -2.083123   -1.274469
 ---------------------------------------------------------------------
 Rotational constants (GHZ):           1.0172519           0.3529056           0.3237950
   224 basis functions,   420 primitive gaussians,   236 cartesian basis functions
    58 alpha electrons       58 beta electrons
       nuclear repulsion energy      1001.7482683097 Hartrees.
 NAtoms=   36 NActive=   36 NUniq=   36 SFac= 1.00D+00 NAtFMM=   60 NAOKFM=F Big=F
 Nuclear repulsion after empirical dispersion term =     1001.7182162558 Hartrees.
   1 Symmetry operations used in ECPInt.
 ECPInt:  NShTT=    7750 NPrTT=   32126 LenC2=    7506 LenP2D=   22059.
 LDataN:  DoStor=T MaxTD1= 4 Len=   56
 Initial guess from the checkpoint file:  "33.chk"
 B after Tr=     0.000000    0.000000   -0.000000
         Rot=    0.999950   -0.009952   -0.000587   -0.000427 Ang=  -1.14 deg.
 ExpMin= 1.22D-01 ExpMax= 9.18D+03 ExpMxC= 1.38D+03 IAcc=3 IRadAn=         5 AccDes= 0.00D+00
 Harris functional with IExCor= 4639 and IRadAn=       5 diagonalized for initial guess.
 HarFok:  IExCor= 4639 AccDes= 0.00D+00 IRadAn=         5 IDoV= 1 UseB2=F ITyADJ=14
 ICtDFT=  3500011 ScaDFX=  1.000000  1.000000  1.000000  1.000000
 FoFCou: FMM=F IPFlag=           0 FMFlag=      100000 FMFlg1=           0
         NFxFlg=           0 DoJE=T BraDBF=F KetDBF=T FulRan=T
         wScrn=  0.000000 ICntrl=       500 IOpCl=  0 I1Cent=   200000004 NGrid=           0
         NMat0=    1 NMatS0=      1 NMatT0=    0 NMatD0=    1 NMtDS0=    0 NMtDT0=    0
 Petite list used in FoFCou.
     Minimum is close to point  4 DX=  4.79D-02 DF= -7.84D-06 DXR=  3.84D-02 DFR=  1.47D-03 which will be used.
     Accept linear search using points  2 and  3.
     Minimum is close to point  2 DX=  7.03D-02 DF= -1.27D-06 DXR=  6.01D-02 DFR=  3.62D-03 which will be used.
     Accept linear search using points  1 and  2.
     Accept linear search using points  1 and  2.
     Minimum is close to point  2 DX= -8.51D-02 DF= -5.28D-07 DXR=  9.30D-02 DFR=  8.72D-03 which will be used.
     Accept linear search using points  1 and  2.
     Minimum is close to point  2 DX= -4.34D-05 DF= -2.27D-13 DXR=  4.34D-05 DFR=  3.63D-09 which will be used.
 SCF Done:  E(RwB97XD) =  -1191.22281875     a.u. after    8 cycles
            Convg  =    0.1088D-08                    34 Fock formations.
              S**2 =  0.0000                  -V/T =  2.0056
   1 Symmetry operations used in ECPInt.
 ECPInt:  NShTT=    7750 NPrTT=   32126 LenC2=    7506 LenP2D=   22059.
 LDataN:  DoStor=T MaxTD1= 5 Len=  102
 Calling FoFJK, ICntrl=      2127 FMM=F ISym2X=0 I1Cent= 0 IOpClX= 0 NMat=1 NMatS=1 NMatT=0.

 GradGradGradGradGradGradGradGradGradGradGradGradGradGradGradGradGradGrad
 Using GEDIIS/GDIIS optimizer.
 FormGI is forming the generalized inverse of G from B-inverse, IUseBI=4.
 Internal  Forces:  Max     0.003491429 RMS     0.000644199
 Step number   2 out of a maximum of  216
 All quantities printed in internal units (Hartrees-Bohrs-Radians)
 Mixed Optimization -- En-DIIS/RFO-DIIS
 Trust test= 9.11D-01 RLast= 2.97D-01 DXMaxT set to 5.05D-01
 ITU=  1  0
 Use linear search instead of GDIIS.
     Eigenvalues ---    0.00232   0.00347   0.00363   0.00413   0.00438
     Eigenvalues ---    0.00448   0.00452   0.00461   0.00463   0.00523
     Eigenvalues ---    0.01019   0.02058   0.02430   0.02566   0.03189
     Eigenvalues ---    0.03221   0.03396   0.03794   0.04200   0.04384
[...]
 15,-0.01375403,0.02653092,-0.05207991,-0.00026588,0.00104463,0.0000883
 3,0.00033440,-0.00057625,-0.00029968,-0.00006834,0.00005751,0.00001715
 ,0.00032412,0.00025296,0.00001696,0.00019784,0.00008804,0.00009839,-0.
 00043193,0.00050825,0.00027832,0.00015972,-0.00031302,0.00028467,0.013
 21015,-0.02354364,0.00541328,0.01714899,-0.02912452,0.05000207,-0.0000
 0713,0.00000363,0.00001508,0.00002408,-0.00000922,0.00001303,-0.000012
 06,-0.00003696,-0.00002868,0.00000559,0.00003316,0.00000886,0.00007599
 ,0.00000427,0.00005961,-0.00005170,0.00005663,-0.00010866,0.00001106,0
 .00000698,-0.00001936,-0.00000246,0.00003592,0.00000819,-0.00002070,-0
 .00001870,-0.00001751,-0.00001103,-0.00004888,0.00001812,0.00000114,0.
 00001266,-0.00000466,-0.00001422,0.00000280,0.00000722,-0.00000679,-0.
 00000087,-0.00001298,0.00000831,0.00000050,0.00000120,-0.00003314,0.00
 001389,-0.00000776,-0.00000584,0.00000536,-0.00001241,0.00001097,-0.00
 001418,-0.00005212,0.00021251,-0.00005997,0.00023267,-0.00013780,0.000
 23027,0.00001748,0.00119774,-0.00076128,0.00121792,-0.01359233,-0.0147
 9213,0.02206120,-0.10459231,-0.06115733,0.08720695,0.00080414,0.000335
 92,0.00095231,-0.00618633,-0.00220394,0.00087119,0.00014178,-0.0001190
 7,-0.00017417,-0.00005399,0.00002750,0.00011982,0.00003860,0.00004476,
 0.00000659,0.00040728,-0.00008463,-0.00027870,-0.00033992,0.00068318,-
 0.00074629,0.00105513,0.00246275,-0.00277479,0.00765572,0.00675522,-0.
 01200991,0.11299245,-0.00001347,0.00000567,0.00000346,0.00002683,-0.00
 000374,0.00000772,-0.00001023,0.00001776,-0.00000548,0.00000120,-0.000
 00062,0.00000103,0.00002708,-0.00000791,0.00001416,-0.00002647,-0.0000
 2258,-0.00003102,-0.00000921,0.00000276,-0.00000493,0.00000648,-0.0000
 0721,-0.00000089,0.00000568,-0.00000034,0.00000507,-0.00001220,-0.0000
 0181,-0.00001053,-0.00000773,0.00000190,-0.00000019,-0.00000251,0.0000
 0279,0.00000275,0.00000006,0.00000238,-0.00000237,-0.00000139,-0.00000
 362,-0.00000035,-0.00000910,0.00000625,-0.00000294,-0.00000516,-0.0000
 0235,-0.00000387,0.00000118,0.00000324,-0.00001605,0.00005029,0.000009
 54,0.00004949,-0.00005826,0.00013773,0.00002745,0.00100094,0.00032667,
 -0.00043426,-0.00133807,-0.00301238,0.00308070,-0.06152267,-0.11695169
 ,0.09608676,0.00005264,-0.00012395,0.00043016,-0.00105821,0.00067741,-
 0.00018578,-0.00008269,-0.00001486,-0.00000232,-0.00014241,-0.00001760
 ,-0.00003987,-0.00004859,-0.00001420,0.00002406,-0.00000637,-0.0000166
 1,-0.00009762,0.00013345,0.00028517,0.00002354,0.00892000,0.01014041,-
 0.01165745,-0.01413002,-0.01111849,0.01937241,0.06823702,0.11926356,0.
 00000327,0.00000592,0.00000476,-0.00000638,0.00000384,-0.00001604,-0.0
 0000786,0.00003100,0.00004772,0.00000214,-0.00001408,-0.00002082,-0.00
 000797,-0.00001103,-0.00000951,0.00005020,-0.00000653,0.00000259,0.000
 00443,-0.00000370,0.00000203,-0.00000381,-0.00000899,-0.00000364,-0.00
 000079,0.00000790,-0.00000540,0.00000947,0.00000562,0.00000778,0.00000
 523,-0.00000838,-0.00000278,0.00001075,-0.00000458,-0.00000330,-0.0000
 0209,0.00000203,0.00000342,-0.00000330,0.00000177,0.00000139,0.0000065
 2,-0.00000299,-0.00000721,-0.00000184,-0.00000007,0.00000422,0.0000037
 2,0.00000040,0.00000654,-0.00005696,-0.00000808,0.00000296,0.00019663,
 -0.00005654,0.00003201,-0.00019759,0.00006102,0.00054866,-0.00341273,-
 0.00425989,0.00419454,0.08814248,0.09646995,-0.18883979,-0.00038743,-0
 .00042662,0.00033822,-0.00047844,-0.00014273,0.00161592,-0.00018450,0.
 00000734,0.00002585,0.00002610,-0.00000639,-0.00019924,-0.00000989,-0.
 00004394,0.00001508,0.00002573,-0.00019914,0.00009572,0.00013120,-0.00
 013576,0.00011833,0.01141015,0.01516256,-0.01519121,0.00049302,-0.0003
 5143,-0.00138796,-0.09544948,-0.10589028,0.19859213,0.00000338,0.00002
 419,0.00002696,-0.00001100,-0.00003395,0.00002507,-0.00001236,-0.00013
 975,-0.00017778,-0.00001553,0.00004988,0.00008483,-0.00000889,0.000043
 97,0.00001939,0.00011386,0.00011317,0.00015264,0.00000181,0.00000081,-
 0.00001174,0.00000134,0.00002064,0.00000705,-0.00002161,-0.00003000,0.
 00000283,-0.00000200,-0.00001009,-0.00001373,0.00000160,0.00003045,-0.
 00000287,-0.00003460,0.00000977,-0.00000313,0.00000167,-0.00000329,-0.
 00000894,0.00000895,-0.00000105,-0.00000238,-0.00001117,0.00000057,0.0
 0002292,0.00000721,0.00000195,-0.00000735,-0.00000067,-0.00000817,-0.0
 0001418,0.00021172,0.00005320,-0.00019867,0.00002854,0.00024041,-0.000
 23465,-0.00011712,-0.00033120,0.00018398,-0.00035297,0.00081220,-0.001
 75813,0.00014087,0.00006737,-0.00083509,-0.11246204,-0.05795366,0.0964
 3734,0.00116073,0.00041860,0.00019508,0.00002074,-0.00008658,-0.000113
 68,-0.00001155,-0.00004346,-0.00001771,-0.00001585,0.00002812,0.000036
 46,-0.00007437,-0.00010840,0.00011128,0.00014849,0.00063725,0.00009597
 ,0.00004559,0.00015427,0.00008912,-0.00003131,0.00013795,-0.00000564,0
 .00006581,-0.00031519,-0.00041620,0.11441143,0.00000264,0.00000347,-0.
 00000401,-0.00001355,-0.00000234,0.00000638,0.00001907,-0.00004581,-0.
 00006876,-0.00000561,0.00001087,0.00003157,-0.00002251,0.00001688,0.00
 000082,0.00000428,0.00001520,0.00008919,-0.00001223,-0.00000048,0.0000
 0500,0.00000631,-0.00000838,-0.00000257,0.00000735,-0.00000163,0.00001
 319,-0.00000123,0.00000751,-0.00001386,-0.00000333,0.00000942,0.000007
 80,-0.00001196,0.00000571,-0.00000048,0.00000534,-0.00000026,-0.000000
 02,0.00000149,-0.00000402,-0.00000120,-0.00000262,0.00000211,0.0000131
 9,0.00000719,-0.00000253,-0.00000131,-0.00000211,-0.00000530,-0.000006
 87,-0.00000846,-0.00002351,-0.00010735,-0.00010368,0.00008736,0.000050
 70,0.00054637,0.00096241,-0.00099452,0.00862928,0.00686957,-0.01295558
 ,0.00032879,0.00046755,-0.00000106,-0.05833912,-0.10267739,0.08961105,
 0.00094985,-0.00013057,-0.00313952,0.00000466,0.00005205,0.00002159,0.
 00001310,0.00001124,0.00001786,-0.00000662,0.00004872,0.00003542,0.000
 06218,-0.00001106,0.00006388,-0.00003924,-0.00057496,-0.00015845,0.000
 27331,0.00000907,0.00009534,-0.00010475,-0.00009038,0.00013768,-0.0001
 9542,0.00002796,-0.00014578,0.06364355,0.10665070,0.00002008,-0.000001
 95,-0.00001036,-0.00005540,0.00000972,-0.00001160,0.00001714,-0.000026
 13,-0.00002760,-0.00000718,-0.00000289,0.00001681,-0.00006468,0.000016
 75,-0.00002793,0.00007591,0.00000512,0.00012675,-0.00000182,-0.0000078
 0,0.00001611,-0.00000193,-0.00001407,-0.00000523,0.00000867,0.00000830
 ,0.00000933,0.00001578,0.00002569,-0.00000891,0.00000484,-0.00000027,0
 .00000804,-0.00000051,0.00000036,-0.00000598,0.00000618,-0.00000265,0.
 00000810,-0.00000067,0.00000104,-0.00000092,0.00001387,-0.00000937,0.0
 0001216,0.00001021,-0.00000191,0.00000816,-0.00000564,-0.00000680,0.00
 002016,-0.00014758,0.00000547,-0.00020615,-0.00023319,-0.00021401,0.00
 022934,-0.00031286,0.00161209,0.00057482,0.01278417,0.01196444,-0.0195
 2030,0.00073963,0.00082188,0.00078697,0.09553781,0.08832896,-0.1957432
 5,0.00078439,-0.00181140,-0.00520980,-0.00007300,0.00019767,0.00020095
 ,-0.00000491,-0.00001532,-0.00003125,-0.00002215,-0.00002845,0.0000145
 7,-0.00008154,-0.00001434,-0.00002754,0.00008002,-0.00087341,0.0005224
 9,0.00000286,-0.00012388,0.00044237,-0.00001870,-0.00003323,-0.0000898
 1,-0.00087641,-0.00062576,-0.00003536,-0.10515775,-0.09416357,0.211569
 19,0.00000469,-0.00001476,-0.00003060,0.00000964,-0.00000930,-0.000006
 06,-0.00000584,-0.00015353,-0.00001521,-0.00000625,0.00000467,0.000025
 15,-0.00004535,0.00003631,0.00001189,-0.00016278,0.00001348,0.00010096
 ,-0.00001384,0.00000436,0.00001177,0.00000200,-0.00000634,0.00000263,0
 .00001739,-0.00001049,0.00002023,0.00000116,0.00000345,-0.00002478,-0.
 00001153,0.00000002,0.00000952,-0.00000849,0.00000714,-0.00000225,0.00
 000919,-0.00000139,0.00000250,-0.00000229,-0.00000412,-0.00000013,0.00
 000413,-0.00000794,0.00002621,-0.00000963,-0.00000114,-0.00000388,0.00
 000901,0.00001058,0.00000676,0.00002983,0.00024042,-0.00017186,0.00057
 669,0.00003239,-0.00023341,0.00005490,-0.00019629,0.00036978,-0.000522
 87,-0.00234948,0.00064868,0.00050550,-0.00117226,0.00018533,-0.0958247
 5,0.10033215,-0.01809573,-0.00037935,0.00001916,0.00001141,-0.00001944
 ,-0.00001389,0.00000082,-0.00000195,0.00011660,0.00012509,0.00001109,-
 0.00001406,0.00000551,0.00045197,-0.00023101,0.00001867,-0.00002298,0.
 00006828,-0.00027147,0.00001377,0.00008523,0.00012041,0.00003626,-0.00
 004481,-0.00039994,-0.00004748,-0.00009491,0.00002721,0.00744063,-0.01
 513220,0.00149335,0.09623304,0.00001276,-0.00000634,0.00001043,-0.0000
 3395,0.00000465,0.00000317,0.00000440,-0.00004215,-0.00001126,0.000001
 88,0.00002063,0.00000541,0.00000583,0.00001242,0.00001018,0.00000603,0
 .00005326,-0.00001614,0.00002622,0.00000200,-0.00000702,-0.00001522,0.
 00004080,0.00000561,-0.00002447,-0.00001386,-0.00002470,-0.00000018,-0
 .00002847,0.00003082,0.00001358,0.00000710,-0.00000447,-0.00000554,-0.
 00000239,0.00000014,-0.00000507,-0.00000430,-0.00000531,0.00000786,0.0
 0000659,0.00000127,-0.00000270,-0.00000229,0.00000057,0.00000524,0.000
 00778,-0.00000155,0.00000026,-0.00000579,-0.00000081,0.00001889,-0.000
 04832,0.00001141,0.00076715,-0.00039642,0.00067840,-0.00099697,-0.0013
 3362,-0.00428755,0.00724242,-0.01570798,0.00520381,0.00076043,0.000385
 76,0.00078051,0.09949634,-0.26304443,0.03713117,-0.00058307,0.00087502
 ,0.00064223,0.00005142,-0.00005494,-0.00016187,-0.00007407,-0.00004531
 ,-0.00004339,0.00000018,-0.00027147,-0.00033274,-0.00004645,0.00019880
 ,0.00007439,-0.00011575,0.00048353,-0.00013093,-0.00012398,0.00041627,
 -0.00000892,-0.00082829,0.00021016,-0.00048053,0.00008597,-0.00002729,
 -0.00005859,0.00571985,-0.01001107,0.00041633,-0.10862641,0.28166072,0
 .00000834,-0.00002293,-0.00001775,-0.00001963,0.00000489,0.00000675,0.
 00001276,-0.00010762,-0.00004824,-0.00000128,0.00002665,0.00002575,-0.
 00000658,0.00002863,0.00002161,-0.00007611,0.00003658,0.00004991,0.000
 00469,0.00000717,0.00000286,-0.00000768,0.00002523,0.00000039,0.000000
 94,-0.00000804,-0.00000339,-0.00000328,-0.00002499,0.00000592,-0.00000
 036,0.00000676,0.00000932,-0.00001426,0.00000508,0.00000201,0.00000369
 ,-0.00000336,-0.00000376,0.00000546,-0.00000178,0.00000053,-0.00000848
 ,0.00000056,0.00001579,0.00000129,0.00000246,-0.00000581,0.00000378,-0
 .00000281,-0.00000781,0.00005215,0.00003687,-0.00003895,0.00079835,-0.
 00143481,0.00096082,-0.00078299,-0.00216810,-0.00478161,0.01228994,-0.
 02458968,0.00304554,0.00127159,0.00015136,0.00089425,-0.01863432,0.039
 88836,-0.05437797,0.00009046,-0.00144090,0.00128676,0.00000480,0.00014
 215,0.00008157,-0.00006066,0.00001796,0.00000734,0.00000150,-0.0004235
 1,-0.00037195,0.00003942,0.00010464,-0.00019670,-0.00026469,-0.0002071
 5,0.00015930,0.00020206,0.00023024,0.00005188,-0.00047737,0.00022488,-
 0.00007123,-0.00009052,0.00008216,-0.00004057,-0.01153290,0.01982030,-
 0.00240209,0.01916057,-0.03808769,0.05830927,-0.00001917,-0.00002148,-
 0.00000664,0.00002458,-0.00000150,-0.00001338,-0.00023170,0.00028886,-
 0.00003262,-0.00002113,0.00001635,0.00000419,0.00007529,-0.00008540,-0
 .00005762,-0.00058096,-0.00029960,0.00065702,0.00000176,0.00000141,0.0
 0000409,0.00000067,-0.00000952,-0.00000669,0.00003380,0.00000121,-0.00
 000204,0.00000601,-0.00001445,-0.00001467,-0.00000429,-0.00001819,-0.0
 0000368,-0.00000002,0.00000034,-0.00000194,-0.00000550,0.00000350,0.00
 000545,0.00000310,0.00000231,-0.00000207,-0.00000402,0.00001362,-0.000
 04252,0.00000342,-0.00000605,0.00001136,-0.00000704,-0.00000219,-0.000
 00214,-0.00084204,-0.00022299,0.00044896,0.00029973,-0.00006595,0.0000
 3825,0.00050557,0.00071529,0.00073889,-0.00095512,0.00023497,0.0012787
 1,0.00091960,-0.00037717,-0.00099147,-0.29910533,-0.03329319,-0.071316
 04,0.00087543,0.00048095,0.00015901,-0.00001666,0.00000080,0.00001327,
 0.00003600,0.00010885,0.00009056,0.00001363,-0.00003252,-0.00004062,0.
 00034735,-0.00015219,0.00011627,-0.00012436,-0.00006066,-0.00011359,-0
 .00004662,0.00003446,-0.00008584,0.00018903,-0.00002084,0.00023166,0.0
 0020512,0.00019262,0.00010074,-0.01057199,-0.00029925,-0.00464807,-0.0
 0861660,-0.00279512,-0.00184968,0.31776024,0.00002229,-0.00003672,-0.0
 0004227,0.00001005,-0.00000164,-0.00000896,-0.00002969,-0.00018322,0.0
 0008686,0.00000424,-0.00002847,-0.00001048,-0.00006487,0.00003410,0.00
 002186,-0.00036373,0.00000556,0.00009136,-0.00002382,0.00000827,0.0000
 2288,0.00000340,-0.00000205,0.00000279,0.00002195,0.00000333,0.0000007
 8,-0.00000326,0.00001434,-0.00003588,-0.00003055,-0.00000908,0.0000182
 7,0.00000539,0.00000968,0.00000331,0.00001529,-0.00000010,0.00000581,-
 0.00000254,-0.00000399,0.00000452,0.00000500,-0.00000384,0.00003426,-0
 .00000585,0.00000477,-0.00000729,0.00000595,0.00001269,0.00000481,-0.0
 0015314,0.00042094,0.00008365,0.00021628,0.00008326,0.00011815,-0.0015
 4157,0.00048123,-0.00026357,-0.01794654,-0.00327618,-0.00325668,0.0006
 1965,-0.00207415,-0.00326151,-0.03070240,-0.05329885,-0.00841266,0.000
 23819,0.00021669,0.00069854,-0.00003023,0.00003898,0.00005593,0.000009
 66,0.00014397,0.00010842,-0.00000038,-0.00000346,0.00001228,0.00066110
 ,-0.00081526,-0.00056825,-0.00008114,-0.00002808,0.00008936,-0.0011274
 6,0.00018033,-0.00054221,-0.00016074,0.00022923,-0.00009731,0.00034503
 ,0.00009700,0.00005481,-0.01301077,-0.00182691,-0.00521334,0.02709970,
 0.00612749,0.00739496,0.03572877,0.05355175,0.00001394,0.00000454,0.00
 001931,-0.00001568,-0.00003065,0.00003048,-0.00006868,-0.00020541,-0.0
 0031533,-0.00004870,0.00007281,0.00013874,-0.00000435,0.00003185,-0.00
 001008,0.00051342,0.00011788,0.00011472,-0.00000767,0.00000454,-0.0000
 0537,0.00000359,0.00002367,0.00000233,-0.00002190,-0.00001412,0.000012
 82,-0.00000922,-0.00001149,-0.00002707,-0.00001668,0.00003835,0.000007
 08,-0.00005306,0.00001969,-0.00000717,0.00001443,-0.00000606,-0.000007
 66,0.00001386,-0.00000388,0.00000033,-0.00000504,0.00000870,0.00003141
 ,0.00000401,0.00000268,-0.00001062,0.00000678,-0.00000975,-0.00002029,
 0.00081802,0.00027494,-0.00047186,0.00017614,0.00017875,-0.00003892,-0
 .00067393,0.00130002,0.00045287,-0.02624631,-0.00293834,-0.00753847,0.
 00074786,-0.00325664,-0.00458953,-0.06849561,-0.00832478,-0.06755602,-
 0.00061829,0.00013413,0.00103525,-0.00002617,-0.00000974,-0.00003284,0
 .00001993,0.00014715,0.00007376,0.00002672,0.00001222,0.00001624,0.000
 50216,-0.00057755,0.00029519,0.00017563,0.00002868,-0.00002531,-0.0017
 2025,-0.00054525,-0.00011660,0.00035512,0.00005689,0.00002389,-0.00007
 387,-0.00020498,0.00020057,0.02311128,0.00173631,0.00822244,-0.0037153
 1,-0.00097433,-0.00194778,0.07545970,0.01290010,0.07225656,-0.00016126
 ,-0.00004872,0.00001811,0.00032460,0.00002252,0.00013882,-0.00000672,0
 .00017890,0.00011452,0.00001685,-0.00008955,-0.00003550,0.00013931,-0.
 00012099,0.00008787,-0.00022290,-0.00035316,-0.00029615,-0.00000613,0.
 00005712,-0.00007328,0.00001233,0.00001518,0.00000697,0.00000643,-0.00
 000413,-0.00001694,-0.00015064,-0.00009898,-0.00007255,-0.00010437,0.0
 0000394,-0.00003240,0.00001453,0.00001023,0.00001164,-0.00000322,0.000
 01031,-0.00000872,-0.00003206,-0.00001467,-0.00001416,-0.00002211,-0.0
 0000088,-0.00001321,-0.00013473,-0.00001802,-0.00004282,0.00006474,0.0
 0019681,-0.00010026,0.00016544,0.00079355,0.00032572,0.00032194,-0.000
 24442,0.00025805,-0.00163723,-0.00111759,0.00145468,0.00486078,-0.0096
 8993,-0.00041817,0.00107266,-0.00065012,-0.00055436,-0.00004210,-0.000
 68841,-0.00019038,-0.07527574,0.11719064,0.01889484,-0.00024006,-0.000
 03301,-0.00002676,0.00003196,0.00005594,-0.00006339,-0.00004496,-0.000
 11556,0.00007298,0.00031104,-0.00012662,0.00030749,0.00070038,-0.00048
 027,0.00022004,-0.00008940,-0.00004154,-0.00004330,-0.00035725,0.00014
 515,0.00024431,0.00020184,0.00023935,-0.00002173,-0.00005931,-0.000200
 86,0.00011911,0.00029056,0.00005052,-0.00012100,-0.00014778,0.00026675
 ,-0.00014187,0.07020258,0.00000399,-0.00001296,0.00001493,-0.00006961,
 0.00004202,0.00001479,0.00004968,-0.00004775,-0.00002960,-0.00000184,0
 .00002345,0.00001972,0.00000137,0.00001180,0.00001912,-0.00010772,-0.0
 0004610,-0.00011321,0.00001694,0.00000925,-0.00001371,-0.00000966,0.00
 004229,0.00000572,-0.00002125,-0.00001790,-0.00001773,-0.00000393,-0.0
 0007369,-0.00000222,-0.00001070,0.00001656,-0.00000286,-0.00001285,0.0
 0000354,0.00000415,-0.00000130,-0.00000460,-0.00000675,0.00000741,0.00
 000178,-0.00000106,-0.00001455,0.00000084,0.00000532,-0.00000640,0.000
 00378,-0.00000617,0.00002555,0.00001593,-0.00002660,0.00018796,0.00016
 865,0.00017390,0.00016697,0.00029616,0.00026132,-0.00299262,-0.0008094
 3,0.00239693,0.00688012,-0.01188465,-0.00031409,0.00078076,0.00026938,
 -0.00084570,0.00026563,0.00076309,-0.00138983,0.10040002,-0.19793091,-
 0.00925367,-0.00015077,0.00008758,0.00017990,-0.00006249,-0.00008009,0
 .00001926,-0.00004631,-0.00009449,0.00007471,0.00000891,0.00018664,-0.
 00004446,0.00050843,-0.00087956,0.00024044,-0.00000214,-0.00014912,0.0
 0005826,-0.00064102,0.00017708,0.00006620,0.00011918,0.00033905,-0.000
 02862,-0.00013264,0.00015883,-0.00022327,0.00001042,0.00053343,0.00028
 547,-0.00004607,-0.00007163,0.00001907,-0.10509948,0.20895175,0.000038
 05,-0.00001395,-0.00001785,-0.00012415,0.00005821,-0.00000977,0.000052
 94,-0.00001823,0.00002238,0.00000334,-0.00000146,0.00000050,-0.0000588
 5,0.00003520,-0.00003832,-0.00016406,-0.00016813,-0.00015828,-0.000004
 77,-0.00000879,0.00003087,-0.00000188,-0.00000988,-0.00001568,0.000017
 31,0.00000890,0.00003336,0.00003012,0.00000889,-0.00010690,-0.00002348
 ,-0.00000043,0.00000482,0.00000268,0.00000079,-0.00000061,0.00000658,-
 0.00000306,0.00000734,0.00000695,0.00000314,0.00000363,0.00000703,-0.0
 0001247,0.00000429,0.00002305,0.00000262,0.00002229,-0.00002640,-0.000
 05681,0.00001693,0.00003261,0.00041438,0.00004687,0.00077374,-0.000876
 79,-0.00110795,0.00355005,0.00178700,-0.00543469,-0.00962402,0.0181845
 1,0.00004465,-0.00070179,-0.00050447,0.00009398,-0.00151731,0.00090623
 ,0.00126186,0.02823088,-0.02878715,-0.01662733,-0.00054993,-0.00018240
 ,0.00082622,-0.00007252,0.00000348,0.00014744,-0.00021017,-0.00015523,
 0.00041030,0.00035189,-0.00025846,0.00018600,-0.00051090,0.00187406,-0
 .00010015,0.00012384,-0.00016952,-0.00003319,0.00003681,-0.00007289,0.
 00037449,-0.00007914,0.00000603,-0.00009763,-0.00008971,0.00000764,0.0
 0057533,0.00058622,-0.00036804,-0.00062198,-0.00012682,-0.00009327,-0.
 00021306,-0.01998819,0.00846034,0.02046986\\0.00000023,0.00000024,0.00
 000009,-0.00000001,0.00000020,0.00000013,0.00000047,0.00000011,-0.0000
 0054,-0.00000033,0.00000070,-0.00000019,-0.00000029,0.00000014,-0.0000
 0010,-0.00000043,0.00000030,-0.00000016,0.00000019,0.00000040,0.000000
 06,0.00000035,0.00000022,0.00000035,0.00000022,0.00000039,0.00000007,0
 .00000010,-0.00000006,0.00000005,0.00000002,0.00000009,-0.00000002,0.0
 0000008,0.00000051,-0.00000020,0.00000017,0.00000070,-0.00000027,-0.00
 000011,0.00000052,-0.00000039,-0.00000025,0.00000012,-0.00000023,-0.00
 000033,0.00000016,-0.00000047,-0.00000021,-0.00000006,-0.00000028,-0.0
 0000043,0.00000027,0.00000024,0.00000027,-0.00000027,0.00000041,-0.000
 00003,0.00000021,-0.00000022,-0.00000014,-0.00000038,0.00000054,0.0000
 0010,-0.00000043,0.00000001,-0.00000011,0.,0.00000041,-0.00000041,-0.0
 0000010,-0.00000066,0.00000006,-0.00000039,0.00000023,0.00000032,-0.00
 000043,0.00000047,0.00000031,-0.00000016,0.00000036,0.00000058,-0.0000
 0058,0.00000053,0.00000025,-0.00000012,0.00000037,-0.00000006,-0.00000
 056,0.00000033,-0.00000014,-0.00000064,0.00000007,0.00000005,-0.000000
 43,0.00000027,0.00000004,-0.00000004,0.,-0.00000022,-0.00000025,-0.000
 00011,0.00000001,0.00000008,-0.00000104,-0.00000030,-0.00000048,-0.000
 00013\\\@


 Everywhere is walking distance if you have the time.
                                    -- Steven Wright
 Job cpu time:       0 days  0 hours 30 minutes  1.9 seconds.
 Elapsed time:       0 days  0 hours  7 minutes 37.3 seconds.
 File lengths (MBytes):  RWF=    235 Int=      0 D2E=      0 Chk=      6 Scr=      1
 Normal termination of Gaussian 16 at Fri Feb  3 14:25:48 2023.
real 5550.37
user 21895.15
sys 32.14
