 Entering Gaussian System, Link 0=g16
 Input=gaussian_test.inp
 Output=gaussian_test.log
 Initial command:
 /sw/restricted/lms/sw/Gaussian/g16_B01/g16/l1.exe "/scratch/user/peterchao1/peterchao1/6335054_1664418614000000772409195/Gau-153500.inp" -scrdir="/scratch/user/peterchao1/peterchao1/6335054_1664418614000000772409195/"
 Entering Link 1 = /sw/restricted/lms/sw/Gaussian/g16_B01/g16/l1.exe PID=    153501.
  
 Copyright (c) 1988-2017, Gaussian, Inc.  All Rights Reserved.
  
 This is part of the Gaussian(R) 16 program.  It is based on
 the Gaussian(R) 09 system (copyright 2009, Gaussian, Inc.),
 the Gaussian(R) 03 system (copyright 2003, Gaussian, Inc.),
 the Gaussian(R) 98 system (copyright 1998, Gaussian, Inc.),
 the Gaussian(R) 94 system (copyright 1995, Gaussian, Inc.),
 the Gaussian 92(TM) system (copyright 1992, Gaussian, Inc.),
 the Gaussian 90(TM) system (copyright 1990, Gaussian, Inc.),
 the Gaussian 88(TM) system (copyright 1988, Gaussian, Inc.),
 the Gaussian 86(TM) system (copyright 1986, Carnegie Mellon
 University), and the Gaussian 82(TM) system (copyright 1983,
 Carnegie Mellon University). Gaussian is a federally registered
 trademark of Gaussian, Inc.
  
 This software contains proprietary and confidential information,
 including trade secrets, belonging to Gaussian, Inc.
  
 This software is provided under written license and may be
 used, copied, transmitted, or stored only in accord with that
 written license.
  
 The following legend is applicable only to US Government
 contracts under FAR:
  
                    RESTRICTED RIGHTS LEGEND
  
 Use, reproduction and disclosure by the US Government is
 subject to restrictions as set forth in subparagraphs (a)
 and (c) of the Commercial Computer Software - Restricted
 Rights clause in FAR 52.227-19.
  
 Gaussian, Inc.
 340 Quinnipiac St., Bldg. 40, Wallingford CT 06492
  
  
 ---------------------------------------------------------------
 Warning -- This program may not be used in any manner that
 competes with the business of Gaussian, Inc. or will provide
 assistance to any competitor of Gaussian, Inc.  The licensee
 of this program is prohibited from giving any competitor of
 Gaussian, Inc. access to this program.  By using this program,
 the user acknowledges that Gaussian, Inc. is engaged in the
 business of creating and licensing software in the field of
 computational chemistry and represents and warrants to the
 licensee that it is not a competitor of Gaussian, Inc. and that
 it will not use this program in any manner prohibited above.
 ---------------------------------------------------------------
  

 Cite this work as:
 Gaussian 16, Revision B.01,
 M. J. Frisch, G. W. Trucks, H. B. Schlegel, G. E. Scuseria, 
 M. A. Robb, J. R. Cheeseman, G. Scalmani, V. Barone, 
 G. A. Petersson, H. Nakatsuji, X. Li, M. Caricato, A. V. Marenich, 
 J. Bloino, B. G. Janesko, R. Gomperts, B. Mennucci, H. P. Hratchian, 
 J. V. Ortiz, A. F. Izmaylov, J. L. Sonnenberg, D. Williams-Young, 
 F. Ding, F. Lipparini, F. Egidi, J. Goings, B. Peng, A. Petrone, 
 T. Henderson, D. Ranasinghe, V. G. Zakrzewski, J. Gao, N. Rega, 
 G. Zheng, W. Liang, M. Hada, M. Ehara, K. Toyota, R. Fukuda, 
 J. Hasegawa, M. Ishida, T. Nakajima, Y. Honda, O. Kitao, H. Nakai, 
 T. Vreven, K. Throssell, J. A. Montgomery, Jr., J. E. Peralta, 
 F. Ogliaro, M. J. Bearpark, J. J. Heyd, E. N. Brothers, K. N. Kudin, 
 V. N. Staroverov, T. A. Keith, R. Kobayashi, J. Normand, 
 K. Raghavachari, A. P. Rendell, J. C. Burant, S. S. Iyengar, 
 J. Tomasi, M. Cossi, J. M. Millam, M. Klene, C. Adamo, R. Cammi, 
 J. W. Ochterski, R. L. Martin, K. Morokuma, O. Farkas, 
 J. B. Foresman, and D. J. Fox, Gaussian, Inc., Wallingford CT, 2016.
 
 ******************************************
 Gaussian 16:  ES64L-G16RevB.01 20-Dec-2017
                28-Sep-2022 
 ******************************************
 %chk=35.chk
 %nprocshared=4
 Will use up to    4 processors via shared memory.
 %mem=8000mb
 --------------------------------------------------------------
 #T wB97XD//def2svpp Volume=tight Geom=AllCheckpoint Guess=Read
 --------------------------------------------------------------
 Structure from the checkpoint file:  "35.chk"
 -------
 Monomer
 -------
 Charge =  0 Multiplicity = 1
 No Z-Matrix found in chk file; cartesian coordinates used.
  C                                                 0.000000000000      0.000000000000      0.000000000000
  Cl                                                1.025781000000      1.025781000000      1.025781000000
  Cl                                               -1.025781000000     -1.025781000000      1.025781000000
  Cl                                               -1.025781000000      1.025781000000     -1.025781000000
  Cl                                                1.025781000000     -1.025781000000     -1.025781000000
 Recover connectivity data from disk.
                    Distance matrix (angstroms):
                    1          2          3          4          5
     1  C    0.000000
     2  Cl   1.776705   0.000000
     3  Cl   1.776705   2.901347   0.000000
     4  Cl   1.776705   2.901347   2.901347   0.000000
     5  Cl   1.776705   2.901347   2.901347   2.901347   0.000000
 Framework group  TD[O(C),4C3(Cl)]
 Deg. of freedom     1
                         Standard orientation:                         
 ---------------------------------------------------------------------
 Center     Atomic      Atomic             Coordinates (Angstroms)
 Number     Number       Type             X           Y           Z
 ---------------------------------------------------------------------
      1          6           0        0.000000    0.000000    0.000000
      2         17           0        1.025781    1.025781    1.025781
      3         17           0       -1.025781   -1.025781    1.025781
      4         17           0       -1.025781    1.025781   -1.025781
      5         17           0        1.025781   -1.025781   -1.025781
 ---------------------------------------------------------------------
 Rotational constants (GHZ):           1.7168665           1.7168665           1.7168665
    86 basis functions,   173 primitive gaussians,    91 cartesian basis functions
    37 alpha electrons       37 beta electrons
       nuclear repulsion energy       437.7841113855 Hartrees.
 NAtoms=    5 NActive=    5 NUniq=    2 SFac= 4.00D+00 NAtFMM=   60 NAOKFM=F Big=F
 Nuclear repulsion after empirical dispersion term =      437.7833595561 Hartrees.
  24 Symmetry operations used in ECPInt.
 ECPInt:  NShTT=     741 NPrTT=    3675 LenC2=     712 LenP2D=    2521.
 LDataN:  DoStor=T MaxTD1= 4 Len=   56
 Initial guess from the checkpoint file:  "35.chk"
 B after Tr=    -0.000000    0.000000    0.000000
         Rot=    1.000000    0.000000    0.000000   -0.000000 Ang=   0.00 deg.
 Initial guess orbital symmetries:
       Occupied  (T2) (T2) (T2) (A1) (A1) (T2) (T2) (T2) (A1) (T2)
                 (T2) (T2) (A1) (T1) (T1) (T1) (T2) (T2) (T2) (E)
                 (E) (A1) (T2) (T2) (T2) (A1) (T2) (T2) (T2) (E)
                 (E) (T2) (T2) (T2) (T1) (T1) (T1)
       Virtual   (A1) (T2) (T2) (T2) (A1) (T2) (T2) (T2) (T2) (T2)
                 (T2) (E) (E) (T1) (T1) (T1) (T2) (T2) (T2) (E)
                 (E) (T1) (T1) (T1) (A1) (T2) (T2) (T2) (A1) (T2)
                 (T2) (T2) (E) (E) (T1) (T1) (T1) (T2) (T2) (T2)
                 (T2) (T2) (T2) (A1) (E) (E) (T2) (T2) (T2)
 Skip diagonalization as Alpha Fock matrix is already diagonal.
 SCF Done:  E(RwB97XD) =  -1878.24201232     A.U. after    1 cycles
            NFock=  1  Conv=0.35D-17     -V/T= 2.0021

 **********************************************************************

            Population analysis using the SCF Density.

 **********************************************************************

 Orbital symmetries:
       Occupied  (T2) (T2) (T2) (A1) (A1) (T2) (T2) (T2) (A1) (T2)
                 (T2) (T2) (A1) (T1) (T1) (T1) (T2) (T2) (T2) (E)
                 (E) (A1) (T2) (T2) (T2) (A1) (T2) (T2) (T2) (E)
                 (E) (T2) (T2) (T2) (T1) (T1) (T1)
       Virtual   (A1) (T2) (T2) (T2) (A1) (T2) (T2) (T2) (T2) (T2)
                 (T2) (E) (E) (T1) (T1) (T1) (T2) (T2) (T2) (E)
                 (E) (T1) (T1) (T1) (A1) (T2) (T2) (T2) (A1) (T2)
                 (T2) (T2) (E) (E) (T1) (T1) (T1) (T2) (T2) (T2)
                 (T2) (T2) (T2) (A1) (E) (E) (T2) (T2) (T2)
 The electronic state is 1-A1.
 Alpha  occ. eigenvalues -- -101.71040-101.71040-101.71040-101.71033 -10.52994
 Alpha  occ. eigenvalues --   -9.61912  -9.61912  -9.61912  -9.61906  -7.37379
 Alpha  occ. eigenvalues --   -7.37379  -7.37379  -7.37376  -7.36248  -7.36248
 Alpha  occ. eigenvalues --   -7.36248  -7.36246  -7.36246  -7.36246  -7.36246
 Alpha  occ. eigenvalues --   -7.36246  -1.08397  -0.95353  -0.95353  -0.95353
 Alpha  occ. eigenvalues --   -0.71907  -0.59098  -0.59098  -0.59098  -0.46082
 Alpha  occ. eigenvalues --   -0.46082  -0.43169  -0.43169  -0.43169  -0.39897
 Alpha  occ. eigenvalues --   -0.39897  -0.39897
 Alpha virt. eigenvalues --    0.03353   0.07664   0.07664   0.07664   0.42564
 Alpha virt. eigenvalues --    0.47731   0.47731   0.47731   0.59513   0.59513
 Alpha virt. eigenvalues --    0.59513   0.69681   0.69681   0.79667   0.79667
 Alpha virt. eigenvalues --    0.79667   0.79843   0.79843   0.79843   0.81581
 Alpha virt. eigenvalues --    0.81581   0.83615   0.83615   0.83615   0.85031
 Alpha virt. eigenvalues --    0.85527   0.85527   0.85527   0.86275   0.90335
 Alpha virt. eigenvalues --    0.90335   0.90335   0.93439   0.93439   1.10703
 Alpha virt. eigenvalues --    1.10703   1.10703   1.30607   1.30607   1.30607
 Alpha virt. eigenvalues --    1.34828   1.34828   1.34828   1.45704   1.83422
 Alpha virt. eigenvalues --    1.83422   2.18196   2.18196   2.18196
          Condensed to atoms (all electrons):
 Mulliken charges:
               1
     1  C    0.026983
     2  Cl  -0.006746
     3  Cl  -0.006746
     4  Cl  -0.006746
     5  Cl  -0.006746
 Sum of Mulliken charges =  -0.00000
 Mulliken charges with hydrogens summed into heavy atoms:
               1
     1  C    0.026983
     2  Cl  -0.006746
     3  Cl  -0.006746
     4  Cl  -0.006746
     5  Cl  -0.006746
 Electronic spatial extent (au):  <R**2>=            887.4018
 Charge=              0.0000 electrons
 Dipole moment (field-independent basis, Debye):
    X=              0.0000    Y=              0.0000    Z=             -0.0000  Tot=              0.0000
 Evaluate density.
 Using the total density.
 Monte-Carlo method of calculating molar volume:
 based on  0.001 e/bohr**3 density envelope.
 Number of points per bohr**3 =  100 CutOff= 1.00D-04
 Using the SCF density.
 There are      2015 points.  Will hold      2015 in memory.
 LenV=  1048376648 MDV=  1048576000.
 Box volume = 8192.041 fraction occupied=0.096
 Integrated density= 4.6149527568025945D+01 error=-2.7850472431974055D+01
 Molar volume =  788.713 bohr**3/mol ( 70.384 cm**3/mol)
 Recommended a0 for SCRF calculation =  3.84 angstrom (  7.25 bohr)
 1\1\GINC-C006\SP\RwB97XD\def2SVPP\C1Cl4\PETERCHAO1\28-Sep-2022\0\\#T w
 B97XD//def2svpp Volume=tight Geom=AllCheckpoint Guess=Read\\Monomer\\0
 ,1\C,0.,0.,0.\Cl,1.025781,1.025781,1.025781\Cl,-1.025781,-1.025781,1.0
 25781\Cl,-1.025781,1.025781,-1.025781\Cl,1.025781,-1.025781,-1.025781\
 \Version=ES64L-G16RevB.01\State=1-A1\HF=-1878.2420123\RMSD=3.453e-18\D
 ipole=0.,0.,0.\Quadrupole=0.,0.,0.,0.,0.,0.\PG=TD [O(C1),4C3(Cl1)]\\@


    WHAT WE HAVE LEARNED
 IS LIKE A HANDFUL OF EARTH;
  WHAT WE HAVE YET TO LEARN
   IS LIKE THE WHOLE WORLD.

         -- AVVAYIAR
 File lengths (MBytes):  RWF=      6 Int=      0 D2E=      0 Chk=      2 Scr=      1
 Normal termination of Gaussian 16 at Wed Sep 28 21:36:21 2022.
