      -----------------------------------------------------------      
     |                   =====================                   |     
     |                           x T B                           |     
     |                   =====================                   |     
     |                         S. Grimme                         |     
     |          Mulliken Center for Theoretical Chemistry        |     
     |                    University of Bonn                     |     
      -----------------------------------------------------------      

   * xtb version 6.5.1 (b24c23e) compiled by 'conda@728c89f4b128' on 2022-07-12

   xtb is free software: you can redistribute it and/or modify it under
   the terms of the GNU Lesser General Public License as published by
   the Free Software Foundation, either version 3 of the License, or
   (at your option) any later version.
   
   xtb is distributed in the hope that it will be useful,
   but WITHOUT ANY WARRANTY; without even the implied warranty of
   MERCHANTABILITY or FITNESS FOR A PARTICULAR PURPOSE.  See the
   GNU Lesser General Public License for more details.
   
   Cite this work as:
   * C. Bannwarth, E. Caldeweyher, S. Ehlert, A. Hansen, P. Pracht,
     J. Seibert, S. Spicher, S. Grimme, WIREs Comput. Mol. Sci., 2020, 11,
     e01493. DOI: 10.1002/wcms.1493
   
   for GFN2-xTB:
   * C. Bannwarth, S. Ehlert and S. Grimme., J. Chem. Theory Comput., 2019,
     15, 1652-1671. DOI: 10.1021/acs.jctc.8b01176
   for GFN1-xTB:
   * S. Grimme, C. Bannwarth, P. Shushkov, J. Chem. Theory Comput., 2017,
     13, 1989-2009. DOI: 10.1021/acs.jctc.7b00118
   for GFN0-xTB:
   * P. Pracht, E. Caldeweyher, S. Ehlert, S. Grimme, ChemRxiv, 2019, preprint.
     DOI: 10.26434/chemrxiv.8326202.v1
   for GFN-FF:
   * S. Spicher and S. Grimme, Angew. Chem. Int. Ed., 2020, 59, 15665-15673.
     DOI: 10.1002/anie.202004239
   
   for ALPB and GBSA implicit solvation:
   * S. Ehlert, M. Stahn, S. Spicher, S. Grimme, J. Chem. Theory Comput.,
     2021, 17, 4250-4261. DOI: 10.1021/acs.jctc.1c00471
   
   for DFT-D4:
   * E. Caldeweyher, C. Bannwarth and S. Grimme, J. Chem. Phys., 2017,
     147, 034112. DOI: 10.1063/1.4993215
   * E. Caldeweyher, S. Ehlert, A. Hansen, H. Neugebauer, S. Spicher,
     C. Bannwarth and S. Grimme, J. Chem. Phys., 2019, 150, 154122.
     DOI: 10.1063/1.5090222
   * E. Caldeweyher, J.-M. Mewes, S. Ehlert and S. Grimme, Phys. Chem. Chem. Phys.
     2020, 22, 8499-8512. DOI: 10.1039/D0CP00502A
   
   for sTDA-xTB:
   * S. Grimme and C. Bannwarth, J. Chem. Phys., 2016, 145, 054103.
     DOI: 10.1063/1.4959605
   
   in the mass-spec context:
   * V. Asgeirsson, C. Bauer and S. Grimme, Chem. Sci., 2017, 8, 4879.
     DOI: 10.1039/c7sc00601b
   * J. Koopman and S. Grimme, ACS Omega 2019, 4, 12, 15120-15133.
     DOI: 10.1021/acsomega.9b02011
   
   for metadynamics refer to:
   * S. Grimme, J. Chem. Theory Comput., 2019, 155, 2847-2862
     DOI: 10.1021/acs.jctc.9b00143
   
   for SPH calculations refer to:
   * S. Spicher and S. Grimme, J. Chem. Theory Comput., 2021, 17, 1701-1714
     DOI: 10.1021/acs.jctc.0c01306
   
   with help from (in alphabetical order)
   P. Atkinson, C. Bannwarth, F. Bohle, G. Brandenburg, E. Caldeweyher
   M. Checinski, S. Dohm, S. Ehlert, S. Ehrlich, I. Gerasimov, C. Hölzer
   A. Katbashev, J. Koopman, C. Lavigne, S. Lehtola, F. März, M. Müller,
   F. Musil, H. Neugebauer, J. Pisarek, C. Plett, P. Pracht, F. Pultar,
   J. Seibert, P. Shushkov, S. Spicher, M. Stahn, M. Steiner, T. Strunk,
   J. Stückrath, T. Rose, and J. Unsleber
   
 * started run on 2022/08/08 at 16:20:11.384     

           -------------------------------------------------
          |                Calculation Setup                |
           -------------------------------------------------

          program call               : xtb tmpcoord --gfn2 --opt
          hostname                   : c383
          coordinate file            : tmpcoord
          omp threads                :                     1

   ID    Z sym.   atoms
    1   17 cl     1, 3-6, 8-10
    2    6 c      2, 7

molecular fragmentation (1/2 indicates fragments):
1111122221
# atoms in fragment 1/2:     6     4
 fragment masses (1/2) :      189.28      118.37
CMA distance (Bohr)    :   7.414
constraining FC (au)   :  0.0500

           -------------------------------------------------
          |                 G F N 2 - x T B                 |
           -------------------------------------------------

        Reference                      10.1021/acs.jctc.8b01176
      * Hamiltonian:
        H0-scaling (s, p, d)           1.850000    2.230000    2.230000
        zeta-weighting                 0.500000
      * Dispersion:
        s8                             2.700000
        a1                             0.520000
        a2                             5.000000
        s9                             5.000000
      * Repulsion:
        kExp                           1.500000    1.000000
        rExp                           1.000000
      * Coulomb:
        alpha                          2.000000
        third order                    shell-resolved
        anisotropic                    true
        a3                             3.000000
        a5                             4.000000
        cn-shift                       1.200000
        cn-exp                         4.000000
        max-rad                        5.000000


          ...................................................
          :                      SETUP                      :
          :.................................................:
          :  # basis functions                  88          :
          :  # atomic orbitals                  80          :
          :  # shells                           28          :
          :  # electrons                        64          :
          :  max. iterations                   250          :
          :  Hamiltonian                  GFN2-xTB          :
          :  restarted?                      false          :
          :  GBSA solvation                  false          :
          :  PC potential                    false          :
          :  electronic temp.          300.0000000     K    :
          :  accuracy                    1.0000000          :
          :  -> integral cutoff          0.2500000E+02      :
          :  -> integral neglect         0.1000000E-07      :
          :  -> SCF convergence          0.1000000E-05 Eh   :
          :  -> wf. convergence          0.1000000E-03 e    :
          :  Broyden damping             0.4000000          :
          ...................................................

 iter      E             dE          RMSdq      gap      omega  full diag
   1    -40.2311164 -0.402311E+02  0.677E+00    3.62       0.0  T
   2    -40.4213842 -0.190268E+00  0.657E+00    2.63       1.0  T
   3    -40.5463917 -0.125007E+00  0.342E+00    2.85       1.0  T
   4    -40.5496008 -0.320915E-02  0.770E-01    2.82       1.0  T
   5    -40.5504988 -0.897995E-03  0.538E-01    2.97       1.0  T
   6    -40.5512252 -0.726420E-03  0.368E-01    2.98       1.0  T
   7    -40.5516899 -0.464653E-03  0.143E-01    3.01       1.0  T
   8    -40.5517917 -0.101798E-03  0.868E-02    3.02       1.0  T
   9    -40.5518355 -0.438585E-04  0.352E-02    3.02       1.0  T
  10    -40.5518423 -0.672807E-05  0.229E-02    3.03       1.4  T
  11    -40.5518437 -0.142379E-05  0.129E-02    3.02       2.5  T
  12    -40.5518445 -0.763362E-06  0.671E-03    3.02       4.7  T
  13    -40.5518447 -0.237682E-06  0.251E-03    3.02      12.6  T
  14    -40.5518447 -0.180487E-07  0.186E-03    3.02      17.0  T
  15    -40.5518447 -0.132306E-07  0.809E-04    3.02      39.1  T
  16    -40.5518447 -0.301474E-08  0.273E-04    3.02     115.6  T

   *** convergence criteria satisfied after 16 iterations ***

         #    Occupation            Energy/Eh            Energy/eV
      -------------------------------------------------------------
         1        2.0000           -1.1376051             -30.9558
       ...           ...                  ...                  ...
        26        2.0000           -0.4715520             -12.8316
        27        2.0000           -0.4621413             -12.5755
        28        2.0000           -0.4616524             -12.5622
        29        2.0000           -0.4588303             -12.4854
        30        2.0000           -0.4549869             -12.3808
        31        2.0000           -0.4469995             -12.1635
        32        2.0000           -0.3978038             -10.8248 (HOMO)
        33                         -0.2866854              -7.8011 (LUMO)
        34                         -0.2686793              -7.3111
        35                         -0.2224209              -6.0524
        36                         -0.2158706              -5.8741
        37                         -0.2129131              -5.7937
       ...                                ...                  ...
        80                          0.1233389               3.3562
      -------------------------------------------------------------
                  HL-Gap            0.1111184 Eh            3.0237 eV
             Fermi-level           -0.3422446 Eh           -9.3130 eV

 SCC (total)                   0 d,  0 h,  0 min,  0.043 sec
 SCC setup                      ...        0 min,  0.000 sec (  0.431%)
 Dispersion                     ...        0 min,  0.000 sec (  0.126%)
 classical contributions        ...        0 min,  0.000 sec (  0.052%)
 integral evaluation            ...        0 min,  0.006 sec ( 13.662%)
 iterations                     ...        0 min,  0.025 sec ( 57.229%)
 molecular gradient             ...        0 min,  0.012 sec ( 28.080%)
 printout                       ...        0 min,  0.000 sec (  0.396%)

         :::::::::::::::::::::::::::::::::::::::::::::::::::::
         ::                     SUMMARY                     ::
         :::::::::::::::::::::::::::::::::::::::::::::::::::::
         :: total energy             -40.520225731483 Eh    ::
         :: gradient norm              0.231434672403 Eh/a0 ::
         :: HOMO-LUMO gap              3.023685564993 eV    ::
         ::.................................................::
         :: SCC energy               -40.551844735056 Eh    ::
         :: -> isotropic ES            0.026162446278 Eh    ::
         :: -> anisotropic ES          0.004492789330 Eh    ::
         :: -> anisotropic XC         -0.029198747487 Eh    ::
         :: -> dispersion             -0.019898880895 Eh    ::
         :: repulsion energy           0.031575624744 Eh    ::
         :: add. restraining           0.000000000000 Eh    ::
         :: total charge               0.000000000000 e     ::
         :::::::::::::::::::::::::::::::::::::::::::::::::::::

      ----------------------------------------------------------- 
     |                   =====================                   |
     |                        A N C O P T                        |
     |                   =====================                   |
     |               Approximate Normal Coordinate               |
     |                Rational Function Optimizer                |
      ----------------------------------------------------------- 

          ...................................................
          :                      SETUP                      :
          :.................................................:
          :   optimization level            normal          :
          :   max. optcycles                   200          :
          :   ANC micro-cycles                  20          :
          :   degrees of freedom                24          :
          :.................................................:
          :   RF solver                   davidson          :
          :   write xtbopt.log                true          :
          :   linear?                        false          :
          :   energy convergence         0.5000000E-05 Eh   :
          :   grad. convergence          0.1000000E-02 Eh/α :
          :   maximium RF displ.         1.0000000          :
          :   Hlow (freq-cutoff)         0.1000000E-01      :
          :   Hmax (freq-cutoff)         5.0000000          :
          :   S6 in model hess.         20.0000000          :
          ...................................................

generating ANC from model Hessian ...
Using Lindh-Hessian (1995)
 Shifting diagonal of input Hessian by    8.8054570427371220E-003
 Lowest  eigenvalues of input Hessian
    0.000000    0.000000    0.000000    0.000000    0.000000    0.000000
    0.010000    0.010914    0.013715    0.025074    0.032182    0.035487
    0.053205    0.055637    0.060132    0.066155    0.067007    0.069353
 Highest eigenvalues
    1.067798    1.070369    1.071580    1.076235    1.079340    1.129495


........................................................................
.............................. CYCLE    1 ..............................
........................................................................
   1    -40.5518447 -0.405518E+02  0.151E-04    3.02       0.0  T
   2    -40.5518447 -0.299138E-10  0.127E-04    3.02     248.7  T
   3    -40.5518447 -0.482956E-10  0.818E-05    3.02     386.7  T
     SCC iter.                  ...        0 min,  0.005 sec
     gradient                   ...        0 min,  0.012 sec
 * total energy  :   -40.5202257 Eh     change       -0.2876348E-09 Eh
   gradient norm :     0.2314331 Eh/α   predicted     0.0000000E+00 (-100.00%)
   displ. norm   :     0.6334407 α      lambda       -0.1366707E+00
   maximum displ.:     0.5181555 α      in ANC's #16, #14, #6, ...

........................................................................
.............................. CYCLE    2 ..............................
........................................................................
   1    -40.6328672 -0.406329E+02  0.170E+00    4.02       0.0  T
   2    -40.6348310 -0.196379E-02  0.124E+00    4.05       1.0  T
   3    -40.6349940 -0.163016E-03  0.798E-01    3.97       1.0  T
   4    -40.6377788 -0.278474E-02  0.451E-01    4.03       1.0  T
   5    -40.6382952 -0.516400E-03  0.216E-01    4.01       1.0  T
   6    -40.6383936 -0.983987E-04  0.139E-01    4.02       1.0  T
   7    -40.6384886 -0.950183E-04  0.849E-02    4.01       1.0  T
   8    -40.6385294 -0.408152E-04  0.376E-02    4.01       1.0  T
   9    -40.6385352 -0.578325E-05  0.213E-02    4.01       1.5  T
  10    -40.6385371 -0.191283E-05  0.136E-02    4.01       2.3  T
  11    -40.6385380 -0.870192E-06  0.514E-03    4.01       6.2  T
  12    -40.6385381 -0.790973E-07  0.247E-03    4.01      12.8  T
  13    -40.6385381 -0.227042E-07  0.162E-03    4.02      19.5  T
  14    -40.6385381 -0.107662E-07  0.646E-04    4.02      48.9  T
  15    -40.6385381 -0.999471E-09  0.148E-04    4.02     213.3  T
     SCC iter.                  ...        0 min,  0.021 sec
     gradient                   ...        0 min,  0.012 sec
 * total energy  :   -40.6062971 Eh     change       -0.8607139E-01 Eh
   gradient norm :     0.0715347 Eh/α   predicted    -0.9575468E-01 (  11.25%)
   displ. norm   :     0.5425463 α      lambda       -0.2915574E-01
   maximum displ.:     0.3654986 α      in ANC's #6, #5, #15, ...

........................................................................
.............................. CYCLE    3 ..............................
........................................................................
   1    -40.6608751 -0.406609E+02  0.568E-01    4.36       0.0  T
   2    -40.6609586 -0.834827E-04  0.351E-01    4.38       1.0  T
   3    -40.6608841  0.745407E-04  0.172E-01    4.37       1.0  T
   4    -40.6610498 -0.165771E-03  0.883E-02    4.38       1.0  T
   5    -40.6610683 -0.184978E-04  0.518E-02    4.38       1.0  T
   6    -40.6610749 -0.653366E-05  0.285E-02    4.38       1.1  T
   7    -40.6610798 -0.487022E-05  0.157E-02    4.38       2.0  T
   8    -40.6610809 -0.113037E-05  0.838E-03    4.38       3.8  T
   9    -40.6610813 -0.402269E-06  0.364E-03    4.38       8.7  T
  10    -40.6610813 -0.472712E-07  0.232E-03    4.38      13.7  T
  11    -40.6610814 -0.244841E-07  0.998E-04    4.38      31.7  T
  12    -40.6610814 -0.477242E-08  0.435E-04    4.38      72.8  T
     SCC iter.                  ...        0 min,  0.017 sec
     gradient                   ...        0 min,  0.012 sec
 * total energy  :   -40.6284533 Eh     change       -0.2215613E-01 Eh
   gradient norm :     0.0383662 Eh/α   predicted    -0.1886896E-01 ( -14.84%)
   displ. norm   :     0.5121668 α      lambda       -0.1578499E-01
   maximum displ.:     0.3511529 α      in ANC's #6, #5, #15, ...

........................................................................
.............................. CYCLE    4 ..............................
........................................................................
   1    -40.6729598 -0.406730E+02  0.459E-01    4.65       0.0  T
   2    -40.6729818 -0.219631E-04  0.272E-01    4.65       1.0  T
   3    -40.6729905 -0.865936E-05  0.639E-02    4.66       1.0  T
   4    -40.6730024 -0.119444E-04  0.480E-02    4.65       1.0  T
   5    -40.6730088 -0.639786E-05  0.324E-02    4.65       1.0  T
   6    -40.6730140 -0.514071E-05  0.101E-02    4.65       3.1  T
   7    -40.6730142 -0.225048E-06  0.815E-03    4.65       3.9  T
   8    -40.6730144 -0.252428E-06  0.495E-03    4.65       6.4  T
   9    -40.6730145 -0.118213E-06  0.196E-03    4.65      16.2  T
  10    -40.6730146 -0.132319E-07  0.109E-03    4.65      29.0  T
  11    -40.6730146 -0.469373E-08  0.538E-04    4.65      58.8  T
  12    -40.6730146 -0.143233E-08  0.232E-04    4.65     136.1  T
     SCC iter.                  ...        0 min,  0.017 sec
     gradient                   ...        0 min,  0.011 sec
 * total energy  :   -40.6401497 Eh     change       -0.1169641E-01 Eh
   gradient norm :     0.0200916 Eh/α   predicted    -0.9962818E-02 ( -14.82%)
   displ. norm   :     0.4572629 α      lambda       -0.7364361E-02
   maximum displ.:     0.3115841 α      in ANC's #6, #5, #15, ...

........................................................................
.............................. CYCLE    5 ..............................
........................................................................
   1    -40.6785770 -0.406786E+02  0.338E-01    4.83       0.0  T
   2    -40.6785843 -0.732716E-05  0.198E-01    4.83       1.0  T
   3    -40.6785824  0.195542E-05  0.385E-02    4.83       1.0  T
   4    -40.6785900 -0.767095E-05  0.237E-02    4.83       1.3  T
   5    -40.6785915 -0.151048E-05  0.171E-02    4.83       1.9  T
   6    -40.6785933 -0.174407E-05  0.542E-03    4.83       5.8  T
   7    -40.6785934 -0.102722E-06  0.381E-03    4.83       8.3  T
   8    -40.6785934 -0.394377E-07  0.258E-03    4.83      12.3  T
   9    -40.6785935 -0.320149E-07  0.128E-03    4.83      24.7  T
  10    -40.6785935 -0.734719E-08  0.701E-04    4.83      45.1  T
  11    -40.6785935 -0.245883E-08  0.369E-04    4.83      85.7  T
     SCC iter.                  ...        0 min,  0.016 sec
     gradient                   ...        0 min,  0.011 sec
 * total energy  :   -40.6455099 Eh     change       -0.5360251E-02 Eh
   gradient norm :     0.0127072 Eh/α   predicted    -0.4452086E-02 ( -16.94%)
   displ. norm   :     0.3747609 α      lambda       -0.3260619E-02
   maximum displ.:     0.2336592 α      in ANC's #6, #5, #15, ...

........................................................................
.............................. CYCLE    6 ..............................
........................................................................
   1    -40.6812119 -0.406812E+02  0.235E-01    4.93       0.0  T
   2    -40.6812154 -0.345082E-05  0.138E-01    4.93       1.0  T
   3    -40.6812042  0.111954E-04  0.417E-02    4.93       1.0  T
   4    -40.6812186 -0.144226E-04  0.124E-02    4.92       2.6  T
   5    -40.6812190 -0.380205E-06  0.890E-03    4.92       3.6  T
   6    -40.6812194 -0.432594E-06  0.358E-03    4.92       8.8  T
   7    -40.6812195 -0.528457E-07  0.266E-03    4.92      11.9  T
   8    -40.6812195 -0.268767E-07  0.176E-03    4.92      18.0  T
   9    -40.6812195 -0.164358E-07  0.661E-04    4.92      47.9  T
  10    -40.6812195 -0.171089E-08  0.339E-04    4.92      93.4  T
     SCC iter.                  ...        0 min,  0.014 sec
     gradient                   ...        0 min,  0.011 sec
 * total energy  :   -40.6478457 Eh     change       -0.2335764E-02 Eh
   gradient norm :     0.0084259 Eh/α   predicted    -0.1859280E-02 ( -20.40%)
   displ. norm   :     0.3061043 α      lambda       -0.1386547E-02
   maximum displ.:     0.1794488 α      in ANC's #6, #5, #16, ...

........................................................................
.............................. CYCLE    7 ..............................
........................................................................
   1    -40.6822966 -0.406823E+02  0.181E-01    4.99       0.0  T
   2    -40.6822994 -0.279543E-05  0.107E-01    4.99       1.0  T
   3    -40.6822878  0.116442E-04  0.411E-02    4.99       1.0  T
   4    -40.6823020 -0.142398E-04  0.665E-03    4.99       4.8  T
   5    -40.6823021 -0.826863E-07  0.437E-03    4.99       7.2  T
   6    -40.6823022 -0.714619E-07  0.195E-03    4.99      16.2  T
   7    -40.6823022 -0.158996E-07  0.139E-03    4.99      22.7  T
   8    -40.6823022 -0.672324E-08  0.926E-04    4.99      34.1  T
   9    -40.6823022 -0.436295E-08  0.341E-04    4.99      92.6  T
     SCC iter.                  ...        0 min,  0.012 sec
     gradient                   ...        0 min,  0.011 sec
 * total energy  :   -40.6488287 Eh     change       -0.9830484E-03 Eh
   gradient norm :     0.0054532 Eh/α   predicted    -0.7582339E-03 ( -22.87%)
   displ. norm   :     0.2427242 α      lambda       -0.5559408E-03
   maximum displ.:     0.1346602 α      in ANC's #6, #5, #16, ...

........................................................................
.............................. CYCLE    8 ..............................
........................................................................
   1    -40.6825500 -0.406826E+02  0.154E-01    5.02       0.0  T
   2    -40.6825521 -0.209594E-05  0.915E-02    5.02       1.0  T
   3    -40.6825439  0.822067E-05  0.347E-02    5.02       1.0  T
   4    -40.6825541 -0.101731E-04  0.683E-03    5.02       4.6  T
   5    -40.6825542 -0.110505E-06  0.474E-03    5.02       6.7  T
   6    -40.6825543 -0.102527E-06  0.261E-03    5.02      12.1  T
   7    -40.6825543 -0.428871E-07  0.157E-03    5.02      20.1  T
   8    -40.6825543 -0.942104E-08  0.966E-04    5.02      32.7  T
   9    -40.6825543 -0.440926E-08  0.289E-04    5.02     109.5  T
     SCC iter.                  ...        0 min,  0.012 sec
     gradient                   ...        0 min,  0.010 sec
 * total energy  :   -40.6492105 Eh     change       -0.3817827E-03 Eh
   gradient norm :     0.0033676 Eh/α   predicted    -0.2943468E-03 ( -22.90%)
   displ. norm   :     0.1688765 α      lambda       -0.1746897E-03
   maximum displ.:     0.0915122 α      in ANC's #6, #5, #16, ...

........................................................................
.............................. CYCLE    9 ..............................
........................................................................
   1    -40.6825801 -0.406826E+02  0.115E-01    5.03       0.0  T
   2    -40.6825811 -0.100006E-05  0.683E-02    5.03       1.0  T
   3    -40.6825772  0.390722E-05  0.238E-02    5.03       1.3  T
   4    -40.6825821 -0.484681E-05  0.550E-03    5.03       5.7  T
   5    -40.6825821 -0.805660E-07  0.395E-03    5.03       8.0  T
   6    -40.6825822 -0.919492E-07  0.201E-03    5.03      15.8  T
   7    -40.6825823 -0.259939E-07  0.126E-03    5.03      25.0  T
   8    -40.6825823 -0.641268E-08  0.787E-04    5.03      40.2  T
   9    -40.6825823 -0.313550E-08  0.304E-04    5.03     103.9  T
     SCC iter.                  ...        0 min,  0.012 sec
     gradient                   ...        0 min,  0.011 sec
 * total energy  :   -40.6493257 Eh     change       -0.1152004E-03 Eh
   gradient norm :     0.0021689 Eh/α   predicted    -0.8983473E-04 ( -22.02%)
   displ. norm   :     0.0964074 α      lambda       -0.4415768E-04
   maximum displ.:     0.0510809 α      in ANC's #6, #5, #16, ...

........................................................................
.............................. CYCLE   10 ..............................
........................................................................
   1    -40.6825714 -0.406826E+02  0.766E-02    5.04       0.0  T
   2    -40.6825716 -0.223187E-06  0.454E-02    5.04       1.0  T
   3    -40.6825709  0.773151E-06  0.105E-02    5.04       3.0  T
   4    -40.6825718 -0.960085E-06  0.287E-03    5.04      11.0  T
   5    -40.6825718 -0.212316E-07  0.206E-03    5.04      15.3  T
   6    -40.6825719 -0.286603E-07  0.824E-04    5.04      38.4  T
   7    -40.6825719 -0.369809E-08  0.557E-04    5.04      56.8  T
     SCC iter.                  ...        0 min,  0.009 sec
     gradient                   ...        0 min,  0.010 sec
 * total energy  :   -40.6493555 Eh     change       -0.2981919E-04 Eh
   gradient norm :     0.0017669 Eh/α   predicted    -0.2228368E-04 ( -25.27%)
   displ. norm   :     0.0954342 α      lambda       -0.2062049E-04
   maximum displ.:     0.0521435 α      in ANC's #3, #6, #16, ...

........................................................................
.............................. CYCLE   11 ..............................
........................................................................
   1    -40.6826196 -0.406826E+02  0.901E-02    5.05       0.0  T
   2    -40.6826197 -0.137708E-06  0.529E-02    5.05       1.0  T
   3    -40.6826196  0.117428E-06  0.561E-03    5.05       5.6  T
   4    -40.6826198 -0.218264E-06  0.280E-03    5.05      11.3  T
   5    -40.6826199 -0.224530E-07  0.205E-03    5.05      15.4  T
   6    -40.6826199 -0.334108E-07  0.660E-04    5.05      47.9  T
   7    -40.6826199 -0.264312E-08  0.405E-04    5.05      78.1  T
     SCC iter.                  ...        0 min,  0.009 sec
     gradient                   ...        0 min,  0.010 sec
 * total energy  :   -40.6493762 Eh     change       -0.2068144E-04 Eh
   gradient norm :     0.0012547 Eh/α   predicted    -0.1035233E-04 ( -49.94%)
   displ. norm   :     0.0937554 α      lambda       -0.2272091E-04
   maximum displ.:     0.0713077 α      in ANC's #3, #2, #18, ...

........................................................................
.............................. CYCLE   12 ..............................
........................................................................
   1    -40.6826397 -0.406826E+02  0.975E-02    5.05       0.0  T
   2    -40.6826397 -0.970929E-07  0.573E-02    5.05       1.0  T
   3    -40.6826396  0.119432E-06  0.467E-03    5.05       6.8  T
   4    -40.6826398 -0.180253E-06  0.172E-03    5.05      18.4  T
   5    -40.6826398 -0.724881E-08  0.119E-03    5.05      26.6  T
   6    -40.6826398 -0.803190E-08  0.568E-04    5.05      55.7  T
   7    -40.6826398 -0.195699E-08  0.341E-04    5.05      92.8  T
     SCC iter.                  ...        0 min,  0.009 sec
     gradient                   ...        0 min,  0.010 sec
 * total energy  :   -40.6494061 Eh     change       -0.2985109E-04 Eh
   gradient norm :     0.0012215 Eh/α   predicted    -0.1140398E-04 ( -61.80%)
   displ. norm   :     0.3948642 α      lambda       -0.1051960E-03
   maximum displ.:     0.3113750 α      in ANC's #3, #2, #18, ...

........................................................................
.............................. CYCLE   13 ..............................
........................................................................
   1    -40.6827147 -0.406827E+02  0.385E-01    5.05       0.0  T
   2    -40.6827160 -0.130409E-05  0.226E-01    5.05       1.0  T
   3    -40.6827165 -0.490593E-06  0.993E-03    5.05       3.2  T
   4    -40.6827167 -0.250031E-06  0.747E-03    5.05       4.2  T
   5    -40.6827169 -0.190132E-06  0.536E-03    5.05       5.9  T
   6    -40.6827171 -0.192947E-06  0.234E-03    5.05      13.5  T
   7    -40.6827172 -0.404741E-07  0.115E-03    5.05      27.5  T
   8    -40.6827172 -0.331654E-08  0.788E-04    5.05      40.1  T
   9    -40.6827172 -0.303502E-08  0.469E-04    5.05      67.5  T
     SCC iter.                  ...        0 min,  0.012 sec
     gradient                   ...        0 min,  0.010 sec
 * total energy  :   -40.6495096 Eh     change       -0.1035217E-03 Eh
   gradient norm :     0.0024382 Eh/α   predicted    -0.5624229E-04 ( -45.67%)
   displ. norm   :     0.1618909 α      lambda       -0.5447461E-04
   maximum displ.:     0.1253030 α      in ANC's #3, #2, #5, ...

........................................................................
.............................. CYCLE   14 ..............................
........................................................................
   1    -40.6828653 -0.406829E+02  0.137E-01    5.05       0.0  T
   2    -40.6828657 -0.408557E-06  0.800E-02    5.05       1.0  T
   3    -40.6828637  0.201749E-05  0.164E-02    5.05       1.9  T
   4    -40.6828661 -0.241591E-05  0.321E-03    5.05       9.9  T
   5    -40.6828661 -0.336087E-07  0.207E-03    5.05      15.3  T
   6    -40.6828662 -0.235368E-07  0.115E-03    5.05      27.6  T
   7    -40.6828662 -0.644320E-08  0.847E-04    5.05      37.3  T
   8    -40.6828662 -0.306631E-08  0.605E-04    5.05      52.3  T
     SCC iter.                  ...        0 min,  0.011 sec
     gradient                   ...        0 min,  0.011 sec
 * total energy  :   -40.6495540 Eh     change       -0.4437669E-04 Eh
   gradient norm :     0.0026950 Eh/α   predicted    -0.2795172E-04 ( -37.01%)
   displ. norm   :     0.3105137 α      lambda       -0.1012027E-03
   maximum displ.:     0.2409713 α      in ANC's #3, #2, #5, ...

........................................................................
.............................. CYCLE   15 ..............................
........................................................................
   1    -40.6830393 -0.406830E+02  0.256E-01    5.05       0.0  T
   2    -40.6830404 -0.110366E-05  0.150E-01    5.05       1.0  T
   3    -40.6830360  0.437275E-05  0.243E-02    5.05       1.3  T
   4    -40.6830414 -0.535494E-05  0.567E-03    5.05       5.6  T
   5    -40.6830415 -0.870492E-07  0.396E-03    5.05       8.0  T
   6    -40.6830415 -0.874142E-07  0.191E-03    5.05      16.6  T
   7    -40.6830416 -0.197264E-07  0.125E-03    5.05      25.3  T
   8    -40.6830416 -0.572827E-08  0.901E-04    5.05      35.1  T
   9    -40.6830416 -0.399415E-08  0.271E-04    5.05     116.6  T
     SCC iter.                  ...        0 min,  0.012 sec
     gradient                   ...        0 min,  0.011 sec
 * total energy  :   -40.6496245 Eh     change       -0.7052147E-04 Eh
   gradient norm :     0.0034207 Eh/α   predicted    -0.5547981E-04 ( -21.33%)
   displ. norm   :     0.1805530 α      lambda       -0.7235647E-04
   maximum displ.:     0.1194414 α      in ANC's #3, #5, #1, ...

........................................................................
.............................. CYCLE   16 ..............................
........................................................................
   1    -40.6833437 -0.406833E+02  0.148E-01    5.06       0.0  T
   2    -40.6833453 -0.163582E-05  0.876E-02    5.06       1.0  T
   3    -40.6833378  0.755027E-05  0.325E-02    5.06       1.0  T
   4    -40.6833469 -0.912377E-05  0.431E-03    5.06       7.3  T
   5    -40.6833469 -0.397134E-07  0.235E-03    5.06      13.5  T
   6    -40.6833470 -0.201346E-07  0.122E-03    5.06      25.8  T
   7    -40.6833470 -0.494771E-08  0.966E-04    5.06      32.7  T
   8    -40.6833470 -0.330676E-08  0.725E-04    5.06      43.6  T
     SCC iter.                  ...        0 min,  0.011 sec
     gradient                   ...        0 min,  0.011 sec
 * total energy  :   -40.6496740 Eh     change       -0.4954747E-04 Eh
   gradient norm :     0.0035069 Eh/α   predicted    -0.3735829E-04 ( -24.60%)
   displ. norm   :     0.1871827 α      lambda       -0.8002143E-04
   maximum displ.:     0.1470095 α      in ANC's #3, #1, #5, ...

........................................................................
.............................. CYCLE   17 ..............................
........................................................................
   1    -40.6829692 -0.406830E+02  0.181E-01    5.04       0.0  T
   2    -40.6829718 -0.261888E-05  0.109E-01    5.04       1.0  T
   3    -40.6829596  0.122161E-04  0.406E-02    5.04       1.0  T
   4    -40.6829744 -0.148367E-04  0.687E-03    5.04       4.6  T
   5    -40.6829745 -0.113642E-06  0.397E-03    5.04       8.0  T
   6    -40.6829746 -0.570179E-07  0.255E-03    5.04      12.4  T
   7    -40.6829746 -0.308605E-07  0.191E-03    5.04      16.5  T
   8    -40.6829746 -0.179289E-07  0.136E-03    5.04      23.3  T
   9    -40.6829746 -0.156387E-07  0.318E-04    5.04      99.4  T
  10    -40.6829746 -0.323098E-09  0.185E-04    5.04     171.1  T
     SCC iter.                  ...        0 min,  0.014 sec
     gradient                   ...        0 min,  0.011 sec
 * total energy  :   -40.6497158 Eh     change       -0.4178759E-04 Eh
   gradient norm :     0.0028264 Eh/α   predicted    -0.4141094E-04 (  -0.90%)
   displ. norm   :     0.2056311 α      lambda       -0.1132527E-03
   maximum displ.:     0.1641447 α      in ANC's #2, #3, #1, ...

........................................................................
.............................. CYCLE   18 ..............................
........................................................................
   1    -40.6833914 -0.406834E+02  0.202E-01    5.06       0.0  T
   2    -40.6833946 -0.322164E-05  0.123E-01    5.05       1.0  T
   3    -40.6833819  0.126806E-04  0.412E-02    5.06       1.0  T
   4    -40.6833974 -0.155005E-04  0.928E-03    5.05       3.4  T
   5    -40.6833976 -0.195840E-06  0.615E-03    5.05       5.1  T
   6    -40.6833978 -0.213963E-06  0.304E-03    5.05      10.4  T
   7    -40.6833979 -0.369678E-07  0.241E-03    5.05      13.1  T
   8    -40.6833979 -0.266670E-07  0.159E-03    5.05      19.9  T
   9    -40.6833979 -0.168074E-07  0.502E-04    5.05      63.0  T
  10    -40.6833979 -0.898233E-09  0.298E-04    5.05     106.1  T
     SCC iter.                  ...        0 min,  0.014 sec
     gradient                   ...        0 min,  0.011 sec
 * total energy  :   -40.6497426 Eh     change       -0.2681105E-04 Eh
   gradient norm :     0.0026517 Eh/α   predicted    -0.5902158E-04 ( 120.14%)
   displ. norm   :     0.0676974 α      lambda       -0.3737871E-04
   maximum displ.:     0.0362991 α      in ANC's #3, #2, #16, ...

........................................................................
.............................. CYCLE   19 ..............................
........................................................................
   1    -40.6832090 -0.406832E+02  0.705E-02    5.05       0.0  T
   2    -40.6832099 -0.880342E-06  0.437E-02    5.05       1.0  T
   3    -40.6832074  0.245486E-05  0.205E-02    5.05       1.5  T
   4    -40.6832108 -0.332812E-05  0.393E-03    5.05       8.0  T
   5    -40.6832108 -0.365682E-07  0.232E-03    5.05      13.6  T
   6    -40.6832108 -0.219701E-07  0.126E-03    5.05      25.1  T
   7    -40.6832108 -0.633033E-08  0.973E-04    5.05      32.5  T
   8    -40.6832108 -0.466193E-08  0.545E-04    5.05      58.1  T
     SCC iter.                  ...        0 min,  0.011 sec
     gradient                   ...        0 min,  0.011 sec
 * total energy  :   -40.6497667 Eh     change       -0.2405097E-04 Eh
   gradient norm :     0.0019023 Eh/α   predicted    -0.1877535E-04 ( -21.94%)
   displ. norm   :     0.0723626 α      lambda       -0.1298835E-04
   maximum displ.:     0.0566752 α      in ANC's #3, #6, #16, ...

........................................................................
.............................. CYCLE   20 ..............................
........................................................................
   1    -40.6830482 -0.406830E+02  0.760E-02    5.05       0.0  T
   2    -40.6830488 -0.568143E-06  0.458E-02    5.05       1.0  T
   3    -40.6830464  0.235510E-05  0.183E-02    5.05       1.7  T
   4    -40.6830493 -0.290429E-05  0.303E-03    5.05      10.4  T
   5    -40.6830493 -0.200955E-07  0.185E-03    5.05      17.1  T
   6    -40.6830494 -0.151450E-07  0.931E-04    5.05      34.0  T
   7    -40.6830494 -0.309057E-08  0.747E-04    5.05      42.3  T
     SCC iter.                  ...        0 min,  0.010 sec
     gradient                   ...        0 min,  0.011 sec
 * total energy  :   -40.6497787 Eh     change       -0.1206640E-04 Eh
   gradient norm :     0.0016570 Eh/α   predicted    -0.6508047E-05 ( -46.06%)
   displ. norm   :     0.0648307 α      lambda       -0.1136588E-04
   maximum displ.:     0.0448861 α      in ANC's #3, #2, #6, ...
 * RMSD in coord.:     1.0854741 α      energy gain  -0.1295530E+00 Eh

generating ANC from model Hessian ...
Using Lindh-Hessian (1995)
 Shifting diagonal of input Hessian by    9.2547008686305141E-003
 Lowest  eigenvalues of input Hessian
    0.000000    0.000000    0.000000    0.000000    0.000000    0.000000
    0.010000    0.010230    0.010349    0.010559    0.010969    0.011060
    0.054363    0.054585    0.054670    0.054986    0.070392    0.070458
 Highest eigenvalues
    1.091141    1.095308    1.095794    1.096723    1.100399    1.107859


........................................................................
.............................. CYCLE   21 ..............................
........................................................................
   1    -40.6831206 -0.406831E+02  0.661E-02    5.05       0.0  T
   2    -40.6831208 -0.132704E-06  0.390E-02    5.05       1.0  T
   3    -40.6831205  0.320854E-06  0.697E-03    5.05       4.5  T
   4    -40.6831209 -0.419645E-06  0.238E-03    5.05      13.3  T
   5    -40.6831209 -0.143100E-07  0.165E-03    5.05      19.1  T
   6    -40.6831209 -0.177409E-07  0.806E-04    5.05      39.2  T
   7    -40.6831209 -0.343348E-08  0.594E-04    5.05      53.2  T
     SCC iter.                  ...        0 min,  0.010 sec
     gradient                   ...        0 min,  0.011 sec
 * total energy  :   -40.6497921 Eh     change       -0.1335657E-04 Eh
   gradient norm :     0.0012449 Eh/α   predicted     0.0000000E+00 (-100.00%)
   displ. norm   :     0.0468291 α      lambda       -0.1347993E-04
   maximum displ.:     0.0380924 α      in ANC's #2, #3, #1, ...

........................................................................
.............................. CYCLE   22 ..............................
........................................................................
   1    -40.6832156 -0.406832E+02  0.443E-02    5.06       0.0  T
   2    -40.6832157 -0.134559E-06  0.266E-02    5.06       1.2  T
   3    -40.6832153  0.472646E-06  0.840E-03    5.06       3.8  T
   4    -40.6832159 -0.611372E-06  0.264E-03    5.06      12.0  T
   5    -40.6832159 -0.214582E-07  0.179E-03    5.06      17.7  T
   6    -40.6832159 -0.195287E-07  0.781E-04    5.06      40.5  T
   7    -40.6832159 -0.202512E-08  0.630E-04    5.06      50.2  T
     SCC iter.                  ...        0 min,  0.010 sec
     gradient                   ...        0 min,  0.011 sec
 * total energy  :   -40.6498075 Eh     change       -0.1536362E-04 Eh
   gradient norm :     0.0007889 Eh/α   predicted    -0.6745675E-05 ( -56.09%)
   displ. norm   :     0.0740154 α      lambda       -0.1477411E-04
   maximum displ.:     0.0549154 α      in ANC's #2, #3, #1, ...

........................................................................
.............................. CYCLE   23 ..............................
........................................................................
   1    -40.6833076 -0.406833E+02  0.672E-02    5.06       0.0  T
   2    -40.6833078 -0.172410E-06  0.399E-02    5.06       1.0  T
   3    -40.6833071  0.670467E-06  0.947E-03    5.06       3.3  T
   4    -40.6833079 -0.816289E-06  0.232E-03    5.06      13.6  T
   5    -40.6833079 -0.136131E-07  0.165E-03    5.06      19.1  T
   6    -40.6833080 -0.179591E-07  0.815E-04    5.06      38.8  T
   7    -40.6833080 -0.343626E-08  0.604E-04    5.06      52.3  T
     SCC iter.                  ...        0 min,  0.010 sec
     gradient                   ...        0 min,  0.011 sec
 * total energy  :   -40.6498262 Eh     change       -0.1868431E-04 Eh
   gradient norm :     0.0004994 Eh/α   predicted    -0.7403959E-05 ( -60.37%)
   displ. norm   :     0.1061412 α      lambda       -0.1673615E-04
   maximum displ.:     0.0751111 α      in ANC's #2, #3, #1, ...

........................................................................
.............................. CYCLE   24 ..............................
........................................................................
   1    -40.6833044 -0.406833E+02  0.969E-02    5.06       0.0  T
   2    -40.6833045 -0.115349E-06  0.567E-02    5.06       1.0  T
   3    -40.6833045  0.744145E-07  0.481E-03    5.06       6.6  T
   4    -40.6833046 -0.155177E-06  0.239E-03    5.06      13.2  T
   5    -40.6833046 -0.157593E-07  0.172E-03    5.06      18.4  T
   6    -40.6833047 -0.206331E-07  0.718E-04    5.06      44.1  T
   7    -40.6833047 -0.303513E-08  0.485E-04    5.06      65.1  T
     SCC iter.                  ...        0 min,  0.010 sec
     gradient                   ...        0 min,  0.011 sec
 * total energy  :   -40.6498482 Eh     change       -0.2201508E-04 Eh
   gradient norm :     0.0007698 Eh/α   predicted    -0.8410913E-05 ( -61.79%)
   displ. norm   :     0.1669514 α      lambda       -0.2344327E-04
   maximum displ.:     0.1129735 α      in ANC's #2, #3, #5, ...

........................................................................
.............................. CYCLE   25 ..............................
........................................................................
   1    -40.6832200 -0.406832E+02  0.156E-01    5.06       0.0  T
   2    -40.6832204 -0.364037E-06  0.907E-02    5.06       1.0  T
   3    -40.6832189  0.141745E-05  0.140E-02    5.06       2.3  T
   4    -40.6832207 -0.172982E-05  0.299E-03    5.06      10.6  T
   5    -40.6832207 -0.216574E-07  0.202E-03    5.06      15.7  T
   6    -40.6832207 -0.198669E-07  0.109E-03    5.06      29.0  T
   7    -40.6832207 -0.593131E-08  0.775E-04    5.06      40.8  T
   8    -40.6832207 -0.248153E-08  0.561E-04    5.06      56.3  T
     SCC iter.                  ...        0 min,  0.011 sec
     gradient                   ...        0 min,  0.011 sec
 * total energy  :   -40.6498800 Eh     change       -0.3188136E-04 Eh
   gradient norm :     0.0015497 Eh/α   predicted    -0.1186822E-04 ( -62.77%)
   displ. norm   :     0.2992544 α      lambda       -0.4188206E-04
   maximum displ.:     0.1972981 α      in ANC's #2, #3, #5, ...

........................................................................
.............................. CYCLE   26 ..............................
........................................................................
   1    -40.6829138 -0.406829E+02  0.282E-01    5.03       0.0  T
   2    -40.6829163 -0.247989E-05  0.164E-01    5.04       1.0  T
   3    -40.6829023  0.139484E-04  0.436E-02    5.03       1.0  T
   4    -40.6829187 -0.163939E-04  0.578E-03    5.04       5.5  T
   5    -40.6829188 -0.631248E-07  0.305E-03    5.04      10.4  T
   6    -40.6829188 -0.248674E-07  0.187E-03    5.04      16.9  T
   7    -40.6829188 -0.145710E-07  0.133E-03    5.04      23.7  T
   8    -40.6829188 -0.690628E-08  0.978E-04    5.04      32.3  T
   9    -40.6829188 -0.674584E-08  0.260E-04    5.04     121.5  T
     SCC iter.                  ...        0 min,  0.013 sec
     gradient                   ...        0 min,  0.011 sec
 * total energy  :   -40.6499283 Eh     change       -0.4828568E-04 Eh
   gradient norm :     0.0037236 Eh/α   predicted    -0.2177441E-04 ( -54.91%)
   displ. norm   :     0.2225278 α      lambda       -0.4751880E-04
   maximum displ.:     0.1474209 α      in ANC's #2, #5, #3, ...

........................................................................
.............................. CYCLE   27 ..............................
........................................................................
   1    -40.6826763 -0.406827E+02  0.211E-01    5.01       0.0  T
   2    -40.6826777 -0.139475E-05  0.123E-01    5.02       1.0  T
   3    -40.6826697  0.805233E-05  0.330E-02    5.01       1.0  T
   4    -40.6826791 -0.944788E-05  0.432E-03    5.02       7.3  T
   5    -40.6826791 -0.355082E-07  0.230E-03    5.02      13.7  T
   6    -40.6826792 -0.140957E-07  0.147E-03    5.02      21.5  T
   7    -40.6826792 -0.935435E-08  0.103E-03    5.02      30.6  T
   8    -40.6826792 -0.429507E-08  0.760E-04    5.02      41.6  T
   9    -40.6826792 -0.418721E-08  0.190E-04    5.02     166.8  T
     SCC iter.                  ...        0 min,  0.013 sec
     gradient                   ...        0 min,  0.011 sec
 * total energy  :   -40.6499612 Eh     change       -0.3288408E-04 Eh
   gradient norm :     0.0054062 Eh/α   predicted    -0.2493655E-04 ( -24.17%)
   displ. norm   :     0.1904089 α      lambda       -0.8080521E-04
   maximum displ.:     0.1229265 α      in ANC's #2, #5, #6, ...

........................................................................
.............................. CYCLE   28 ..............................
........................................................................
   1    -40.6826976 -0.406827E+02  0.185E-01    5.02       0.0  T
   2    -40.6826980 -0.417577E-06  0.109E-01    5.02       1.0  T
   3    -40.6826963  0.168611E-05  0.147E-02    5.02       2.2  T
   4    -40.6826983 -0.204715E-05  0.311E-03    5.02      10.2  T
   5    -40.6826984 -0.240407E-07  0.214E-03    5.02      14.8  T
   6    -40.6826984 -0.219535E-07  0.122E-03    5.02      25.9  T
   7    -40.6826984 -0.804140E-08  0.837E-04    5.02      37.8  T
   8    -40.6826984 -0.305106E-08  0.609E-04    5.02      51.9  T
     SCC iter.                  ...        0 min,  0.011 sec
     gradient                   ...        0 min,  0.011 sec
 * total energy  :   -40.6500291 Eh     change       -0.6784839E-04 Eh
   gradient norm :     0.0053885 Eh/α   predicted    -0.4186890E-04 ( -38.29%)
   displ. norm   :     0.2762486 α      lambda       -0.2270990E-03
   maximum displ.:     0.1590306 α      in ANC's #2, #6, #5, ...

........................................................................
.............................. CYCLE   29 ..............................
........................................................................
   1    -40.6833091 -0.406833E+02  0.288E-01    5.04       0.0  T
   2    -40.6833209 -0.118355E-04  0.178E-01    5.04       1.0  T
   3    -40.6832783  0.426258E-04  0.798E-02    5.04       1.0  T
   4    -40.6833330 -0.546564E-04  0.123E-02    5.05       2.6  T
   5    -40.6833333 -0.294039E-06  0.652E-03    5.05       4.8  T
   6    -40.6833334 -0.109003E-06  0.426E-03    5.05       7.4  T
   7    -40.6833334 -0.880995E-07  0.296E-03    5.05      10.7  T
   8    -40.6833335 -0.414227E-07  0.204E-03    5.05      15.5  T
   9    -40.6833335 -0.341215E-07  0.639E-04    5.05      49.5  T
  10    -40.6833335 -0.168740E-08  0.409E-04    5.05      77.4  T
     SCC iter.                  ...        0 min,  0.014 sec
     gradient                   ...        0 min,  0.011 sec
 * total energy  :   -40.6501618 Eh     change       -0.1326872E-03 Eh
   gradient norm :     0.0031851 Eh/α   predicted    -0.1222146E-03 (  -7.89%)
   displ. norm   :     0.3511900 α      lambda       -0.9619625E-04
   maximum displ.:     0.2337990 α      in ANC's #2, #5, #6, ...

........................................................................
.............................. CYCLE   30 ..............................
........................................................................
   1    -40.6826608 -0.406827E+02  0.340E-01    5.01       0.0  T
   2    -40.6826695 -0.871097E-05  0.199E-01    5.03       1.0  T
   3    -40.6826279  0.415525E-04  0.800E-02    5.01       1.0  T
   4    -40.6826786 -0.506631E-04  0.107E-02    5.02       3.0  T
   5    -40.6826788 -0.221339E-06  0.569E-03    5.02       5.6  T
   6    -40.6826789 -0.910336E-07  0.361E-03    5.03       8.8  T
   7    -40.6826790 -0.564046E-07  0.271E-03    5.03      11.7  T
   8    -40.6826790 -0.332753E-07  0.198E-03    5.03      16.0  T
   9    -40.6826790 -0.335577E-07  0.502E-04    5.03      63.0  T
  10    -40.6826790 -0.875879E-09  0.297E-04    5.03     106.6  T
     SCC iter.                  ...        0 min,  0.014 sec
     gradient                   ...        0 min,  0.011 sec
 * total energy  :   -40.6501500 Eh     change        0.1172860E-04 Eh
   gradient norm :     0.0065448 Eh/α   predicted    -0.5403224E-04 (-560.69%)
   displ. norm   :     0.1659880 α      lambda       -0.1591400E-03
   maximum displ.:     0.1035161 α      in ANC's #2, #5, #1, ...

........................................................................
.............................. CYCLE   31 ..............................
........................................................................
   1    -40.6835609 -0.406836E+02  0.160E-01    5.07       0.0  T
   2    -40.6835716 -0.106510E-04  0.101E-01    5.06       1.0  T
   3    -40.6835660  0.558947E-05  0.582E-02    5.07       1.0  T
   4    -40.6835824 -0.164313E-04  0.117E-02    5.07       2.7  T
   5    -40.6835827 -0.308062E-06  0.511E-03    5.06       6.2  T
   6    -40.6835828 -0.972420E-07  0.328E-03    5.06       9.6  T
   7    -40.6835828 -0.302104E-07  0.278E-03    5.06      11.4  T
   8    -40.6835829 -0.472069E-07  0.156E-03    5.06      20.2  T
   9    -40.6835829 -0.200751E-07  0.526E-04    5.06      60.2  T
  10    -40.6835829 -0.956788E-09  0.276E-04    5.06     114.6  T
     SCC iter.                  ...        0 min,  0.014 sec
     gradient                   ...        0 min,  0.011 sec
 * total energy  :   -40.6502215 Eh     change       -0.7147129E-04 Eh
   gradient norm :     0.0023329 Eh/α   predicted    -0.8176242E-04 (  14.40%)
   displ. norm   :     0.0489778 α      lambda       -0.1506349E-04
   maximum displ.:     0.0364204 α      in ANC's #2, #3, #5, ...

........................................................................
.............................. CYCLE   32 ..............................
........................................................................
   1    -40.6836649 -0.406837E+02  0.493E-02    5.07       0.0  T
   2    -40.6836651 -0.220389E-06  0.293E-02    5.07       1.1  T
   3    -40.6836642  0.917439E-06  0.117E-02    5.07       2.7  T
   4    -40.6836654 -0.113741E-05  0.207E-03    5.07      15.3  T
   5    -40.6836654 -0.953091E-08  0.125E-03    5.07      25.3  T
   6    -40.6836654 -0.631498E-08  0.705E-04    5.07      44.9  T
   7    -40.6836654 -0.202942E-08  0.550E-04    5.07      57.5  T
     SCC iter.                  ...        0 min,  0.009 sec
     gradient                   ...        0 min,  0.011 sec
 * total energy  :   -40.6502337 Eh     change       -0.1218982E-04 Eh
   gradient norm :     0.0019198 Eh/α   predicted    -0.7550934E-05 ( -38.06%)
   displ. norm   :     0.1538557 α      lambda       -0.2256029E-04
   maximum displ.:     0.1155843 α      in ANC's #2, #3, #5, ...

........................................................................
.............................. CYCLE   33 ..............................
........................................................................
   1    -40.6836916 -0.406837E+02  0.150E-01    5.06       0.0  T
   2    -40.6836929 -0.137139E-05  0.880E-02    5.06       1.0  T
   3    -40.6836870  0.593254E-05  0.295E-02    5.06       1.1  T
   4    -40.6836942 -0.720038E-05  0.541E-03    5.06       5.8  T
   5    -40.6836943 -0.602620E-07  0.347E-03    5.06       9.1  T
   6    -40.6836943 -0.550986E-07  0.180E-03    5.06      17.5  T
   7    -40.6836943 -0.129986E-07  0.142E-03    5.06      22.3  T
   8    -40.6836943 -0.894555E-08  0.977E-04    5.06      32.4  T
   9    -40.6836943 -0.662500E-08  0.267E-04    5.06     118.3  T
     SCC iter.                  ...        0 min,  0.012 sec
     gradient                   ...        0 min,  0.011 sec
 * total energy  :   -40.6502453 Eh     change       -0.1161168E-04 Eh
   gradient norm :     0.0017439 Eh/α   predicted    -0.1139939E-04 (  -1.83%)
   displ. norm   :     0.0462545 α      lambda       -0.7307668E-05
   maximum displ.:     0.0304150 α      in ANC's #2, #5, #6, ...

........................................................................
.............................. CYCLE   34 ..............................
........................................................................
   1    -40.6837480 -0.406837E+02  0.452E-02    5.08       0.0  T
   2    -40.6837485 -0.545286E-06  0.276E-02    5.07       1.1  T
   3    -40.6837476  0.854930E-06  0.152E-02    5.08       2.1  T
   4    -40.6837491 -0.140643E-05  0.257E-03    5.08      12.3  T
   5    -40.6837491 -0.113017E-07  0.140E-03    5.07      22.6  T
   6    -40.6837491 -0.687259E-08  0.662E-04    5.07      47.8  T
   7    -40.6837491 -0.111484E-08  0.568E-04    5.07      55.7  T
     SCC iter.                  ...        0 min,  0.010 sec
     gradient                   ...        0 min,  0.011 sec
 * total energy  :   -40.6502515 Eh     change       -0.6230555E-05 Eh
   gradient norm :     0.0007324 Eh/α   predicted    -0.3656248E-05 ( -41.32%)
   displ. norm   :     0.0131033 α      lambda       -0.2059714E-05
   maximum displ.:     0.0069983 α      in ANC's #4, #3, #2, ...

........................................................................
.............................. CYCLE   35 ..............................
........................................................................
   1    -40.6836638 -0.406837E+02  0.135E-02    5.07       0.0  T
   2    -40.6836639 -0.176373E-06  0.944E-03    5.07       3.3  T
   3    -40.6836640 -0.101724E-06  0.554E-03    5.07       5.7  T
   4    -40.6836641 -0.731248E-07  0.170E-03    5.07      18.7  T
   5    -40.6836641 -0.581634E-08  0.103E-03    5.07      30.6  T
   6    -40.6836641 -0.384908E-08  0.568E-04    5.07      55.7  T
   7    -40.6836641 -0.142256E-08  0.431E-04    5.07      73.3  T
     SCC iter.                  ...        0 min,  0.010 sec
     gradient                   ...        0 min,  0.011 sec
 * total energy  :   -40.6502533 Eh     change       -0.1797998E-05 Eh
   gradient norm :     0.0002121 Eh/α   predicted    -0.1028101E-05 ( -42.82%)
   displ. norm   :     0.0137397 α      lambda       -0.5117120E-06
   maximum displ.:     0.0112380 α      in ANC's #2, #3, #4, ...

   *** GEOMETRY OPTIMIZATION CONVERGED AFTER 35 ITERATIONS ***

------------------------------------------------------------------------
 total energy gain   :        -0.1300276 Eh      -81.5935 kcal/mol
 total RMSD          :         1.2151393 a0        0.6430 Å
 total power (kW/mol):        -9.7539259 (step) -342.4311 (real)
------------------------------------------------------------------------

 ANCopt (total)                0 d,  0 h,  0 min,  0.997 sec
 optimizer setup                ...        0 min,  0.001 sec (  0.070%)
 model hessian                  ...        0 min,  0.001 sec (  0.090%)
 ANC generation                 ...        0 min,  0.000 sec (  0.039%)
 coordinate transformation      ...        0 min,  0.000 sec (  0.011%)
 single point calculation       ...        0 min,  0.988 sec ( 99.144%)
 optimization log               ...        0 min,  0.002 sec (  0.240%)
 hessian update                 ...        0 min,  0.000 sec (  0.019%)
 rational function              ...        0 min,  0.002 sec (  0.212%)

================
 final structure:
================
$coord
        4.30736984540375       -1.49723338509060        2.75048327920841      cl
        4.13413914280773        0.27502149445510       -0.07927689373841      c
        3.11002213333847       -1.69990625328658       -2.57126185530160      cl
        1.97020044759389        2.78896957751910        0.31516634063332      cl
        7.15178181449240        1.51391379822946       -0.80816349245314      cl
       -7.15502466245653       -1.70474854817107       -0.00360626909597      cl
       -4.13407635536289       -0.27546532962709        0.07745989058466      c
       -3.11145302685411        0.34220419306088       -3.04203847555164      cl
       -4.30079654360566        2.59328897324458        1.78692174759067      cl
       -1.97233201190687       -2.33594154198256        1.57436294406533      cl
$end

 Bond Distances (Angstroems)
 ---------------------------
Cl1-C2=1.7693        C2-Cl1=1.7693        C2-Cl3=1.7677        C2-Cl4=1.7677        C2-Cl5=1.7688        Cl3-C2=1.7677        
Cl4-C2=1.7677        Cl5-C2=1.7688        Cl6-C7=1.7690        C7-Cl6=1.7690        C7-Cl8=1.7677        C7-Cl9=1.7694        
C7-Cl10=1.7678       Cl8-C7=1.7677        Cl9-C7=1.7694        Cl10-C7=1.7678       
 Cl C  Rav=1.7684 sigma=0.0007  Rmin=1.7677  Rmax=1.7694     8

 selected bond angles (degree)
 --------------------
Cl3-C2-Cl1=109.50              Cl4-C2-Cl1=109.42              Cl4-C2-Cl3=109.54              Cl5-C2-Cl1=109.53              
Cl5-C2-Cl3=109.47              Cl5-C2-Cl4=109.37              Cl8-C7-Cl6=109.45              Cl9-C7-Cl6=109.52              
Cl9-C7-Cl8=109.52              Cl10-C7-Cl6=109.39             Cl10-C7-Cl8=109.54             Cl10-C7-Cl9=109.41             

 selected dihedral angles (degree)
 ---------------------------------


 CMA Distance (Angstroems)
 ---------------------------
R(CMA):  4.1361
           -------------------------------------------------
          |                Final Singlepoint                |
           -------------------------------------------------

          ...................................................
          :                      SETUP                      :
          :.................................................:
          :  # basis functions                  88          :
          :  # atomic orbitals                  80          :
          :  # shells                           28          :
          :  # electrons                        64          :
          :  max. iterations                   250          :
          :  Hamiltonian                  GFN2-xTB          :
          :  restarted?                      false          :
          :  GBSA solvation                  false          :
          :  PC potential                    false          :
          :  electronic temp.          300.0000000     K    :
          :  accuracy                    1.0000000          :
          :  -> integral cutoff          0.2500000E+02      :
          :  -> integral neglect         0.1000000E-07      :
          :  -> SCF convergence          0.1000000E-05 Eh   :
          :  -> wf. convergence          0.1000000E-03 e    :
          :  Broyden damping             0.4000000          :
          ...................................................

 iter      E             dE          RMSdq      gap      omega  full diag
   1    -40.6836641 -0.406837E+02  0.182E-04    5.07       0.0  T
   2    -40.6836641 -0.513865E-10  0.153E-04    5.07     206.2  T
   3    -40.6836641 -0.994120E-10  0.108E-04    5.07     293.8  T

   *** convergence criteria satisfied after 3 iterations ***

         #    Occupation            Energy/Eh            Energy/eV
      -------------------------------------------------------------
         1        2.0000           -1.1081499             -30.1543
       ...           ...                  ...                  ...
        26        2.0000           -0.4652859             -12.6611
        27        2.0000           -0.4642956             -12.6341
        28        2.0000           -0.4636921             -12.6177
        29        2.0000           -0.4632417             -12.6054
        30        2.0000           -0.4629664             -12.5980
        31        2.0000           -0.4625875             -12.5876
        32        2.0000           -0.4622030             -12.5772 (HOMO)
        33                         -0.2757755              -7.5042 (LUMO)
        34                         -0.2755743              -7.4988
        35                         -0.2037304              -5.5438
        36                         -0.2031449              -5.5279
        37                         -0.2025975              -5.5130
       ...                                ...                  ...
        80                          0.1276678               3.4740
      -------------------------------------------------------------
                  HL-Gap            0.1864275 Eh            5.0730 eV
             Fermi-level           -0.3689892 Eh          -10.0407 eV

 SCC (total)                   0 d,  0 h,  0 min,  0.023 sec
 SCC setup                      ...        0 min,  0.000 sec (  1.112%)
 Dispersion                     ...        0 min,  0.000 sec (  0.316%)
 classical contributions        ...        0 min,  0.000 sec (  0.142%)
 integral evaluation            ...        0 min,  0.006 sec ( 26.820%)
 iterations                     ...        0 min,  0.005 sec ( 21.478%)
 molecular gradient             ...        0 min,  0.011 sec ( 49.398%)
 printout                       ...        0 min,  0.000 sec (  0.674%)

         :::::::::::::::::::::::::::::::::::::::::::::::::::::
         ::                     SUMMARY                     ::
         :::::::::::::::::::::::::::::::::::::::::::::::::::::
         :: total energy             -40.650253328948 Eh    ::
         :: gradient norm              0.000214610112 Eh/a0 ::
         :: HOMO-LUMO gap              5.072950423796 eV    ::
         ::.................................................::
         :: SCC energy               -40.683664132317 Eh    ::
         :: -> isotropic ES            0.027925992808 Eh    ::
         :: -> anisotropic ES          0.004265375237 Eh    ::
         :: -> anisotropic XC          0.004042720358 Eh    ::
         :: -> dispersion             -0.018402460828 Eh    ::
         :: repulsion energy           0.033364136927 Eh    ::
         :: add. restraining           0.000000000000 Eh    ::
         :: total charge              -0.000000000000 e     ::
         :::::::::::::::::::::::::::::::::::::::::::::::::::::

           -------------------------------------------------
          |                Property Printout                |
           -------------------------------------------------

    * Orbital Energies and Occupations

         #    Occupation            Energy/Eh            Energy/eV
      -------------------------------------------------------------
         1        2.0000           -1.1081499             -30.1543
       ...           ...                  ...                  ...
        20        2.0000           -0.4845676             -13.1858
        21        2.0000           -0.4762430             -12.9592
        22        2.0000           -0.4711276             -12.8200
        23        2.0000           -0.4708953             -12.8137
        24        2.0000           -0.4701074             -12.7923
        25        2.0000           -0.4700571             -12.7909
        26        2.0000           -0.4652859             -12.6611
        27        2.0000           -0.4642956             -12.6341
        28        2.0000           -0.4636921             -12.6177
        29        2.0000           -0.4632417             -12.6054
        30        2.0000           -0.4629664             -12.5980
        31        2.0000           -0.4625875             -12.5876
        32        2.0000           -0.4622030             -12.5772 (HOMO)
        33                         -0.2757755              -7.5042 (LUMO)
        34                         -0.2755743              -7.4988
        35                         -0.2037304              -5.5438
        36                         -0.2031449              -5.5279
        37                         -0.2025975              -5.5130
        38                         -0.2024234              -5.5082
        39                         -0.2023637              -5.5066
        40                         -0.2020450              -5.4979
        41                         -0.0382381              -1.0405
        42                         -0.0381961              -1.0394
        43                         -0.0381860              -1.0391
       ...                                ...                  ...
        80                          0.1276678               3.4740
      -------------------------------------------------------------
                  HL-Gap            0.1864275 Eh            5.0730 eV
             Fermi-level           -0.3689892 Eh          -10.0407 eV

     #   Z          covCN         q      C6AA      α(0)
     1  17 cl       1.358    -0.069   101.342    15.402
     2   6 c        3.554     0.275    17.183     6.053
     3  17 cl       1.359    -0.068   101.298    15.398
     4  17 cl       1.363    -0.069   101.339    15.401
     5  17 cl       1.359    -0.069   101.344    15.402
     6  17 cl       1.358    -0.069   101.345    15.402
     7   6 c        3.554     0.275    17.185     6.054
     8  17 cl       1.359    -0.068   101.295    15.398
     9  17 cl       1.357    -0.069   101.342    15.402
    10  17 cl       1.362    -0.069   101.338    15.401

 Mol. C6AA /au·bohr⁶  :       7886.680084
 Mol. C8AA /au·bohr⁸  :     318869.864663
 Mol. α(0) /au        :        135.311909


Wiberg/Mayer (AO) data.
largest (>0.10) Wiberg bond orders for each atom

 ---------------------------------------------------------------------------
     #   Z sym  total        # sym  WBO       # sym  WBO       # sym  WBO
 ---------------------------------------------------------------------------
     1  17 cl   1.118 --     2 c    0.983
     2   6 c    3.934 --     3 cl   0.984     5 cl   0.984     1 cl   0.983
                             4 cl   0.982
     3  17 cl   1.118 --     2 c    0.984
     4  17 cl   1.117 --     2 c    0.982
     5  17 cl   1.117 --     2 c    0.984
     6  17 cl   1.117 --     7 c    0.984
     7   6 c    3.934 --     8 cl   0.984     6 cl   0.984     9 cl   0.983
                            10 cl   0.982
     8  17 cl   1.118 --     7 c    0.984
     9  17 cl   1.118 --     7 c    0.983
    10  17 cl   1.117 --     7 c    0.982
 ---------------------------------------------------------------------------

Topologies differ in total number of bonds
Writing topology from bond orders to xtbtopo.mol

molecular dipole:
                 x           y           z       tot (Debye)
 q only:        0.000      -0.002      -0.009
   full:       -0.000      -0.001      -0.004       0.010
molecular quadrupole (traceless):
                xx          xy          yy          xz          yz          zz
 q only:       -0.043      -0.027       0.008       0.007       0.006       0.035
  q+dip:        0.594       0.009      -0.295      -0.007      -0.001      -0.300
   full:        0.617       0.014      -0.309      -0.008       0.000      -0.308

           -------------------------------------------------
          |                Geometry Summary                 |
           -------------------------------------------------

      molecular mass/u    :      307.6449724
   center of mass at/Å    :       -0.0000129       0.0000242       0.0000761
  moments of inertia/u·Å² :        0.5916624E+03   0.2071029E+04   0.2071195E+04
rotational constants/cm⁻¹ :        0.2849198E-01   0.8139737E-02   0.8139087E-02

 * 8 selected distances

     #   Z          #   Z                                           value/Å
     1  17 cl       2   6 c                                       1.7692604
     2   6 c        3  17 cl                                      1.7677328
     2   6 c        4  17 cl                                      1.7676541 (min)
     2   6 c        5  17 cl                                      1.7687743
     6  17 cl       7   6 c                                       1.7690318
     7   6 c        8  17 cl                                      1.7676853
     7   6 c        9  17 cl                                      1.7693686 (max)
     7   6 c       10  17 cl                                      1.7677546

 * 1 distinct bonds (by element types)

   Z      Z             #   av. dist./Å        max./Å        min./Å
   6 C   17 Cl          8     1.7684077     1.7693686     1.7676541


optimized geometry written to: xtbopt.coord


           -------------------------------------------------
          | TOTAL ENERGY              -40.650253328948 Eh   |
          | GRADIENT NORM               0.000214610112 Eh/α |
          | HOMO-LUMO GAP               5.072950423796 eV   |
           -------------------------------------------------

------------------------------------------------------------------------
 * finished run on 2022/08/08 at 16:20:12.495     
------------------------------------------------------------------------
 total:
 * wall-time:     0 d,  0 h,  0 min,  1.110 sec
 *  cpu-time:     0 d,  0 h,  0 min,  1.073 sec
 * ratio c/w:     0.967 speedup
 SCF:
 * wall-time:     0 d,  0 h,  0 min,  0.043 sec
 *  cpu-time:     0 d,  0 h,  0 min,  0.043 sec
 * ratio c/w:     0.997 speedup
 ANC optimizer:
 * wall-time:     0 d,  0 h,  0 min,  1.045 sec
 *  cpu-time:     0 d,  0 h,  0 min,  1.017 sec
 * ratio c/w:     0.973 speedup

