 Entering Gaussian System, Link 0=g16
 Input=gaussian_test.inp
 Output=gaussian_test.log
 Initial command:
 /sw/restricted/lms/sw/Gaussian/g16_B01/g16/l1.exe "/scratch/user/peterchao1/peterchao1/9993832_1712001998000000735433567/Gau-127058.inp" -scrdir="/scratch/user/peterchao1/peterchao1/9993832_1712001998000000735433567/"
 Entering Link 1 = /sw/restricted/lms/sw/Gaussian/g16_B01/g16/l1.exe PID=    127060.
  
 Copyright (c) 1988-2017, Gaussian, Inc.  All Rights Reserved.
  
 This is part of the Gaussian(R) 16 program.  It is based on
 the Gaussian(R) 09 system (copyright 2009, Gaussian, Inc.),
 the Gaussian(R) 03 system (copyright 2003, Gaussian, Inc.),
 the Gaussian(R) 98 system (copyright 1998, Gaussian, Inc.),
 the Gaussian(R) 94 system (copyright 1995, Gaussian, Inc.),
 the Gaussian 92(TM) system (copyright 1992, Gaussian, Inc.),
 the Gaussian 90(TM) system (copyright 1990, Gaussian, Inc.),
 the Gaussian 88(TM) system (copyright 1988, Gaussian, Inc.),
 the Gaussian 86(TM) system (copyright 1986, Carnegie Mellon
 University), and the Gaussian 82(TM) system (copyright 1983,
 Carnegie Mellon University). Gaussian is a federally registered
 trademark of Gaussian, Inc.
  
 This software contains proprietary and confidential information,
 including trade secrets, belonging to Gaussian, Inc.
  
 This software is provided under written license and may be
 used, copied, transmitted, or stored only in accord with that
 written license.
  
 The following legend is applicable only to US Government
 contracts under FAR:
  
                    RESTRICTED RIGHTS LEGEND
  
 Use, reproduction and disclosure by the US Government is
 subject to restrictions as set forth in subparagraphs (a)
 and (c) of the Commercial Computer Software - Restricted
 Rights clause in FAR 52.227-19.
  
 Gaussian, Inc.
 340 Quinnipiac St., Bldg. 40, Wallingford CT 06492
  
  
 ---------------------------------------------------------------
 Warning -- This program may not be used in any manner that
 competes with the business of Gaussian, Inc. or will provide
 assistance to any competitor of Gaussian, Inc.  The licensee
 of this program is prohibited from giving any competitor of
 Gaussian, Inc. access to this program.  By using this program,
 the user acknowledges that Gaussian, Inc. is engaged in the
 business of creating and licensing software in the field of
 computational chemistry and represents and warrants to the
 licensee that it is not a competitor of Gaussian, Inc. and that
 it will not use this program in any manner prohibited above.
 ---------------------------------------------------------------
  

 Cite this work as:
 Gaussian 16, Revision B.01,
 M. J. Frisch, G. W. Trucks, H. B. Schlegel, G. E. Scuseria, 
 M. A. Robb, J. R. Cheeseman, G. Scalmani, V. Barone, 
 G. A. Petersson, H. Nakatsuji, X. Li, M. Caricato, A. V. Marenich, 
 J. Bloino, B. G. Janesko, R. Gomperts, B. Mennucci, H. P. Hratchian, 
 J. V. Ortiz, A. F. Izmaylov, J. L. Sonnenberg, D. Williams-Young, 
 F. Ding, F. Lipparini, F. Egidi, J. Goings, B. Peng, A. Petrone, 
 T. Henderson, D. Ranasinghe, V. G. Zakrzewski, J. Gao, N. Rega, 
 G. Zheng, W. Liang, M. Hada, M. Ehara, K. Toyota, R. Fukuda, 
 J. Hasegawa, M. Ishida, T. Nakajima, Y. Honda, O. Kitao, H. Nakai, 
 T. Vreven, K. Throssell, J. A. Montgomery, Jr., J. E. Peralta, 
 F. Ogliaro, M. J. Bearpark, J. J. Heyd, E. N. Brothers, K. N. Kudin, 
 V. N. Staroverov, T. A. Keith, R. Kobayashi, J. Normand, 
 K. Raghavachari, A. P. Rendell, J. C. Burant, S. S. Iyengar, 
 J. Tomasi, M. Cossi, J. M. Millam, M. Klene, C. Adamo, R. Cammi, 
 J. W. Ochterski, R. L. Martin, K. Morokuma, O. Farkas, 
 J. B. Foresman, and D. J. Fox, Gaussian, Inc., Wallingford CT, 2016.
 
 ******************************************
 Gaussian 16:  ES64L-G16RevB.01 20-Dec-2017
                 1-Apr-2024 
 ******************************************
 %nprocshared=4
 Will use up to    4 processors via shared memory.
 %mem=8000mb
 %chk=dimer.chk
 %nprocshared=4
 Will use up to    4 processors via shared memory.
 %mem=8000mb
 ----------------------------------------------------------------------
 #T wB97XD/def2svpp opt=tight freq int(grid=ultrafine) scf=(verytight,q
 c) Volume=tight
 ----------------------------------------------------------------------
 -----
 Dimer
 -----
 Symbolic Z-matrix:
 Charge =  0 Multiplicity = 1
 O                     1.98239  -0.79722  -2.41595 
 C                     3.03298  -0.5643   -1.50834 
 C                     2.55574  -0.34754  -0.05308 
 C                     1.7957   -1.60638   0.42816 
 O                     0.656    -1.88901  -0.34213 
 C                     3.75013  -0.07284   0.85584 
 Br                    5.04715  -1.52589   0.90013 
 C                     1.59427   0.83835   0.04309 
 Br                    2.36191   2.51499  -0.61203 
 H                     1.49392   0.02273  -2.56918 
 H                     3.64076   0.29187  -1.82602 
 H                     3.65866  -1.46039  -1.55237 
 H                     1.45151  -1.46852   1.45889 
 H                     2.48139  -2.464     0.40626 
 H                     0.93938  -1.83483  -1.27596 
 H                     3.42861   0.0723    1.88761 
 H                     4.30065   0.80551   0.51844 
 H                     1.30467   1.02581   1.0767 
 H                     0.70363   0.66581  -0.56157 
 O                    -1.81098  -2.21615  -1.95675 
 C                    -3.01313  -1.63985  -1.51257 
 C                    -2.84545  -0.24994  -0.84295 
 C                    -2.07123   0.68871  -1.80263 
 O                    -0.76746   0.25726  -2.06908 
 C                    -4.21561   0.38007  -0.61453 
 Br                   -5.3952   -0.7138    0.49539 
 C                    -2.09322  -0.44696   0.4695 
 Br                   -1.75921   1.2223    1.42841 
 H                    -1.28416  -2.51851  -1.20465 
 H                    -3.53513  -2.3165   -0.82534 
 H                    -3.62828  -1.5244   -2.41055 
 H                    -1.98214   1.68643  -1.36203 
 H                    -2.64301   0.77921  -2.73752 
 H                    -0.83339  -0.65574  -2.40405 
 H                    -4.74057   0.52519  -1.5581 
 H                    -4.12599   1.33797  -0.10162 
 H                    -1.11235  -0.88887   0.2934 
 H                    -2.66483  -1.07424   1.15414 
 
 Add virtual bond connecting atoms O24        and H19        Dist= 4.05D+00.
 Add virtual bond connecting atoms H29        and O5         Dist= 4.18D+00.
 Add virtual bond connecting atoms H37        and O5         Dist= 4.02D+00.

 GradGradGradGradGradGradGradGradGradGradGradGradGradGradGradGradGradGrad
 Initialization pass.
                           ----------------------------
                           !    Initial Parameters    !
                           ! (Angstroms and Degrees)  !
 --------------------------                            --------------------------
 ! Name  Definition              Value          Derivative Info.                !
 --------------------------------------------------------------------------------
 ! R1    R(1,2)                  1.4077         estimate D2E/DX2                !
 ! R2    R(1,10)                 0.9666         estimate D2E/DX2                !
 ! R3    R(2,3)                  1.5468         estimate D2E/DX2                !
 ! R4    R(2,11)                 1.097          estimate D2E/DX2                !
 ! R5    R(2,12)                 1.0938         estimate D2E/DX2                !
 ! R6    R(3,4)                  1.5472         estimate D2E/DX2                !
 ! R7    R(3,6)                  1.5258         estimate D2E/DX2                !
 ! R8    R(3,8)                  1.5297         estimate D2E/DX2                !
 ! R9    R(4,5)                  1.4043         estimate D2E/DX2                !
 ! R10   R(4,13)                 1.0954         estimate D2E/DX2                !
 ! R11   R(4,14)                 1.0983         estimate D2E/DX2                !
 ! R12   R(5,15)                 0.9774         estimate D2E/DX2                !
 ! R13   R(5,29)                 2.2146         estimate D2E/DX2                !
 ! R14   R(5,37)                 2.1287         estimate D2E/DX2                !
 ! R15   R(6,7)                  1.9482         estimate D2E/DX2                !
 ! R16   R(6,16)                 1.0904         estimate D2E/DX2                !
 ! R17   R(6,17)                 1.0901         estimate D2E/DX2                !
 ! R18   R(8,9)                  1.9569         estimate D2E/DX2                !
 ! R19   R(8,18)                 1.0897         estimate D2E/DX2                !
 ! R20   R(8,19)                 1.0902         estimate D2E/DX2                !
 ! R21   R(19,24)                2.1456         estimate D2E/DX2                !
 ! R22   R(20,21)                1.4052         estimate D2E/DX2                !
 ! R23   R(20,29)                0.9668         estimate D2E/DX2                !
 ! R24   R(21,22)                1.5519         estimate D2E/DX2                !
 ! R25   R(21,30)                1.0966         estimate D2E/DX2                !
 ! R26   R(21,31)                1.0946         estimate D2E/DX2                !
 ! R27   R(22,23)                1.5497         estimate D2E/DX2                !
 ! R28   R(22,25)                1.5253         estimate D2E/DX2                !
 ! R29   R(22,27)                1.5255         estimate D2E/DX2                !
 ! R30   R(23,24)                1.3989         estimate D2E/DX2                !
 ! R31   R(23,32)                1.0943         estimate D2E/DX2                !
 ! R32   R(23,33)                1.0996         estimate D2E/DX2                !
 ! R33   R(24,34)                0.9747         estimate D2E/DX2                !
 ! R34   R(25,26)                1.9545         estimate D2E/DX2                !
 ! R35   R(25,35)                1.0895         estimate D2E/DX2                !
 ! R36   R(25,36)                1.0903         estimate D2E/DX2                !
 ! R37   R(27,28)                1.9538         estimate D2E/DX2                !
 ! R38   R(27,37)                1.0901         estimate D2E/DX2                !
 ! R39   R(27,38)                1.0904         estimate D2E/DX2                !
 ! A1    A(2,1,10)             109.8144         estimate D2E/DX2                !
 ! A2    A(1,2,3)              113.5478         estimate D2E/DX2                !
 ! A3    A(1,2,11)             110.8486         estimate D2E/DX2                !
 ! A4    A(1,2,12)             105.3909         estimate D2E/DX2                !
 ! A5    A(3,2,11)             109.5139         estimate D2E/DX2                !
 ! A6    A(3,2,12)             109.2184         estimate D2E/DX2                !
 ! A7    A(11,2,12)            108.1084         estimate D2E/DX2                !
 ! A8    A(2,3,4)              109.2793         estimate D2E/DX2                !
 ! A9    A(2,3,6)              110.1306         estimate D2E/DX2                !
 ! A10   A(2,3,8)              111.2051         estimate D2E/DX2                !
 ! A11   A(4,3,6)              110.2259         estimate D2E/DX2                !
 ! A12   A(4,3,8)              107.604          estimate D2E/DX2                !
 ! A13   A(6,3,8)              108.3596         estimate D2E/DX2                !
 ! A14   A(3,4,5)              113.0662         estimate D2E/DX2                !
 ! A15   A(3,4,13)             110.159          estimate D2E/DX2                !
 ! A16   A(3,4,14)             108.8105         estimate D2E/DX2                !
 ! A17   A(5,4,13)             106.6461         estimate D2E/DX2                !
 ! A18   A(5,4,14)             109.7919         estimate D2E/DX2                !
 ! A19   A(13,4,14)            108.2537         estimate D2E/DX2                !
 ! A20   A(4,5,15)             106.1172         estimate D2E/DX2                !
 ! A21   A(4,5,37)             114.574          estimate D2E/DX2                !
 ! A22   A(15,5,29)             84.126          estimate D2E/DX2                !
 ! A23   A(15,5,37)            120.005          estimate D2E/DX2                !
 ! A24   A(29,5,37)             61.4485         estimate D2E/DX2                !
 ! A25   A(3,6,7)              113.6029         estimate D2E/DX2                !
 ! A26   A(3,6,16)             110.9044         estimate D2E/DX2                !
 ! A27   A(3,6,17)             110.8542         estimate D2E/DX2                !
 ! A28   A(7,6,16)             105.9061         estimate D2E/DX2                !
 ! A29   A(7,6,17)             105.7696         estimate D2E/DX2                !
 ! A30   A(16,6,17)            109.5435         estimate D2E/DX2                !
 ! A31   A(3,8,9)              113.3664         estimate D2E/DX2                !
 ! A32   A(3,8,18)             111.1031         estimate D2E/DX2                !
 ! A33   A(3,8,19)             110.8489         estimate D2E/DX2                !
 ! A34   A(9,8,18)             105.9269         estimate D2E/DX2                !
 ! A35   A(9,8,19)             105.6866         estimate D2E/DX2                !
 ! A36   A(18,8,19)            109.6448         estimate D2E/DX2                !
 ! A37   A(21,20,29)           110.3984         estimate D2E/DX2                !
 ! A38   A(20,21,22)           114.2847         estimate D2E/DX2                !
 ! A39   A(20,21,30)           110.6252         estimate D2E/DX2                !
 ! A40   A(20,21,31)           105.3503         estimate D2E/DX2                !
 ! A41   A(22,21,30)           109.4905         estimate D2E/DX2                !
 ! A42   A(22,21,31)           108.6779         estimate D2E/DX2                !
 ! A43   A(30,21,31)           108.1605         estimate D2E/DX2                !
 ! A44   A(21,22,23)           109.2238         estimate D2E/DX2                !
 ! A45   A(21,22,25)           109.7244         estimate D2E/DX2                !
 ! A46   A(21,22,27)           107.9891         estimate D2E/DX2                !
 ! A47   A(23,22,25)           106.9384         estimate D2E/DX2                !
 ! A48   A(23,22,27)           111.387          estimate D2E/DX2                !
 ! A49   A(25,22,27)           111.5592         estimate D2E/DX2                !
 ! A50   A(22,23,24)           113.3761         estimate D2E/DX2                !
 ! A51   A(22,23,32)           110.0956         estimate D2E/DX2                !
 ! A52   A(22,23,33)           108.4567         estimate D2E/DX2                !
 ! A53   A(24,23,32)           106.3794         estimate D2E/DX2                !
 ! A54   A(24,23,33)           110.3691         estimate D2E/DX2                !
 ! A55   A(32,23,33)           108.0356         estimate D2E/DX2                !
 ! A56   A(19,24,23)           116.5164         estimate D2E/DX2                !
 ! A57   A(19,24,34)           117.7866         estimate D2E/DX2                !
 ! A58   A(23,24,34)           106.9352         estimate D2E/DX2                !
 ! A59   A(22,25,26)           113.3301         estimate D2E/DX2                !
 ! A60   A(22,25,35)           110.9874         estimate D2E/DX2                !
 ! A61   A(22,25,36)           111.0704         estimate D2E/DX2                !
 ! A62   A(26,25,35)           105.9962         estimate D2E/DX2                !
 ! A63   A(26,25,36)           105.9132         estimate D2E/DX2                !
 ! A64   A(35,25,36)           109.2703         estimate D2E/DX2                !
 ! A65   A(22,27,28)           113.3403         estimate D2E/DX2                !
 ! A66   A(22,27,37)           110.9192         estimate D2E/DX2                !
 ! A67   A(22,27,38)           110.8545         estimate D2E/DX2                !
 ! A68   A(28,27,37)           105.7708         estimate D2E/DX2                !
 ! A69   A(28,27,38)           105.8397         estimate D2E/DX2                !
 ! A70   A(37,27,38)           109.8714         estimate D2E/DX2                !
 ! A71   A(5,29,20)            133.7487         estimate D2E/DX2                !
 ! A72   L(4,5,29,15,-1)       190.2432         estimate D2E/DX2                !
 ! A73   L(8,19,24,1,-1)       169.388          estimate D2E/DX2                !
 ! A74   L(5,37,27,9,-1)       184.1439         estimate D2E/DX2                !
 ! A75   L(4,5,29,15,-2)       176.0808         estimate D2E/DX2                !
 ! A76   L(8,19,24,1,-2)       184.5138         estimate D2E/DX2                !
 ! A77   L(5,37,27,9,-2)       170.819          estimate D2E/DX2                !
 ! D1    D(10,1,2,3)            72.3801         estimate D2E/DX2                !
 ! D2    D(10,1,2,11)          -51.3911         estimate D2E/DX2                !
 ! D3    D(10,1,2,12)         -168.1219         estimate D2E/DX2                !
 ! D4    D(1,2,3,4)             60.0055         estimate D2E/DX2                !
 ! D5    D(1,2,3,6)           -178.7756         estimate D2E/DX2                !
 ! D6    D(1,2,3,8)            -58.6398         estimate D2E/DX2                !
 ! D7    D(11,2,3,4)          -175.4996         estimate D2E/DX2                !
 ! D8    D(11,2,3,6)           -54.2807         estimate D2E/DX2                !
 ! D9    D(11,2,3,8)            65.8551         estimate D2E/DX2                !
 ! D10   D(12,2,3,4)           -57.2861         estimate D2E/DX2                !
 ! D11   D(12,2,3,6)            63.9328         estimate D2E/DX2                !
 ! D12   D(12,2,3,8)          -175.9314         estimate D2E/DX2                !
 ! D13   D(2,3,4,5)            -60.8344         estimate D2E/DX2                !
 ! D14   D(2,3,4,13)           179.9563         estimate D2E/DX2                !
 ! D15   D(2,3,4,14)            61.4313         estimate D2E/DX2                !
 ! D16   D(6,3,4,5)            178.0045         estimate D2E/DX2                !
 ! D17   D(6,3,4,13)            58.7953         estimate D2E/DX2                !
 ! D18   D(6,3,4,14)           -59.7298         estimate D2E/DX2                !
 ! D19   D(8,3,4,5)             60.0302         estimate D2E/DX2                !
 ! D20   D(8,3,4,13)           -59.1791         estimate D2E/DX2                !
 ! D21   D(8,3,4,14)          -177.7041         estimate D2E/DX2                !
 ! D22   D(2,3,6,7)            -60.2952         estimate D2E/DX2                !
 ! D23   D(2,3,6,16)          -179.442          estimate D2E/DX2                !
 ! D24   D(2,3,6,17)            58.6404         estimate D2E/DX2                !
 ! D25   D(4,3,6,7)             60.3566         estimate D2E/DX2                !
 ! D26   D(4,3,6,16)           -58.7903         estimate D2E/DX2                !
 ! D27   D(4,3,6,17)           179.2922         estimate D2E/DX2                !
 ! D28   D(8,3,6,7)            177.8646         estimate D2E/DX2                !
 ! D29   D(8,3,6,16)            58.7178         estimate D2E/DX2                !
 ! D30   D(8,3,6,17)           -63.1998         estimate D2E/DX2                !
 ! D31   D(2,3,8,9)            -57.5362         estimate D2E/DX2                !
 ! D32   D(2,3,8,18)          -176.6899         estimate D2E/DX2                !
 ! D33   D(2,3,8,19)            61.13           estimate D2E/DX2                !
 ! D34   D(4,3,8,9)           -177.1833         estimate D2E/DX2                !
 ! D35   D(4,3,8,18)            63.663          estimate D2E/DX2                !
 ! D36   D(4,3,8,19)           -58.5171         estimate D2E/DX2                !
 ! D37   D(6,3,8,9)             63.6427         estimate D2E/DX2                !
 ! D38   D(6,3,8,18)           -55.511          estimate D2E/DX2                !
 ! D39   D(6,3,8,19)          -177.6911         estimate D2E/DX2                !
 ! D40   D(3,4,5,15)            47.8228         estimate D2E/DX2                !
 ! D41   D(3,4,5,37)           -86.9676         estimate D2E/DX2                !
 ! D42   D(13,4,5,15)          169.0396         estimate D2E/DX2                !
 ! D43   D(13,4,5,37)           34.2491         estimate D2E/DX2                !
 ! D44   D(14,4,5,15)          -73.8926         estimate D2E/DX2                !
 ! D45   D(14,4,5,37)          151.3169         estimate D2E/DX2                !
 ! D46   D(3,4,29,20)            4.6438         estimate D2E/DX2                !
 ! D47   D(13,4,29,20)         125.204          estimate D2E/DX2                !
 ! D48   D(14,4,29,20)        -120.9421         estimate D2E/DX2                !
 ! D49   D(4,5,27,22)          147.9569         estimate D2E/DX2                !
 ! D50   D(4,5,27,28)           24.8548         estimate D2E/DX2                !
 ! D51   D(4,5,27,38)          -92.3457         estimate D2E/DX2                !
 ! D52   D(15,5,27,22)          18.808          estimate D2E/DX2                !
 ! D53   D(15,5,27,28)        -104.294          estimate D2E/DX2                !
 ! D54   D(15,5,27,38)         138.5055         estimate D2E/DX2                !
 ! D55   D(29,5,27,22)         -43.8462         estimate D2E/DX2                !
 ! D56   D(29,5,27,28)        -166.9482         estimate D2E/DX2                !
 ! D57   D(29,5,27,38)          75.8513         estimate D2E/DX2                !
 ! D58   D(15,5,29,20)         -42.2558         estimate D2E/DX2                !
 ! D59   D(37,5,29,20)          86.6687         estimate D2E/DX2                !
 ! D60   D(3,8,24,23)          147.0235         estimate D2E/DX2                !
 ! D61   D(3,8,24,34)           15.4038         estimate D2E/DX2                !
 ! D62   D(9,8,24,23)          -93.6173         estimate D2E/DX2                !
 ! D63   D(9,8,24,34)          134.763          estimate D2E/DX2                !
 ! D64   D(18,8,24,23)          22.1278         estimate D2E/DX2                !
 ! D65   D(18,8,24,34)        -109.4919         estimate D2E/DX2                !
 ! D66   D(29,20,21,22)         72.4376         estimate D2E/DX2                !
 ! D67   D(29,20,21,30)        -51.6824         estimate D2E/DX2                !
 ! D68   D(29,20,21,31)       -168.3405         estimate D2E/DX2                !
 ! D69   D(21,20,29,5)        -113.3885         estimate D2E/DX2                !
 ! D70   D(20,21,22,23)         53.6483         estimate D2E/DX2                !
 ! D71   D(20,21,22,25)        170.5719         estimate D2E/DX2                !
 ! D72   D(20,21,22,27)        -67.6353         estimate D2E/DX2                !
 ! D73   D(30,21,22,23)        178.3729         estimate D2E/DX2                !
 ! D74   D(30,21,22,25)        -64.7036         estimate D2E/DX2                !
 ! D75   D(30,21,22,27)         57.0892         estimate D2E/DX2                !
 ! D76   D(31,21,22,23)        -63.6801         estimate D2E/DX2                !
 ! D77   D(31,21,22,25)         53.2434         estimate D2E/DX2                !
 ! D78   D(31,21,22,27)        175.0362         estimate D2E/DX2                !
 ! D79   D(21,22,23,24)        -63.3813         estimate D2E/DX2                !
 ! D80   D(21,22,23,32)        177.5886         estimate D2E/DX2                !
 ! D81   D(21,22,23,33)         59.5761         estimate D2E/DX2                !
 ! D82   D(25,22,23,24)        177.9441         estimate D2E/DX2                !
 ! D83   D(25,22,23,32)         58.914          estimate D2E/DX2                !
 ! D84   D(25,22,23,33)        -59.0985         estimate D2E/DX2                !
 ! D85   D(27,22,23,24)         55.8164         estimate D2E/DX2                !
 ! D86   D(27,22,23,32)        -63.2138         estimate D2E/DX2                !
 ! D87   D(27,22,23,33)        178.7738         estimate D2E/DX2                !
 ! D88   D(21,22,25,26)         58.2302         estimate D2E/DX2                !
 ! D89   D(21,22,25,35)        -60.9058         estimate D2E/DX2                !
 ! D90   D(21,22,25,36)        177.3183         estimate D2E/DX2                !
 ! D91   D(23,22,25,26)        176.5789         estimate D2E/DX2                !
 ! D92   D(23,22,25,35)         57.4429         estimate D2E/DX2                !
 ! D93   D(23,22,25,36)        -64.3331         estimate D2E/DX2                !
 ! D94   D(27,22,25,26)        -61.4015         estimate D2E/DX2                !
 ! D95   D(27,22,25,35)        179.4625         estimate D2E/DX2                !
 ! D96   D(27,22,25,36)         57.6866         estimate D2E/DX2                !
 ! D97   D(21,22,27,28)        178.6868         estimate D2E/DX2                !
 ! D98   D(21,22,27,37)         59.8811         estimate D2E/DX2                !
 ! D99   D(21,22,27,38)        -62.4646         estimate D2E/DX2                !
 ! D100  D(23,22,27,28)         58.7563         estimate D2E/DX2                !
 ! D101  D(23,22,27,37)        -60.0494         estimate D2E/DX2                !
 ! D102  D(23,22,27,38)        177.6049         estimate D2E/DX2                !
 ! D103  D(25,22,27,28)        -60.6608         estimate D2E/DX2                !
 ! D104  D(25,22,27,37)       -179.4665         estimate D2E/DX2                !
 ! D105  D(25,22,27,38)         58.1878         estimate D2E/DX2                !
 ! D106  D(22,23,24,19)        -79.1671         estimate D2E/DX2                !
 ! D107  D(22,23,24,34)         54.9818         estimate D2E/DX2                !
 ! D108  D(32,23,24,19)         41.977          estimate D2E/DX2                !
 ! D109  D(32,23,24,34)        176.1259         estimate D2E/DX2                !
 ! D110  D(33,23,24,19)        158.9364         estimate D2E/DX2                !
 ! D111  D(33,23,24,34)        -66.9147         estimate D2E/DX2                !
 --------------------------------------------------------------------------------
 Number of steps in this run=    228 maximum allowed number of steps=    228.
 GradGradGradGradGradGradGradGradGradGradGradGradGradGradGradGradGradGrad

                    Distance matrix (angstroms):
                    1          2          3          4          5
     1  O    0.000000
     2  C    1.407748   0.000000
     3  C    2.472677   1.546777   0.000000
     4  C    2.962872   2.523256   1.547237   0.000000
     5  O    2.692964   2.960559   2.463475   1.404335   0.000000
     6  C    3.788705   2.518966   1.525829   2.520808   3.782496
     7  Br   4.573857   3.283636   2.916200   3.286517   4.577920
     8  C    2.978692   2.538549   1.529713   2.483062   2.909855
     9  Br   3.790629   3.276543   2.923028   4.288160   4.730555
    10  H    0.966641   1.959259   2.755969   3.424790   3.052316
    11  H    2.069863   1.096980   2.174731   3.476923   3.983339
    12  H    1.998871   1.093800   2.168580   2.722951   3.265639
    13  H    3.968232   3.481817   2.182190   1.095380   2.013286
    14  H    3.315432   2.752961   2.167006   1.098253   2.054941
    15  H    1.861201   2.459949   2.513976   1.920808   0.977385
    16  H    4.622587   3.477681   2.168972   2.759414   4.062743
    17  H    4.068628   2.755215   2.168146   3.478530   4.613514
    18  H    3.997672   3.492556   2.174327   2.755027   3.306061
    19  H    2.685964   2.799178   2.171583   2.708331   2.564668
    20  O    4.076007   5.137464   5.117022   4.366664   2.966475
    21  C    5.146001   6.141028   5.900214   5.185789   3.859338
    22  C    5.107041   5.924311   5.459516   4.999591   3.898392
    23  C    4.360732   5.263992   5.054076   5.019668   4.026842
    24  O    2.965449   3.928446   3.933662   4.034743   3.100811
    25  C    6.560971   7.364291   6.833443   6.416316   5.381032
    26  Br   7.931691   8.664380   7.978253   7.246399   6.220897
    27  C    5.005908   5.495773   4.679302   4.058285   3.208806
    28  Br   5.732119   5.897588   4.824737   4.651814   4.318369
    29  H    3.885925   4.748556   4.558954   3.603272   2.214588
    30  H    5.939808   6.832038   6.447633   5.522074   4.240495
    31  H    5.657599   6.790296   6.721967   6.122466   4.771407
    32  H    4.795488   5.498961   5.142255   5.321606   4.558914
    33  H    4.897228   5.960936   5.958429   5.951033   4.872447
    34  H    2.819354   3.969816   4.136216   3.979607   2.826787
    35  H    6.905273   7.849678   7.500860   7.156228   6.035710
    36  H    6.872224   7.539783   6.891220   6.634480   5.773962
    37  H    4.114171   4.531593   3.723977   2.998290   2.128668
    38  H    5.866771   6.309824   5.407393   4.550447   3.732370
                    6          7          8          9         10
     6  C    0.000000
     7  Br   1.948227   0.000000
     8  C    2.477610   4.271597   0.000000
     9  Br   3.283088   5.081916   1.956923   0.000000
    10  H    4.102488   5.201905   2.738480   3.285600   0.000000
    11  H    2.708760   3.565686   2.824946   2.837512   2.287713
    12  H    2.780854   2.819032   3.477271   4.285961   2.814193
    13  H    2.755945   3.639250   2.710450   4.581035   4.295461
    14  H    2.743989   2.776166   3.438664   5.083457   4.001529
    15  H    3.943282   4.658818   3.051993   4.624419   2.330336
    16  H    1.090407   2.479715   2.711811   3.654154   4.858860
    17  H    1.090144   2.477579   2.747998   2.821167   4.245451
    18  H    2.690000   4.533053   1.089665   2.487412   3.786088
    19  H    3.440322   5.079991   1.090242   2.484326   2.251359
    20  O    6.590172   7.461380   4.992503   6.450184   4.038566
    21  C    7.335296   8.414410   5.457996   6.853074   4.918754
    22  C    6.813143   8.182881   4.656243   5.900401   4.678077
    23  C    6.444820   7.929742   4.106704   4.940197   3.706949
    24  O    5.391909   6.767976   3.221284   4.124706   2.327863
    25  C    8.112964   9.577357   5.864919   6.915318   6.045424
    26  Br   9.174850  10.481704   7.174019   8.474917   7.575893
    27  C    5.868049   7.234260   3.928295   5.458118   4.724598
    28  Br   5.688417   7.359231   3.648619   4.776828   5.291752
    29  H    5.964141   6.745435   4.594644   6.243483   4.004697
    30  H    7.806116   8.789651   6.084249   7.626523   5.814157
    31  H    8.198615   9.285677   6.235224   7.445377   5.353107
    32  H    6.393190   8.052783   3.935012   4.485501   4.038328
    33  H    7.383122   8.813889   5.068517   5.707872   4.208897
    34  H    5.654671   6.801144   3.756905   4.845073   2.429809
    35  H    8.847410  10.298023   6.541565   7.436361   6.335900
    36  H    8.058561   9.661874   5.743867   6.613525   6.277113
    37  H    4.962455   6.222011   3.220524   4.947375   3.977194
    38  H    6.499503   7.729377   4.799215   6.424178   5.688741
                   11         12         13         14         15
    11  H    0.000000
    12  H    1.773597   0.000000
    13  H    4.322317   3.733528   0.000000
    14  H    3.731231   2.495885   1.777537   0.000000
    15  H    3.481787   2.758818   2.806393   2.367177   0.000000
    16  H    3.726167   3.772999   2.543001   3.086165   4.454388
    17  H    2.489132   3.136034   3.764738   3.743261   4.635661
    18  H    3.797605   4.316773   2.527714   3.743389   3.721788
    19  H    3.219532   3.772882   3.032648   3.727312   2.611345
    20  O    6.002389   5.536394   4.782194   4.906088   2.858911
    21  C    6.935708   6.674327   5.365812   5.878004   3.964390
    22  C    6.582622   6.653718   5.024665   5.902356   4.126055
    23  C    5.725809   6.124786   5.263163   5.961979   3.963514
    24  O    4.415046   4.775758   4.510950   4.907911   2.814103
    25  C    7.949722   8.140706   6.311315   7.347153   5.649539
    26  Br   9.383441   9.312531   6.955246   8.069193   6.672436
    27  C    6.220439   6.180549   3.819374   4.999953   3.764241
    28  Br   6.373128   6.740572   4.189300   5.711072   4.893068
    29  H    5.704310   5.066753   3.959898   4.096018   2.327369
    30  H    7.700547   7.280949   5.550079   6.143058   4.522874
    31  H    7.515282   7.337585   6.385920   6.793041   4.716698
    32  H    5.811801   6.461994   5.449887   6.346341   4.576238
    33  H    6.368209   6.792019   6.279115   6.830909   4.669360
    34  H    4.609781   4.642346   4.561103   4.706957   2.409474
    35  H    8.388853   8.630738   7.170698   8.059196   6.157201
    36  H    8.024357   8.398593   6.435849   7.640055   6.091286
    37  H    5.336494   5.147434   2.875370   3.925399   2.750882
    38  H    7.106910   6.889190   4.146400   5.382785   4.412969
                   16         17         18         19         20
    16  H    0.000000
    17  H    1.781206   0.000000
    18  H    2.465345   3.055502   0.000000
    19  H    3.711642   3.758252   1.781791   0.000000
    20  O    6.889806   7.253204   5.423965   4.071300   0.000000
    21  C    7.482562   7.974718   5.696791   4.476022   1.405207
    22  C    6.850085   7.350787   4.747217   3.676106   2.485290
    23  C    6.651780   6.782468   4.449819   3.039840   2.920564
    24  O    5.770320   5.716771   3.844512   2.145595   2.686880
    25  C    8.049202   8.601821   5.809539   4.927821   3.784735
    26  Br   8.967495   9.814192   6.946397   6.341631   4.595297
    27  C    5.724627   6.515572   3.752789   3.181787   3.016022
    28  Br   5.333567   6.141961   3.090254   3.214860   4.825452
    29  H    6.203593   6.723705   4.946596   3.808512   0.966758
    30  H    7.846031   8.541204   6.181624   5.189497   2.064678
    31  H    8.415664   8.767860   6.557322   5.194343   1.996761
    32  H    6.514742   6.617066   4.145711   2.982576   3.951344
    33  H    7.665261   7.669181   5.494839   3.993449   3.205321
    34  H    6.092049   6.085599   4.417524   2.739279   1.894897
    35  H    8.877698   9.280848   6.613443   5.536437   4.031918
    36  H    7.913978   8.466182   5.565783   4.897817   4.629535
    37  H    4.907719   5.676454   3.181438   2.538858   2.704245
    38  H    6.243606   7.242619   4.491454   4.161493   3.422092
                   21         22         23         24         25
    21  C    0.000000
    22  C    1.551880   0.000000
    23  C    2.528532   1.549669   0.000000
    24  O    2.991953   2.465504   1.398919   0.000000
    25  C    2.516447   1.525269   2.470870   3.744405   0.000000
    26  Br   3.250189   2.916771   4.277466   5.379173   1.954463
    27  C    2.489536   1.525509   2.540238   2.949230   2.522629
    28  Br   4.291103   2.916590   3.289637   3.761290   3.304069
    29  H    1.963727   2.777565   3.356090   2.952819   4.164551
    30  H    1.096648   2.178675   3.482728   3.978843   2.789087
    31  H    1.094583   2.166663   2.773409   3.387512   2.682843
    32  H    3.485645   2.182730   1.094309   2.004464   2.693277
    33  H    2.736668   2.165541   1.099610   2.058387   2.671981
    34  H    2.552348   2.578778   1.923928   0.974744   3.964179
    35  H    2.770104   2.168810   2.685494   4.014785   1.089470
    36  H    3.478020   2.170444   2.745360   4.039625   1.090264
    37  H    2.727352   2.168673   2.793126   2.648371   3.473442
    38  H    2.748194   2.168055   3.493261   3.970151   2.765533
                   26         27         28         29         30
    26  Br   0.000000
    27  C    3.312845   0.000000
    28  Br   4.223677   1.953850   0.000000
    29  H    4.800816   2.783645   4.599174   0.000000
    30  H    2.787979   2.692744   4.555920   2.291635   0.000000
    31  H    3.496223   3.436852   5.076948   2.817337   1.774545
    32  H    4.567293   2.813935   2.837552   4.265383   4.327043
    33  H    4.500600   3.477178   4.281639   3.882161   3.746437
    34  H    5.405578   3.144527   4.367144   2.260901   3.542582
    35  H    2.486051   3.473420   4.277109   4.619070   3.172569
    36  H    2.485376   2.764837   2.820642   4.915808   3.772008
    37  H    4.291185   1.090138   2.482687   2.220227   3.026479
    38  H    2.831747   1.090392   2.483846   3.091294   2.493787
                   31         32         33         34         35
    31  H    0.000000
    32  H    3.757471   0.000000
    33  H    2.526715   1.775321   0.000000
    34  H    2.926779   2.809123   2.333456   0.000000
    35  H    2.482871   2.999311   2.419778   4.168484   0.000000
    36  H    3.711066   2.511210   3.075617   4.485229   1.777536
    37  H    3.747686   3.182635   3.783109   2.721838   4.311791
    38  H    3.719935   3.797176   4.310551   4.023689   3.771351
                   36         37         38
    36  H    0.000000
    37  H    3.767877   0.000000
    38  H    3.087184   1.784781   0.000000
 Framework group  C1[X(C10H20Br4O4)]
 Deg. of freedom   108
                         Standard orientation:                         
 ---------------------------------------------------------------------
 Center     Atomic      Atomic             Coordinates (Angstroms)
 Number     Number       Type             X           Y           Z
 ---------------------------------------------------------------------
      1          8           0       -1.972990   -0.867994    2.322443
      2          6           0       -3.031468   -0.590121    1.436912
      3          6           0       -2.566975   -0.300232   -0.009715
      4          6           0       -1.811233   -1.532971   -0.560308
      5          8           0       -0.664849   -1.853547    0.184802
      6          6           0       -3.769253    0.019389   -0.893187
      7         35           0       -5.066690   -1.430097   -0.999188
      8          6           0       -1.606323    0.889375   -0.054492
      9         35           0       -2.368108    2.530627    0.690842
     10          1           0       -1.483162   -0.056601    2.512458
     11          1           0       -3.636404    0.248752    1.802574
     12          1           0       -3.656792   -1.487534    1.441269
     13          1           0       -1.476071   -1.343292   -1.585757
     14          1           0       -2.496751   -2.390870   -0.575593
     15          1           0       -0.940055   -1.846528    1.122616
     16          1           0       -3.456769    0.216374   -1.919120
     17          1           0       -4.316753    0.879439   -0.507218
     18          1           0       -1.325760    1.128713   -1.079855
     19          1           0       -0.710433    0.686976    0.532913
     20          8           0        1.816138   -2.260549    1.759296
     21          6           0        3.014390   -1.662159    1.334177
     22          6           0        2.840928   -0.240394    0.736826
     23          6           0        2.075185    0.648486    1.749251
     24          8           0        0.773766    0.203674    2.005037
     25          6           0        4.209072    0.400853    0.528432
     26         35           0        5.378851   -0.635336   -0.645391
     27          6           0        2.077237   -0.371425   -0.577246
     28         35           0        1.734936    1.343842   -1.448001
     29          1           0        1.282743   -2.524894    0.997566
     30          1           0        3.530326   -2.303178    0.609235
     31          1           0        3.637380   -1.591795    2.231420
     32          1           0        1.982288    1.667077    1.360207
     33          1           0        2.655123    0.692063    2.682480
     34          1           0        0.842582   -0.724998    2.293061
     35          1           0        4.742269    0.498513    1.473476
     36          1           0        4.115016    1.383307    0.065169
     37          1           0        1.097921   -0.822013   -0.415037
     38          1           0        2.642804   -0.963241   -1.297554
 ---------------------------------------------------------------------
 Rotational constants (GHZ):           0.2836246           0.0732387           0.0687976
   364 basis functions,   750 primitive gaussians,   390 cartesian basis functions
   126 alpha electrons      126 beta electrons
       nuclear repulsion energy      3550.5676571515 Hartrees.
 NAtoms=   38 NActive=   38 NUniq=   38 SFac= 1.00D+00 NAtFMM=   60 NAOKFM=F Big=F
 Nuclear repulsion after empirical dispersion term =     3550.5265769175 Hartrees.
   1 Symmetry operations used in ECPInt.
 ECPInt:  NShTT=   14878 NPrTT=   68298 LenC2=   13206 LenP2D=   39312.
 LDataN:  DoStor=T MaxTD1= 4 Len=   56
 ExpMin= 1.22D-01 ExpMax= 1.13D+05 ExpMxC= 1.70D+04 IAcc=3 IRadAn=         5 AccDes= 0.00D+00
 Harris functional with IExCor= 4639 and IRadAn=       5 diagonalized for initial guess.
 HarFok:  IExCor= 4639 AccDes= 0.00D+00 IRadAn=         5 IDoV= 1 UseB2=F ITyADJ=14
 ICtDFT=  3500011 ScaDFX=  1.000000  1.000000  1.000000  1.000000
 FoFCou: FMM=F IPFlag=           0 FMFlag=      100000 FMFlg1=           0
         NFxFlg=           0 DoJE=T BraDBF=F KetDBF=T FulRan=T
         wScrn=  0.000000 ICntrl=       500 IOpCl=  0 I1Cent=   200000004 NGrid=           0
         NMat0=    1 NMatS0=      1 NMatT0=    0 NMatD0=    1 NMtDS0=    0 NMtDT0=    0
 Petite list used in FoFCou.
     Accept linear search using points  2 and  3.
     Accept linear search using points  1 and  2.
     Accept linear search using points  2 and  3.
     Accept linear search using points  1 and  2.
     Minimum is close to point  2 DX= -8.81D-05 DF=  0.00D+00 DXR=  8.81D-05 DFR=  0.00D+00 which will be used.
 SCF Done:  E(RwB97XD) =  -10988.8490021     a.u. after    7 cycles
            Convg  =    0.2091D-05                    26 Fock formations.
              S**2 =  0.0000                  -V/T =  2.0016

 **********************************************************************

            Population analysis using the SCF Density.

 **********************************************************************

 Orbital symmetries:
       Occupied  (A) (A) (A) (A) (A) (A) (A) (A) (A) (A) (A) (A)
                 (A) (A) (A) (A) (A) (A) (A) (A) (A) (A) (A) (A)
                 (A) (A) (A) (A) (A) (A) (A) (A) (A) (A) (A) (A)
                 (A) (A) (A) (A) (A) (A) (A) (A) (A) (A) (A) (A)
                 (A) (A) (A) (A) (A) (A) (A) (A) (A) (A) (A) (A)
                 (A) (A) (A) (A) (A) (A) (A) (A) (A) (A) (A) (A)
                 (A) (A) (A) (A) (A) (A) (A) (A) (A) (A) (A) (A)
                 (A) (A) (A) (A) (A) (A) (A) (A) (A) (A) (A) (A)
                 (A) (A) (A) (A) (A) (A) (A) (A) (A) (A) (A) (A)
                 (A) (A) (A) (A) (A) (A) (A) (A) (A) (A) (A) (A)
                 (A) (A) (A) (A) (A) (A)
       Virtual   (A) (A) (A) (A) (A) (A) (A) (A) (A) (A) (A) (A)
                 (A) (A) (A) (A) (A) (A) (A) (A) (A) (A) (A) (A)
                 (A) (A) (A) (A) (A) (A) (A) (A) (A) (A) (A) (A)
                 (A) (A) (A) (A) (A) (A) (A) (A) (A) (A) (A) (A)
                 (A) (A) (A) (A) (A) (A) (A) (A) (A) (A) (A) (A)
                 (A) (A) (A) (A) (A) (A) (A) (A) (A) (A) (A) (A)
                 (A) (A) (A) (A) (A) (A) (A) (A) (A) (A) (A) (A)
                 (A) (A) (A) (A) (A) (A) (A) (A) (A) (A) (A) (A)
                 (A) (A) (A) (A) (A) (A) (A) (A) (A) (A) (A) (A)
                 (A) (A) (A) (A) (A) (A) (A) (A) (A) (A) (A) (A)
                 (A) (A) (A) (A) (A) (A) (A) (A) (A) (A) (A) (A)
                 (A) (A) (A) (A) (A) (A) (A) (A) (A) (A) (A) (A)
                 (A) (A) (A) (A) (A) (A) (A) (A) (A) (A) (A) (A)
                 (A) (A) (A) (A) (A) (A) (A) (A) (A) (A) (A) (A)
                 (A) (A) (A) (A) (A) (A) (A) (A) (A) (A) (A) (A)
                 (A) (A) (A) (A) (A) (A) (A) (A) (A) (A) (A) (A)
                 (A) (A) (A) (A) (A) (A) (A) (A) (A) (A) (A) (A)
                 (A) (A) (A) (A) (A) (A) (A) (A) (A) (A) (A) (A)
                 (A) (A) (A) (A) (A) (A) (A) (A) (A) (A) (A) (A)
                 (A) (A) (A) (A) (A) (A) (A) (A) (A) (A)
 The electronic state is 1-A.
 Alpha  occ. eigenvalues -- -483.06032-483.05777-483.05705-483.05520 -62.64243
 Alpha  occ. eigenvalues --  -62.63995 -62.63896 -62.63725 -56.45014 -56.44764
 Alpha  occ. eigenvalues --  -56.44660 -56.44655 -56.44646 -56.44487 -56.44406
 Alpha  occ. eigenvalues --  -56.44399 -56.44316 -56.44305 -56.44140 -56.44136
 Alpha  occ. eigenvalues --  -19.28251 -19.28010 -19.26675 -19.26607 -10.36233
 Alpha  occ. eigenvalues --  -10.36100 -10.35858 -10.35642 -10.35498 -10.35356
 Alpha  occ. eigenvalues --  -10.34851 -10.34849 -10.34228 -10.34003  -8.81186
 Alpha  occ. eigenvalues --   -8.80945  -8.80826  -8.80662  -6.63729  -6.63485
 Alpha  occ. eigenvalues --   -6.63339  -6.63174  -6.62428  -6.62394  -6.62185
 Alpha  occ. eigenvalues --   -6.62159  -6.62090  -6.62045  -6.61913  -6.61896
 Alpha  occ. eigenvalues --   -2.74091  -2.73850  -2.73731  -2.73708  -2.73704
 Alpha  occ. eigenvalues --   -2.73542  -2.73486  -2.73465  -2.73364  -2.73327
 Alpha  occ. eigenvalues --   -2.73188  -2.73174  -2.72667  -2.72667  -2.72429
 Alpha  occ. eigenvalues --   -2.72429  -2.72332  -2.72332  -2.72169  -2.72169
 Alpha  occ. eigenvalues --   -1.15411  -1.14797  -1.12726  -1.12445  -0.96660
 Alpha  occ. eigenvalues --   -0.96397  -0.90635  -0.90385  -0.87086  -0.86431
 Alpha  occ. eigenvalues --   -0.79594  -0.79073  -0.77914  -0.77308  -0.76353
 Alpha  occ. eigenvalues --   -0.75900  -0.67651  -0.66854  -0.64510  -0.64101
 Alpha  occ. eigenvalues --   -0.61754  -0.59778  -0.59190  -0.58453  -0.57175
 Alpha  occ. eigenvalues --   -0.56313  -0.55839  -0.55073  -0.53087  -0.53022
 Alpha  occ. eigenvalues --   -0.52506  -0.50484  -0.50400  -0.49837  -0.49259
 Alpha  occ. eigenvalues --   -0.48895  -0.47391  -0.46896  -0.46340  -0.45350
 Alpha  occ. eigenvalues --   -0.45108  -0.44648  -0.43139  -0.42023  -0.39849
 Alpha  occ. eigenvalues --   -0.38730  -0.37683  -0.37288  -0.36855  -0.36783
 Alpha  occ. eigenvalues --   -0.36480  -0.36325  -0.35918  -0.35884  -0.35630
 Alpha  occ. eigenvalues --   -0.35289
 Alpha virt. eigenvalues --    0.06498   0.07066   0.07305   0.07584   0.12441
 Alpha virt. eigenvalues --    0.13182   0.13438   0.14903   0.16131   0.16433
 Alpha virt. eigenvalues --    0.17091   0.18016   0.18491   0.18993   0.19965
 Alpha virt. eigenvalues --    0.20385   0.20993   0.21379   0.22629   0.23323
 Alpha virt. eigenvalues --    0.23747   0.24238   0.25165   0.25505   0.26306
 Alpha virt. eigenvalues --    0.26839   0.27536   0.28961   0.29301   0.29976
 Alpha virt. eigenvalues --    0.30186   0.30433   0.30924   0.31706   0.32109
 Alpha virt. eigenvalues --    0.32641   0.41916   0.43424   0.44210   0.45065
 Alpha virt. eigenvalues --    0.45619   0.47057   0.48553   0.49143   0.49405
 Alpha virt. eigenvalues --    0.50762   0.51020   0.53068   0.53558   0.54536
 Alpha virt. eigenvalues --    0.55525   0.55830   0.56299   0.56731   0.57526
 Alpha virt. eigenvalues --    0.57903   0.58277   0.59074   0.59617   0.60455
 Alpha virt. eigenvalues --    0.61422   0.61981   0.62618   0.63438   0.63812
 Alpha virt. eigenvalues --    0.63972   0.64524   0.65065   0.65353   0.65676
 Alpha virt. eigenvalues --    0.66505   0.66781   0.67146   0.67895   0.68369
 Alpha virt. eigenvalues --    0.69384   0.69462   0.70125   0.71114   0.71551
 Alpha virt. eigenvalues --    0.71634   0.72439   0.73096   0.73633   0.73999
 Alpha virt. eigenvalues --    0.74794   0.75163   0.75876   0.76100   0.76423
 Alpha virt. eigenvalues --    0.77151   0.77731   0.77854   0.78014   0.78902
 Alpha virt. eigenvalues --    0.79717   0.80538   0.80970   0.81538   0.81875
 Alpha virt. eigenvalues --    0.82495   0.83574   0.83741   0.84530   0.84965
 Alpha virt. eigenvalues --    0.85692   0.86440   0.86900   0.89412   0.91457
 Alpha virt. eigenvalues --    0.93706   0.94317   0.97492   0.97730   0.98362
 Alpha virt. eigenvalues --    1.00219   1.01692   1.04297   1.05080   1.06816
 Alpha virt. eigenvalues --    1.07515   1.09487   1.10610   1.12040   1.13555
 Alpha virt. eigenvalues --    1.14379   1.14513   1.16094   1.17528   1.20258
 Alpha virt. eigenvalues --    1.22315   1.23249   1.24386   1.24982   1.28028
 Alpha virt. eigenvalues --    1.28622   1.30619   1.34305   1.35284   1.37451
 Alpha virt. eigenvalues --    1.39484   1.42011   1.42646   1.47629   1.50601
 Alpha virt. eigenvalues --    1.52448   1.54904   1.57275   1.62094   1.64171
 Alpha virt. eigenvalues --    1.66587   1.70102   1.76587   1.78279   1.78720
 Alpha virt. eigenvalues --    1.79540   1.80869   1.86025   1.87415   1.87509
 Alpha virt. eigenvalues --    1.88364   1.89896   1.93521   1.94636   2.03629
 Alpha virt. eigenvalues --    2.04413   2.04743   2.05819   2.06947   2.07800
 Alpha virt. eigenvalues --    2.09832   2.10205   2.11705   2.13241   2.15314
 Alpha virt. eigenvalues --    2.16225   2.17459   2.18194   2.19344   2.21142
 Alpha virt. eigenvalues --    2.21471   2.22381   2.24689   2.24839   2.26116
 Alpha virt. eigenvalues --    2.26369   2.27014   2.28682   2.52833   2.53221
 Alpha virt. eigenvalues --    2.55595   2.56335   2.65775   2.66248   2.66916
 Alpha virt. eigenvalues --    2.67467   2.70615   2.72231   2.74245   2.74745
 Alpha virt. eigenvalues --    2.76613   2.77380   2.88025   2.88708   2.92616
 Alpha virt. eigenvalues --    2.93175   3.01556   3.02436   3.06334   3.07116
 Alpha virt. eigenvalues --    3.08114   3.08862   3.10252   3.13302   3.44103
 Alpha virt. eigenvalues --    3.45126   3.46941   3.48480   3.54753   3.55042
 Alpha virt. eigenvalues --    3.55550   3.55905   3.56360   3.56884   3.57145
 Alpha virt. eigenvalues --    3.57520   3.62544   3.63676   3.64738   3.64924
 Alpha virt. eigenvalues --    3.65040   3.65811   3.66335   3.67787   3.87914
 Alpha virt. eigenvalues --    3.88593   3.88885   3.89498
          Condensed to atoms (all electrons):
 Mulliken charges:
               1
     1  O   -0.512200
     2  C    0.052240
     3  C   -0.327491
     4  C    0.103341
     5  O   -0.528267
     6  C   -0.181024
     7  Br  -0.118886
     8  C   -0.271994
     9  Br  -0.128785
    10  H    0.352002
    11  H    0.126207
    12  H    0.129503
    13  H    0.106883
    14  H    0.122238
    15  H    0.343289
    16  H    0.160875
    17  H    0.177362
    18  H    0.162622
    19  H    0.227689
    20  O   -0.512379
    21  C    0.065873
    22  C   -0.348535
    23  C    0.105294
    24  O   -0.510120
    25  C   -0.178964
    26  Br  -0.115674
    27  C   -0.243647
    28  Br  -0.126148
    29  H    0.352795
    30  H    0.127102
    31  H    0.115195
    32  H    0.127594
    33  H    0.096392
    34  H    0.338466
    35  H    0.159076
    36  H    0.177433
    37  H    0.206588
    38  H    0.168058
 Sum of Mulliken charges =   0.00000
 Mulliken charges with hydrogens summed into heavy atoms:
               1
     1  O   -0.160198
     2  C    0.307950
     3  C   -0.327491
     4  C    0.332462
     5  O   -0.184979
     6  C    0.157213
     7  Br  -0.118886
     8  C    0.118317
     9  Br  -0.128785
    20  O   -0.159584
    21  C    0.308169
    22  C   -0.348535
    23  C    0.329280
    24  O   -0.171654
    25  C    0.157545
    26  Br  -0.115674
    27  C    0.130999
    28  Br  -0.126148
 Electronic spatial extent (au):  <R**2>=          13868.4948
 Charge=              0.0000 electrons
 Dipole moment (field-independent basis, Debye):
    X=              0.9956    Y=             -0.2763    Z=              0.6035  Tot=              1.1966
 Evaluate density.
 Using the total density.
 Monte-Carlo method of calculating molar volume:
 based on  0.001 e/bohr**3 density envelope.
 Number of points per bohr**3 =  100 CutOff= 1.00D-04
 Using the SCF density.
 There are      2925 points.  Will hold      2925 in memory.
 LenV=  1047280875 MDV=  1048576000.
 Box volume =25027.727 fraction occupied=0.101
 Integrated density= 3.2465257454521276D+02 error= 7.2652574545212758D+01
 Molar volume = 2515.607 bohr**3/mol (224.490 cm**3/mol)
 Recommended a0 for SCRF calculation =  5.41 angstrom ( 10.23 bohr)
   1 Symmetry operations used in ECPInt.
 ECPInt:  NShTT=   14878 NPrTT=   68298 LenC2=   13206 LenP2D=   39312.
 LDataN:  DoStor=T MaxTD1= 5 Len=  102
 Calling FoFJK, ICntrl=      2127 FMM=F ISym2X=0 I1Cent= 0 IOpClX= 0 NMat=1 NMatS=1 NMatT=0.

 GradGradGradGradGradGradGradGradGradGradGradGradGradGradGradGradGradGrad
 FormGI is forming the generalized inverse of G from B-inverse, IUseBI=4.
 Internal  Forces:  Max     0.009910702 RMS     0.002391667
 Step number   1 out of a maximum of  228
 All quantities printed in internal units (Hartrees-Bohrs-Radians)
 Mixed Optimization -- RFO/linear search
 Second derivative matrix not updated -- first step.
 ITU=  0
     Eigenvalues ---    0.00230   0.00238   0.00317   0.00378   0.00424
     Eigenvalues ---    0.00432   0.00461   0.00657   0.01054   0.01189
     Eigenvalues ---    0.01487   0.01589   0.01694   0.02166   0.02458
     Eigenvalues ---    0.02608   0.02922   0.03228   0.03461   0.03766
     Eigenvalues ---    0.03831   0.04308   0.04469   0.04576   0.04628
     Eigenvalues ---    0.04651   0.04700   0.04755   0.04876   0.05003
     Eigenvalues ---    0.05180   0.05356   0.05375   0.05437   0.05585
     Eigenvalues ---    0.05735   0.05744   0.05774   0.05920   0.06602
     Eigenvalues ---    0.07600   0.07872   0.08055   0.08162   0.08769
     Eigenvalues ---    0.08824   0.09526   0.09789   0.09872   0.10452
     Eigenvalues ---    0.10719   0.11473   0.11819   0.11898   0.12703
     Eigenvalues ---    0.12953   0.13296   0.14059   0.14153   0.14426
     Eigenvalues ---    0.14778   0.15491   0.15730   0.15829   0.15854
     Eigenvalues ---    0.16000   0.16000   0.16000   0.16000   0.16000
     Eigenvalues ---    0.16084   0.17351   0.18356   0.22073   0.22278
     Eigenvalues ---    0.22292   0.26829   0.27206   0.27755   0.27924
     Eigenvalues ---    0.28332   0.28877   0.29812   0.29865   0.32766
     Eigenvalues ---    0.33555   0.33725   0.33876   0.34018   0.34056
     Eigenvalues ---    0.34198   0.34288   0.34319   0.34377   0.34766
     Eigenvalues ---    0.34767   0.34782   0.34796   0.34851   0.34874
     Eigenvalues ---    0.42610   0.43524   0.44360   0.45125   0.50970
     Eigenvalues ---    0.51896   0.52419   0.54069
 Linear search not attempted -- first point.
 Iteration  1 RMS(Cart)=  0.06338250 RMS(Int)=  0.00137198
 Iteration  2 RMS(Cart)=  0.00235180 RMS(Int)=  0.00018167
 Iteration  3 RMS(Cart)=  0.00000302 RMS(Int)=  0.00018166
 Iteration  4 RMS(Cart)=  0.00000000 RMS(Int)=  0.00018166
 Variable       Old X    -DE/DX   Delta X   Delta X   Delta X     New X
                                 (Linear)    (Quad)   (Total)
    R1        2.66026   0.00542   0.00000   0.01205   0.01205   2.67231
    R2        1.82669   0.00509   0.00000   0.00930   0.00930   1.83599
    R3        2.92298  -0.00018   0.00000  -0.00066  -0.00066   2.92232
    R4        2.07299   0.00546   0.00000   0.01575   0.01575   2.08874
    R5        2.06698   0.00446   0.00000   0.01272   0.01272   2.07970
    R6        2.92385   0.00140   0.00000   0.00377   0.00378   2.92763
    R7        2.88340   0.00646   0.00000   0.02120   0.02120   2.90460
    R8        2.89074   0.00489   0.00000   0.01486   0.01509   2.90582
    R9        2.65381   0.00370   0.00000   0.00825   0.00807   2.66188
   R10        2.06997   0.00574   0.00000   0.01646   0.01646   2.08643
   R11        2.07540   0.00479   0.00000   0.01386   0.01386   2.08925
   R12        1.84699   0.00076   0.00000   0.00145   0.00145   1.84844
   R13        4.18497  -0.00238   0.00000  -0.06108  -0.06123   4.12374
   R14        4.02260   0.00100   0.00000   0.03584   0.03566   4.05826
   R15        3.68162   0.00314   0.00000   0.01875   0.01875   3.70036
   R16        2.06057   0.00653   0.00000   0.01841   0.01841   2.07898
   R17        2.06007   0.00559   0.00000   0.01576   0.01576   2.07584
   R18        3.69805   0.00015   0.00000   0.00094   0.00094   3.69899
   R19        2.05917   0.00637   0.00000   0.01794   0.01794   2.07711
   R20        2.06026   0.00639   0.00000   0.01783   0.01801   2.07826
   R21        4.05459   0.00024   0.00000   0.00418   0.00436   4.05894
   R22        2.65546   0.00514   0.00000   0.01083   0.01078   2.66624
   R23        1.82691   0.00302   0.00000   0.00601   0.00584   1.83274
   R24        2.93263   0.00048   0.00000   0.00101   0.00109   2.93372
   R25        2.07236   0.00524   0.00000   0.01508   0.01508   2.08744
   R26        2.06846   0.00567   0.00000   0.01622   0.01622   2.08468
   R27        2.92845   0.00038   0.00000   0.00225   0.00225   2.93070
   R28        2.88234   0.00585   0.00000   0.01915   0.01915   2.90149
   R29        2.88279   0.00634   0.00000   0.02037   0.02038   2.90317
   R30        2.64357   0.00328   0.00000   0.00652   0.00675   2.65033
   R31        2.06794   0.00481   0.00000   0.01376   0.01376   2.08170
   R32        2.07796   0.00656   0.00000   0.01907   0.01907   2.09703
   R33        1.84200   0.00084   0.00000   0.00158   0.00158   1.84358
   R34        3.69340  -0.00020   0.00000  -0.00119  -0.00119   3.69221
   R35        2.05880   0.00731   0.00000   0.02056   0.02056   2.07936
   R36        2.06030   0.00577   0.00000   0.01628   0.01628   2.07658
   R37        3.69224   0.00014   0.00000   0.00084   0.00084   3.69308
   R38        2.06006   0.00742   0.00000   0.02224   0.02207   2.08213
   R39        2.06054   0.00616   0.00000   0.01739   0.01739   2.07793
    A1        1.91662   0.00217   0.00000   0.01299   0.01299   1.92961
    A2        1.98178  -0.00497   0.00000  -0.02176  -0.02175   1.96003
    A3        1.93467   0.00145   0.00000   0.00292   0.00286   1.93754
    A4        1.83942   0.00233   0.00000   0.01585   0.01590   1.85531
    A5        1.91138   0.00143   0.00000   0.00362   0.00358   1.91496
    A6        1.90622   0.00098   0.00000   0.00583   0.00590   1.91212
    A7        1.88685  -0.00108   0.00000  -0.00550  -0.00553   1.88132
    A8        1.90728  -0.00045   0.00000  -0.00234  -0.00284   1.90444
    A9        1.92214   0.00167   0.00000   0.02057   0.02062   1.94276
   A10        1.94090  -0.00132   0.00000  -0.01381  -0.01403   1.92686
   A11        1.92380  -0.00003   0.00000   0.01141   0.01131   1.93512
   A12        1.87804   0.00036   0.00000  -0.01867  -0.01861   1.85944
   A13        1.89123  -0.00027   0.00000   0.00216   0.00228   1.89351
   A14        1.97338  -0.00226   0.00000  -0.01658  -0.01688   1.95650
   A15        1.92264   0.00063   0.00000   0.00218   0.00238   1.92502
   A16        1.89910  -0.00060   0.00000  -0.00581  -0.00568   1.89342
   A17        1.86133   0.00139   0.00000   0.01487   0.01491   1.87624
   A18        1.91623   0.00184   0.00000   0.01497   0.01501   1.93124
   A19        1.88938  -0.00093   0.00000  -0.00910  -0.00927   1.88011
   A20        1.85210   0.00051   0.00000  -0.00119  -0.00130   1.85080
   A21        1.99969   0.00043   0.00000   0.00021   0.00012   1.99981
   A22        1.46828  -0.00039   0.00000   0.00418   0.00473   1.47300
   A23        2.09448  -0.00140   0.00000  -0.02465  -0.02492   2.06956
   A24        1.07248   0.00045   0.00000   0.01515   0.01529   1.08777
   A25        1.98275   0.00991   0.00000   0.04711   0.04696   2.02971
   A26        1.93565  -0.00150   0.00000  -0.00906  -0.00919   1.92645
   A27        1.93477  -0.00089   0.00000  -0.00492  -0.00512   1.92965
   A28        1.84841  -0.00350   0.00000  -0.00904  -0.00913   1.83928
   A29        1.84603  -0.00371   0.00000  -0.00936  -0.00956   1.83647
   A30        1.91189  -0.00066   0.00000  -0.01633  -0.01650   1.89540
   A31        1.97862   0.00333   0.00000   0.02886   0.02781   2.00643
   A32        1.93912   0.00039   0.00000   0.00740   0.00754   1.94666
   A33        1.93468   0.00060   0.00000  -0.00275  -0.00244   1.93224
   A34        1.84877  -0.00094   0.00000  -0.00603  -0.00601   1.84276
   A35        1.84458  -0.00287   0.00000  -0.01820  -0.01804   1.82653
   A36        1.91366  -0.00080   0.00000  -0.01141  -0.01147   1.90220
   A37        1.92682   0.00131   0.00000   0.00621   0.00586   1.93268
   A38        1.99464  -0.00051   0.00000  -0.00385  -0.00390   1.99074
   A39        1.93077   0.00025   0.00000   0.00655   0.00658   1.93735
   A40        1.83871   0.00087   0.00000   0.00746   0.00744   1.84615
   A41        1.91097   0.00114   0.00000   0.00762   0.00760   1.91857
   A42        1.89679  -0.00094   0.00000  -0.00684  -0.00680   1.88999
   A43        1.88776  -0.00091   0.00000  -0.01212  -0.01212   1.87564
   A44        1.90631  -0.00049   0.00000  -0.01519  -0.01525   1.89106
   A45        1.91505   0.00034   0.00000   0.00172   0.00139   1.91644
   A46        1.88476  -0.00056   0.00000  -0.00582  -0.00563   1.87913
   A47        1.86643  -0.00176   0.00000  -0.01609  -0.01610   1.85033
   A48        1.94407   0.00079   0.00000   0.00776   0.00756   1.95163
   A49        1.94708   0.00167   0.00000   0.02694   0.02690   1.97398
   A50        1.97879  -0.00072   0.00000  -0.00738  -0.00717   1.97162
   A51        1.92153  -0.00051   0.00000  -0.00233  -0.00246   1.91907
   A52        1.89293  -0.00010   0.00000  -0.00347  -0.00342   1.88951
   A53        1.85667   0.00120   0.00000   0.01142   0.01145   1.86812
   A54        1.92630   0.00065   0.00000   0.00873   0.00854   1.93484
   A55        1.88558  -0.00052   0.00000  -0.00688  -0.00692   1.87865
   A56        2.03359   0.00025   0.00000  -0.01299  -0.01279   2.02080
   A57        2.05576  -0.00133   0.00000  -0.01651  -0.01730   2.03847
   A58        1.86637   0.00025   0.00000  -0.01075  -0.01136   1.85501
   A59        1.97798   0.00908   0.00000   0.04142   0.04133   2.01931
   A60        1.93710  -0.00057   0.00000  -0.00086  -0.00101   1.93608
   A61        1.93854  -0.00150   0.00000  -0.00906  -0.00906   1.92948
   A62        1.84998  -0.00360   0.00000  -0.01039  -0.01061   1.83937
   A63        1.84853  -0.00369   0.00000  -0.01571  -0.01566   1.83287
   A64        1.90713  -0.00007   0.00000  -0.00703  -0.00708   1.90004
   A65        1.97816   0.00276   0.00000   0.02612   0.02588   2.00404
   A66        1.93591  -0.00058   0.00000   0.00010  -0.00007   1.93584
   A67        1.93478  -0.00041   0.00000  -0.00650  -0.00652   1.92825
   A68        1.84605  -0.00084   0.00000   0.00190   0.00176   1.84781
   A69        1.84725  -0.00157   0.00000  -0.02131  -0.02105   1.82620
   A70        1.91762   0.00058   0.00000  -0.00108  -0.00097   1.91665
   A71        2.33436  -0.00002   0.00000  -0.00434  -0.00451   2.32985
   A72        3.32037   0.00012   0.00000   0.00299   0.00343   3.32380
   A73        2.95638  -0.00153   0.00000  -0.06509  -0.06526   2.89112
   A74        3.21392   0.00020   0.00000   0.02340   0.02302   3.23694
   A75        3.07319  -0.00096   0.00000  -0.01406  -0.01381   3.05938
   A76        3.22037   0.00161   0.00000   0.04615   0.04614   3.26651
   A77        2.98135  -0.00045   0.00000  -0.03510  -0.03526   2.94610
    D1        1.26327  -0.00090   0.00000  -0.03519  -0.03513   1.22814
    D2       -0.89694  -0.00020   0.00000  -0.02595  -0.02594  -0.92289
    D3       -2.93428  -0.00097   0.00000  -0.02988  -0.02994  -2.96422
    D4        1.04729  -0.00013   0.00000  -0.01906  -0.01902   1.02827
    D5       -3.12022   0.00060   0.00000   0.00655   0.00656  -3.11366
    D6       -1.02346   0.00051   0.00000   0.01390   0.01379  -1.00966
    D7       -3.06305  -0.00075   0.00000  -0.02829  -0.02823  -3.09127
    D8       -0.94738  -0.00002   0.00000  -0.00269  -0.00265  -0.95002
    D9        1.14939  -0.00011   0.00000   0.00466   0.00459   1.15397
   D10       -0.99983  -0.00064   0.00000  -0.02940  -0.02933  -1.02916
   D11        1.11584   0.00010   0.00000  -0.00379  -0.00375   1.11208
   D12       -3.07058   0.00001   0.00000   0.00356   0.00348  -3.06710
   D13       -1.06176   0.00143   0.00000   0.04500   0.04493  -1.01683
   D14        3.14083   0.00071   0.00000   0.03551   0.03551  -3.10685
   D15        1.07218   0.00183   0.00000   0.04881   0.04877   1.12095
   D16        3.10676  -0.00033   0.00000   0.01382   0.01377   3.12053
   D17        1.02617  -0.00105   0.00000   0.00433   0.00435   1.03052
   D18       -1.04248   0.00007   0.00000   0.01762   0.01762  -1.02487
   D19        1.04772  -0.00020   0.00000   0.01583   0.01578   1.06350
   D20       -1.03287  -0.00092   0.00000   0.00634   0.00636  -1.02651
   D21       -3.10152   0.00020   0.00000   0.01963   0.01963  -3.08190
   D22       -1.05235  -0.00041   0.00000  -0.00192  -0.00198  -1.05433
   D23       -3.13185  -0.00158   0.00000  -0.01591  -0.01592   3.13541
   D24        1.02347   0.00091   0.00000   0.01446   0.01442   1.03789
   D25        1.05342   0.00010   0.00000   0.01580   0.01575   1.06917
   D26       -1.02608  -0.00108   0.00000   0.00181   0.00181  -1.02427
   D27        3.12924   0.00141   0.00000   0.03217   0.03216  -3.12179
   D28        3.10432   0.00036   0.00000   0.00099   0.00101   3.10534
   D29        1.02482  -0.00082   0.00000  -0.01300  -0.01292   1.01190
   D30       -1.10304   0.00167   0.00000   0.01737   0.01742  -1.08562
   D31       -1.00420   0.00007   0.00000   0.00443   0.00465  -0.99955
   D32       -3.08382  -0.00127   0.00000  -0.01278  -0.01267  -3.09650
   D33        1.06692  -0.00094   0.00000  -0.00143  -0.00155   1.06537
   D34       -3.09243   0.00117   0.00000   0.02709   0.02721  -3.06522
   D35        1.11113  -0.00018   0.00000   0.00988   0.00989   1.12102
   D36       -1.02132   0.00015   0.00000   0.02123   0.02101  -1.00030
   D37        1.11078   0.00114   0.00000   0.02276   0.02290   1.13368
   D38       -0.96885  -0.00020   0.00000   0.00555   0.00558  -0.96327
   D39       -3.10129   0.00013   0.00000   0.01690   0.01671  -3.08459
   D40        0.83467  -0.00174   0.00000  -0.04057  -0.04072   0.79395
   D41       -1.51787  -0.00063   0.00000  -0.00522  -0.00519  -1.52307
   D42        2.95030  -0.00138   0.00000  -0.03783  -0.03805   2.91225
   D43        0.59776  -0.00027   0.00000  -0.00248  -0.00253   0.59523
   D44       -1.28967  -0.00074   0.00000  -0.03254  -0.03254  -1.32221
   D45        2.64098   0.00037   0.00000   0.00281   0.00298   2.64396
   D46        0.08105  -0.00079   0.00000   0.00792   0.00791   0.08896
   D47        2.18522   0.00025   0.00000   0.01999   0.01998   2.20520
   D48       -2.11084   0.00038   0.00000   0.01916   0.01920  -2.09164
   D49        2.58233   0.00117   0.00000   0.01045   0.01012   2.59245
   D50        0.43380  -0.00147   0.00000  -0.02530  -0.02549   0.40831
   D51       -1.61174   0.00048   0.00000  -0.01307  -0.01308  -1.62481
   D52        0.32826   0.00123   0.00000   0.03069   0.03033   0.35859
   D53       -1.82027  -0.00141   0.00000  -0.00506  -0.00528  -1.82555
   D54        2.41738   0.00054   0.00000   0.00717   0.00713   2.42451
   D55       -0.76526   0.00021   0.00000  -0.00638  -0.00643  -0.77169
   D56       -2.91380  -0.00242   0.00000  -0.04213  -0.04203  -2.95583
   D57        1.32385  -0.00048   0.00000  -0.02990  -0.02963   1.29423
   D58       -0.73750   0.00130   0.00000   0.04980   0.04957  -0.68793
   D59        1.51265  -0.00043   0.00000   0.00647   0.00646   1.51912
   D60        2.56604   0.00052   0.00000   0.05817   0.05792   2.62396
   D61        0.26885   0.00074   0.00000   0.08482   0.08428   0.35313
   D62       -1.63393   0.00279   0.00000   0.05891   0.05966  -1.57427
   D63        2.35206   0.00301   0.00000   0.08556   0.08602   2.43808
   D64        0.38620  -0.00040   0.00000   0.04099   0.04121   0.42741
   D65       -1.91099  -0.00018   0.00000   0.06764   0.06757  -1.84342
   D66        1.26427   0.00116   0.00000   0.01229   0.01223   1.27651
   D67       -0.90203  -0.00018   0.00000  -0.00019  -0.00023  -0.90226
   D68       -2.93810   0.00029   0.00000   0.00666   0.00660  -2.93150
   D69       -1.97900  -0.00084   0.00000  -0.01426  -0.01407  -1.99307
   D70        0.93634   0.00034   0.00000  -0.01819  -0.01822   0.91812
   D71        2.97704  -0.00187   0.00000  -0.04541  -0.04541   2.93163
   D72       -1.18046   0.00002   0.00000  -0.01508  -0.01513  -1.19559
   D73        3.11319   0.00120   0.00000  -0.00632  -0.00634   3.10685
   D74       -1.12929  -0.00102   0.00000  -0.03355  -0.03353  -1.16282
   D75        0.99640   0.00088   0.00000  -0.00321  -0.00325   0.99315
   D76       -1.11143   0.00021   0.00000  -0.02054  -0.02057  -1.13199
   D77        0.92927  -0.00201   0.00000  -0.04777  -0.04775   0.88152
   D78        3.05496  -0.00012   0.00000  -0.01743  -0.01747   3.03749
   D79       -1.10621   0.00017   0.00000  -0.00084  -0.00070  -1.10691
   D80        3.09951  -0.00053   0.00000  -0.00890  -0.00883   3.09068
   D81        1.03980   0.00045   0.00000   0.00281   0.00291   1.04271
   D82        3.10571   0.00102   0.00000   0.01436   0.01435   3.12006
   D83        1.02824   0.00032   0.00000   0.00630   0.00622   1.03446
   D84       -1.03146   0.00130   0.00000   0.01801   0.01796  -1.01350
   D85        0.97418  -0.00035   0.00000  -0.01304  -0.01282   0.96136
   D86       -1.10329  -0.00106   0.00000  -0.02109  -0.02095  -1.12424
   D87        3.12019  -0.00008   0.00000  -0.00938  -0.00921   3.11098
   D88        1.01631   0.00114   0.00000   0.03626   0.03644   1.05275
   D89       -1.06301  -0.00000   0.00000   0.02206   0.02213  -1.04088
   D90        3.09479   0.00152   0.00000   0.03787   0.03795   3.13274
   D91        3.08188  -0.00027   0.00000   0.00990   0.01009   3.09198
   D92        1.00257  -0.00141   0.00000  -0.00430  -0.00422   0.99835
   D93       -1.12282   0.00010   0.00000   0.01150   0.01161  -1.11122
   D94       -1.07166   0.00055   0.00000   0.02524   0.02507  -1.04659
   D95        3.13221  -0.00059   0.00000   0.01104   0.01076  -3.14021
   D96        1.00682   0.00093   0.00000   0.02685   0.02658   1.03341
   D97        3.11867   0.00014   0.00000   0.04079   0.04085  -3.12366
   D98        1.04512  -0.00024   0.00000   0.02069   0.02076   1.06588
   D99       -1.09021  -0.00030   0.00000   0.02652   0.02653  -1.06369
   D100       1.02549   0.00063   0.00000   0.05855   0.05868   1.08418
   D101      -1.04806   0.00025   0.00000   0.03845   0.03859  -1.00947
   D102       3.09979   0.00019   0.00000   0.04427   0.04436  -3.13904
   D103      -1.05873   0.00122   0.00000   0.05560   0.05556  -1.00317
   D104      -3.13228   0.00084   0.00000   0.03551   0.03547  -3.09682
   D105       1.01557   0.00078   0.00000   0.04133   0.04123   1.05680
   D106      -1.38173   0.00092   0.00000   0.01985   0.01995  -1.36178
   D107       0.95961  -0.00053   0.00000  -0.02639  -0.02619   0.93342
   D108       0.73264   0.00068   0.00000   0.02029   0.02031   0.75295
   D109       3.07398  -0.00077   0.00000  -0.02595  -0.02583   3.04815
   D110       2.77396   0.00108   0.00000   0.02311   0.02317   2.79713
   D111      -1.16788  -0.00037   0.00000  -0.02313  -0.02298  -1.19086
         Item               Value     Threshold  Converged?
 Maximum Force            0.009911     0.000015     NO 
 RMS     Force            0.002392     0.000010     NO 
 Maximum Displacement     0.312156     0.000060     NO 
 RMS     Displacement     0.064124     0.000040     NO 
 GradGradGradGradGradGradGradGradGradGradGradGradGradGradGradGradGradGrad

                    Distance matrix (angstroms):
                    1          2          3          4          5
     1  O    0.000000
     2  C    1.414125   0.000000
     3  C    2.459859   1.546427   0.000000
     4  C    2.930389   2.522056   1.549235   0.000000
     5  O    2.601188   2.918439   2.454846   1.408606   0.000000
     6  C    3.806079   2.545922   1.537049   2.541576   3.796593
     7  Br   4.688839   3.385225   2.977141   3.387358   4.680272
     8  C    2.939674   2.532548   1.537696   2.474037   2.888189
     9  Br   3.772252   3.300704   2.955719   4.298473   4.697901
    10  H    0.971564   1.977026   2.735985   3.370767   2.936929
    11  H    2.083843   1.105312   2.183257   3.486642   3.947519
    12  H    2.021038   1.100529   2.177604   2.742245   3.243939
    13  H    3.934151   3.489787   2.192199   1.104089   2.034341
    14  H    3.323544   2.773421   2.169921   1.105586   2.074847
    15  H    1.748978   2.389789   2.483499   1.924186   0.978151
    16  H    4.627041   3.503109   2.179559   2.778264   4.083039
    17  H    4.099645   2.793284   2.180631   3.500746   4.621380
    18  H    3.966894   3.501234   2.193968   2.757781   3.308470
    19  H    2.631286   2.791908   2.184041   2.686864   2.518780
    20  O    3.918323   5.038395   5.082868   4.341249   2.935248
    21  C    4.992064   6.059813   5.890845   5.182877   3.845514
    22  C    4.959661   5.861626   5.473817   5.021989   3.902545
    23  C    4.190984   5.172552   5.050403   5.022097   4.005229
    24  O    2.790003   3.822573   3.905311   4.005158   3.047768
    25  C    6.409968   7.307704   6.869259   6.467639   5.407626
    26  Br   7.862257   8.693160   8.089031   7.388281   6.345562
    27  C    4.893857   5.470119   4.714013   4.098855   3.233817
    28  Br   5.709181   5.960762   4.936281   4.741245   4.381535
    29  H    3.741583   4.660637   4.523769   3.573817   2.182187
    30  H    5.802397   6.769194   6.451044   5.529411   4.239626
    31  H    5.510837   6.709764   6.719755   6.127088   4.764752
    32  H    4.645370   5.427564   5.160755   5.348760   4.558378
    33  H    4.726623   5.861225   5.954239   5.951998   4.849445
    34  H    2.664253   3.870750   4.095981   3.923829   2.746151
    35  H    6.729121   7.763839   7.517841   7.188135   6.041805
    36  H    6.717121   7.484156   6.934038   6.699364   5.808989
    37  H    4.002947   4.493813   3.732118   3.018740   2.147540
    38  H    5.756021   6.291233   5.449018   4.592528   3.755346
                    6          7          8          9         10
     6  C    0.000000
     7  Br   1.958148   0.000000
     8  C    2.495227   4.323186   0.000000
     9  Br   3.348586   5.165702   1.957421   0.000000
    10  H    4.113008   5.304150   2.675617   3.247558   0.000000
    11  H    2.745961   3.657274   2.823923   2.867876   2.321374
    12  H    2.815802   2.945094   3.484282   4.323671   2.845329
    13  H    2.784731   3.735232   2.698310   4.587705   4.228374
    14  H    2.754675   2.880585   3.438303   5.113911   3.992772
    15  H    3.933186   4.749398   3.008538   4.561380   2.209548
    16  H    1.100151   2.487491   2.718966   3.705227   4.845320
    17  H    1.098485   2.484058   2.756097   2.886136   4.272338
    18  H    2.714212   4.580143   1.099158   2.489084   3.723739
    19  H    3.464835   5.149407   1.099770   2.475902   2.162734
    20  O    6.574196   7.521806   4.963856   6.368349   3.862142
    21  C    7.349809   8.500682   5.447454   6.773402   4.729042
    22  C    6.854977   8.288085   4.661906   5.819065   4.476224
    23  C    6.463360   7.995825   4.116197   4.854233   3.489745
    24  O    5.379688   6.802513   3.219526   4.057733   2.112181
    25  C    8.184420   9.709652   5.889336   6.830254   5.835096
    26  Br   9.325323  10.720032   7.241705   8.424754   7.431560
    27  C    5.933148   7.366618   3.935293   5.395343   4.549507
    28  Br   5.828706   7.537367   3.740590   4.800855   5.209334
    29  H    5.948893   6.812261   4.559496   6.169656   3.838711
    30  H    7.837052   8.896768   6.080408   7.560373   5.637903
    31  H    8.217588   9.372013   6.239070   7.372036   5.179750
    32  H    6.435915   8.135424   3.962052   4.395196   3.833115
    33  H    7.398984   8.872196   5.088817   5.632670   4.010328
    34  H    5.627653   6.828767   3.744291   4.795987   2.270935
    35  H    8.898313  10.403044   6.561781   7.344917   6.112587
    36  H    8.141453   9.800999   5.769352   6.511990   6.053948
    37  H    4.994966   6.331397   3.193791   4.870509   3.806359
    38  H    6.579387   7.878122   4.814174   6.381008   5.518217
                   11         12         13         14         15
    11  H    0.000000
    12  H    1.782203   0.000000
    13  H    4.341523   3.766966   0.000000
    14  H    3.761903   2.535012   1.784515   0.000000
    15  H    3.411808   2.713663   2.822102   2.399077   0.000000
    16  H    3.763207   3.815437   2.566161   3.094093   4.452293
    17  H    2.537324   3.183881   3.789682   3.767862   4.616919
    18  H    3.812086   4.341299   2.518946   3.748006   3.705046
    19  H    3.219895   3.775077   3.003458   3.720800   2.555417
    20  O    5.896924   5.439499   4.781500   4.886635   2.823086
    21  C    6.845123   6.600359   5.388177   5.880722   3.937533
    22  C    6.506953   6.606015   5.073191   5.931529   4.101549
    23  C    5.616323   6.039260   5.295274   5.966297   3.900379
    24  O    4.300000   4.671091   4.506004   4.879951   2.722120
    25  C    7.872973   8.101296   6.398957   7.405233   5.635364
    26  Br   9.387325   9.374628   7.128174   8.230630   6.763266
    27  C    6.188589   6.179928   3.878823   5.050055   3.766322
    28  Br   6.437541   6.825323   4.279708   5.804551   4.937125
    29  H    5.616033   4.986392   3.952916   4.074761   2.302586
    30  H    7.631892   7.228549   5.580928   6.156109   4.515964
    31  H    7.420582   7.257294   6.417152   6.800735   4.694750
    32  H    5.716494   6.401255   5.507268   6.376071   4.526951
    33  H    6.246730   6.688031   6.313067   6.829813   4.604519
    34  H    4.513051   4.535471   4.523274   4.653747   2.312228
    35  H    8.279896   8.552940   7.244252   8.093312   6.118767
    36  H    7.943342   8.365593   6.542357   7.713189   6.074746
    37  H    5.293834   5.137782   2.907731   3.959917   2.752879
    38  H    7.087712   6.895596   4.211132   5.432852   4.418410
                   16         17         18         19         20
    16  H    0.000000
    17  H    1.785458   0.000000
    18  H    2.473568   3.064539   0.000000
    19  H    3.723279   3.779813   1.790046   0.000000
    20  O    6.889662   7.225729   5.428991   4.024875   0.000000
    21  C    7.514475   7.972186   5.723575   4.437025   1.410913
    22  C    6.910117   7.368206   4.795369   3.645285   2.487343
    23  C    6.692096   6.777331   4.507792   3.033327   2.892449
    24  O    5.774165   5.691309   3.881314   2.147900   2.639802
    25  C    8.148415   8.640538   5.887093   4.910177   3.794528
    26  Br   9.140930   9.924453   7.055366   6.357231   4.703526
    27  C    5.801092   6.556622   3.792929   3.137657   3.024699
    28  Br   5.474401   6.261568   3.204667   3.260323   4.856499
    29  H    6.200924   6.700036   4.941090   3.750964   0.969847
    30  H    7.893341   8.556570   6.212090   5.150391   2.080393
    31  H    8.454325   8.769116   6.599847   5.177358   2.013463
    32  H    6.580920   6.629176   4.226018   2.991665   3.935126
    33  H    7.706701   7.662574   5.564129   4.006823   3.175318
    34  H    6.073966   6.056755   4.430299   2.730296   1.820688
    35  H    8.961609   9.300093   6.692282   5.523123   4.025210
    36  H    8.029670   8.508772   5.652090   4.876748   4.637586
    37  H    4.945502   5.687825   3.179932   2.464087   2.721125
    38  H    6.338286   7.301839   4.539708   4.120843   3.417265
                   21         22         23         24         25
    21  C    0.000000
    22  C    1.552457   0.000000
    23  C    2.516195   1.550859   0.000000
    24  O    2.971146   2.463628   1.402492   0.000000
    25  C    2.526410   1.535400   2.465071   3.743678   0.000000
    26  Br   3.338611   2.962534   4.296882   5.418690   1.953834
    27  C    2.493572   1.536291   2.556660   2.952512   2.562930
    28  Br   4.310202   2.949633   3.381430   3.852832   3.347192
    29  H    1.974888   2.790186   3.338340   2.905383   4.195731
    30  H    1.104628   2.190707   3.484741   3.965991   2.823662
    31  H    1.103167   2.168396   2.766040   3.384227   2.666476
    32  H    3.482219   2.187403   1.101589   2.021318   2.685694
    33  H    2.723276   2.171435   1.109701   2.075263   2.652556
    34  H    2.507354   2.555016   1.919910   0.975580   3.944893
    35  H    2.774249   2.185236   2.677870   4.007836   1.100352
    36  H    3.490899   2.179350   2.727289   4.030419   1.098877
[...]
 0.00569298,-0.00424047,-0.00871753,-0.00122206,0.00421691,0.00075602,0
 .00021810,0.00174567,-0.00229683,0.04680981,0.00894491,-0.05729137,-0.
 06014321,-0.00601061,-0.00020306,-0.00031353,-0.00044885,0.00015656,-0
 .00014263,-0.00012378,0.00023603,0.00020039,0.00065658,-0.00015926,-0.
 00041564,-0.00024682,0.00474493,0.00124862,-0.00010889,0.00033617,-0.0
 0004314,-0.00056566,-0.00004203,-0.00033290,-0.00007413,-0.00666767,0.
 00209482,0.00097851,-0.00069439,0.00059445,-0.00070153,0.07690357,0.00
 104014,-0.00123454,0.00059629,-0.00035248,-0.00033815,-0.00055587,-0.0
 0015353,0.00028189,-0.00006704,0.00121713,0.00056214,0.00097642,-0.001
 59502,-0.00315903,-0.00077170,-0.00015530,-0.00016609,0.00006814,0.000
 14690,-0.00015601,0.00003464,-0.00003888,0.00013178,0.00040794,0.00007
 768,-0.00023026,0.00015562,-0.00352235,0.00039551,0.00002813,-0.000071
 86,0.00002100,0.00006462,0.00020201,-0.00000544,0.00008276,-0.00013673
 ,-0.00004373,-0.00014200,-0.00023514,-0.00009094,-0.00009058,0.0033253
 3,0.00123923,0.00086436,0.00003312,0.00001774,0.00001425,-0.00011005,-
 0.00001853,-0.00005430,0.00019387,0.00002327,0.00015718,-0.00101668,0.
 00002165,-0.00170049,0.01100930,-0.00255493,-0.00408300,-0.01191703,0.
 00899891,0.00139589,-0.00115548,0.00178245,0.00038638,0.01135236,-0.01
 603203,-0.00648737,-0.01749357,-0.42177703,-0.06155609,0.00005104,-0.0
 0159957,-0.00001380,-0.00070697,-0.00055099,0.00053211,-0.00012012,-0.
 00005197,0.00020238,-0.00011108,-0.00070746,-0.00026400,0.00256087,-0.
 00260071,0.00354313,0.00223802,-0.00159859,-0.00118428,0.00089867,-0.0
 0063067,0.00018450,0.00014419,0.00206717,0.00102817,-0.00289640,0.0004
 7662,-0.00011363,0.00669563,0.43689447,-0.00035744,0.00036955,-0.00209
 882,0.00018483,-0.00003306,0.00062483,-0.00008679,-0.00007472,0.000033
 64,-0.00134162,-0.00052721,-0.00117350,0.00137006,0.00030097,0.0003543
 6,-0.00000245,0.00016635,-0.00014369,0.00009046,-0.00000688,-0.0000096
 9,-0.00032959,-0.00011050,-0.00029686,0.00025015,0.00039121,-0.0000548
 4,0.00092289,0.00032825,0.00211373,-0.00004981,0.00000210,-0.00010214,
 -0.00005767,-0.00001985,-0.00005523,0.00008932,0.00006080,0.00008772,0
 .00037468,0.00001654,0.00016362,-0.00287451,0.00159844,0.00130117,-0.0
 0002852,-0.00002770,-0.00003671,0.00007509,0.00001465,0.00004364,0.000
 01170,0.00003070,-0.00004647,-0.00009157,-0.00098347,0.00015217,-0.005
 81022,-0.00431922,-0.00486426,0.00609219,0.00036761,-0.00059529,-0.001
 21934,-0.00105266,0.00091157,0.00131134,-0.01084178,0.00003776,0.00070
 727,-0.05741373,-0.02567294,0.00043846,0.00000688,0.00021026,-0.000287
 97,0.00006810,0.00006533,0.00020142,-0.00089486,-0.00091101,-0.0000658
 9,0.00066558,0.00031923,0.00146454,0.00518448,-0.00254020,-0.00035568,
 0.00001343,0.00014721,-0.00075438,-0.00006016,-0.00020394,0.00272482,-
 0.00102694,0.00002228,-0.00018568,0.00130067,0.00025344,-0.00173595,0.
 06604976,0.03302240,0.00004812,-0.00003075,0.00007517,-0.00002931,0.00
 000089,-0.00005552,-0.00000126,-0.00001263,0.00000771,0.00009640,-0.00
 000191,0.00001137,-0.00012340,0.00012192,0.00015843,0.00001879,-0.0000
 1212,0.00001105,-0.00002099,0.00001093,-0.00000079,0.00000790,0.000041
 04,0.00001236,-0.00003738,-0.00003746,0.00002059,-0.00006622,0.0000071
 8,-0.00003161,0.00000402,-0.00000159,0.00000521,0.00000344,0.00000413,
 0.00000947,0.00001435,-0.00001517,0.00001687,-0.00001781,0.00000460,0.
 00000412,-0.00001402,0.00002302,-0.00008706,0.00000330,0.00000263,0.00
 000544,-0.00000281,0.00000013,-0.00000056,0.00004606,-0.00000164,0.000
 04637,0.00001610,0.00000244,-0.00010694,0.00037930,-0.00010490,0.00049
 845,0.00010438,-0.00128110,-0.00102791,-0.01207873,-0.00147559,-0.0251
 3306,-0.00063977,0.00057870,-0.00221594,0.00080450,-0.00024512,0.00066
 023,-0.10826273,-0.00181880,-0.12005058,0.00035535,-0.00499652,0.02074
 474,-0.00508583,0.00272907,0.00245480,0.00022704,0.00009589,0.00028116
 ,0.00000536,-0.00022927,-0.00016993,0.00002971,0.00006454,0.00012317,0
 .00023801,0.00080840,0.00058355,0.00006969,-0.00004290,0.00010426,-0.0
 0061308,-0.00020742,0.00131643,-0.00003434,0.00005756,-0.00022652,0.12
 456238,-0.00003761,-0.00000567,-0.00000392,0.00001450,0.00001015,0.000
 00950,-0.00001899,-0.00001345,0.00000553,0.00000820,0.00000164,0.00003
 485,-0.00005630,-0.00005602,-0.00009912,0.00001236,-0.00000844,0.00000
 367,-0.00000978,0.00000506,-0.00000181,-0.00001534,0.00003015,-0.00001
 783,-0.00000243,0.00000316,0.00000306,0.00002786,0.00000798,-0.0000088
 3,-0.00000222,-0.00000362,-0.00000367,-0.00000100,0.00000227,0.0000016
 3,-0.00000466,-0.00000170,-0.00000606,-0.00000501,0.00000182,-0.000001
 47,0.00003962,0.00001464,0.00001282,0.00000067,0.00000025,0.00000068,-
 0.00000066,0.00000046,-0.00000013,0.00002370,-0.00001753,0.00001475,0.
 00000088,-0.00002022,-0.00000107,-0.00074712,0.00031119,-0.00029154,0.
 00113502,0.00016595,0.00194713,0.00742964,0.00032685,0.01244564,-0.000
 77487,0.00035855,0.00003012,-0.00005491,-0.00035894,-0.00004724,-0.000
 17017,-0.04903226,-0.01314835,-0.00023746,-0.00280373,0.01552999,0.002
 61678,-0.00152258,-0.00136389,-0.00062320,0.00041709,-0.00022410,0.000
 02586,0.00002872,0.00016484,-0.00002389,-0.00006787,-0.00004060,0.0002
 1765,-0.00057912,-0.00066393,-0.00003355,-0.00003414,-0.00016288,-0.00
 028975,0.00040317,0.00003818,0.00013802,0.00014151,0.00000984,0.005064
 00,0.04869120,0.00003765,-0.00000864,0.00002075,-0.00002263,-0.0000013
 7,-0.00002405,0.00000078,-0.00000364,0.00001239,-0.00000834,-0.0000047
 1,-0.00002994,0.00004328,-0.00000773,0.00004545,-0.00000160,0.00000123
 ,-0.00000192,0.00000118,-0.00000051,0.00000241,0.00000362,0.00001233,-
 0.00001188,-0.00000028,-0.00000030,0.00000712,-0.00003753,0.00000252,-
 0.00000036,0.00000204,0.00000122,0.00000250,0.00000211,0.00000001,0.00
 000298,0.00000031,0.00000183,0.00000719,0.00000404,0.00000029,0.000003
 58,-0.00001146,0.00001296,-0.00001516,0.00000121,-0.00000007,0.0000016
 8,0.00000027,-0.00000004,-0.00000028,0.00000759,-0.00000579,0.00001305
 ,0.00000069,-0.00000443,-0.00002001,0.00005000,-0.00004170,0.00030244,
 0.00066737,-0.00034437,0.00023623,0.00093581,-0.00050923,0.00310580,0.
 00112300,-0.00009499,0.00013750,0.00028641,0.00002094,0.00033239,-0.12
 495017,-0.01398147,-0.26368010,0.00134675,0.00385175,-0.01321564,0.000
 31224,-0.00040534,0.00023926,-0.00012227,0.00018970,0.00004496,0.00002
 577,-0.00003447,-0.00005224,0.00002004,-0.00011472,0.00006823,0.000037
 90,0.00034390,0.00018224,-0.00004774,0.00011161,-0.00010275,0.00056988
 ,-0.00023238,0.00024117,-0.00003695,0.00005971,-0.00006902,0.12367224,
 0.01074750,0.27700944,-0.00005382,-0.00002926,-0.00003383,0.00005125,-
 0.00000753,0.00004430,-0.00001121,0.00002323,-0.00003663,0.00007272,0.
 00003766,0.00011367,-0.00018606,-0.00010885,-0.00019265,-0.00001520,-0
 .00000474,0.00000303,0.00001438,-0.00001441,-0.00000213,0.00001068,-0.
 00000668,0.00002562,0.00002638,-0.00001903,-0.00000873,0.00001006,0.00
 001879,0.00001974,-0.00001080,-0.00000252,-0.00000048,0.00000197,-0.00
 000315,-0.00000950,-0.00000803,0.00000279,-0.00002073,-0.00001724,-0.0
 0000951,-0.00001274,0.00009419,0.00004763,0.00001381,-0.00000254,0.000
 00134,-0.00000496,-0.00000805,-0.00000138,-0.00000282,-0.00004890,0.00
 001815,-0.00003485,-0.00000832,0.00003942,0.00004639,-0.00130491,0.002
 49809,0.00096836,-0.00521082,-0.00126158,-0.00089551,0.00207291,0.0290
 4996,0.00989389,0.00073615,0.00170280,-0.00010759,0.00019458,-0.000661
 09,-0.00027952,-0.04582051,-0.01304750,-0.01003255,-0.00623766,-0.0160
 9564,0.00323830,0.00097594,0.00117454,0.00093393,-0.00058096,-0.000973
 16,-0.00087141,0.00033259,-0.00003638,0.00029554,0.00009945,0.00013486
 ,-0.00004848,-0.00005068,-0.00018594,0.00014970,-0.00059171,-0.0005529
 5,0.00038630,0.00001787,-0.00022173,-0.00005650,0.00035496,0.00049346,
 -0.00022857,0.00052249,-0.01370183,-0.00425869,0.05473802,0.00000049,0
 .00002077,0.00000714,-0.00001490,0.00001051,-0.00001275,-0.00000210,-0
 .00002160,0.00002225,-0.00002762,-0.00002374,-0.00004246,0.00007062,0.
 00007381,0.00007273,0.00001721,-0.00000144,0.00000103,-0.00001514,0.00
 001229,-0.00000081,-0.00001633,0.00001845,-0.00002986,-0.00001355,0.00
 000662,0.00000609,0.00002250,-0.00000895,-0.00001063,0.00000470,-0.000
 00055,-0.00000182,-0.00000368,0.00000292,0.00000594,0.00000384,-0.0000
 0502,0.00000802,0.00000443,0.00000682,0.00000655,-0.00003368,-0.000038
 04,0.00000021,0.00000142,-0.00000071,0.00000283,0.00000383,0.00000115,
 0.00000184,0.00003773,-0.00001764,0.00003094,0.00001325,-0.00001774,-0
 .00002181,0.00041792,-0.00079963,-0.00031512,0.00224053,0.00128037,0.0
 0028688,0.00060442,-0.01108670,-0.00439829,-0.00066649,0.00009976,0.00
 030105,-0.00005726,0.00052586,0.00022887,-0.00945883,-0.30371001,-0.09
 003140,-0.00424228,-0.00697538,0.00219938,-0.00038425,-0.00067275,-0.0
 0063512,-0.00104312,0.00061123,-0.00034360,-0.00016268,-0.00003125,-0.
 00012948,-0.00016758,0.00007864,0.00008482,-0.00010903,0.00014794,-0.0
 0002859,0.00008440,0.00052286,-0.00024063,0.00013057,-0.00003171,-0.00
 000588,-0.00022270,-0.00021487,0.00016998,0.00100449,0.00339228,0.0005
 5258,0.01195137,0.31684174,0.00000960,0.00001851,-0.00004325,0.0000064
 2,-0.00001297,0.00002792,0.00001778,0.00002552,-0.00001980,-0.00005413
 ,0.00000600,-0.00002827,0.00012047,-0.00003566,-0.00000787,-0.00002946
 ,0.00001662,-0.00000815,0.00002527,-0.00001439,0.00000123,0.00000838,-
 0.00006251,0.00003290,0.00002124,0.00001564,-0.00001977,0.00000403,-0.
 00001247,0.00002839,-0.00000099,0.00000458,0.00000089,0.00000032,-0.00
 000504,-0.00000840,-0.00000466,0.00001135,-0.00000546,0.00001490,-0.00
 000557,-0.00000155,-0.00002623,-0.00001082,0.00003782,-0.00000206,-0.0
 0000162,-0.00000463,0.00000201,-0.00000088,0.00000037,-0.00005360,0.00
 002823,-0.00004543,-0.00001892,0.00000767,0.00005944,0.00030356,-0.000
 18984,0.00033822,0.00002179,0.00009943,-0.00006326,-0.00001462,-0.0005
 6788,0.00029610,0.00019801,-0.00117096,0.00018393,-0.00014393,0.000432
 63,-0.00016178,-0.01077885,-0.08762510,-0.07320464,0.00926852,0.021632
 53,-0.00282095,0.00011909,0.00109567,0.00010642,-0.00056120,-0.0001647
 3,-0.00049222,0.00001790,-0.00001587,-0.00006730,0.00010880,-0.0002606
 5,-0.00001455,0.00014024,0.00030369,0.00026462,0.00066221,0.00013161,0
 .00014469,-0.00012338,-0.00006288,-0.00006050,-0.00012552,-0.00013554,
 0.00005522,-0.00011201,-0.02554232,-0.00488142,0.00096976,0.09230250,0
 .08041208,0.00003201,0.00016565,-0.00029632,-0.00000725,-0.00002241,0.
 00014433,0.00008418,0.00004805,0.00010617,-0.00143358,0.00034233,-0.00
 023613,-0.00152346,0.00019954,-0.00009519,-0.00005305,0.00006161,-0.00
 010916,0.00011035,-0.00003247,0.00002423,-0.00114572,-0.00098470,-0.00
 000089,0.00014140,0.00035863,-0.00006260,0.00014592,-0.00008851,0.0001
 4812,0.00001456,0.00002003,-0.00002566,0.00000169,-0.00001429,-0.00002
 455,0.00012214,0.00008807,-0.00013034,0.00019153,-0.00002612,-0.000054
 57,-0.00006036,-0.00010900,0.00065386,-0.00000351,-0.00001464,-0.00000
 707,0.00004329,0.00000506,0.00001288,0.00006225,-0.00015291,-0.0003012
 6,-0.00117163,-0.00147452,0.00124726,0.00035329,0.00016916,0.00048249,
 -0.00080278,0.00062119,0.00007919,-0.01152160,0.00420032,0.00137996,-0
 .00031253,-0.00029757,0.00043811,0.00012853,-0.00051094,0.00070112,-0.
 00024786,-0.00052261,-0.00246329,0.00012459,0.00006410,-0.00020358,-0.
 29465659,0.09665385,0.03328284,0.00678594,-0.00734308,-0.00286706,0.00
 147394,-0.00056705,-0.00020282,-0.00005967,-0.00007480,-0.00004089,0.0
 0004244,0.00004448,0.00013749,-0.00000967,0.00001745,-0.00006980,-0.00
 007301,0.00003115,0.00007674,0.00033665,0.00012132,-0.00004768,-0.0005
 6166,0.00032628,0.00018079,-0.00001505,-0.00001739,-0.00001583,0.31284
 685,-0.00009689,-0.00038829,0.00015359,0.00012700,-0.00004470,0.000050
 04,0.00006519,0.00028430,0.00005850,0.00119214,0.00053950,0.00075963,0
 .00009145,-0.00136331,0.00043797,-0.00004546,-0.00015921,-0.00001167,0
 .00009379,-0.00009486,0.00001340,-0.00040679,-0.00023750,-0.00052929,0
 .00031801,0.00025759,-0.00003484,-0.00020575,0.00007806,0.00008522,-0.
 00003413,-0.00001653,0.00003002,0.00003996,-0.00000862,-0.00005165,-0.
 00005876,0.00000363,-0.00006552,-0.00027830,-0.00012860,-0.00011539,-0
 .00023734,0.00080568,-0.00076190,0.00000346,0.00000906,-0.00000277,-0.
 00005782,0.00000174,-0.00002955,-0.00019260,-0.00004860,-0.00010354,-0
 .00135928,-0.00042886,0.00108478,0.00051443,-0.00076174,-0.00006983,-0
 .00086972,0.00055528,0.00009189,0.00146044,0.00077044,0.00100308,0.000
 89535,-0.00046858,-0.00002107,-0.00022357,-0.00004806,-0.00106923,-0.0
 0023410,0.00047737,0.00031778,-0.00023815,0.00016962,-0.00037305,0.099
 65271,-0.08045726,-0.00721135,0.01439048,-0.01861662,-0.00871485,-0.00
 080521,-0.00167410,-0.00208753,0.00006855,-0.00000653,0.00011592,0.000
 07374,-0.00005080,0.00008592,-0.00000781,-0.00002074,0.00003507,-0.000
 03453,0.00010453,-0.00013086,0.00000819,0.00066952,0.00006759,-0.00007
 021,0.00015578,-0.00006985,-0.00024951,0.00000636,-0.00019630,-0.09648
 751,0.09014267,-0.00034688,-0.00004851,0.00001754,0.00027884,0.0000677
 9,0.00017196,-0.00021241,-0.00010334,-0.00033667,0.00016241,0.00041617
 ,0.00114329,-0.00014709,-0.00000352,-0.00101779,-0.00000931,-0.0000139
 8,0.00005764,-0.00003536,0.00000196,-0.00002556,0.00011174,-0.00005248
 ,0.00057683,0.00002223,0.00003324,-0.00015634,0.00018241,0.00003714,-0
 .00008960,-0.00002688,-0.00001599,-0.00003392,-0.00000815,0.00000398,-
 0.00003066,-0.00018899,-0.00001341,-0.00029293,-0.00022995,-0.00001916
 ,-0.00022637,0.00046534,-0.00021842,-0.00040919,-0.00001276,-0.0000061
 1,-0.00002533,-0.00001513,-0.00000726,-0.00001403,-0.00021826,-0.00015
 562,-0.00031279,0.00107800,0.00116309,-0.00004230,0.00127038,-0.000341
 44,-0.00030725,-0.00111565,0.00063981,0.00121168,-0.02728579,0.0112076
 8,0.00547485,-0.00144277,0.00060714,0.00095478,0.00126857,-0.00047746,
 0.00027853,-0.00133118,-0.00042558,-0.00652112,0.00053224,-0.00022763,
 0.00034572,0.03620952,-0.00985518,-0.05325311,0.00610115,-0.00855438,-
 0.00324085,-0.00028758,-0.00199080,-0.00054818,0.00016212,-0.00011616,
 -0.00010433,0.00010646,0.00014503,0.00009045,0.00009526,0.00004619,-0.
 00018435,0.00010334,-0.00019084,0.00018233,-0.00015110,-0.00002140,-0.
 00115077,-0.00167650,0.00070758,0.00006025,0.00014899,-0.00006307,0.00
 005969,-0.03153061,0.01604504,0.05815158,-0.00001868,0.00002740,0.0000
 0957,0.00002698,0.00003352,0.00000219,-0.00001628,-0.00007898,-0.00010
 931,0.00006576,-0.00007673,0.00026855,-0.00027764,0.00061365,-0.000180
 51,-0.00000091,0.00002791,0.00003299,-0.00003195,0.00002445,-0.0000119
 9,0.00006522,0.00000481,0.00024921,-0.00012606,-0.00008600,-0.00000882
 ,0.00002006,0.00000942,-0.00005393,0.00000662,-0.00000006,-0.00001716,
 -0.00000670,0.00000477,0.00001308,-0.00004561,-0.00003745,-0.00007802,
 -0.00002061,0.00001426,-0.00004930,0.00011593,-0.00013090,0.00000312,-
 0.00000484,-0.00000918,-0.00000383,0.00001123,-0.00000308,-0.00000058,
 0.00006154,-0.00001380,0.00004354,0.00009158,0.00006109,-0.00021347,-0
 .00022062,0.00035714,0.00001615,0.00078049,0.00038333,0.00008274,0.009
 37037,0.00970681,-0.01196535,-0.00311972,0.00005054,-0.00290935,0.0004
 3712,-0.00047316,0.00074636,0.00118558,0.00092886,-0.00063847,-0.00155
 075,-0.00009718,0.00007197,-0.12098486,-0.07800455,0.09587012,0.001237
 88,0.00067481,-0.00076024,-0.00020954,-0.00019707,0.00045047,0.0001063
 7,-0.00025990,0.00000627,0.00000444,0.00016207,0.00003941,-0.00008374,
 -0.00003952,0.00015768,0.00054173,0.00059083,-0.00082198,-0.00004236,-
 0.00006992,-0.00017139,0.00003267,-0.00027030,0.00016470,-0.00014412,0
 .00004491,0.00002509,-0.00938257,-0.01680148,0.01797336,0.12212598,0.0
 0011050,0.00002685,0.00000560,-0.00008785,-0.00000690,-0.00004429,0.00
 004768,0.00001848,0.00005393,-0.00020027,-0.00000600,-0.00011125,0.000
 25879,-0.00027613,0.00007050,0.00001165,-0.00000816,-0.00000923,0.0000
 0559,0.00001081,0.00000630,-0.00001455,-0.00013020,-0.00008285,0.00002
 944,0.00017563,0.00001327,-0.00007458,-0.00003183,0.00001742,0.0000197
 6,0.00000789,-0.00000570,0.00000454,0.00000412,0.00000947,0.00000655,0
 .00001261,0.00000867,0.00003900,0.00000998,0.00000672,-0.00010353,0.00
 003838,0.00005652,0.00000081,-0.00000624,0.00000387,0.00001559,0.00000
 146,0.00000117,0.00005284,-0.00005972,-0.00000109,-0.00009683,-0.00009
 046,0.00000585,-0.00013910,-0.00030493,0.00006876,0.00027102,0.0010061
 0,-0.00154403,-0.00043998,-0.00041323,0.00176373,0.00059268,0.00053848
 ,0.00002175,-0.00019977,0.00028910,-0.00047367,-0.00055398,-0.00050778
 ,0.00059872,-0.00051667,0.00017611,-0.00050939,-0.07683916,-0.12797291
 ,0.11198642,-0.01018178,-0.02216346,0.00415676,0.00004520,0.00021705,0
 .00004364,-0.00022778,-0.00000547,-0.00029961,0.00013684,-0.00002488,-
 0.00010728,-0.00001057,0.00005165,-0.00026113,-0.00004027,0.00010063,0
 .00005299,-0.00001660,0.00003669,0.00020927,-0.00003644,0.00005543,-0.
 00004434,0.00000029,-0.00000268,-0.00003819,0.00520227,0.00999237,-0.0
 0820009,0.08292868,0.13924115,0.00014395,-0.00003349,0.00007960,-0.000
 08993,-0.00000560,-0.00008408,0.00001163,-0.00000563,0.00002101,-0.000
 02693,-0.00001035,-0.00000014,0.00000545,-0.00009660,0.00008205,0.0000
 0745,-0.00001132,0.00001182,-0.00000802,0.00001185,0.00000176,-0.00004
 187,-0.00004554,-0.00001594,-0.00003139,0.00005683,0.00002140,-0.00017
 742,0.00000182,-0.00001924,0.00001565,0.00000547,0.00000111,0.00001046
 ,0.00000511,0.00001677,0.00000586,-0.00000091,0.00000834,0.00000663,0.
 00000939,0.00000320,-0.00005396,0.00006841,-0.00005301,0.00000323,-0.0
 0000351,0.00000510,0.00000676,-0.00000078,-0.00000216,0.00007421,-0.00
 004733,0.00003997,-0.00007977,-0.00009368,-0.00009292,-0.00029503,-0.0
 0056287,0.00021841,0.00106843,0.00183133,0.00016057,0.01346061,0.01484
 767,-0.01866367,-0.00495265,-0.00095295,-0.00345613,0.00044155,-0.0004
 3443,0.00045652,0.00141832,0.00020834,-0.00028976,0.00008680,-0.000490
 13,0.00091212,0.09445840,0.10742975,-0.17185569,-0.00719217,-0.0156879
 9,0.00448573,0.00020769,0.00017968,-0.00027014,-0.00052793,-0.00113266
 ,-0.00017408,-0.00018765,-0.00009977,0.00042562,-0.00005454,-0.0000367
 5,0.00010596,0.00086841,0.00096145,-0.00118557,0.00000163,0.00040869,0
 .00010581,0.00007172,-0.00007857,0.00002576,-0.00011243,0.00001970,-0.
 00009074,-0.00031029,0.00121456,-0.00045367,-0.09823283,-0.10742918,0.
 18951830\\-0.00000156,-0.00000162,-0.00000043,0.00000062,-0.00000084,0
 .00000027,0.00000031,-0.00000043,-0.00000115,-0.00000022,-0.00000003,0
 .00000014,0.00000067,0.00000005,0.00000055,0.00000066,0.00000061,-0.00
 000071,0.00000025,0.00000030,-0.00000055,-0.00000054,0.00000121,-0.000
 00090,0.00000048,-0.00000029,-0.00000232,-0.00000014,-0.00000134,-0.00
 000058,-0.00000036,-0.00000123,-0.00000141,-0.00000041,-0.00000104,-0.
 00000045,0.00000036,0.00000102,0.00000045,-0.00000012,0.00000043,0.000
 00062,-0.00000031,-0.00000057,0.00000058,0.00000057,0.00000119,-0.0000
 0108,0.00000043,0.00000020,-0.00000180,0.00000077,0.00000084,-0.000001
 00,0.,-0.00000013,-0.00000112,0.00000051,-0.00000009,0.00000120,-0.000
 00116,0.00000011,0.00000166,0.00000004,-0.00000031,-0.00000037,-0.0000
 0019,-0.00000046,-0.00000003,-0.00000004,-0.00000090,-0.00000049,-0.00
 000027,0.00000050,0.00000058,0.00000042,0.00000130,0.00000116,0.000000
 61,0.00000137,0.00000108,0.00000068,0.00000124,-0.00000080,-0.00000125
 ,-0.00000080,0.00000204,-0.00000010,0.00000050,0.00000194,-0.00000035,
 -0.00000071,0.00000164,0.,-0.00000052,-0.00000087,-0.00000029,-0.00000
 111,-0.00000001,-0.00000033,-0.00000099,0.00000059,-0.00000011,-0.0000
 0015,0.00000060,0.00000028,0.00000047,-0.00000025,-0.00000036,0.000000
 87,0.00000043,0.00000044,0.00000137,0.00000080\\\@


 A SCIENTIST IS SOMEONE WHOSE CURIOSITY SURVIVES
 EDUCATION'S ASSAULTS ON IT.
                          - SIR HERMANN BONDI
 File lengths (MBytes):  RWF=    738 Int=      0 D2E=      0 Chk=     11 Scr=      1
 Normal termination of Gaussian 16 at Mon Apr  1 18:55:59 2024.
real 13758.79
user 53830.41
sys 37.06
