 Entering Gaussian System, Link 0=g16
 Input=gaussian_test.inp
 Output=gaussian_test.log
 Initial command:
 /sw/restricted/lms/sw/Gaussian/g16_B01/g16/l1.exe "/scratch/user/peterchao1/peterchao1/6113310_1660079070000000131253344/Gau-172763.inp" -scrdir="/scratch/user/peterchao1/peterchao1/6113310_1660079070000000131253344/"
 Entering Link 1 = /sw/restricted/lms/sw/Gaussian/g16_B01/g16/l1.exe PID=    172764.
  
 Copyright (c) 1988-2017, Gaussian, Inc.  All Rights Reserved.
  
 This is part of the Gaussian(R) 16 program.  It is based on
 the Gaussian(R) 09 system (copyright 2009, Gaussian, Inc.),
 the Gaussian(R) 03 system (copyright 2003, Gaussian, Inc.),
 the Gaussian(R) 98 system (copyright 1998, Gaussian, Inc.),
 the Gaussian(R) 94 system (copyright 1995, Gaussian, Inc.),
 the Gaussian 92(TM) system (copyright 1992, Gaussian, Inc.),
 the Gaussian 90(TM) system (copyright 1990, Gaussian, Inc.),
 the Gaussian 88(TM) system (copyright 1988, Gaussian, Inc.),
 the Gaussian 86(TM) system (copyright 1986, Carnegie Mellon
 University), and the Gaussian 82(TM) system (copyright 1983,
 Carnegie Mellon University). Gaussian is a federally registered
 trademark of Gaussian, Inc.
  
 This software contains proprietary and confidential information,
 including trade secrets, belonging to Gaussian, Inc.
  
 This software is provided under written license and may be
 used, copied, transmitted, or stored only in accord with that
 written license.
  
 The following legend is applicable only to US Government
 contracts under FAR:
  
                    RESTRICTED RIGHTS LEGEND
  
 Use, reproduction and disclosure by the US Government is
 subject to restrictions as set forth in subparagraphs (a)
 and (c) of the Commercial Computer Software - Restricted
 Rights clause in FAR 52.227-19.
  
 Gaussian, Inc.
 340 Quinnipiac St., Bldg. 40, Wallingford CT 06492
  
  
 ---------------------------------------------------------------
 Warning -- This program may not be used in any manner that
 competes with the business of Gaussian, Inc. or will provide
 assistance to any competitor of Gaussian, Inc.  The licensee
 of this program is prohibited from giving any competitor of
 Gaussian, Inc. access to this program.  By using this program,
 the user acknowledges that Gaussian, Inc. is engaged in the
 business of creating and licensing software in the field of
 computational chemistry and represents and warrants to the
 licensee that it is not a competitor of Gaussian, Inc. and that
 it will not use this program in any manner prohibited above.
 ---------------------------------------------------------------
  

 Cite this work as:
 Gaussian 16, Revision B.01,
 M. J. Frisch, G. W. Trucks, H. B. Schlegel, G. E. Scuseria, 
 M. A. Robb, J. R. Cheeseman, G. Scalmani, V. Barone, 
 G. A. Petersson, H. Nakatsuji, X. Li, M. Caricato, A. V. Marenich, 
 J. Bloino, B. G. Janesko, R. Gomperts, B. Mennucci, H. P. Hratchian, 
 J. V. Ortiz, A. F. Izmaylov, J. L. Sonnenberg, D. Williams-Young, 
 F. Ding, F. Lipparini, F. Egidi, J. Goings, B. Peng, A. Petrone, 
 T. Henderson, D. Ranasinghe, V. G. Zakrzewski, J. Gao, N. Rega, 
 G. Zheng, W. Liang, M. Hada, M. Ehara, K. Toyota, R. Fukuda, 
 J. Hasegawa, M. Ishida, T. Nakajima, Y. Honda, O. Kitao, H. Nakai, 
 T. Vreven, K. Throssell, J. A. Montgomery, Jr., J. E. Peralta, 
 F. Ogliaro, M. J. Bearpark, J. J. Heyd, E. N. Brothers, K. N. Kudin, 
 V. N. Staroverov, T. A. Keith, R. Kobayashi, J. Normand, 
 K. Raghavachari, A. P. Rendell, J. C. Burant, S. S. Iyengar, 
 J. Tomasi, M. Cossi, J. M. Millam, M. Klene, C. Adamo, R. Cammi, 
 J. W. Ochterski, R. L. Martin, K. Morokuma, O. Farkas, 
 J. B. Foresman, and D. J. Fox, Gaussian, Inc., Wallingford CT, 2016.
 
 ******************************************
 Gaussian 16:  ES64L-G16RevB.01 20-Dec-2017
                 9-Aug-2022 
 ******************************************
 %nprocshared=4
 Will use up to    4 processors via shared memory.
 %mem=8000mb
 ----------------------------------------------------------------------
 #T wB97XD/def2svpp opt=tight freq int(grid=ultrafine) scf=(verytight,q
 c)
 ----------------------------------------------------------------------
 -----
 dimer
 -----
 Symbolic Z-matrix:
 Charge =  0 Multiplicity = 1
 C                     1.41292  -1.96048  -0.14249 
 C                     1.78364  -0.714     0.65403 
 C                     2.86918   0.18089   0.02935 
 C                     4.19712  -0.57069  -0.0857 
 C                     2.44158   0.67781  -1.35328 
 C                     3.06363   1.3917    0.94884 
 H                     0.64831  -2.52242   0.39133 
 H                     2.27186  -2.61228  -0.27744 
 H                     1.01744  -1.70119  -1.12134 
 H                     2.12383  -1.02415   1.64557 
 H                     0.88508  -0.10855   0.79342 
 H                     4.49647  -0.97013   0.88105 
 H                     4.9791    0.10026  -0.4351 
 H                     4.12141  -1.39373  -0.7915 
 H                     2.38427  -0.14199  -2.0645 
 H                     3.16285   1.39952  -1.73106 
 H                     1.46898   1.16179  -1.30166 
 H                     3.36265   1.07322   1.9453 
 H                     2.13989   1.96017   1.03396 
 H                     3.83454   2.05089   0.55579 
 C                    -1.44294   1.97946  -0.16415 
 C                    -1.84082   0.63943  -0.77375 
 C                    -2.86243  -0.18469   0.03086 
 C                    -4.19513   0.55905   0.14381 
 C                    -3.09331  -1.50296  -0.71623 
 C                    -2.33514  -0.50054   1.43211 
 H                    -0.73758   2.48563  -0.82104 
 H                    -0.96565   1.84755   0.80364 
 H                    -2.30578   2.62815  -0.03945 
 H                    -0.94077   0.03406  -0.90306 
 H                    -2.25605   0.82062  -1.76861 
 H                    -4.56562   0.83387  -0.84153 
 H                    -4.09009   1.46285   0.73823 
 H                    -4.93856  -0.07375   0.62403 
 H                    -3.4711   -1.31504  -1.71905 
 H                    -3.81779  -2.11972  -0.18884 
 H                    -2.1646   -2.06342  -0.80013 
 H                    -2.23187   0.40395   2.02578 
 H                    -1.36658  -0.99198   1.3755 
 H                    -3.02435  -1.16435   1.95001 
 
 Add virtual bond connecting atoms H27        and H17        Dist= 4.95D+00.
 Add virtual bond connecting atoms H30        and H9         Dist= 4.96D+00.
 Add virtual bond connecting atoms H30        and H11        Dist= 4.72D+00.
 Add virtual bond connecting atoms H39        and H11        Dist= 4.70D+00.

 GradGradGradGradGradGradGradGradGradGradGradGradGradGradGradGradGradGrad
 Initialization pass.
                           ----------------------------
                           !    Initial Parameters    !
                           ! (Angstroms and Degrees)  !
 --------------------------                            --------------------------
 ! Name  Definition              Value          Derivative Info.                !
 --------------------------------------------------------------------------------
 ! R1    R(1,2)                  1.525          estimate D2E/DX2                !
 ! R2    R(1,7)                  1.0887         estimate D2E/DX2                !
 ! R3    R(1,8)                  1.0867         estimate D2E/DX2                !
 ! R4    R(1,9)                  1.0871         estimate D2E/DX2                !
 ! R5    R(2,3)                  1.5393         estimate D2E/DX2                !
 ! R6    R(2,10)                 1.0932         estimate D2E/DX2                !
 ! R7    R(2,11)                 1.0924         estimate D2E/DX2                !
 ! R8    R(3,4)                  1.5302         estimate D2E/DX2                !
 ! R9    R(3,5)                  1.5302         estimate D2E/DX2                !
 ! R10   R(3,6)                  1.5328         estimate D2E/DX2                !
 ! R11   R(4,12)                 1.088          estimate D2E/DX2                !
 ! R12   R(4,13)                 1.088          estimate D2E/DX2                !
 ! R13   R(4,14)                 1.0869         estimate D2E/DX2                !
 ! R14   R(5,15)                 1.0868         estimate D2E/DX2                !
 ! R15   R(5,16)                 1.088          estimate D2E/DX2                !
 ! R16   R(5,17)                 1.0876         estimate D2E/DX2                !
 ! R17   R(6,18)                 1.088          estimate D2E/DX2                !
 ! R18   R(6,19)                 1.088          estimate D2E/DX2                !
 ! R19   R(6,20)                 1.0878         estimate D2E/DX2                !
 ! R20   R(9,30)                 2.6255         estimate D2E/DX2                !
 ! R21   R(11,30)                2.4964         estimate D2E/DX2                !
 ! R22   R(11,39)                2.4878         estimate D2E/DX2                !
 ! R23   R(17,27)                2.6177         estimate D2E/DX2                !
 ! R24   R(21,22)                1.525          estimate D2E/DX2                !
 ! R25   R(21,27)                1.0887         estimate D2E/DX2                !
 ! R26   R(21,28)                1.0871         estimate D2E/DX2                !
 ! R27   R(21,29)                1.0867         estimate D2E/DX2                !
 ! R28   R(22,23)                1.5396         estimate D2E/DX2                !
 ! R29   R(22,30)                1.0924         estimate D2E/DX2                !
 ! R30   R(22,31)                1.0932         estimate D2E/DX2                !
 ! R31   R(23,24)                1.5304         estimate D2E/DX2                !
 ! R32   R(23,25)                1.5327         estimate D2E/DX2                !
 ! R33   R(23,26)                1.5301         estimate D2E/DX2                !
 ! R34   R(24,32)                1.088          estimate D2E/DX2                !
 ! R35   R(24,33)                1.0868         estimate D2E/DX2                !
 ! R36   R(24,34)                1.088          estimate D2E/DX2                !
 ! R37   R(25,35)                1.088          estimate D2E/DX2                !
 ! R38   R(25,36)                1.0878         estimate D2E/DX2                !
 ! R39   R(25,37)                1.088          estimate D2E/DX2                !
 ! R40   R(26,38)                1.0868         estimate D2E/DX2                !
 ! R41   R(26,39)                1.0876         estimate D2E/DX2                !
 ! R42   R(26,40)                1.0881         estimate D2E/DX2                !
 ! A1    A(2,1,7)              109.6642         estimate D2E/DX2                !
 ! A2    A(2,1,8)              111.2835         estimate D2E/DX2                !
 ! A3    A(2,1,9)              111.3328         estimate D2E/DX2                !
 ! A4    A(7,1,8)              107.8429         estimate D2E/DX2                !
 ! A5    A(7,1,9)              108.0054         estimate D2E/DX2                !
 ! A6    A(8,1,9)              108.5908         estimate D2E/DX2                !
 ! A7    A(1,2,3)              115.7637         estimate D2E/DX2                !
 ! A8    A(1,2,10)             108.5118         estimate D2E/DX2                !
 ! A9    A(1,2,11)             108.6445         estimate D2E/DX2                !
 ! A10   A(3,2,10)             108.2741         estimate D2E/DX2                !
 ! A11   A(3,2,11)             108.0376         estimate D2E/DX2                !
 ! A12   A(10,2,11)            107.3053         estimate D2E/DX2                !
 ! A13   A(2,3,4)              110.9142         estimate D2E/DX2                !
 ! A14   A(2,3,5)              111.003          estimate D2E/DX2                !
 ! A15   A(2,3,6)              107.7745         estimate D2E/DX2                !
 ! A16   A(4,3,5)              109.5163         estimate D2E/DX2                !
 ! A17   A(4,3,6)              108.8448         estimate D2E/DX2                !
 ! A18   A(5,3,6)              108.7209         estimate D2E/DX2                !
 ! A19   A(3,4,12)             110.6265         estimate D2E/DX2                !
 ! A20   A(3,4,13)             110.1808         estimate D2E/DX2                !
 ! A21   A(3,4,14)             111.1192         estimate D2E/DX2                !
 ! A22   A(12,4,13)            108.301          estimate D2E/DX2                !
 ! A23   A(12,4,14)            108.5522         estimate D2E/DX2                !
 ! A24   A(13,4,14)            107.9693         estimate D2E/DX2                !
 ! A25   A(3,5,15)             111.1661         estimate D2E/DX2                !
 ! A26   A(3,5,16)             110.1148         estimate D2E/DX2                !
 ! A27   A(3,5,17)             110.5809         estimate D2E/DX2                !
 ! A28   A(15,5,16)            107.9433         estimate D2E/DX2                !
 ! A29   A(15,5,17)            108.6371         estimate D2E/DX2                !
 ! A30   A(16,5,17)            108.3082         estimate D2E/DX2                !
 ! A31   A(3,6,18)             110.6736         estimate D2E/DX2                !
 ! A32   A(3,6,19)             110.6081         estimate D2E/DX2                !
 ! A33   A(3,6,20)             110.6006         estimate D2E/DX2                !
 ! A34   A(18,6,19)            108.3387         estimate D2E/DX2                !
 ! A35   A(18,6,20)            108.2722         estimate D2E/DX2                !
 ! A36   A(19,6,20)            108.2612         estimate D2E/DX2                !
 ! A37   A(1,9,30)             110.7392         estimate D2E/DX2                !
 ! A38   A(2,11,30)            123.1295         estimate D2E/DX2                !
 ! A39   A(2,11,39)            125.2749         estimate D2E/DX2                !
 ! A40   A(30,11,39)            61.1399         estimate D2E/DX2                !
 ! A41   A(22,21,27)           109.6569         estimate D2E/DX2                !
 ! A42   A(22,21,28)           111.3326         estimate D2E/DX2                !
 ! A43   A(22,21,29)           111.3006         estimate D2E/DX2                !
 ! A44   A(27,21,28)           108.0056         estimate D2E/DX2                !
 ! A45   A(27,21,29)           107.8269         estimate D2E/DX2                !
 ! A46   A(28,21,29)           108.5959         estimate D2E/DX2                !
 ! A47   A(21,22,23)           115.7589         estimate D2E/DX2                !
 ! A48   A(21,22,30)           108.6217         estimate D2E/DX2                !
 ! A49   A(21,22,31)           108.4969         estimate D2E/DX2                !
 ! A50   A(23,22,30)           108.1775         estimate D2E/DX2                !
 ! A51   A(23,22,31)           108.1974         estimate D2E/DX2                !
 ! A52   A(30,22,31)           107.2828         estimate D2E/DX2                !
 ! A53   A(22,23,24)           110.8725         estimate D2E/DX2                !
 ! A54   A(22,23,25)           107.795          estimate D2E/DX2                !
 ! A55   A(22,23,26)           111.1263         estimate D2E/DX2                !
 ! A56   A(24,23,25)           108.8315         estimate D2E/DX2                !
 ! A57   A(24,23,26)           109.4406         estimate D2E/DX2                !
 ! A58   A(25,23,26)           108.7076         estimate D2E/DX2                !
 ! A59   A(23,24,32)           110.6383         estimate D2E/DX2                !
 ! A60   A(23,24,33)           111.1214         estimate D2E/DX2                !
 ! A61   A(23,24,34)           110.1793         estimate D2E/DX2                !
 ! A62   A(32,24,33)           108.5533         estimate D2E/DX2                !
 ! A63   A(32,24,34)           108.2986         estimate D2E/DX2                !
 ! A64   A(33,24,34)           107.9573         estimate D2E/DX2                !
 ! A65   A(23,25,35)           110.6723         estimate D2E/DX2                !
 ! A66   A(23,25,36)           110.5877         estimate D2E/DX2                !
 ! A67   A(23,25,37)           110.6138         estimate D2E/DX2                !
 ! A68   A(35,25,36)           108.2725         estimate D2E/DX2                !
 ! A69   A(35,25,37)           108.3188         estimate D2E/DX2                !
 ! A70   A(36,25,37)           108.2895         estimate D2E/DX2                !
 ! A71   A(23,26,38)           111.1727         estimate D2E/DX2                !
 ! A72   A(23,26,39)           110.6405         estimate D2E/DX2                !
 ! A73   A(23,26,40)           110.0926         estimate D2E/DX2                !
 ! A74   A(38,26,39)           108.6552         estimate D2E/DX2                !
 ! A75   A(38,26,40)           107.9333         estimate D2E/DX2                !
 ! A76   A(39,26,40)           108.2532         estimate D2E/DX2                !
 ! A77   A(17,27,21)           114.9475         estimate D2E/DX2                !
 ! A78   A(9,30,11)             58.2135         estimate D2E/DX2                !
 ! A79   A(11,30,22)           123.6298         estimate D2E/DX2                !
 ! A80   A(11,39,26)           131.1281         estimate D2E/DX2                !
 ! A81   L(5,17,27,2,-1)       176.2298         estimate D2E/DX2                !
 ! A82   L(9,30,22,11,-1)      181.8434         estimate D2E/DX2                !
 ! A83   L(5,17,27,2,-2)       171.2419         estimate D2E/DX2                !
 ! A84   L(9,30,22,11,-2)      189.0702         estimate D2E/DX2                !
 ! D1    D(7,1,2,3)            179.4484         estimate D2E/DX2                !
 ! D2    D(7,1,2,10)            57.5259         estimate D2E/DX2                !
 ! D3    D(7,1,2,11)           -58.8359         estimate D2E/DX2                !
 ! D4    D(8,1,2,3)             60.2125         estimate D2E/DX2                !
 ! D5    D(8,1,2,10)           -61.7099         estimate D2E/DX2                !
 ! D6    D(8,1,2,11)          -178.0718         estimate D2E/DX2                !
 ! D7    D(9,1,2,3)            -61.0825         estimate D2E/DX2                !
 ! D8    D(9,1,2,10)           176.995          estimate D2E/DX2                !
 ! D9    D(9,1,2,11)            60.6332         estimate D2E/DX2                !
 ! D10   D(2,1,9,30)           -52.4306         estimate D2E/DX2                !
 ! D11   D(7,1,9,30)            68.0201         estimate D2E/DX2                !
 ! D12   D(8,1,9,30)          -175.2844         estimate D2E/DX2                !
 ! D13   D(1,2,3,4)            -62.7704         estimate D2E/DX2                !
 ! D14   D(1,2,3,5)             59.2219         estimate D2E/DX2                !
 ! D15   D(1,2,3,6)            178.1761         estimate D2E/DX2                !
 ! D16   D(10,2,3,4)            59.2786         estimate D2E/DX2                !
 ! D17   D(10,2,3,5)          -178.7291         estimate D2E/DX2                !
 ! D18   D(10,2,3,6)           -59.7749         estimate D2E/DX2                !
 ! D19   D(11,2,3,4)           175.1904         estimate D2E/DX2                !
 ! D20   D(11,2,3,5)           -62.8173         estimate D2E/DX2                !
 ! D21   D(11,2,3,6)            56.1369         estimate D2E/DX2                !
 ! D22   D(1,2,11,30)          -33.6178         estimate D2E/DX2                !
 ! D23   D(1,2,11,39)           42.2392         estimate D2E/DX2                !
 ! D24   D(3,2,11,30)           92.7039         estimate D2E/DX2                !
 ! D25   D(3,2,11,39)          168.561          estimate D2E/DX2                !
 ! D26   D(10,2,11,30)        -150.7533         estimate D2E/DX2                !
 ! D27   D(10,2,11,39)         -74.8962         estimate D2E/DX2                !
 ! D28   D(2,3,4,12)           -54.6545         estimate D2E/DX2                !
 ! D29   D(2,3,4,13)          -174.3775         estimate D2E/DX2                !
 ! D30   D(2,3,4,14)            65.9977         estimate D2E/DX2                !
 ! D31   D(5,3,4,12)          -177.5107         estimate D2E/DX2                !
 ! D32   D(5,3,4,13)            62.7663         estimate D2E/DX2                !
 ! D33   D(5,3,4,14)           -56.8584         estimate D2E/DX2                !
 ! D34   D(6,3,4,12)            63.753          estimate D2E/DX2                !
 ! D35   D(6,3,4,13)           -55.97           estimate D2E/DX2                !
 ! D36   D(6,3,4,14)          -175.5948         estimate D2E/DX2                !
 ! D37   D(2,3,5,15)           -67.0434         estimate D2E/DX2                !
 ! D38   D(2,3,5,16)           173.3772         estimate D2E/DX2                !
 ! D39   D(2,3,5,17)            53.7167         estimate D2E/DX2                !
 ! D40   D(4,3,5,15)            55.7601         estimate D2E/DX2                !
 ! D41   D(4,3,5,16)           -63.8193         estimate D2E/DX2                !
 ! D42   D(4,3,5,17)           176.5201         estimate D2E/DX2                !
 ! D43   D(6,3,5,15)           174.5731         estimate D2E/DX2                !
 ! D44   D(6,3,5,16)            54.9937         estimate D2E/DX2                !
 ! D45   D(6,3,5,17)           -64.6668         estimate D2E/DX2                !
 ! D46   D(2,3,6,18)            59.2298         estimate D2E/DX2                !
 ! D47   D(2,3,6,19)           -60.8478         estimate D2E/DX2                !
 ! D48   D(2,3,6,20)           179.2192         estimate D2E/DX2                !
 ! D49   D(4,3,6,18)           -61.1352         estimate D2E/DX2                !
 ! D50   D(4,3,6,19)           178.7872         estimate D2E/DX2                !
 ! D51   D(4,3,6,20)            58.8542         estimate D2E/DX2                !
 ! D52   D(5,3,6,18)           179.6307         estimate D2E/DX2                !
 ! D53   D(5,3,6,19)            59.5531         estimate D2E/DX2                !
 ! D54   D(5,3,6,20)           -60.3798         estimate D2E/DX2                !
 ! D55   D(3,5,27,21)          -44.2308         estimate D2E/DX2                !
 ! D56   D(15,5,27,21)          78.533          estimate D2E/DX2                !
 ! D57   D(16,5,27,21)        -161.6387         estimate D2E/DX2                !
 ! D58   D(1,9,30,11)           27.5082         estimate D2E/DX2                !
 ! D59   D(2,11,30,9)            9.2951         estimate D2E/DX2                !
 ! D60   D(2,11,30,22)        -179.7752         estimate D2E/DX2                !
 ! D61   D(39,11,30,9)        -106.028          estimate D2E/DX2                !
 ! D62   D(39,11,30,22)         64.9018         estimate D2E/DX2                !
 ! D63   D(2,11,39,26)        -172.5489         estimate D2E/DX2                !
 ! D64   D(30,11,39,26)        -60.5535         estimate D2E/DX2                !
 ! D65   D(27,21,22,23)       -178.7768         estimate D2E/DX2                !
 ! D66   D(27,21,22,30)         59.3452         estimate D2E/DX2                !
 ! D67   D(27,21,22,31)        -56.9697         estimate D2E/DX2                !
 ! D68   D(28,21,22,23)         61.7587         estimate D2E/DX2                !
 ! D69   D(28,21,22,30)        -60.1194         estimate D2E/DX2                !
 ! D70   D(28,21,22,31)       -176.4342         estimate D2E/DX2                !
 ! D71   D(29,21,22,23)        -59.5547         estimate D2E/DX2                !
 ! D72   D(29,21,22,30)        178.5672         estimate D2E/DX2                !
 ! D73   D(29,21,22,31)         62.2524         estimate D2E/DX2                !
 ! D74   D(22,21,27,17)        -59.0022         estimate D2E/DX2                !
 ! D75   D(28,21,27,17)         62.4836         estimate D2E/DX2                !
 ! D76   D(29,21,27,17)        179.661          estimate D2E/DX2                !
 ! D77   D(21,22,23,24)         62.8363         estimate D2E/DX2                !
 ! D78   D(21,22,23,25)       -178.1378         estimate D2E/DX2                !
 ! D79   D(21,22,23,26)        -59.1156         estimate D2E/DX2                !
 ! D80   D(30,22,23,24)       -175.0491         estimate D2E/DX2                !
 ! D81   D(30,22,23,25)        -56.0232         estimate D2E/DX2                !
 ! D82   D(30,22,23,26)         62.9989         estimate D2E/DX2                !
 ! D83   D(31,22,23,24)        -59.1305         estimate D2E/DX2                !
 ! D84   D(31,22,23,25)         59.8955         estimate D2E/DX2                !
 ! D85   D(31,22,23,26)        178.9176         estimate D2E/DX2                !
 ! D86   D(21,22,30,11)         41.701          estimate D2E/DX2                !
 ! D87   D(23,22,30,11)        -84.6922         estimate D2E/DX2                !
 ! D88   D(31,22,30,11)        158.7949         estimate D2E/DX2                !
 ! D89   D(22,23,24,32)         54.4699         estimate D2E/DX2                !
 ! D90   D(22,23,24,33)        -66.1931         estimate D2E/DX2                !
 ! D91   D(22,23,24,34)        174.1966         estimate D2E/DX2                !
 ! D92   D(25,23,24,32)        -63.9296         estimate D2E/DX2                !
 ! D93   D(25,23,24,33)        175.4073         estimate D2E/DX2                !
 ! D94   D(25,23,24,34)         55.797          estimate D2E/DX2                !
 ! D95   D(26,23,24,32)        177.402          estimate D2E/DX2                !
 ! D96   D(26,23,24,33)         56.739          estimate D2E/DX2                !
 ! D97   D(26,23,24,34)        -62.8713         estimate D2E/DX2                !
 ! D98   D(22,23,25,35)        -59.5368         estimate D2E/DX2                !
 ! D99   D(22,23,25,36)       -179.5174         estimate D2E/DX2                !
 ! D100  D(22,23,25,37)         60.5188         estimate D2E/DX2                !
 ! D101  D(24,23,25,35)         60.7825         estimate D2E/DX2                !
 ! D102  D(24,23,25,36)        -59.198          estimate D2E/DX2                !
 ! D103  D(24,23,25,37)       -179.1619         estimate D2E/DX2                !
 ! D104  D(26,23,25,35)        179.9099         estimate D2E/DX2                !
 ! D105  D(26,23,25,36)         59.9294         estimate D2E/DX2                !
 ! D106  D(26,23,25,37)        -60.0344         estimate D2E/DX2                !
 ! D107  D(22,23,26,38)         66.0396         estimate D2E/DX2                !
 ! D108  D(22,23,26,39)        -54.788          estimate D2E/DX2                !
 ! D109  D(22,23,26,40)       -174.4038         estimate D2E/DX2                !
 ! D110  D(24,23,26,38)        -56.7417         estimate D2E/DX2                !
 ! D111  D(24,23,26,39)       -177.5693         estimate D2E/DX2                !
 ! D112  D(24,23,26,40)         62.8149         estimate D2E/DX2                !
 ! D113  D(25,23,26,38)       -175.4869         estimate D2E/DX2                !
 ! D114  D(25,23,26,39)         63.6855         estimate D2E/DX2                !
 ! D115  D(25,23,26,40)        -55.9303         estimate D2E/DX2                !
 ! D116  D(23,26,39,11)         72.8779         estimate D2E/DX2                !
 ! D117  D(38,26,39,11)        -49.434          estimate D2E/DX2                !
 ! D118  D(40,26,39,11)       -166.4058         estimate D2E/DX2                !
 --------------------------------------------------------------------------------
 Number of steps in this run=    240 maximum allowed number of steps=    240.
 GradGradGradGradGradGradGradGradGradGradGradGradGradGradGradGradGradGrad

                    Distance matrix (angstroms):
                    1          2          3          4          5
     1  C    0.000000
     2  C    1.524985   0.000000
     3  C    2.595316   1.539298   0.000000
     4  C    3.112319   2.528365   1.530211   0.000000
     5  C    3.079727   2.529683   1.530174   2.499489   0.000000
     6  C    3.892679   2.481787   1.532755   2.491197   2.489239
     7  H    1.088746   2.151363   3.517265   4.078096   4.062135
     8  H    1.086662   2.170125   2.872751   2.812738   3.465682
     9  H    1.087090   2.171060   2.880140   3.530004   2.782374
    10  H    2.139921   1.093194   2.149374   2.738878   3.462759
    11  H    2.141073   1.092439   2.145749   3.457757   2.765752
    12  H    3.396572   2.734332   2.167559   1.088013   3.454058
    13  H    4.129157   3.472781   2.161945   1.088003   2.759644
    14  H    2.842246   2.831385   2.172854   1.086861   2.725567
    15  H    2.818606   2.842240   2.173379   2.717691   1.086826
    16  H    4.107966   3.472438   2.161100   2.767429   1.088030
    17  H    3.330969   2.728058   2.166632   3.452938   1.087583
    18  H    4.166969   2.711974   2.170396   2.742944   3.447506
    19  H    4.157402   2.724417   2.169548   3.448347   2.726599
    20  H    4.737396   3.443903   2.169325   2.723171   2.733169
    21  C    4.866162   4.281938   4.676183   6.190296   4.265891
    22  C    4.212455   4.123954   4.799924   6.196330   4.321601
    23  C    4.632719   4.717466   5.743256   7.071060   5.549080
    24  C    6.154688   6.134058   7.075347   8.471061   6.804504
    25  C    4.565589   5.126862   6.240393   7.376797   5.983028
    26  C    4.319572   4.197060   5.432953   6.706645   5.653665
    27  H    4.985274   4.332439   4.363910   5.850908   3.695746
    28  H    4.588444   3.760656   4.252435   5.770014   4.198784
    29  H    5.907181   5.326744   5.724855   7.247234   5.297861
    30  H    3.177496   3.225914   3.925130   5.237531   3.472375
    31  H    4.882630   4.954122   5.468993   6.812590   4.718117
    32  H    6.636259   6.704154   7.514054   8.906723   7.027593
    33  H    6.540484   6.264700   7.111774   8.572749   6.903142
    34  H    6.669972   6.752686   7.834488   9.176672   7.677303
    35  H    5.172594   5.796981   6.744907   7.875498   6.250198
    36  H    5.233336   5.836306   7.075020   8.163880   6.954264
    37  H    3.638913   4.418604   5.573492   6.573440   5.388614
    38  H    4.855555   4.388150   5.482352   6.836683   5.773574
    39  H    3.311785   3.243719   4.596675   5.767793   4.973586
    40  H    4.970089   4.999920   6.342894   7.526372   6.646930
                    6          7          8          9         10
     6  C    0.000000
     7  H    4.633026   0.000000
     8  H    4.261751   1.758188   0.000000
     9  H    4.247170   1.760348   1.765166   0.000000
    10  H    2.684210   2.448488   2.498403   3.055850   0.000000
    11  H    2.649716   2.458559   3.055908   2.494056   1.760393
    12  H    2.763309   4.178246   2.997939   4.080148   2.493351
    13  H    2.692983   5.130029   3.835611   4.405778   3.707569
    14  H    3.450547   3.838680   2.273761   3.136552   3.172728
    15  H    3.448755   3.835505   3.050995   2.277913   3.822383
    16  H    2.681746   5.119476   4.359062   3.819544   4.284313
    17  H    2.767758   4.136798   3.992146   2.903969   3.727369
    18  H    1.088013   4.765614   4.439964   4.754109   2.454275
    19  H    1.087978   4.767744   4.758620   4.394395   3.046387
    20  H    1.087807   5.576224   4.988126   4.982657   3.683750
    21  C    4.679036   4.994881   5.907341   4.529557   5.001860
    22  C    5.252313   4.189324   5.266310   3.710653   4.933456
    23  C    6.200474   4.233228   5.687633   4.322123   5.307990
    24  C    7.350573   5.745923   7.215033   5.820668   6.685135
    25  C    7.004242   4.033078   5.496197   4.135422   5.746816
    26  C    5.741150   3.751291   5.348495   4.381943   4.494676
    27  H    4.333398   5.335833   5.944824   4.549696   5.156586
    28  H    4.057585   4.676698   5.616072   4.497967   4.301209
    29  H    5.597858   5.953197   6.962288   5.563938   5.983307
    30  H    4.616051   3.276614   4.208977   2.625512   4.123964
    31  H    6.000804   4.927122   5.874550   4.182609   5.851762
    32  H    7.856335   6.322158   7.677580   6.138028   7.374728
    33  H    7.157169   6.201222   7.623165   6.289357   6.754347
    34  H    8.141746   6.104361   7.697198   6.416290   7.198897
    35  H    7.559543   4.783407   6.061569   4.544597   6.535171
    36  H    7.808859   4.521594   6.110177   4.942083   6.314123
    37  H    6.506232   3.089125   4.500731   3.218657   5.045007
    38  H    5.493429   4.419337   5.889485   4.989387   4.599583
    39  H    5.048839   2.714892   4.312288   3.524308   3.500994
    40  H    6.678267   4.214539   5.925192   5.104653   5.159084
                   11         12         13         14         15
    11  H    0.000000
    12  H    3.713778   0.000000
    13  H    4.279478   1.763788   0.000000
    14  H    3.825902   1.765650   1.759159   0.000000
    15  H    3.227447   3.717990   3.073556   2.490991   0.000000
    16  H    3.719615   3.770534   2.581930   3.099008   1.758863
    17  H    2.518744   4.298252   3.768116   3.718373   1.766213
    18  H    2.976869   2.567771   3.037415   3.761860   4.302602
    19  H    2.431461   3.763443   3.698451   4.302015   3.752227
    20  H    3.663194   3.109746   2.469179   3.709832   3.711856
    21  C    3.270535   6.713354   6.696826   6.537126   4.770688
    22  C    3.232024   6.744643   6.849575   6.299382   4.486428
    23  C    3.825063   7.449371   7.860534   7.135274   5.649803
    24  C    5.164897   8.855832   9.203921   8.593778   6.975430
    25  C    4.477833   7.774313   8.234879   7.215945   5.802933
    26  C    3.306260   6.869861   7.572685   6.886890   5.884528
    27  H    3.459664   6.498821   6.206401   6.217725   4.265740
    28  H    2.692883   6.146549   6.318831   6.239275   4.838022
    29  H    4.285408   7.750190   7.721154   7.619043   5.811285
    30  H    2.496419   5.809905   5.938707   5.260865   3.526447
    31  H    4.158610   7.471545   7.392199   6.821299   4.748344
    32  H    5.768128   9.399101   9.581497   8.968234   7.123830
    33  H    5.217720   8.925734   9.245734   8.827733   7.235203
    34  H    5.826201   9.480994   9.975571   9.264400   7.801069
    35  H    5.171496   8.388180   8.663570   7.649363   5.981701
    36  H    5.208318   8.461268   9.076027   7.995073   6.774592
    37  H    3.957450   6.956393   7.473097   6.321588   5.097326
    38  H    3.390681   6.961970   7.625373   7.178643   6.191705
    39  H    2.487819   5.883904   6.688724   5.914000   5.159943
    40  H    4.211418   7.598890   8.446498   7.657054   6.812837
                   16         17         18         19         20
    16  H    0.000000
    17  H    1.763541   0.000000
    18  H    3.696213   3.759857   0.000000
    19  H    3.001017   2.557857   1.764186   0.000000
    20  H    2.470857   3.136315   1.763308   1.763157   0.000000
    21  C    4.899475   3.231383   5.325853   3.777897   5.326841
    22  C    5.150810   3.392098   5.887053   4.567074   5.997463
    23  C    6.474419   4.727556   6.633174   5.534423   7.079747
    24  C    7.639461   5.876636   7.786507   6.548888   8.177463
    25  C    6.970926   5.315840   7.443104   6.514812   7.889424
    26  C    6.621460   4.970733   5.933366   5.122449   6.733697
    27  H    4.149834   2.617725   5.143869   3.463662   4.794679
    28  H    4.865177   3.290896   4.542813   3.116107   4.810888
    29  H    5.854650   4.241721   6.203872   4.621940   6.196049
    30  H    4.403377   2.690271   5.264256   4.117329   5.385112
    31  H    5.449863   3.769659   6.739931   5.336408   6.634132
    32  H    7.800027   6.060997   8.407204   7.053356   8.602111
    33  H    7.662017   5.929172   7.559899   6.256787   7.948511
    34  H    8.564446   6.803779   8.483589   7.376264   9.026960
    35  H    7.167857   5.541956   8.113646   7.056145   8.359228
    36  H    7.968235   6.321125   8.142975   7.323566   8.746805
    37  H    6.421855   4.884300   6.922880   6.171037   7.399707
    38  H    6.648910   5.034133   5.634982   4.745292   6.455589
    39  H    5.990473   4.454926   5.191855   4.596434   6.081341
    40  H    7.642327   6.014511   6.767607   6.105009   7.702339
                   21         22         23         24         25
    21  C    0.000000
    22  C    1.524994   0.000000
    23  C    2.595485   1.539568   0.000000
    24  C    3.112385   2.528075   1.530357   0.000000
    25  C    3.893040   2.482312   1.532734   2.491092   0.000000
    26  C    3.081311   2.531738   1.530130   2.498404   2.488979
    27  H    1.088693   2.151239   3.517294   4.073978   4.633498
    28  H    1.087111   2.171083   2.885297   3.539082   4.250035
    29  H    1.086658   2.170342   2.868253   2.807918   4.259610
    30  H    2.140741   1.092374   2.147757   3.458674   2.651561
    31  H    2.139712   1.093161   2.148591   2.736018   2.684682
    32  H    3.394456   2.732572   2.167806   1.087974   2.764806
    33  H    2.844039   2.832549   2.172996   1.086842   3.450367
    34  H    4.129918   3.472520   2.162047   1.087993   2.691437
    35  H    4.169515   2.715022   2.170334   2.739832   1.087976
    36  H    4.737487   3.444333   2.169171   2.725590   1.087840
    37  H    4.155733   2.722296   2.169591   3.448393   1.087965
    38  H    2.810769   2.836499   2.173431   2.724013   3.449200
    39  H    3.347511   2.739647   2.167332   3.453032   2.760073
    40  H    4.105368   3.474653   2.160802   2.757382   2.688536
                   26         27         28         29         30
    26  C    0.000000
    27  H    4.067692   0.000000
    28  H    2.789981   1.760325   0.000000
    29  H    3.457609   1.757962   1.765236   0.000000
    30  H    2.771841   2.461346   2.490419   3.055875   0.000000
    31  H    3.463572   2.444569   3.055514   2.501927   1.760061
    32  H    3.453281   4.169246   4.085812   2.994938   3.712550
    33  H    2.723276   3.836238   3.148707   2.268585   3.827991
    34  H    2.759157   5.127071   4.416742   3.830404   4.280881
    35  H    3.447263   4.766929   4.758480   4.441592   2.981351
    36  H    2.729004   5.576433   4.985867   4.985050   3.664167
    37  H    2.730303   4.767666   4.393764   4.754928   2.430586
    38  H    1.086838   3.830233   2.276161   3.036065   3.222094
    39  H    1.087572   4.161039   2.924159   3.998689   2.534942
    40  H    1.088059   5.121560   3.824123   4.342500   3.730620
                   31         32         33         34         35
    31  H    0.000000
    32  H    2.488725   0.000000
    33  H    3.171816   1.765615   0.000000
    34  H    3.704110   1.763721   1.759002   0.000000
    35  H    2.457601   2.566286   3.760060   3.030551   0.000000
    36  H    3.685141   3.115917   3.710580   2.470394   1.763308
    37  H    3.043676   3.763096   4.302167   3.698898   1.763925
    38  H    3.817275   3.721919   2.496401   3.085331   4.302831
    39  H    3.736589   4.299161   3.721531   3.763889   3.756272
    40  H    4.284681   3.763118   3.083237   2.571343   3.699229
                   36         37         38         39         40
    36  H    0.000000
    37  H    1.763489   0.000000
    38  H    3.713297   3.752092   0.000000
    39  H    3.118869   2.553068   1.766414   0.000000
    40  H    2.473247   3.018407   1.758785   1.762944   0.000000
 Framework group  C1[X(C12H28)]
 Deg. of freedom   114
                         Standard orientation:                         
 ---------------------------------------------------------------------
 Center     Atomic      Atomic             Coordinates (Angstroms)
 Number     Number       Type             X           Y           Z
 ---------------------------------------------------------------------
      1          6           0       -1.412381    1.962448   -0.122127
      2          6           0       -1.782607    0.708577    0.662933
      3          6           0       -2.869097   -0.180028    0.030985
      4          6           0       -4.196941    0.572995   -0.075471
      5          6           0       -2.443161   -0.663934   -1.356764
      6          6           0       -3.062906   -1.399456    0.939154
      7          1           0       -0.647021    2.519077    0.416161
      8          1           0       -2.271272    2.615752   -0.249938
      9          1           0       -1.018055    1.712344   -1.103819
     10          1           0       -2.121618    1.009400    1.657745
     11          1           0       -0.884074    0.101567    0.795592
     12          1           0       -4.495106    0.963330    0.895357
     13          1           0       -4.979505   -0.094383   -0.430368
     14          1           0       -4.121756    1.402669   -0.773508
     15          1           0       -2.386388    0.162561   -2.060235
     16          1           0       -3.165061   -1.381813   -1.740588
     17          1           0       -1.470656   -1.148661   -1.310808
     18          1           0       -3.360738   -1.090360    1.938917
     19          1           0       -2.139245   -1.968975    1.017862
     20          1           0       -3.834447   -2.054661    0.540712
     21          6           0        1.442267   -1.977939   -0.184302
     22          6           0        1.839877   -0.632297   -0.781594
     23          6           0        2.862620    0.183853    0.029680
     24          6           0        4.195216   -0.561315    0.134103
     25          6           0        3.093081    1.509083   -0.705119
     26          6           0        2.336955    0.486545    1.434439
     27          1           0        0.736034   -2.477647   -0.845195
     28          1           0        0.966077   -1.855076    0.785213
     29          1           0        2.305041   -2.628031   -0.066713
     30          1           0        0.939871   -0.025465   -0.904172
     31          1           0        2.253969   -0.804156   -1.778586
     32          1           0        4.564545   -0.826879   -0.854208
     33          1           0        4.090554   -1.470685    0.720036
     34          1           0        4.939360    0.066684    0.619485
     35          1           0        3.469711    1.330577   -1.710095
     36          1           0        3.818320    2.120599   -0.172697
     37          1           0        2.164442    2.070582   -0.782681
     38          1           0        2.234065   -0.423512    2.019611
     39          1           0        1.368488    0.978783    1.383557
     40          1           0        3.026938    1.145202    1.957858
 ---------------------------------------------------------------------
 Rotational constants (GHZ):           1.4214168           0.3423604           0.3167030
   224 basis functions,   412 primitive gaussians,   236 cartesian basis functions
    50 alpha electrons       50 beta electrons
       nuclear repulsion energy       778.0489497237 Hartrees.
 NAtoms=   40 NActive=   40 NUniq=   40 SFac= 1.00D+00 NAtFMM=   60 NAOKFM=F Big=F
 Nuclear repulsion after empirical dispersion term =      778.0149978821 Hartrees.
   1 Symmetry operations used in ECPInt.
 ECPInt:  NShTT=    8256 NPrTT=   33136 LenC2=    7965 LenP2D=   23183.
 LDataN:  DoStor=T MaxTD1= 4 Len=   56
 ExpMin= 1.22D-01 ExpMax= 1.24D+03 ExpMxC= 1.86D+02 IAcc=3 IRadAn=         5 AccDes= 0.00D+00
 Harris functional with IExCor= 4639 and IRadAn=       5 diagonalized for initial guess.
 HarFok:  IExCor= 4639 AccDes= 0.00D+00 IRadAn=         5 IDoV= 1 UseB2=F ITyADJ=14
 ICtDFT=  3500011 ScaDFX=  1.000000  1.000000  1.000000  1.000000
 FoFCou: FMM=F IPFlag=           0 FMFlag=      100000 FMFlg1=           0
         NFxFlg=           0 DoJE=T BraDBF=F KetDBF=T FulRan=T
         wScrn=  0.000000 ICntrl=       500 IOpCl=  0 I1Cent=   200000004 NGrid=           0
         NMat0=    1 NMatS0=      1 NMatT0=    0 NMatD0=    1 NMtDS0=    0 NMtDT0=    0
 Petite list used in FoFCou.
     Minimum is close to point  3 DX=  2.42D-02 DF= -1.55D-04 DXR=  3.88D-02 DFR=  1.50D-03 which will be used.
     Minimum is close to point  3 DX=  4.77D-02 DF= -2.21D-05 DXR=  5.04D-02 DFR=  2.54D-03 which will be used.
     Accept linear search using points  1 and  2.
     Accept linear search using points  1 and  2.
     Minimum is close to point  2 DX= -1.19D-04 DF= -1.14D-13 DXR=  1.19D-04 DFR=  1.62D-08 which will be used.
 SCF Done:  E(RwB97XD) =  -473.634810525     a.u. after    6 cycles
            Convg  =    0.7208D-06                    21 Fock formations.
              S**2 =  0.0000                  -V/T =  2.0109

 **********************************************************************

            Population analysis using the SCF Density.

 **********************************************************************

 Orbital symmetries:
       Occupied  (A) (A) (A) (A) (A) (A) (A) (A) (A) (A) (A) (A)
                 (A) (A) (A) (A) (A) (A) (A) (A) (A) (A) (A) (A)
                 (A) (A) (A) (A) (A) (A) (A) (A) (A) (A) (A) (A)
                 (A) (A) (A) (A) (A) (A) (A) (A) (A) (A) (A) (A)
                 (A) (A)
       Virtual   (A) (A) (A) (A) (A) (A) (A) (A) (A) (A) (A) (A)
                 (A) (A) (A) (A) (A) (A) (A) (A) (A) (A) (A) (A)
                 (A) (A) (A) (A) (A) (A) (A) (A) (A) (A) (A) (A)
                 (A) (A) (A) (A) (A) (A) (A) (A) (A) (A) (A) (A)
                 (A) (A) (A) (A) (A) (A) (A) (A) (A) (A) (A) (A)
                 (A) (A) (A) (A) (A) (A) (A) (A) (A) (A) (A) (A)
                 (A) (A) (A) (A) (A) (A) (A) (A) (A) (A) (A) (A)
                 (A) (A) (A) (A) (A) (A) (A) (A) (A) (A) (A) (A)
                 (A) (A) (A) (A) (A) (A) (A) (A) (A) (A) (A) (A)
                 (A) (A) (A) (A) (A) (A) (A) (A) (A) (A) (A) (A)
                 (A) (A) (A) (A) (A) (A) (A) (A) (A) (A) (A) (A)
                 (A) (A) (A) (A) (A) (A) (A) (A) (A) (A) (A) (A)
                 (A) (A) (A) (A) (A) (A) (A) (A) (A) (A) (A) (A)
                 (A) (A) (A) (A) (A) (A) (A) (A) (A) (A) (A) (A)
                 (A) (A) (A) (A) (A) (A)
 The electronic state is 1-A.
 Alpha  occ. eigenvalues --  -10.29890 -10.29887 -10.27989 -10.27986 -10.27346
 Alpha  occ. eigenvalues --  -10.27343 -10.27062 -10.27054 -10.27050 -10.27044
 Alpha  occ. eigenvalues --  -10.26974 -10.26964  -0.92072  -0.91961  -0.82968
 Alpha  occ. eigenvalues --   -0.82902  -0.77404  -0.77373  -0.77342  -0.77316
 Alpha  occ. eigenvalues --   -0.71106  -0.71062  -0.61402  -0.61132  -0.55379
 Alpha  occ. eigenvalues --   -0.55103  -0.54832  -0.54301  -0.52550  -0.52448
 Alpha  occ. eigenvalues --   -0.51165  -0.51131  -0.48662  -0.48340  -0.46793
 Alpha  occ. eigenvalues --   -0.46516  -0.46118  -0.46056  -0.44642  -0.44524
 Alpha  occ. eigenvalues --   -0.43971  -0.43891  -0.42771  -0.42407  -0.39689
 Alpha  occ. eigenvalues --   -0.39437  -0.39284  -0.39137  -0.38832  -0.38626
 Alpha virt. eigenvalues --    0.11345   0.13948   0.14752   0.16636   0.16936
 Alpha virt. eigenvalues --    0.18117   0.18435   0.18607   0.19320   0.19750
 Alpha virt. eigenvalues --    0.20015   0.20490   0.20995   0.22200   0.22503
 Alpha virt. eigenvalues --    0.22653   0.24520   0.25140   0.25492   0.25678
 Alpha virt. eigenvalues --    0.26031   0.26253   0.27017   0.27215   0.28039
 Alpha virt. eigenvalues --    0.28320   0.29355   0.29844   0.30181   0.31400
 Alpha virt. eigenvalues --    0.32398   0.32682   0.32919   0.33432   0.33550
 Alpha virt. eigenvalues --    0.33972   0.35683   0.37081   0.47926   0.47992
 Alpha virt. eigenvalues --    0.48501   0.50086   0.50684   0.50873   0.51418
 Alpha virt. eigenvalues --    0.52020   0.55094   0.55654   0.57165   0.58613
 Alpha virt. eigenvalues --    0.61937   0.62221   0.65378   0.65583   0.68314
 Alpha virt. eigenvalues --    0.68875   0.69439   0.70137   0.71401   0.71997
 Alpha virt. eigenvalues --    0.72461   0.72620   0.75767   0.76401   0.78103
 Alpha virt. eigenvalues --    0.78275   0.78834   0.79091   0.79515   0.79607
 Alpha virt. eigenvalues --    0.79874   0.80632   0.81093   0.81230   0.81546
 Alpha virt. eigenvalues --    0.81903   0.81926   0.82302   0.82781   0.82994
 Alpha virt. eigenvalues --    0.83578   0.84377   0.84746   0.85077   0.85357
 Alpha virt. eigenvalues --    0.85686   0.86052   0.86368   0.86969   0.87449
 Alpha virt. eigenvalues --    0.87595   0.87915   0.89508   0.90892   0.91624
 Alpha virt. eigenvalues --    0.92792   0.93869   0.94651   0.97070   0.97937
 Alpha virt. eigenvalues --    1.01534   1.02073   1.04441   1.07385   1.08264
 Alpha virt. eigenvalues --    1.10320   1.17980   1.18096   1.25569   1.26013
 Alpha virt. eigenvalues --    1.26872   1.27737   1.30781   1.30904   1.45482
 Alpha virt. eigenvalues --    1.46054   1.47830   1.48410   1.69157   1.69404
 Alpha virt. eigenvalues --    1.75419   1.75591   1.81020   1.81081   1.86910
 Alpha virt. eigenvalues --    1.87581   1.92200   1.93144   1.93706   1.94297
 Alpha virt. eigenvalues --    1.98200   1.98234   1.99452   2.00725   2.03763
 Alpha virt. eigenvalues --    2.04590   2.13129   2.13423   2.13735   2.13848
 Alpha virt. eigenvalues --    2.14682   2.16336   2.16910   2.17366   2.18039
 Alpha virt. eigenvalues --    2.20318   2.26514   2.26770   2.27047   2.27361
 Alpha virt. eigenvalues --    2.27405   2.27597   2.29972   2.30006   2.31166
 Alpha virt. eigenvalues --    2.31421   2.32912   2.33088   2.38194   2.38641
 Alpha virt. eigenvalues --    2.39454   2.39695   2.53059   2.53541   2.63831
 Alpha virt. eigenvalues --    2.64525   2.75092   2.75470   2.78452   2.78663
 Alpha virt. eigenvalues --    2.81155   2.81415   2.83309   2.83500
          Condensed to atoms (all electrons):
 Mulliken charges:
               1
     1  C   -0.325822
     2  C   -0.191245
     3  C   -0.276929
     4  C   -0.255224
     5  C   -0.275143
     6  C   -0.242307
     7  H    0.125528
     8  H    0.116684
     9  H    0.128243
    10  H    0.092971
    11  H    0.106972
    12  H    0.106853
    13  H    0.107600
    14  H    0.114382
    15  H    0.114922
    16  H    0.107798
    17  H    0.121868
    18  H    0.105937
    19  H    0.109310
    20  H    0.106907
    21  C   -0.326648
    22  C   -0.187201
    23  C   -0.279785
    24  C   -0.255554
    25  C   -0.242544
    26  C   -0.276055
    27  H    0.127341
    28  H    0.127346
    29  H    0.116508
    30  H    0.106007
    31  H    0.092963
    32  H    0.106899
    33  H    0.114480
    34  H    0.107506
    35  H    0.105819
    36  H    0.106806
    37  H    0.109586
    38  H    0.114794
    39  H    0.124729
    40  H    0.107703
 Sum of Mulliken charges =   0.00000
 Mulliken charges with hydrogens summed into heavy atoms:
               1
     1  C    0.044633
     2  C    0.008697
     3  C   -0.276929
     4  C    0.073610
     5  C    0.069444
     6  C    0.079847
    21  C    0.044546
    22  C    0.011770
    23  C   -0.279785
    24  C    0.073331
    25  C    0.079667
    26  C    0.071170
 Electronic spatial extent (au):  <R**2>=           3867.8201
 Charge=              0.0000 electrons
 Dipole moment (field-independent basis, Debye):
    X=             -0.0034    Y=             -0.0012    Z=             -0.0090  Tot=              0.0097
   1 Symmetry operations used in ECPInt.
 ECPInt:  NShTT=    8256 NPrTT=   33136 LenC2=    7965 LenP2D=   23183.
 LDataN:  DoStor=T MaxTD1= 5 Len=  102
 Calling FoFJK, ICntrl=      2127 FMM=F ISym2X=0 I1Cent= 0 IOpClX= 0 NMat=1 NMatS=1 NMatT=0.

 GradGradGradGradGradGradGradGradGradGradGradGradGradGradGradGradGradGrad
 FormGI is forming the generalized inverse of G from B-inverse, IUseBI=4.
 Internal  Forces:  Max     0.011514882 RMS     0.003836168
 Step number   1 out of a maximum of  240
 All quantities printed in internal units (Hartrees-Bohrs-Radians)
 Mixed Optimization -- RFO/linear search
 Second derivative matrix not updated -- first step.
 ITU=  0
     Eigenvalues ---    0.00257   0.00317   0.00333   0.00333   0.00351
     Eigenvalues ---    0.00364   0.00366   0.00418   0.00542   0.00698
     Eigenvalues ---    0.00833   0.01200   0.01369   0.01549   0.01711
     Eigenvalues ---    0.02048   0.02734   0.02883   0.03694   0.03870
     Eigenvalues ---    0.04097   0.04233   0.04345   0.04525   0.04672
     Eigenvalues ---    0.04741   0.04913   0.04981   0.05022   0.05027
     Eigenvalues ---    0.05129   0.05343   0.05533   0.05536   0.05564
     Eigenvalues ---    0.05565   0.05575   0.05575   0.05636   0.05640
     Eigenvalues ---    0.05641   0.05807   0.06046   0.06351   0.07055
     Eigenvalues ---    0.07496   0.07937   0.08394   0.09756   0.10343
     Eigenvalues ---    0.10932   0.11141   0.11244   0.11355   0.11440
     Eigenvalues ---    0.12242   0.12335   0.13199   0.13500   0.14167
     Eigenvalues ---    0.14323   0.14668   0.14818   0.16000   0.16000
     Eigenvalues ---    0.16000   0.16000   0.16000   0.16000   0.16000
     Eigenvalues ---    0.16000   0.16000   0.16000   0.16000   0.16000
     Eigenvalues ---    0.16142   0.26396   0.26853   0.27790   0.28292
     Eigenvalues ---    0.28414   0.29170   0.29172   0.29197   0.29391
     Eigenvalues ---    0.29404   0.30504   0.31263   0.32937   0.33962
     Eigenvalues ---    0.34446   0.34450   0.34574   0.34905   0.34958
     Eigenvalues ---    0.35038   0.35041   0.35043   0.35043   0.35044
     Eigenvalues ---    0.35046   0.35047   0.35048   0.35048   0.35049
     Eigenvalues ---    0.35063   0.35067   0.35149   0.35178   0.35180
     Eigenvalues ---    0.35181   0.35182   0.35201   0.35202
 Linear search not attempted -- first point.
 Iteration  1 RMS(Cart)=  0.02105739 RMS(Int)=  0.00012078
 Iteration  2 RMS(Cart)=  0.00014654 RMS(Int)=  0.00003196
 Iteration  3 RMS(Cart)=  0.00000003 RMS(Int)=  0.00003196
 Variable       Old X    -DE/DX   Delta X   Delta X   Delta X     New X
                                 (Linear)    (Quad)   (Total)
    R1        2.88180   0.00348   0.00000   0.01227   0.01226   2.89407
    R2        2.05743   0.01017   0.00000   0.02822   0.02822   2.08565
    R3        2.05349   0.01120   0.00000   0.03088   0.03088   2.08438
    R4        2.05430   0.01011   0.00000   0.02895   0.02896   2.08326
    R5        2.90885   0.00473   0.00000   0.01513   0.01513   2.92398
    R6        2.06584   0.00857   0.00000   0.02412   0.02412   2.08996
    R7        2.06441   0.00814   0.00000   0.02265   0.02263   2.08704
    R8        2.89168   0.00479   0.00000   0.01573   0.01573   2.90741
    R9        2.89161   0.00472   0.00000   0.01564   0.01562   2.90724
   R10        2.89649   0.00396   0.00000   0.01310   0.01310   2.90959
   R11        2.05605   0.01146   0.00000   0.03174   0.03174   2.08778
   R12        2.05603   0.01119   0.00000   0.03099   0.03099   2.08702
   R13        2.05387   0.01141   0.00000   0.03148   0.03148   2.08535
   R14        2.05380   0.01137   0.00000   0.03135   0.03135   2.08515
   R15        2.05608   0.01117   0.00000   0.03093   0.03093   2.08701
   R16        2.05523   0.01136   0.00000   0.03188   0.03189   2.08712
   R17        2.05605   0.01136   0.00000   0.03145   0.03145   2.08749
   R18        2.05598   0.01151   0.00000   0.03186   0.03186   2.08784
   R19        2.05566   0.01146   0.00000   0.03171   0.03171   2.08737
   R20        4.96150  -0.00014   0.00000  -0.00777  -0.00775   4.95374
   R21        4.71755   0.00079   0.00000  -0.00448  -0.00446   4.71308
   R22        4.70130  -0.00045   0.00000  -0.01327  -0.01329   4.68801
   R23        4.94678  -0.00053   0.00000  -0.01784  -0.01783   4.92895
   R24        2.88182   0.00401   0.00000   0.01362   0.01361   2.89543
   R25        2.05733   0.00962   0.00000   0.02728   0.02729   2.08462
   R26        2.05434   0.01098   0.00000   0.03030   0.03030   2.08464
   R27        2.05349   0.01120   0.00000   0.03088   0.03088   2.08437
   R28        2.90936   0.00425   0.00000   0.01461   0.01462   2.92398
   R29        2.06429   0.00906   0.00000   0.02396   0.02396   2.08825
   R30        2.06577   0.00859   0.00000   0.02417   0.02417   2.08995
   R31        2.89196   0.00479   0.00000   0.01571   0.01571   2.90766
   R32        2.89645   0.00397   0.00000   0.01313   0.01313   2.90958
   R33        2.89153   0.00408   0.00000   0.01454   0.01453   2.90606
   R34        2.05597   0.01149   0.00000   0.03182   0.03182   2.08779
   R35        2.05383   0.01142   0.00000   0.03151   0.03151   2.08534
   R36        2.05601   0.01120   0.00000   0.03100   0.03100   2.08700
   R37        2.05598   0.01139   0.00000   0.03153   0.03153   2.08751
   R38        2.05572   0.01144   0.00000   0.03167   0.03167   2.08739
   R39        2.05596   0.01151   0.00000   0.03188   0.03188   2.08783
   R40        2.05383   0.01134   0.00000   0.03128   0.03128   2.08511
   R41        2.05521   0.01089   0.00000   0.03125   0.03125   2.08646
   R42        2.05613   0.01117   0.00000   0.03093   0.03093   2.08706
    A1        1.91400   0.00156   0.00000   0.00930   0.00929   1.92329
    A2        1.94226   0.00123   0.00000   0.01133   0.01131   1.95357
    A3        1.94312  -0.00017   0.00000   0.00290   0.00288   1.94601
    A4        1.88221  -0.00093   0.00000  -0.00663  -0.00674   1.87547
    A5        1.88505  -0.00111   0.00000  -0.01084  -0.01086   1.87419
    A6        1.89527  -0.00068   0.00000  -0.00714  -0.00716   1.88810
    A7        2.02046   0.00205   0.00000   0.01889   0.01886   2.03932
    A8        1.89389   0.00019   0.00000   0.00552   0.00538   1.89927
    A9        1.89620  -0.00129   0.00000  -0.00747  -0.00748   1.88872
   A10        1.88974  -0.00071   0.00000  -0.00092  -0.00109   1.88865
   A11        1.88561   0.00003   0.00000  -0.00299  -0.00298   1.88263
   A12        1.87283  -0.00042   0.00000  -0.01568  -0.01567   1.85716
   A13        1.93582  -0.00021   0.00000  -0.00042  -0.00041   1.93541
   A14        1.93737  -0.00005   0.00000  -0.00213  -0.00215   1.93522
   A15        1.88102   0.00013   0.00000  -0.00028  -0.00028   1.88074
   A16        1.91142   0.00005   0.00000   0.00031   0.00032   1.91174
   A17        1.89970   0.00010   0.00000   0.00165   0.00164   1.90134
   A18        1.89754  -0.00001   0.00000   0.00096   0.00096   1.89850
   A19        1.93080   0.00107   0.00000   0.00620   0.00617   1.93697
   A20        1.92302   0.00109   0.00000   0.00620   0.00618   1.92919
   A21        1.93940   0.00191   0.00000   0.01148   0.01144   1.95084
   A22        1.89021  -0.00119   0.00000  -0.00749  -0.00750   1.88270
   A23        1.89459  -0.00153   0.00000  -0.00855  -0.00859   1.88600
   A24        1.88442  -0.00154   0.00000  -0.00887  -0.00890   1.87552
   A25        1.94021   0.00119   0.00000   0.01131   0.01129   1.95150
   A26        1.92187   0.00093   0.00000   0.00645   0.00643   1.92830
   A27        1.93000   0.00059   0.00000   0.00554   0.00549   1.93549
   A28        1.88397  -0.00085   0.00000  -0.00780  -0.00785   1.87611
   A29        1.89608  -0.00094   0.00000  -0.00910  -0.00912   1.88695
   A30        1.89033  -0.00103   0.00000  -0.00738  -0.00738   1.88295
   A31        1.93162   0.00103   0.00000   0.00585   0.00583   1.93745
   A32        1.93048   0.00087   0.00000   0.00485   0.00483   1.93531
   A33        1.93034   0.00126   0.00000   0.00781   0.00779   1.93813
   A34        1.89087  -0.00110   0.00000  -0.00727  -0.00728   1.88359
   A35        1.88971  -0.00113   0.00000  -0.00610  -0.00613   1.88358
   A36        1.88951  -0.00106   0.00000  -0.00591  -0.00593   1.88358
   A37        1.93276  -0.00106   0.00000  -0.00430  -0.00433   1.92843
   A38        2.14901  -0.00063   0.00000  -0.00329  -0.00333   2.14569
   A39        2.18646  -0.00136   0.00000  -0.00693  -0.00692   2.17954
   A40        1.06709   0.00103   0.00000   0.00586   0.00586   1.07296
   A41        1.91387   0.00137   0.00000   0.00815   0.00814   1.92201
   A42        1.94312   0.00076   0.00000   0.00762   0.00760   1.95073
   A43        1.94256   0.00119   0.00000   0.00999   0.01000   1.95256
   A44        1.88505  -0.00139   0.00000  -0.01086  -0.01089   1.87417
   A45        1.88193  -0.00124   0.00000  -0.00825  -0.00833   1.87361
   A46        1.89536  -0.00084   0.00000  -0.00790  -0.00799   1.88736
   A47        2.02037   0.00231   0.00000   0.01915   0.01913   2.03950
   A48        1.89581  -0.00075   0.00000  -0.00294  -0.00294   1.89286
   A49        1.89363   0.00006   0.00000   0.00517   0.00508   1.89871
   A50        1.88805  -0.00049   0.00000  -0.00631  -0.00634   1.88172
   A51        1.88840  -0.00074   0.00000  -0.00230  -0.00249   1.88591
   A52        1.87244  -0.00058   0.00000  -0.01540  -0.01541   1.85703
   A53        1.93509   0.00022   0.00000   0.00059   0.00059   1.93568
   A54        1.88138   0.00007   0.00000  -0.00086  -0.00086   1.88052
   A55        1.93952  -0.00066   0.00000  -0.00432  -0.00432   1.93520
   A56        1.89947  -0.00010   0.00000   0.00195   0.00195   1.90142
   A57        1.91010   0.00013   0.00000   0.00167   0.00167   1.91177
   A58        1.89731   0.00035   0.00000   0.00107   0.00106   1.89837
   A59        1.93100   0.00106   0.00000   0.00611   0.00608   1.93709
   A60        1.93943   0.00194   0.00000   0.01164   0.01160   1.95104
   A61        1.92299   0.00107   0.00000   0.00607   0.00605   1.92904
   A62        1.89461  -0.00153   0.00000  -0.00856  -0.00860   1.88601
   A63        1.89017  -0.00118   0.00000  -0.00747  -0.00748   1.88269
   A64        1.88421  -0.00153   0.00000  -0.00882  -0.00886   1.87535
   A65        1.93160   0.00102   0.00000   0.00579   0.00577   1.93737
   A66        1.93012   0.00129   0.00000   0.00797   0.00795   1.93807
   A67        1.93058   0.00085   0.00000   0.00475   0.00473   1.93531
   A68        1.88971  -0.00114   0.00000  -0.00619  -0.00622   1.88349
   A69        1.89052  -0.00108   0.00000  -0.00710  -0.00711   1.88341
   A70        1.89001  -0.00107   0.00000  -0.00598  -0.00600   1.88401
   A71        1.94033   0.00137   0.00000   0.01142   0.01141   1.95174
   A72        1.93104  -0.00027   0.00000   0.00135   0.00133   1.93237
   A73        1.92148   0.00121   0.00000   0.00791   0.00790   1.92938
   A74        1.89639  -0.00097   0.00000  -0.00905  -0.00906   1.88733
   A75        1.88379  -0.00094   0.00000  -0.00700  -0.00709   1.87670
   A76        1.88937  -0.00049   0.00000  -0.00546  -0.00546   1.88391
   A77        2.00621  -0.00076   0.00000  -0.00297  -0.00294   2.00327
   A78        1.01602   0.00237   0.00000   0.00936   0.00936   1.02538
   A79        2.15775  -0.00087   0.00000  -0.00606  -0.00608   2.15166
   A80        2.28862  -0.00034   0.00000  -0.00112  -0.00115   2.28746
   A81        3.07579  -0.00025   0.00000  -0.00692  -0.00693   3.06886
   A82        3.17377   0.00150   0.00000   0.00330   0.00327   3.17704
   A83        2.98873  -0.00099   0.00000  -0.01382  -0.01382   2.97491
   A84        3.29990   0.00011   0.00000   0.00949   0.00950   3.30940
    D1        3.13197   0.00035   0.00000   0.00741   0.00748   3.13944
    D2        1.00402  -0.00029   0.00000  -0.00881  -0.00884   0.99518
    D3       -1.02688   0.00081   0.00000   0.01082   0.01083  -1.01605
    D4        1.05091  -0.00027   0.00000   0.00253   0.00257   1.05348
    D5       -1.07704  -0.00091   0.00000  -0.01369  -0.01374  -1.09079
    D6       -3.10794   0.00019   0.00000   0.00595   0.00593  -3.10201
    D7       -1.06609  -0.00013   0.00000   0.00179   0.00182  -1.06427
    D8        3.08915  -0.00077   0.00000  -0.01443  -0.01449   3.07465
    D9        1.05825   0.00033   0.00000   0.00520   0.00518   1.06343
   D10       -0.91509  -0.00038   0.00000   0.00378   0.00378  -0.91131
   D11        1.18717   0.00072   0.00000   0.01002   0.00996   1.19713
   D12       -3.05929  -0.00134   0.00000  -0.00747  -0.00741  -3.06670
   D13       -1.09555  -0.00036   0.00000  -0.00709  -0.00709  -1.10264
   D14        1.03362  -0.00047   0.00000  -0.00844  -0.00844   1.02517
   D15        3.10976  -0.00044   0.00000  -0.00868  -0.00868   3.10107
   D16        1.03461   0.00075   0.00000   0.01249   0.01249   1.04710
   D17       -3.11941   0.00064   0.00000   0.01114   0.01114  -3.10827
   D18       -1.04327   0.00067   0.00000   0.01090   0.01090  -1.03237
   D19        3.05765  -0.00010   0.00000  -0.00799  -0.00798   3.04967
   D20       -1.09637  -0.00022   0.00000  -0.00935  -0.00933  -1.10570
   D21        0.97977  -0.00018   0.00000  -0.00958  -0.00957   0.97021
   D22       -0.58674  -0.00097   0.00000  -0.01324  -0.01319  -0.59993
   D23        0.73721  -0.00064   0.00000  -0.01079  -0.01075   0.72647
   D24        1.61799   0.00074   0.00000   0.00336   0.00335   1.62134
   D25        2.94194   0.00108   0.00000   0.00581   0.00579   2.94774
   D26       -2.63114  -0.00029   0.00000  -0.00739  -0.00741  -2.63855
   D27       -1.30719   0.00004   0.00000  -0.00494  -0.00496  -1.31215
   D28       -0.95390  -0.00022   0.00000  -0.00745  -0.00746  -0.96137
   D29       -3.04346  -0.00013   0.00000  -0.00608  -0.00608  -3.04954
   D30        1.15188  -0.00015   0.00000  -0.00643  -0.00643   1.14545
   D31       -3.09815  -0.00005   0.00000  -0.00470  -0.00470  -3.10285
   D32        1.09548   0.00004   0.00000  -0.00333  -0.00331   1.09216
   D33       -0.99237   0.00002   0.00000  -0.00368  -0.00367  -0.99604
   D34        1.11270  -0.00013   0.00000  -0.00702  -0.00703   1.10567
   D35       -0.97686  -0.00004   0.00000  -0.00565  -0.00564  -0.98251
   D36       -3.06471  -0.00006   0.00000  -0.00600  -0.00600  -3.07071
   D37       -1.17013   0.00050   0.00000   0.00748   0.00749  -1.16264
   D38        3.02600   0.00020   0.00000   0.00576   0.00575   3.03175
   D39        0.93753   0.00051   0.00000   0.00728   0.00728   0.94482
   D40        0.97320   0.00023   0.00000   0.00575   0.00576   0.97895
   D41       -1.11386  -0.00007   0.00000   0.00403   0.00402  -1.10984
   D42        3.08086   0.00024   0.00000   0.00554   0.00555   3.08641
   D43        3.04688   0.00038   0.00000   0.00850   0.00850   3.05538
   D44        0.95982   0.00008   0.00000   0.00678   0.00677   0.96659
   D45       -1.12865   0.00039   0.00000   0.00829   0.00830  -1.12035
   D46        1.03376  -0.00010   0.00000   0.00108   0.00108   1.03484
   D47       -1.06199   0.00004   0.00000   0.00319   0.00321  -1.05879
   D48        3.12797  -0.00001   0.00000   0.00235   0.00236   3.13033
   D49       -1.06701   0.00002   0.00000   0.00080   0.00080  -1.06621
   D50        3.12043   0.00016   0.00000   0.00292   0.00292   3.12335
   D51        1.02720   0.00011   0.00000   0.00208   0.00208   1.02928
   D52        3.13515  -0.00009   0.00000  -0.00109  -0.00110   3.13404
   D53        1.03940   0.00005   0.00000   0.00102   0.00102   1.04041
   D54       -1.05383  -0.00001   0.00000   0.00018   0.00017  -1.05365
   D55       -0.77197   0.00003   0.00000  -0.00482  -0.00478  -0.77675
   D56        1.37066   0.00148   0.00000   0.00781   0.00779   1.37845
   D57       -2.82113  -0.00067   0.00000  -0.00741  -0.00739  -2.82852
   D58        0.48011  -0.00076   0.00000  -0.01003  -0.01002   0.47009
   D59        0.16223   0.00006   0.00000   0.01084   0.01087   0.17309
   D60       -3.13767  -0.00005   0.00000   0.00135   0.00137  -3.13630
   D61       -1.85054   0.00107   0.00000   0.01568   0.01568  -1.83486
   D62        1.13275   0.00096   0.00000   0.00619   0.00618   1.13893
   D63       -3.01155  -0.00031   0.00000   0.00422   0.00426  -3.00728
   D64       -1.05686  -0.00013   0.00000   0.00537   0.00534  -1.05152
   D65       -3.12024  -0.00020   0.00000  -0.00153  -0.00156  -3.12180
   D66        1.03577  -0.00058   0.00000  -0.00431  -0.00433   1.03144
   D67       -0.99431   0.00048   0.00000   0.01273   0.01278  -0.98153
   D68        1.07789   0.00017   0.00000   0.00188   0.00186   1.07975
   D69       -1.04928  -0.00021   0.00000  -0.00090  -0.00091  -1.05019
   D70       -3.07936   0.00084   0.00000   0.01615   0.01619  -3.06316
   D71       -1.03943  -0.00011   0.00000  -0.00025  -0.00026  -1.03969
   D72        3.11659  -0.00050   0.00000  -0.00303  -0.00303   3.11356
   D73        1.08651   0.00056   0.00000   0.01402   0.01407   1.10058
   D74       -1.02978   0.00044   0.00000   0.00586   0.00590  -1.02388
   D75        1.09054   0.00133   0.00000   0.01333   0.01327   1.10382
   D76        3.13568  -0.00105   0.00000  -0.00607  -0.00597   3.12971
   D77        1.09670   0.00035   0.00000   0.00415   0.00416   1.10086
   D78       -3.10909   0.00040   0.00000   0.00633   0.00634  -3.10275
   D79       -1.03176   0.00048   0.00000   0.00460   0.00461  -1.02716
   D80       -3.05518   0.00058   0.00000   0.00863   0.00860  -3.04659
   D81       -0.97779   0.00063   0.00000   0.01081   0.01078  -0.96701
   D82        1.09954   0.00071   0.00000   0.00908   0.00904   1.10858
   D83       -1.03202  -0.00074   0.00000  -0.01401  -0.01400  -1.04602
   D84        1.04537  -0.00069   0.00000  -0.01182  -0.01182   1.03356
   D85        3.12270  -0.00061   0.00000  -0.01356  -0.01355   3.10915
   D86        0.72782   0.00098   0.00000   0.00816   0.00813   0.73595
   D87       -1.47816  -0.00108   0.00000  -0.00953  -0.00950  -1.48766
   D88        2.77149   0.00034   0.00000   0.00443   0.00441   2.77590
   D89        0.95068   0.00038   0.00000   0.00747   0.00748   0.95816
   D90       -1.15529   0.00031   0.00000   0.00641   0.00641  -1.14888
   D91        3.04030   0.00028   0.00000   0.00599   0.00598   3.04629
   D92       -1.11578   0.00023   0.00000   0.00697   0.00697  -1.10881
   D93        3.06143   0.00016   0.00000   0.00591   0.00590   3.06734
   D94        0.97384   0.00013   0.00000   0.00549   0.00548   0.97932
   D95        3.09625  -0.00021   0.00000   0.00355   0.00356   3.09981
   D96        0.99028  -0.00028   0.00000   0.00249   0.00249   0.99277
   D97       -1.09731  -0.00031   0.00000   0.00207   0.00207  -1.09525
   D98       -1.03911  -0.00020   0.00000  -0.00156  -0.00155  -1.04067
   D99       -3.13317  -0.00028   0.00000  -0.00278  -0.00278  -3.13595
   D100       1.05625  -0.00034   0.00000  -0.00357  -0.00357   1.05268
   D101       1.06085   0.00005   0.00000  -0.00024  -0.00023   1.06062
   D102      -1.03320  -0.00003   0.00000  -0.00146  -0.00146  -1.03466
   D103      -3.12697  -0.00009   0.00000  -0.00225  -0.00225  -3.12922
   D104       3.14002   0.00035   0.00000   0.00352   0.00353  -3.13964
   D105       1.04597   0.00027   0.00000   0.00230   0.00230   1.04826
   D106      -1.04780   0.00022   0.00000   0.00151   0.00150  -1.04629
   D107       1.15261  -0.00035   0.00000  -0.00475  -0.00477   1.14784
   D108      -0.95623   0.00013   0.00000  -0.00187  -0.00187  -0.95810
   D109      -3.04392   0.00013   0.00000  -0.00102  -0.00100  -3.04492
   D110      -0.99033  -0.00028   0.00000  -0.00375  -0.00377  -0.99410
   D111      -3.09917   0.00020   0.00000  -0.00087  -0.00087  -3.10004
   D112       1.09633   0.00020   0.00000  -0.00002  -0.00000   1.09632
   D113      -3.06282  -0.00045   0.00000  -0.00770  -0.00772  -3.07055
   D114       1.11152   0.00004   0.00000  -0.00482  -0.00482   1.10670
   D115      -0.97617   0.00004   0.00000  -0.00397  -0.00396  -0.98013
   D116       1.27196  -0.00044   0.00000  -0.00671  -0.00671   1.26525
   D117      -0.86279  -0.00134   0.00000  -0.01581  -0.01576  -0.87855
   D118      -2.90433   0.00057   0.00000   0.00038   0.00033  -2.90400
         Item               Value     Threshold  Converged?
 Maximum Force            0.011515     0.000015     NO 
 RMS     Force            0.003836     0.000010     NO 
 Maximum Displacement     0.082352     0.000060     NO 
 RMS     Displacement     0.021076     0.000040     NO 
 GradGradGradGradGradGradGradGradGradGradGradGradGradGradGradGradGradGrad

                    Distance matrix (angstroms):
                    1          2          3          4          5
     1  C    0.000000
     2  C    1.531475   0.000000
     3  C    2.622915   1.547302   0.000000
     4  C    3.151310   2.541452   1.538533   0.000000
     5  C    3.108558   2.541216   1.538443   2.513326   0.000000
     6  C    3.918819   2.493606   1.539689   2.505076   2.502457
     7  H    1.103677   2.174993   3.557714   4.131741   4.103543
     8  H    1.103005   2.196333   2.921759   2.870849   3.510714
     9  H    1.102414   2.190471   2.919416   3.581759   2.818239
    10  H    2.159019   1.105957   2.164925   2.760554   3.485408
    11  H    2.150022   1.104417   2.159271   3.479678   2.782501
    12  H    3.446375   2.761547   2.192004   1.104807   3.485777
    13  H    4.184223   3.503670   2.186056   1.104405   2.783143
    14  H    2.891122   2.857534   2.201016   1.103522   2.756787
    15  H    2.854829   2.865899   2.201331   2.749611   1.103415
    16  H    4.154945   3.502309   2.185322   2.790837   1.104399
    17  H    3.364564   2.752485   2.190588   3.484487   1.104457
    18  H    4.202219   2.734884   2.193257   2.767604   3.478254
    19  H    4.185430   2.744614   2.191842   3.479387   2.750402
    20  H    4.786521   3.474505   2.193699   2.750768   2.758997
    21  C    4.881473   4.295689   4.684862   6.208710   4.277000
    22  C    4.224605   4.137904   4.816610   6.224935   4.340968
    23  C    4.635161   4.733899   5.765091   7.102638   5.572962
    24  C    6.166475   6.161458   7.108209   8.513063   6.839782
    25  C    4.554899   5.133611   6.252994   7.399091   5.993856
    26  C    4.316549   4.211415   5.453146   6.734487   5.678804
    27  H    5.009294   4.350123   4.370852   5.866151   3.701261
    28  H    4.605297   3.771111   4.252802   5.778902   4.207424
    29  H    5.939833   5.355508   5.745485   7.277548   5.321802
    30  H    3.179682   3.230405   3.934112   5.257713   3.482810
    31  H    4.893449   4.969381   5.486140   6.840541   4.732919
    32  H    6.663881   6.746077   7.560340   8.962799   7.073280
    33  H    6.575774   6.312896   7.163224   8.633352   6.957915
    34  H    6.690094   6.792353   7.881230   9.231647   7.727246
    35  H    5.174330   5.814508   6.765673   7.905636   6.264892
    36  H    5.226680   5.855271   7.101887   8.197090   6.980597
    37  H    3.612621   4.413356   5.574144   6.581749   5.386737
    38  H    4.863785   4.407436   5.505873   6.866273   5.807833
    39  H    3.292780   3.241529   4.602075   5.779492   4.986215
    40  H    4.968885   5.020649   6.372043   7.560604   6.683679
                    6          7          8          9         10
     6  C    0.000000
     7  H    4.668007   0.000000
     8  H    4.314753   1.779072   0.000000
     9  H    4.285199   1.777761   1.786260   0.000000
    10  H    2.693623   2.477483   2.538613   3.089512   0.000000
    11  H    2.657541   2.475102   3.087169   2.511698   1.770003
    12  H    2.785836   4.241202   3.065075   4.144993   2.520989
    13  H    2.720782   5.199826   3.907773   4.472241   3.745741
    14  H    3.484149   3.902191   2.329102   3.198222   3.208296
    15  H    3.481854   3.884414   3.096156   2.314310   3.862208
    16  H    2.709350   5.179076   4.422407   3.871397   4.323950
    17  H    2.788349   4.179057   4.044459   2.937793   3.760302
    18  H    1.104654   4.806944   4.501910   4.804643   2.464791
    19  H    1.104838   4.799650   4.816028   4.431444   3.061609
    20  H    1.104589   5.634296   5.064117   5.042874   3.712516
    21  C    4.673778   5.012266   5.940827   4.544567   5.012786
    22  C    5.257666   4.199770   5.293160   3.718161   4.947882
    23  C    6.214967   4.226851   5.701280   4.317401   5.323553
    24  C    7.375695   5.746079   7.237923   5.825337   6.709260
    25  C    7.013701   4.015657   5.489083   4.109744   5.759278
    26  C    5.754258   3.735947   5.358274   4.379068   4.502756
    27  H    4.326937   5.366547   5.986137   4.573470   5.174104
    28  H    4.036637   4.697927   5.651678   4.521143   4.302685
    29  H    5.598318   5.986594   7.012795   5.596785   6.006146
    30  H    4.618983   3.282146   4.224868   2.621409   4.133655
    31  H    6.011393   4.938055   5.896601   4.182311   5.871821
    32  H    7.895273   6.340175   7.714903   6.154815   7.416272
    33  H    7.197117   6.224999   7.672939   6.320590   6.795614
    34  H    8.181481   6.109169   7.725413   6.429738   7.233804
    35  H    7.578441   4.782758   6.063964   4.526247   6.561426
    36  H    7.835543   4.501935   6.102002   4.922439   6.336304
    37  H    6.507979   3.060521   4.474433   3.174069   5.049457
    38  H    5.504308   4.416314   5.912995   5.004418   4.604181
    39  H    5.049702   2.685665   4.306207   3.510807   3.493212
    40  H    6.701576   4.195091   5.931384   5.105733   5.170224
                   11         12         13         14         15
    11  H    0.000000
    12  H    3.748105   0.000000
    13  H    4.317533   1.785827   0.000000
    14  H    3.865527   1.787254   1.780105   0.000000
    15  H    3.257051   3.768177   3.112735   2.531545   0.000000
    16  H    3.753290   3.811022   2.605214   3.136759   1.780405
    17  H    2.540022   4.347235   3.808422   3.768260   1.787502
    18  H    2.994146   2.590909   3.075505   3.803987   4.353571
    19  H    2.437770   3.803291   3.743428   4.352930   3.792839
    20  H    3.689006   3.143021   2.501110   3.757123   3.758391
    21  C    3.274306   6.745010   6.725653   6.579605   4.791576
    22  C    3.235157   6.786660   6.891058   6.349552   4.511512
    23  C    3.833042   7.493501   7.907202   7.184052   5.675889
    24  C    5.183314   8.909619   9.261135   8.653377   7.011585
    25  C    4.480772   7.811564   8.271590   7.251058   5.810839
    26  C    3.312371   6.907175   7.617215   6.930946   5.915298
    27  H    3.471826   6.529378   6.228276   6.257554   4.281369
    28  H    2.693510   6.165624   6.337533   6.275271   4.863118
    29  H    4.303344   7.792523   7.759421   7.676219   5.846992
    30  H    2.494057   5.844816   5.972610   5.300045   3.540786
    31  H    4.167234   7.515522   7.431678   6.867930   4.761873
    32  H    5.801739   9.469000   9.651272   9.041563   7.167591
    33  H    5.254983   8.996767   9.320673   8.908472   7.294018
    34  H    5.858087   9.546415  10.046880   9.335193   7.851062
    35  H    5.186783   8.435777   8.706078   7.691141   5.988969
    36  H    5.226599   8.507614   9.125334   8.037166   6.795399
    37  H    3.954071   6.980626   7.495837   6.339320   5.090229
    38  H    3.400492   6.996867   7.671409   7.228417   6.235886
    39  H    2.480788   5.904586   6.717823   5.940707   5.179360
    40  H    4.227512   7.639557   8.498817   7.705142   6.853727
                   16         17         18         19         20
    16  H    0.000000
    17  H    1.785699   0.000000
    18  H    3.740640   3.798333   0.000000
    19  H    3.039599   2.578257   1.786630   0.000000
    20  H    2.501170   3.166232   1.786420   1.786572   0.000000
    21  C    4.917607   3.229848   5.330321   3.757155   5.328431
    22  C    5.180332   3.398741   5.902240   4.559768   6.016025
    23  C    6.511326   4.743395   6.654780   5.538204   7.108865
    24  C    7.686845   5.901721   7.816967   6.561279   8.215196
    25  C    6.994705   5.320453   7.462866   6.517377   7.914897
    26  C    6.662041   4.993333   5.949229   5.126399   6.762172
    27  H    4.156661   2.608289   5.151224   3.444811   4.789782
    28  H    4.880709   3.294189   4.527676   3.076592   4.796584
    29  H    5.881343   4.251992   6.211452   4.603631   6.198808
    30  H    4.426516   2.692374   5.279179   4.113413   5.403777
    31  H    5.472564   3.769462   6.763229   5.337079   6.656142
    32  H    7.855259   6.093675   8.454112   7.079264   8.652295
    33  H    7.727436   5.972718   7.602904   6.281110   7.998146
    34  H    8.627692   6.845372   8.526764   7.404072   9.080424
    35  H    7.192452   5.548071   8.145745   7.068384   8.392187
    36  H    8.008900   6.344627   8.177553   7.345194   8.790236
    37  H    6.433913   4.881552   6.936335   6.170834   7.418336
    38  H    6.697570   5.067010   5.642588   4.745004   6.479972
    39  H    6.019743   4.470523   5.195629   4.593278   6.099585
    40  H    7.695556   6.051343   6.790085   6.121380   7.742043
                   21         22         23         24         25
    21  C    0.000000
    22  C    1.532194   0.000000
[...]
 0001039,-0.00000962,0.00000674,-0.00000631,-0.00000355,0.00001267,0.00
 001287,-0.00000403,0.00000598,0.00000463,-0.00127618,-0.00025757,0.001
 18352,0.00029841,-0.00445547,-0.00436574,-0.01827356,-0.01551246,0.012
 72661,-0.00129394,0.00061591,0.00105228,-0.10735674,-0.14058780,0.0653
 4960,0.00029836,0.00063873,0.00140239,-0.00019056,-0.00053627,-0.00026
 374,-0.00005510,-0.00003244,-0.00013343,0.00009001,-0.00002635,-0.0000
 0060,-0.00004675,0.00025975,-0.00007981,0.00027108,0.00020754,-0.00016
 764,0.00001531,-0.00004165,-0.00002015,0.00017219,0.00046936,-0.000089
 24,0.00096227,-0.00025478,-0.00058067,-0.00412330,-0.00391608,0.001423
 60,0.11875097,0.15160365,-0.00000148,-0.00000365,-0.00003603,0.0000094
 8,-0.00001622,-0.00000205,-0.00000947,-0.00000175,-0.00000072,0.000001
 92,0.00000469,-0.00000019,0.00001127,-0.00000431,0.00000035,0.00001053
 ,-0.00000445,-0.00000224,-0.00000217,0.00002064,-0.00001032,0.00002241
 ,0.00000294,0.00000980,-0.00001966,-0.00000641,0.00002452,0.00000040,0
 .00000946,0.00000851,-0.00000186,-0.00001144,0.00000223,0.00000027,-0.
 00000179,0.00000348,0.00000428,0.00000289,-0.00000213,-0.00000462,0.00
 000194,0.00000133,-0.00001763,0.00001185,0.00000808,0.00000618,0.00000
 613,0.00000066,0.00000276,-0.00001708,-0.00001146,-0.00000254,0.000001
 30,0.00000352,-0.00000176,-0.00000204,0.00000252,0.00000303,0.00000465
 ,-0.00000195,-0.00056425,-0.00066286,0.00094106,-0.00028822,-0.0022880
 1,-0.00187864,-0.01284463,-0.01039304,0.00665008,-0.00068555,0.0002139
 8,0.00047939,0.07712196,0.06685079,-0.09504883,-0.00088137,-0.00082511
 ,0.00124314,-0.00011930,-0.00030210,-0.00012216,0.00003846,0.00015442,
 0.00004747,0.00003761,0.00004103,0.00001863,-0.00004343,-0.00004916,-0
 .00024161,0.00006650,-0.00034299,0.00031648,0.00016114,0.00006780,-0.0
 0008723,-0.00022009,0.00014382,-0.00000270,0.00018298,0.00010498,0.000
 09597,0.02114928,0.01580631,-0.00952903,-0.08297920,-0.06870024,0.0983
 2493,-0.00036059,0.00006603,-0.00012824,0.00004836,0.00001421,0.000039
 09,0.00001973,-0.00000773,-0.00000142,0.00000207,0.00000215,0.00000346
 ,-0.00001015,0.00003444,0.00000285,-0.00001434,0.00000916,0.00000296,0
 .00002852,-0.00001117,0.00010572,-0.00003960,0.00000647,0.00001199,-0.
 00009699,-0.00003046,-0.00002058,0.00000164,0.00000513,0.00000247,0.00
 000894,0.00000656,-0.00000063,0.00000232,0.00000101,0.00000106,-0.0000
 0110,-0.00000282,0.00000012,0.00000465,-0.00000598,-0.00000564,0.00002
 144,-0.00000816,-0.00001287,0.00000048,-0.00000544,0.00000287,0.000003
 51,0.00000911,0.00000434,0.00000090,-0.00000177,-0.00000096,0.00000428
 ,-0.00000550,-0.00000192,-0.00000085,-0.00000388,-0.00000160,0.0002973
 5,0.00004002,-0.00005638,0.00075021,-0.00101165,-0.00028680,0.00274286
 ,-0.00296218,-0.00041538,0.00083518,-0.00005343,0.00033651,-0.24573789
 ,0.11592974,0.01306261,0.00054026,-0.00042700,-0.00015233,0.00004148,0
 .00006844,0.00002245,-0.00000896,0.00001524,0.00002709,0.00001727,-0.0
 0011938,-0.00003424,0.00013357,-0.00009123,-0.00024522,-0.00007929,0.0
 0001262,0.00011569,0.00003865,-0.00022536,-0.00002145,0.00016290,0.000
 04351,-0.00003949,0.00029778,-0.00011780,-0.00026379,-0.00577715,0.002
 57298,0.00161857,-0.01542654,0.01125479,-0.00041605,0.26110460,0.00014
 031,-0.00005890,-0.00025199,-0.00001479,-0.00007076,0.00002498,-0.0000
 2221,-0.00001801,0.00000785,0.00000844,0.00001346,-0.00000688,0.000018
 08,0.00001895,-0.00001355,0.00001995,-0.00000566,-0.00000779,-0.000034
 89,0.00006355,-0.00001893,0.00011684,0.00001043,0.00009149,-0.00009935
 ,0.00000346,0.00019968,0.00004141,0.00002595,0.00003488,-0.00001736,-0
 .00003028,-0.00004774,0.00000031,-0.00000527,0.00000786,0.00001222,0.0
 0000797,-0.00000445,-0.00001245,0.00000552,0.00000697,-0.00003084,0.00
 001036,0.00002459,0.00002638,0.00001401,0.00000789,-0.00000128,-0.0000
 4570,-0.00000742,0.00000124,-0.00000118,0.00000930,-0.00000536,-0.0000
 0241,-0.00000257,0.00000837,0.00001237,-0.00000222,-0.00036182,0.00026
 648,0.00003156,0.00193859,0.00057585,-0.00014972,0.02361675,-0.0132235
 5,-0.00010679,-0.00211104,-0.00451229,-0.00339908,0.11407636,-0.115257
 15,-0.00689381,0.00047024,0.00077341,0.00129107,-0.00002445,-0.0000133
 7,0.00000146,0.00003039,-0.00000194,-0.00000078,0.00005738,0.00026876,
 0.00008289,-0.00120408,-0.00050140,0.00011303,-0.00002638,0.00001014,-
 0.00001840,-0.00031316,0.00017982,0.00008130,0.00162869,-0.00080497,-0
 .00039523,0.00002351,0.00023478,-0.00011531,0.00478344,-0.00361963,-0.
 00126795,-0.01691574,0.01118945,0.00002234,-0.12497211,0.12408642,-0.0
 0005656,-0.00017476,0.00028342,0.00003641,0.00002783,-0.00013732,-0.00
 000331,-0.00002488,0.00006314,0.00000866,0.00002262,-0.00002217,0.0000
 1153,0.00001094,0.00000803,0.00001521,0.00001400,-0.00002956,-0.000026
 98,0.00012011,-0.00016533,0.00006835,0.00005135,-0.00003873,-0.0000121
 6,0.00003501,-0.00003005,-0.00001075,-0.00001330,-0.00000868,-0.000015
 98,-0.00003875,0.00001753,-0.00000874,-0.00000022,-0.00000471,0.000013
 35,0.00000392,-0.00000142,-0.00000543,-0.00000374,0.00000888,0.0000166
 2,-0.00001504,-0.00000096,-0.00000425,0.00000445,-0.00001348,-0.000004
 08,0.00001414,0.00001219,-0.00000643,-0.00000461,-0.00000642,-0.000001
 61,-0.00000290,0.00000610,0.00000815,0.00001245,0.00000258,0.00002327,
 0.00007181,-0.00011345,0.00034430,0.00088685,0.00006624,0.01595605,-0.
 00817544,-0.00180029,-0.00095829,-0.00299086,-0.00208089,0.01202045,-0
 .00633464,-0.04970252,0.00132226,-0.00031051,0.00072807,-0.00002048,0.
 00002687,0.00000261,-0.00001562,-0.00003610,-0.00002945,0.00001489,0.0
 0006049,-0.00000652,-0.00014255,0.00019096,0.00041731,-0.00016029,0.00
 004417,-0.00002265,0.00013383,-0.00020478,0.00023806,0.00094580,-0.000
 84767,0.00032613,-0.00035654,0.00007769,0.00000325,-0.02562612,0.01435
 925,0.00431149,0.01083695,-0.00797940,-0.00090801,-0.01374248,0.010959
 70,0.04878017,0.00004884,0.00020818,-0.00010815,-0.00010235,0.00021519
 ,0.00003640,0.00004233,-0.00007681,-0.00002397,0.00000568,0.00002135,-
 0.00000981,-0.00000966,0.00001108,0.00000620,-0.00004169,0.00001913,0.
 00001081,0.00000400,-0.00018645,0.00009598,-0.00009960,-0.00008679,0.0
 0003192,0.00002509,-0.00001802,-0.00004204,-0.00002819,0.00000426,-0.0
 0002230,0.00014864,-0.00001604,0.00006969,-0.00000136,0.00000263,0.000
 00311,0.00001032,-0.00000724,-0.00000532,0.00000968,-0.00001323,-0.000
 01378,0.00000471,-0.00000805,-0.00001888,0.00000365,-0.00000269,-0.000
 00631,0.00000572,-0.00000166,0.00000811,-0.00001659,0.00000056,-0.0000
 0492,0.00002084,-0.00003099,0.00001635,0.00001735,-0.00001217,-0.00001
 770,0.00017798,-0.00039617,0.00075193,-0.00011627,0.00031171,0.0005479
 6,-0.00218280,-0.00817980,-0.00494643,0.00031068,-0.00115818,-0.000439
 00,-0.00065292,0.00091274,-0.00207566,-0.05063609,-0.01620637,-0.01211
 107,-0.00010315,0.00008983,-0.00009883,-0.00070473,-0.00102932,0.00064
 526,-0.00006589,0.00012828,-0.00011910,0.00002326,0.00000078,0.0000352
 7,-0.00001679,-0.00009827,-0.00007476,0.00007693,0.00005453,0.00026376
 ,-0.00017310,0.00053418,-0.00023208,-0.00006021,-0.00011096,-0.0000242
 6,0.00043289,-0.00055373,-0.00055754,0.00016399,0.00034488,0.00012674,
 0.00020075,-0.00023199,-0.00012251,0.04916987,-0.00004255,-0.00012615,
 0.00008242,0.00001920,-0.00008152,-0.00006364,-0.00001509,0.00002352,0
 .00002549,0.00000045,-0.00000135,-0.00000081,-0.00000387,0.00000446,-0
 .00000238,0.00001893,-0.00000196,-0.00001909,-0.00001812,0.00013135,-0
 .00008679,0.00006842,0.00004999,-0.00001139,-0.00002091,0.00000911,0.0
 0005528,0.00005791,-0.00001622,0.00003430,-0.00001023,-0.00003898,-0.0
 0008209,0.00000357,-0.00000577,0.00000412,0.00000139,0.00000620,0.0000
 0038,-0.00001023,0.00001009,0.00001152,-0.00000815,0.00000755,0.000019
 86,0.00000906,0.00000408,0.00000382,-0.00000065,-0.00001453,-0.0000051
 1,0.00001926,-0.00000518,0.00001210,-0.00000781,0.00001058,-0.00001463
 ,-0.00000449,0.00001228,0.00001174,-0.00103122,-0.00072705,0.00050301,
 -0.00050247,0.00014821,-0.00044260,0.00122979,0.00787083,0.00538181,0.
 00003223,0.00088149,0.00053837,0.00025784,0.00032586,0.00101848,-0.016
 38298,-0.22148802,-0.12808061,0.00013984,0.00001321,0.00027329,-0.0007
 5410,-0.00111985,0.00133698,0.00008449,-0.00005334,-0.00005288,-0.0000
 7025,-0.00004966,0.00007242,0.00016592,0.00011048,-0.00016664,-0.00013
 717,0.00020447,0.00000647,-0.00012399,0.00014083,-0.00001228,0.0000264
 3,-0.00011237,-0.00011014,0.00005439,0.00044027,0.00021220,0.00026812,
 0.00015872,0.00015972,-0.00010918,0.00004155,0.00024008,0.01910750,0.2
 3624981,-0.00005120,0.00000827,-0.00001308,0.00010003,-0.00008898,-0.0
 0002067,-0.00002600,0.00003074,-0.00000237,-0.00000074,-0.00000956,0.0
 0000934,0.00002983,-0.00001466,-0.00000484,0.00004791,-0.00003299,-0.0
 0000088,0.00001394,0.00003379,-0.00004010,0.00001511,0.00003065,0.0000
 2627,-0.00002111,-0.00001018,0.00004393,-0.00000466,0.00001688,0.00000
 864,-0.00000849,-0.00003083,-0.00002602,-0.00000127,-0.00000015,-0.000
 00387,-0.00000725,0.00000137,0.00000255,-0.00000594,0.00001168,0.00000
 735,-0.00001860,0.00001967,0.00001319,-0.00000218,0.00000118,0.0000037
 8,-0.00000749,-0.00001240,-0.00001961,-0.00000243,0.00000784,-0.000000
 48,-0.00001197,0.00002454,0.00000038,-0.00001508,0.00000789,0.00000781
 ,-0.00013177,0.00032917,-0.00041843,-0.00029308,-0.00113002,0.00044608
 ,-0.00165015,-0.02532618,-0.01540358,0.00114671,-0.00106048,0.00096164
 ,-0.00191720,0.00331853,-0.00553666,-0.01245055,-0.12618345,-0.1413658
 1,0.00008981,0.00000018,0.00047612,0.00107512,0.00094868,0.00007868,0.
 00000313,0.00011301,-0.00003871,-0.00006552,0.00009531,-0.00001898,-0.
 00008267,0.00011171,0.00018149,0.00030794,0.00020252,0.00020107,-0.000
 61237,0.00071597,0.00025096,-0.00002263,0.00011431,-0.00002334,-0.0004
 4777,-0.00160569,-0.00117874,-0.00014889,0.00004310,0.00022122,0.00014
 441,0.00025607,0.00020502,0.01504012,0.13666830,0.15254385,-0.00064349
 ,-0.00011380,0.00013000,-0.00074732,0.00008295,0.00039024,0.00000310,-
 0.00000609,-0.00001334,-0.00002363,-0.00000987,0.00000939,-0.00000202,
 0.00002196,-0.00000285,0.00000095,0.00001321,0.00000421,-0.00012726,0.
 00041821,0.00021783,-0.00002409,-0.00001095,-0.00007750,0.00014718,-0.
 00000030,-0.00003335,0.00005294,0.00000547,-0.00007377,-0.00043560,-0.
 00017824,0.00008795,0.00000821,-0.00000050,0.00000503,-0.00001150,-0.0
 0001045,0.00000190,0.00000989,-0.00000557,-0.00000628,0.00000529,-0.00
 000030,-0.00000755,-0.00000468,-0.00000731,0.00000127,0.00000461,0.000
 00351,-0.00000995,0.00000986,0.00000167,0.00000407,0.00000176,0.000000
 07,-0.00000415,-0.00000932,-0.00000643,0.00000313,0.00013602,0.0002221
 0,-0.00014103,0.00053514,-0.00073624,0.00074538,-0.00845398,0.00363361
 ,0.00170579,0.00041789,0.00015861,-0.00293181,0.00007451,0.00022292,0.
 00076181,-0.25927237,0.10799039,0.00951614,0.00000492,0.00005029,-0.00
 000770,-0.00009166,0.00019682,-0.00006569,0.00000890,-0.00007976,0.000
 01534,0.00044633,0.00014776,-0.00015463,0.00013186,-0.00014668,-0.0000
 5058,-0.00046944,0.00057479,-0.00010593,0.00009564,-0.00003396,0.00015
 968,0.00042964,-0.00009280,0.00007929,0.00030881,-0.00018186,-0.000011
 83,-0.00006582,0.00008678,-0.00001777,0.00037776,-0.00047837,-0.000551
 06,0.00485706,-0.00285906,-0.00011309,0.27744448,0.00059858,0.00036332
 ,-0.00019481,-0.00044830,0.00058237,0.00001097,0.00009398,-0.00035332,
 0.00001571,0.00006985,0.00014383,-0.00007741,0.00003340,0.00003874,0.0
 0001859,-0.00000815,0.00000447,-0.00002917,0.00035975,-0.00041995,-0.0
 0007932,-0.00003424,-0.00015839,0.00001230,-0.00011781,-0.00000758,0.0
 0000973,0.00003929,-0.00003029,0.00000341,-0.00022218,-0.00054682,0.00
 010097,-0.00001530,0.00000107,0.00000977,0.00006927,-0.00001580,-0.000
 01760,-0.00000335,-0.00001946,-0.00001095,-0.00000141,-0.00001470,-0.0
 0001347,0.00001815,0.00001302,-0.00003080,0.00000336,-0.00002354,0.000
 02031,-0.00002062,-0.00000596,-0.00000451,0.00000645,-0.00004508,0.000
 01473,0.00003565,0.00001151,-0.00001746,-0.00002708,-0.00008203,0.0001
 6294,0.00083640,0.00004616,-0.00040973,0.00708302,-0.00523493,-0.00108
 799,0.00008048,-0.00010594,0.00237882,-0.00091459,0.00032208,-0.000503
 95,0.10764973,-0.10432319,-0.00541734,-0.00010586,0.00002046,-0.000029
 00,0.00005978,-0.00015746,-0.00016850,-0.00007399,0.00023462,-0.000135
 15,-0.00031712,-0.00003136,0.00042856,-0.00018899,0.00014415,-0.000089
 47,0.00081015,0.00013373,0.00012404,-0.00029870,0.00034564,0.00003197,
 0.00020006,0.00008164,-0.00012775,-0.00007997,-0.00007321,0.00010567,-
 0.00009837,-0.00000083,0.00006023,-0.00003951,0.00037771,-0.00012417,0
 .02256462,-0.00935847,0.00068937,-0.11898517,0.10703371,0.00008185,0.0
 0018519,-0.00007379,0.00027722,0.00005970,-0.00000448,-0.00001878,-0.0
 0003601,-0.00007514,0.00000032,0.00000256,0.00001077,0.00002030,-0.000
 00501,0.00000534,-0.00001587,-0.00000866,0.00002245,0.00020665,-0.0003
 2470,0.00018510,-0.00010398,-0.00007249,0.00000137,0.00003924,0.000015
 29,-0.00015845,-0.00017742,0.00002359,-0.00007058,0.00020889,0.0000559
 2,0.00027497,-0.00000597,0.00000277,-0.00000642,-0.00000306,-0.0000062
 7,-0.00000142,0.00001033,-0.00000768,-0.00001201,0.00000803,-0.0000050
 8,-0.00002024,-0.00001694,-0.00000294,-0.00000801,-0.00000920,0.000020
 37,-0.00000202,-0.00002019,0.00000232,-0.00001234,0.00000576,-0.000007
 51,0.00001229,-0.00000060,-0.00001119,-0.00001170,0.00019038,0.0000262
 2,0.00002028,-0.00093909,0.00005215,0.00148146,-0.02709731,0.01349908,
 0.00229275,-0.00116861,0.00116678,-0.00593804,-0.00061085,0.00097355,0
 .00134848,0.01118529,-0.00635405,-0.04869182,0.00000691,0.00003189,0.0
 0003309,0.00000876,0.00000340,-0.00003662,-0.00005388,-0.00010944,-0.0
 0007969,0.00062084,-0.00007008,-0.00035375,0.00001345,-0.00039119,0.00
 021168,-0.00173490,0.00099459,0.00011306,0.00016661,0.00015308,0.00001
 027,-0.00000030,-0.00022182,-0.00004033,0.00031112,0.00007049,0.000222
 43,0.00007369,-0.00007394,-0.00006970,0.00034487,-0.00048019,-0.000314
 98,0.01714534,-0.00633957,-0.00047039,-0.00934529,0.00427895,0.0511968
 5,-0.00011547,-0.00003433,-0.00004154,0.00022156,-0.00031383,0.0000428
 1,-0.00005586,0.00019554,-0.00004157,-0.00004076,-0.00008844,0.0000533
 8,-0.00001185,-0.00002609,-0.00001034,0.00000768,-0.00000682,0.0000316
 0,0.00001270,-0.00013002,0.00001511,-0.00005521,0.00004129,0.00004019,
 0.00004412,-0.00000455,-0.00002607,-0.00005015,0.00001978,-0.00001822,
 -0.00005330,0.00031973,0.00000255,0.00000620,0.00000160,-0.00001053,-0
 .00004447,0.00000477,0.00001043,0.00000799,0.00000842,0.00000127,0.000
 00365,0.00000896,-0.00000194,-0.00001660,-0.00001228,0.00001734,-0.000
 00442,0.00001839,-0.00001651,0.00000486,0.00000785,-0.00000489,0.00000
 141,0.00002584,-0.00000400,-0.00002343,-0.00001508,0.00000618,-0.00007
 891,0.00000787,-0.00013720,-0.00004860,0.00052995,-0.00170535,0.005907
 85,0.00697875,-0.00445280,0.00100211,0.00061645,-0.00049082,0.00043524
 ,0.00043099,-0.00019000,-0.16442660,-0.11021619,0.07333415,0.00001647,
 -0.00001493,0.00005418,0.00007177,0.00014552,0.00013350,0.00002908,-0.
 00004430,0.00005046,0.00018862,0.00000394,-0.00025337,0.00056260,0.000
 08847,-0.00019884,0.00017529,-0.00007511,0.00013205,-0.00006615,0.0000
 2278,0.00006574,-0.00006877,-0.00012026,-0.00016802,0.00009633,0.00024
 504,0.00004985,0.00015451,0.00006506,0.00016383,-0.00013399,-0.0001412
 6,0.00007613,-0.00074886,0.00054778,0.00010607,-0.01513056,-0.01861128
 ,0.01039641,0.17222392,-0.00000213,0.00003787,0.00003309,0.00005533,0.
 00005296,-0.00003196,0.00001076,-0.00005158,0.00002237,0.00001750,0.00
 002439,-0.00001864,0.00004297,-0.00002094,0.00000140,0.00003218,-0.000
 02113,-0.00001249,-0.00000139,0.00003163,0.00000596,0.00001162,0.00000
 460,-0.00001016,-0.00000935,-0.00000615,-0.00001097,-0.00000444,-0.000
 00027,-0.00000185,-0.00001630,-0.00011613,0.00000382,-0.00000790,0.000
 00297,-0.00000592,0.00000886,-0.00000391,-0.00000011,-0.00000305,0.000
 00335,0.00000452,-0.00000228,0.00000379,0.00000080,-0.00001260,0.00000
 477,-0.00000679,-0.00000795,0.00001376,-0.00000261,-0.00000619,0.00000
 389,-0.00000602,-0.00000507,0.00001422,0.00000513,-0.00000525,0.000008
 44,0.00000602,-0.00025723,0.00025803,0.00003273,0.00133297,0.00009248,
 0.00098200,-0.00571785,-0.00594982,0.00232124,-0.00071289,-0.00012476,
 -0.00016618,0.00031879,0.00059860,-0.00134526,-0.10950068,-0.15329479,
 0.06901031,0.00004551,-0.00006712,0.00017987,0.00031070,0.00003746,0.0
 0017378,0.00004455,-0.00000733,-0.00004327,-0.00016362,0.00007227,0.00
 006515,-0.00039409,-0.00008207,0.00040518,0.00019360,0.00018024,-0.000
 20492,-0.00009286,-0.00008835,0.00007129,0.00068413,0.00003839,0.00024
 667,0.00021798,-0.00002529,-0.00004238,-0.00005058,0.00048397,-0.00005
 925,0.00012013,-0.00001796,0.00004711,-0.01610652,-0.01365452,0.011704
 83,0.01011260,0.01111007,-0.00709003,0.11952002,0.16045398,-0.00000861
 ,-0.00000264,-0.00004515,-0.00001975,-0.00002226,0.00004509,-0.0000060
 9,0.00001602,-0.00003553,-0.00000321,-0.00000727,0.00002176,-0.0000328
 0,0.00003573,0.00000513,-0.00000370,-0.00000928,0.00001142,0.00000663,
 0.00000534,0.00001891,0.00000806,-0.00000110,0.00001759,-0.00000151,0.
 00002971,0.00002597,0.00002354,-0.00001551,0.00000553,0.00002228,-0.00
 000231,-0.00008072,0.00000770,-0.00000394,0.00000438,-0.00000536,0.000
 00072,-0.00000055,-0.00000034,0.00000114,-0.00000310,-0.00000684,0.000
 00437,0.00000392,0.00001741,-0.00000695,0.00000561,0.00000220,-0.00003
 120,-0.00000869,0.00000959,-0.00000118,0.00000776,0.00000296,0.0000073
 5,-0.00001324,-0.00000510,-0.00000172,0.00000057,-0.00056205,-0.000630
 67,-0.00019331,-0.00372975,0.00071531,-0.00551967,0.02110476,0.0185595
 0,-0.01273367,0.00120551,-0.00040160,0.00080131,0.00130825,0.00117594,
 0.00090582,0.07188041,0.06794259,-0.09203595,0.00012249,0.00005779,0.0
 0023846,0.00023954,0.00000073,0.00038584,0.00000190,0.00010598,0.00001
 459,-0.00014233,-0.00019862,0.00018837,0.00124094,0.00130179,-0.001058
 35,-0.00000792,-0.00037171,0.00012158,-0.00011733,-0.00006147,-0.00002
 178,-0.00077796,0.00005620,0.00022337,-0.00018536,-0.00009462,0.000477
 31,-0.00070145,-0.00073365,-0.00044837,-0.00000165,-0.00006410,-0.0000
 4262,-0.01376053,-0.01118149,0.00889720,-0.00011330,0.00009151,-0.0009
 9068,-0.07701122,-0.07626444,0.10080391\\0.00000005,0.00000024,-0.0000
 0066,-0.00000023,-0.00000086,-0.00000034,0.,0.00000015,-0.00000016,0.0
 0000015,-0.00000009,-0.00000034,-0.00000011,0.00000046,0.00000006,-0.0
 0000004,-0.00000024,0.00000046,0.00000010,-0.00000023,-0.00000089,0.,0
 .00000011,-0.00000098,0.00000001,0.00000016,-0.00000064,0.00000008,-0.
 00000049,-0.00000039,0.00000001,0.00000028,0.00000029,0.,-0.00000025,-
 0.00000048,-0.00000009,0.00000020,-0.00000007,-0.00000004,0.00000035,-
 0.00000059,-0.00000006,0.00000075,-0.00000009,-0.00000012,0.00000066,0
 .00000040,0.00000022,0.00000038,0.00000032,0.00000005,-0.00000057,0.00
 000027,0.00000009,-0.00000033,0.00000063,-0.00000003,-0.00000013,0.000
 00063,-0.00000008,0.00000014,0.00000068,0.00000010,0.00000033,0.000000
 36,-0.00000024,-0.00000021,0.,0.,-0.00000003,0.00000030,0.00000003,0.0
 0000027,-0.00000044,0.00000013,-0.00000070,0.00000014,-0.00000018,0.00
 000027,0.00000088,0.,-0.00000039,0.00000060,0.00000009,-0.00000009,0.0
 0000102,0.,0.00000015,-0.00000015,-0.00000009,0.00000058,0.00000045,0.
 ,0.00000025,0.00000047,0.00000002,-0.00000030,0.00000056,0.00000005,-0
 .00000018,0.00000009,-0.00000003,0.00000058,-0.00000027,0.00000002,0.0
 0000013,-0.00000063,-0.00000009,0.00000031,-0.00000063,0.00000002,-0.0
 0000072,0.00000008,0.00000007,-0.00000028,-0.00000055,0.00000011,-0.00
 000062,-0.00000039\\\@


 ... THE UNIVERSE IS NOT ONLY QUEERER THAN WE SUPPOSE,
 BUT QUEERER THAN WE CAN SUPPOSE ... 

                                   -- J. B. S. HALDANE
 Job cpu time:       0 days  0 hours 34 minutes  6.1 seconds.
 Elapsed time:       0 days  0 hours  8 minutes 33.8 seconds.
 File lengths (MBytes):  RWF=    240 Int=      0 D2E=      0 Chk=      6 Scr=      1
 Normal termination of Gaussian 16 at Tue Aug  9 17:18:07 2022.
real 4416.82
user 17466.82
sys 31.84
