 Entering Gaussian System, Link 0=g16
 Input=gaussian_test.inp
 Output=gaussian_test.log
 Initial command:
 /sw/restricted/lms/sw/Gaussian/g16_B01/g16/l1.exe "/scratch/user/peterchao1/peterchao1/8625369_1689034714000000231218319/Gau-137025.inp" -scrdir="/scratch/user/peterchao1/peterchao1/8625369_1689034714000000231218319/"
 Entering Link 1 = /sw/restricted/lms/sw/Gaussian/g16_B01/g16/l1.exe PID=    137032.
  
 Copyright (c) 1988-2017, Gaussian, Inc.  All Rights Reserved.
  
 This is part of the Gaussian(R) 16 program.  It is based on
 the Gaussian(R) 09 system (copyright 2009, Gaussian, Inc.),
 the Gaussian(R) 03 system (copyright 2003, Gaussian, Inc.),
 the Gaussian(R) 98 system (copyright 1998, Gaussian, Inc.),
 the Gaussian(R) 94 system (copyright 1995, Gaussian, Inc.),
 the Gaussian 92(TM) system (copyright 1992, Gaussian, Inc.),
 the Gaussian 90(TM) system (copyright 1990, Gaussian, Inc.),
 the Gaussian 88(TM) system (copyright 1988, Gaussian, Inc.),
 the Gaussian 86(TM) system (copyright 1986, Carnegie Mellon
 University), and the Gaussian 82(TM) system (copyright 1983,
 Carnegie Mellon University). Gaussian is a federally registered
 trademark of Gaussian, Inc.
  
 This software contains proprietary and confidential information,
 including trade secrets, belonging to Gaussian, Inc.
  
 This software is provided under written license and may be
 used, copied, transmitted, or stored only in accord with that
 written license.
  
 The following legend is applicable only to US Government
 contracts under FAR:
  
                    RESTRICTED RIGHTS LEGEND
  
 Use, reproduction and disclosure by the US Government is
 subject to restrictions as set forth in subparagraphs (a)
 and (c) of the Commercial Computer Software - Restricted
 Rights clause in FAR 52.227-19.
  
 Gaussian, Inc.
 340 Quinnipiac St., Bldg. 40, Wallingford CT 06492
  
  
 ---------------------------------------------------------------
 Warning -- This program may not be used in any manner that
 competes with the business of Gaussian, Inc. or will provide
 assistance to any competitor of Gaussian, Inc.  The licensee
 of this program is prohibited from giving any competitor of
 Gaussian, Inc. access to this program.  By using this program,
 the user acknowledges that Gaussian, Inc. is engaged in the
 business of creating and licensing software in the field of
 computational chemistry and represents and warrants to the
 licensee that it is not a competitor of Gaussian, Inc. and that
 it will not use this program in any manner prohibited above.
 ---------------------------------------------------------------
  

 Cite this work as:
 Gaussian 16, Revision B.01,
 M. J. Frisch, G. W. Trucks, H. B. Schlegel, G. E. Scuseria, 
 M. A. Robb, J. R. Cheeseman, G. Scalmani, V. Barone, 
 G. A. Petersson, H. Nakatsuji, X. Li, M. Caricato, A. V. Marenich, 
 J. Bloino, B. G. Janesko, R. Gomperts, B. Mennucci, H. P. Hratchian, 
 J. V. Ortiz, A. F. Izmaylov, J. L. Sonnenberg, D. Williams-Young, 
 F. Ding, F. Lipparini, F. Egidi, J. Goings, B. Peng, A. Petrone, 
 T. Henderson, D. Ranasinghe, V. G. Zakrzewski, J. Gao, N. Rega, 
 G. Zheng, W. Liang, M. Hada, M. Ehara, K. Toyota, R. Fukuda, 
 J. Hasegawa, M. Ishida, T. Nakajima, Y. Honda, O. Kitao, H. Nakai, 
 T. Vreven, K. Throssell, J. A. Montgomery, Jr., J. E. Peralta, 
 F. Ogliaro, M. J. Bearpark, J. J. Heyd, E. N. Brothers, K. N. Kudin, 
 V. N. Staroverov, T. A. Keith, R. Kobayashi, J. Normand, 
 K. Raghavachari, A. P. Rendell, J. C. Burant, S. S. Iyengar, 
 J. Tomasi, M. Cossi, J. M. Millam, M. Klene, C. Adamo, R. Cammi, 
 J. W. Ochterski, R. L. Martin, K. Morokuma, O. Farkas, 
 J. B. Foresman, and D. J. Fox, Gaussian, Inc., Wallingford CT, 2016.
 
 ******************************************
 Gaussian 16:  ES64L-G16RevB.01 20-Dec-2017
                10-Jul-2023 
 ******************************************
 %nprocshared=4
 Will use up to    4 processors via shared memory.
 %mem=8000mb
 %chk=27.chk
 %mem=8000mb
 ----------------------------------------------------------------------
 #T wB97XD/def2svpp opt=tight freq int(grid=ultrafine) scf=(verytight,q
 c)
 ----------------------------------------------------------------------
 -------
 comment
 -------
 Symbolic Z-matrix:
 Charge =  1 Multiplicity = 2
 N                    -0.12221   0.07405   1.43412 
 C                    -0.17469  -0.19403  -0.00211 
 C                     0.86323  -1.26712  -0.37333 
 O                     2.15876  -0.96375   0.04402 
 C                    -1.55934  -0.66768  -0.44784 
 O                    -2.51609   0.23449   0.05437 
 C                     0.18759   1.14468  -0.68805 
 O                     1.34711   1.6697   -0.09069 
 H                     0.1865   -0.73309   1.97248 
 H                    -1.03435   0.38531   1.76832 
 H                     0.80908  -1.42933  -1.47285 
 H                     0.58477  -2.2248    0.10632 
 H                     2.3059   -0.01394  -0.12321 
 H                    -1.7341   -1.69053  -0.05351 
 H                    -1.59578  -0.72021  -1.55574 
 H                    -3.40053  -0.0692   -0.18314 
 H                    -0.66442   1.84626  -0.59655 
 H                     0.39371   0.99298  -1.76155 
 H                     1.18578   1.51964   0.86694 
 

 GradGradGradGradGradGradGradGradGradGradGradGradGradGradGradGradGradGrad
 Initialization pass.
                           ----------------------------
                           !    Initial Parameters    !
                           ! (Angstroms and Degrees)  !
 --------------------------                            --------------------------
 ! Name  Definition              Value          Derivative Info.                !
 --------------------------------------------------------------------------------
 ! R1    R(1,2)                  1.462          estimate D2E/DX2                !
 ! R2    R(1,9)                  1.0181         estimate D2E/DX2                !
 ! R3    R(1,10)                 1.0201         estimate D2E/DX2                !
 ! R4    R(2,3)                  1.5384         estimate D2E/DX2                !
 ! R5    R(2,5)                  1.5298         estimate D2E/DX2                !
 ! R6    R(2,7)                  1.5472         estimate D2E/DX2                !
 ! R7    R(3,4)                  1.3945         estimate D2E/DX2                !
 ! R8    R(3,11)                 1.1127         estimate D2E/DX2                !
 ! R9    R(3,12)                 1.1067         estimate D2E/DX2                !
 ! R10   R(4,13)                 0.9756         estimate D2E/DX2                !
 ! R11   R(5,6)                  1.4077         estimate D2E/DX2                !
 ! R12   R(5,14)                 1.1101         estimate D2E/DX2                !
 ! R13   R(5,15)                 1.1097         estimate D2E/DX2                !
 ! R14   R(6,16)                 0.9648         estimate D2E/DX2                !
 ! R15   R(7,8)                  1.406          estimate D2E/DX2                !
 ! R16   R(7,17)                 1.1075         estimate D2E/DX2                !
 ! R17   R(7,18)                 1.1036         estimate D2E/DX2                !
 ! R18   R(8,19)                 0.9826         estimate D2E/DX2                !
 ! A1    A(2,1,9)              112.6418         estimate D2E/DX2                !
 ! A2    A(2,1,10)             110.2251         estimate D2E/DX2                !
 ! A3    A(9,1,10)             109.8642         estimate D2E/DX2                !
 ! A4    A(1,2,3)              109.9225         estimate D2E/DX2                !
 ! A5    A(1,2,5)              112.0547         estimate D2E/DX2                !
 ! A6    A(1,2,7)              105.573          estimate D2E/DX2                !
 ! A7    A(3,2,5)              108.9287         estimate D2E/DX2                !
 ! A8    A(3,2,7)              109.791          estimate D2E/DX2                !
 ! A9    A(5,2,7)              110.5272         estimate D2E/DX2                !
 ! A10   A(2,3,4)              113.7553         estimate D2E/DX2                !
 ! A11   A(2,3,11)             107.8963         estimate D2E/DX2                !
 ! A12   A(2,3,12)             109.2253         estimate D2E/DX2                !
 ! A13   A(4,3,11)             111.8792         estimate D2E/DX2                !
 ! A14   A(4,3,12)             106.9957         estimate D2E/DX2                !
 ! A15   A(11,3,12)            106.8504         estimate D2E/DX2                !
 ! A16   A(3,4,13)             107.495          estimate D2E/DX2                !
 ! A17   A(2,5,6)              108.2284         estimate D2E/DX2                !
 ! A18   A(2,5,14)             108.922          estimate D2E/DX2                !
 ! A19   A(2,5,15)             109.5879         estimate D2E/DX2                !
 ! A20   A(6,5,14)             110.9043         estimate D2E/DX2                !
 ! A21   A(6,5,15)             111.3585         estimate D2E/DX2                !
 ! A22   A(14,5,15)            107.8095         estimate D2E/DX2                !
 ! A23   A(5,6,16)             109.4809         estimate D2E/DX2                !
 ! A24   A(2,7,8)              109.1367         estimate D2E/DX2                !
 ! A25   A(2,7,17)             109.351          estimate D2E/DX2                !
 ! A26   A(2,7,18)             110.8572         estimate D2E/DX2                !
 ! A27   A(8,7,17)             111.2717         estimate D2E/DX2                !
 ! A28   A(8,7,18)             108.0938         estimate D2E/DX2                !
 ! A29   A(17,7,18)            108.1278         estimate D2E/DX2                !
 ! A30   A(7,8,19)             102.8041         estimate D2E/DX2                !
 ! D1    D(9,1,2,3)            -28.6932         estimate D2E/DX2                !
 ! D2    D(9,1,2,5)             92.5799         estimate D2E/DX2                !
 ! D3    D(9,1,2,7)           -147.0446         estimate D2E/DX2                !
 ! D4    D(10,1,2,3)          -151.7887         estimate D2E/DX2                !
 ! D5    D(10,1,2,5)           -30.5156         estimate D2E/DX2                !
 ! D6    D(10,1,2,7)            89.8598         estimate D2E/DX2                !
 ! D7    D(1,2,3,4)            -54.1046         estimate D2E/DX2                !
 ! D8    D(1,2,3,11)          -178.8528         estimate D2E/DX2                !
 ! D9    D(1,2,3,12)            65.3481         estimate D2E/DX2                !
 ! D10   D(5,2,3,4)           -177.2331         estimate D2E/DX2                !
 ! D11   D(5,2,3,11)            58.0187         estimate D2E/DX2                !
 ! D12   D(5,2,3,12)           -57.7804         estimate D2E/DX2                !
 ! D13   D(7,2,3,4)             61.6108         estimate D2E/DX2                !
 ! D14   D(7,2,3,11)           -63.1374         estimate D2E/DX2                !
 ! D15   D(7,2,3,12)          -178.9365         estimate D2E/DX2                !
 ! D16   D(1,2,5,6)             50.4053         estimate D2E/DX2                !
 ! D17   D(1,2,5,14)           -70.2596         estimate D2E/DX2                !
 ! D18   D(1,2,5,15)           172.019          estimate D2E/DX2                !
 ! D19   D(3,2,5,6)            172.2491         estimate D2E/DX2                !
 ! D20   D(3,2,5,14)            51.5842         estimate D2E/DX2                !
 ! D21   D(3,2,5,15)           -66.1372         estimate D2E/DX2                !
 ! D22   D(7,2,5,6)            -67.0459         estimate D2E/DX2                !
 ! D23   D(7,2,5,14)           172.2892         estimate D2E/DX2                !
 ! D24   D(7,2,5,15)            54.5678         estimate D2E/DX2                !
 ! D25   D(1,2,7,8)             48.4644         estimate D2E/DX2                !
 ! D26   D(1,2,7,17)           -73.4646         estimate D2E/DX2                !
 ! D27   D(1,2,7,18)           167.4115         estimate D2E/DX2                !
 ! D28   D(3,2,7,8)            -69.9749         estimate D2E/DX2                !
 ! D29   D(3,2,7,17)           168.0961         estimate D2E/DX2                !
 ! D30   D(3,2,7,18)            48.9722         estimate D2E/DX2                !
 ! D31   D(5,2,7,8)            169.8355         estimate D2E/DX2                !
 ! D32   D(5,2,7,17)            47.9065         estimate D2E/DX2                !
 ! D33   D(5,2,7,18)           -71.2174         estimate D2E/DX2                !
 ! D34   D(2,3,4,13)           -41.1713         estimate D2E/DX2                !
 ! D35   D(11,3,4,13)           81.4132         estimate D2E/DX2                !
 ! D36   D(12,3,4,13)         -161.8829         estimate D2E/DX2                !
 ! D37   D(2,5,6,16)          -177.4854         estimate D2E/DX2                !
 ! D38   D(14,5,6,16)          -58.0621         estimate D2E/DX2                !
 ! D39   D(15,5,6,16)           61.9983         estimate D2E/DX2                !
 ! D40   D(2,7,8,19)           -42.8618         estimate D2E/DX2                !
 ! D41   D(17,7,8,19)           77.9            estimate D2E/DX2                !
 ! D42   D(18,7,8,19)         -163.5155         estimate D2E/DX2                !
 --------------------------------------------------------------------------------
 Number of steps in this run=    100 maximum allowed number of steps=    114.
 GradGradGradGradGradGradGradGradGradGradGradGradGradGradGradGradGradGrad

                    Distance matrix (angstroms):
                    1          2          3          4          5
     1  N    0.000000
     2  C    1.461981   0.000000
     3  C    2.456972   1.538372   0.000000
     4  O    2.865696   2.457548   1.394493   0.000000
     5  C    2.481389   1.529803   2.496744   3.762160   0.000000
     6  O    2.767691   2.380969   3.722576   4.825982   1.407657
     7  C    2.397048   1.547226   2.524347   2.977736   2.528666
     8  O    2.651426   2.407737   2.989808   2.758985   3.746782
     9  H    1.018136   2.078470   2.499191   2.768017   2.984992
    10  H    1.020083   2.051610   3.304242   3.871576   2.509142
    11  H    3.402637   2.157969   1.112738   2.083094   2.690762
    12  H    2.747284   2.170836   1.106680   2.017805   2.707197
    13  H    2.885956   2.490061   1.927259   0.975580   3.933558
    14  H    2.815136   2.161931   2.650978   3.961321   1.110075
    15  H    3.426592   2.170286   2.782790   4.088410   1.109745
    16  H    3.658337   3.233332   4.432926   5.635379   1.954026
    17  H    2.749246   2.180824   3.475155   4.034459   2.672622
    18  H    3.364952   2.197197   2.693630   3.194412   2.880633
    19  H    2.030337   2.354309   3.067300   2.791253   3.748161
                    6          7          8          9         10
     6  O    0.000000
     7  C    2.947807   0.000000
     8  O    4.123736   1.406042   0.000000
     9  H    3.452439   3.256442   3.372991   0.000000
    10  H    2.270668   2.846672   3.282822   1.668226   0.000000
    11  H    4.019640   2.761829   3.435669   3.569681   4.146851
    12  H    3.958046   3.484558   3.973294   2.422054   3.492344
    13  H    4.831654   2.479654   1.937781   3.066090   3.859346
    14  H    2.080592   3.483391   4.559213   2.951275   2.849187
    15  H    2.085882   2.722342   4.064314   3.952847   3.547787
    16  H    0.964815   3.821397   5.056916   4.237242   3.100581
    17  H    2.539722   1.107484   2.081664   3.738584   2.804252
    18  H    3.512810   1.103583   2.039283   4.118880   3.855981
    19  H    4.001966   1.885457   0.982648   2.701029   2.651068
                   11         12         13         14         15
    11  H    0.000000
    12  H    1.782373   0.000000
    13  H    2.462787   2.811199   0.000000
    14  H    2.924133   2.384984   4.374636   0.000000
    15  H    2.508602   3.127460   4.215933   1.793701   0.000000
    16  H    4.608054   4.540155   5.707014   2.328631   2.359022
    17  H    3.697111   4.316018   3.536558   3.734707   2.893832
    18  H    2.474563   3.725519   2.711922   3.827040   2.633526
    19  H    3.783240   3.867884   2.141710   4.436005   4.315481
                   16         17         18         19
    16  H    0.000000
    17  H    3.365439   0.000000
    18  H    4.244510   1.790241   0.000000
    19  H    4.966016   2.381539   2.795293   0.000000
 Framework group  C1[X(C4H11NO3)]
 Deg. of freedom    51
                         Standard orientation:                         
 ---------------------------------------------------------------------
 Center     Atomic      Atomic             Coordinates (Angstroms)
 Number     Number       Type             X           Y           Z
 ---------------------------------------------------------------------
      1          7           0       -0.122212    0.074049    1.434121
      2          6           0       -0.174685   -0.194031   -0.002113
      3          6           0        0.863227   -1.267122   -0.373331
      4          8           0        2.158755   -0.963754    0.044024
      5          6           0       -1.559344   -0.667681   -0.447840
      6          8           0       -2.516093    0.234490    0.054373
      7          6           0        0.187594    1.144682   -0.688049
      8          8           0        1.347109    1.669700   -0.090692
      9          1           0        0.186500   -0.733090    1.972475
     10          1           0       -1.034349    0.385314    1.768322
     11          1           0        0.809083   -1.429330   -1.472850
     12          1           0        0.584769   -2.224795    0.106318
     13          1           0        2.305901   -0.013944   -0.123206
     14          1           0       -1.734103   -1.690534   -0.053509
     15          1           0       -1.595780   -0.720212   -1.555742
     16          1           0       -3.400531   -0.069197   -0.183140
     17          1           0       -0.664423    1.846262   -0.596549
     18          1           0        0.393712    0.992979   -1.761547
     19          1           0        1.185781    1.519637    0.866936
 ---------------------------------------------------------------------
 Rotational constants (GHZ):           2.9079897           1.5530597           1.2968509
   134 basis functions,   244 primitive gaussians,   142 cartesian basis functions
    33 alpha electrons       32 beta electrons
       nuclear repulsion energy       439.6476846559 Hartrees.
 NAtoms=   19 NActive=   19 NUniq=   19 SFac= 1.00D+00 NAtFMM=   60 NAOKFM=F Big=F
 Nuclear repulsion after empirical dispersion term =      439.6353480755 Hartrees.
   1 Symmetry operations used in ECPInt.
 ECPInt:  NShTT=    2485 NPrTT=   10007 LenC2=    2466 LenP2D=    7959.
 LDataN:  DoStor=T MaxTD1= 4 Len=   56
 ExpMin= 1.22D-01 ExpMax= 2.27D+03 ExpMxC= 3.41D+02 IAcc=3 IRadAn=         5 AccDes= 0.00D+00
 Harris functional with IExCor= 4639 and IRadAn=       5 diagonalized for initial guess.
 HarFok:  IExCor= 4639 AccDes= 0.00D+00 IRadAn=         5 IDoV= 1 UseB2=F ITyADJ=14
 ICtDFT=  3500011 ScaDFX=  1.000000  1.000000  1.000000  1.000000
 FoFCou: FMM=F IPFlag=           0 FMFlag=      100000 FMFlg1=           0
         NFxFlg=           0 DoJE=T BraDBF=F KetDBF=T FulRan=T
         wScrn=  0.000000 ICntrl=       500 IOpCl=  0 I1Cent=   200000004 NGrid=           0
         NMat0=    1 NMatS0=      1 NMatT0=    0 NMatD0=    1 NMtDS0=    0 NMtDT0=    0
 Petite list used in FoFCou.
 Initial guess <Sx>= 0.0000 <Sy>= 0.0000 <Sz>= 0.5000 <S**2>= 0.7500 S= 0.5000
     Minimum is close to point  3 DX=  4.77D-02 DF= -8.57D-04 DXR=  8.71D-02 DFR=  7.57D-03 which will be used.
     Accept linear search using points  1 and  2.
     Accept linear search using points  1 and  2.
     Accept linear search using points  2 and  3.
     Accept linear search using points  1 and  2.
     Accept linear search using points  1 and  2.
     Minimum is close to point  2 DX= -1.22D-02 DF= -4.55D-08 DXR=  1.24D-02 DFR=  1.54D-04 which will be used.
     Minimum is close to point  2 DX=  2.98D-04 DF= -1.14D-13 DXR=  2.98D-04 DFR=  8.42D-08 which will be used.
 SCF Done:  E(UwB97XD) =  -438.609178618     a.u. after   10 cycles
            Convg  =    0.6024D-06                    58 Fock formations.
              S**2 =  0.7551                  -V/T =  2.0079
 <Sx>= 0.0000 <Sy>= 0.0000 <Sz>= 0.5000 <S**2>= 0.7551 S= 0.5026
 <L.S>=  0.00000000000    
 Annihilation of the first spin contaminant:
 S**2 before annihilation     0.7551,   after     0.7500

 **********************************************************************

            Population analysis using the SCF Density.

 **********************************************************************

 Orbital symmetries:
 Alpha Orbitals:
       Occupied  (A) (A) (A) (A) (A) (A) (A) (A) (A) (A) (A) (A)
                 (A) (A) (A) (A) (A) (A) (A) (A) (A) (A) (A) (A)
                 (A) (A) (A) (A) (A) (A) (A) (A) (A)
       Virtual   (A) (A) (A) (A) (A) (A) (A) (A) (A) (A) (A) (A)
                 (A) (A) (A) (A) (A) (A) (A) (A) (A) (A) (A) (A)
                 (A) (A) (A) (A) (A) (A) (A) (A) (A) (A) (A) (A)
                 (A) (A) (A) (A) (A) (A) (A) (A) (A) (A) (A) (A)
                 (A) (A) (A) (A) (A) (A) (A) (A) (A) (A) (A) (A)
                 (A) (A) (A) (A) (A) (A) (A) (A) (A) (A) (A) (A)
                 (A) (A) (A) (A) (A) (A) (A) (A) (A) (A) (A) (A)
                 (A) (A) (A) (A) (A) (A) (A) (A) (A) (A) (A) (A)
                 (A) (A) (A) (A) (A)
 Beta  Orbitals:
       Occupied  (A) (A) (A) (A) (A) (A) (A) (A) (A) (A) (A) (A)
                 (A) (A) (A) (A) (A) (A) (A) (A) (A) (A) (A) (A)
                 (A) (A) (A) (A) (A) (A) (A) (A)
       Virtual   (A) (A) (A) (A) (A) (A) (A) (A) (A) (A) (A) (A)
                 (A) (A) (A) (A) (A) (A) (A) (A) (A) (A) (A) (A)
                 (A) (A) (A) (A) (A) (A) (A) (A) (A) (A) (A) (A)
                 (A) (A) (A) (A) (A) (A) (A) (A) (A) (A) (A) (A)
                 (A) (A) (A) (A) (A) (A) (A) (A) (A) (A) (A) (A)
                 (A) (A) (A) (A) (A) (A) (A) (A) (A) (A) (A) (A)
                 (A) (A) (A) (A) (A) (A) (A) (A) (A) (A) (A) (A)
                 (A) (A) (A) (A) (A) (A) (A) (A) (A) (A) (A) (A)
                 (A) (A) (A) (A) (A) (A)
 The electronic state is 2-A.
 Alpha  occ. eigenvalues --  -19.49555 -19.46884 -19.44528 -14.69673 -10.56719
 Alpha  occ. eigenvalues --  -10.55375 -10.54350 -10.54088  -1.36040  -1.32608
 Alpha  occ. eigenvalues --   -1.31027  -1.23243  -1.07922  -0.98074  -0.96164
 Alpha  occ. eigenvalues --   -0.89583  -0.85292  -0.81800  -0.80816  -0.78716
 Alpha  occ. eigenvalues --   -0.77409  -0.74306  -0.72191  -0.71247  -0.70778
 Alpha  occ. eigenvalues --   -0.70055  -0.64520  -0.64009  -0.63228  -0.59614
 Alpha  occ. eigenvalues --   -0.57663  -0.57304  -0.54916
 Alpha virt. eigenvalues --   -0.05532  -0.02602  -0.01622  -0.00459   0.01035
 Alpha virt. eigenvalues --    0.02338   0.02516   0.03879   0.05459   0.05786
 Alpha virt. eigenvalues --    0.07252   0.08239   0.09561   0.10279   0.12320
 Alpha virt. eigenvalues --    0.13860   0.16146   0.18138   0.33421   0.34738
 Alpha virt. eigenvalues --    0.36872   0.37983   0.39587   0.43742   0.44809
 Alpha virt. eigenvalues --    0.46328   0.48645   0.49283   0.50828   0.52171
 Alpha virt. eigenvalues --    0.52598   0.53222   0.57106   0.57427   0.58443
 Alpha virt. eigenvalues --    0.59260   0.59962   0.62493   0.62842   0.64564
 Alpha virt. eigenvalues --    0.65281   0.67420   0.71713   0.76912   0.81841
 Alpha virt. eigenvalues --    0.86212   0.88294   0.93313   0.96029   0.96470
 Alpha virt. eigenvalues --    0.99434   1.01441   1.04680   1.08445   1.12680
 Alpha virt. eigenvalues --    1.14170   1.21499   1.24809   1.31073   1.37775
 Alpha virt. eigenvalues --    1.42757   1.46766   1.52555   1.60623   1.62233
 Alpha virt. eigenvalues --    1.64492   1.69883   1.72946   1.75005   1.82650
 Alpha virt. eigenvalues --    1.84625   1.88973   1.94398   1.95061   1.97963
 Alpha virt. eigenvalues --    1.99492   2.06178   2.15523   2.15954   2.20796
 Alpha virt. eigenvalues --    2.33218   2.37811   2.44888   2.46340   2.52669
 Alpha virt. eigenvalues --    2.54118   2.55480   2.56872   2.72353   2.74334
 Alpha virt. eigenvalues --    2.75680   2.78503   2.81639   2.82909   2.85048
 Alpha virt. eigenvalues --    2.89614   2.92403   2.96863   3.24417   3.28661
 Alpha virt. eigenvalues --    3.29937
  Beta  occ. eigenvalues --  -19.49050 -19.46418 -19.44458 -14.68978 -10.56598
  Beta  occ. eigenvalues --  -10.55255 -10.54323 -10.54049  -1.34920  -1.31494
  Beta  occ. eigenvalues --   -1.30798  -1.21740  -1.06922  -0.97240  -0.95827
  Beta  occ. eigenvalues --   -0.88925  -0.84608  -0.81228  -0.80041  -0.78399
  Beta  occ. eigenvalues --   -0.76233  -0.73567  -0.71827  -0.70404  -0.69930
  Beta  occ. eigenvalues --   -0.68529  -0.63533  -0.62790  -0.61479  -0.55387
  Beta  occ. eigenvalues --   -0.54540  -0.54108
  Beta virt. eigenvalues --   -0.35271  -0.05287  -0.02298  -0.01515  -0.00210
  Beta virt. eigenvalues --    0.01365   0.02610   0.02841   0.04107   0.05697
  Beta virt. eigenvalues --    0.06070   0.07484   0.08539   0.09792   0.10894
  Beta virt. eigenvalues --    0.12606   0.14357   0.16740   0.18423   0.33816
  Beta virt. eigenvalues --    0.35041   0.37114   0.38362   0.39876   0.43982
  Beta virt. eigenvalues --    0.45044   0.46611   0.48936   0.49671   0.51105
  Beta virt. eigenvalues --    0.52471   0.52941   0.53822   0.57591   0.57772
  Beta virt. eigenvalues --    0.58608   0.59672   0.60354   0.62755   0.63221
  Beta virt. eigenvalues --    0.64841   0.65576   0.67764   0.72964   0.77347
  Beta virt. eigenvalues --    0.82459   0.86755   0.88740   0.93749   0.96293
  Beta virt. eigenvalues --    0.97056   1.00206   1.01843   1.05188   1.09302
  Beta virt. eigenvalues --    1.13312   1.14653   1.21788   1.25396   1.31582
  Beta virt. eigenvalues --    1.38164   1.42975   1.47298   1.52936   1.61236
  Beta virt. eigenvalues --    1.62710   1.64964   1.70531   1.73440   1.75432
  Beta virt. eigenvalues --    1.82971   1.84908   1.89312   1.94634   1.95421
  Beta virt. eigenvalues --    1.98223   1.99771   2.07034   2.16568   2.17069
  Beta virt. eigenvalues --    2.22173   2.34801   2.38573   2.46128   2.47804
  Beta virt. eigenvalues --    2.52983   2.55030   2.56832   2.57935   2.73299
  Beta virt. eigenvalues --    2.74980   2.76299   2.78824   2.82602   2.84052
  Beta virt. eigenvalues --    2.86193   2.90399   2.93458   2.97261   3.24951
  Beta virt. eigenvalues --    3.29152   3.30205
          Condensed to atoms (all electrons):
          Atomic-Atomic Spin Densities.
 Mulliken charges and spin densities:
               1          2
     1  N   -0.373340   0.393688
     2  C   -0.357920   0.046994
     3  C    0.071979   0.009565
     4  O   -0.377997   0.188317
     5  C    0.064582   0.021634
     6  O   -0.470424   0.027459
     7  C    0.058847   0.065138
     8  O   -0.375922   0.207563
     9  H    0.312474  -0.002211
    10  H    0.316002  -0.012169
    11  H    0.177108   0.023163
    12  H    0.167450   0.002139
    13  H    0.352448  -0.007573
    14  H    0.159029   0.015805
    15  H    0.153480  -0.001701
    16  H    0.367379  -0.001107
    17  H    0.212400   0.041411
    18  H    0.184322  -0.002800
    19  H    0.358101  -0.015315
 Sum of Mulliken charges =   1.00000   1.00000
 Mulliken charges and spin densities with hydrogens summed into heavy atoms:
               1          2
     1  N    0.255136   0.379307
     2  C   -0.357920   0.046994
     3  C    0.416537   0.034867
     4  O   -0.025549   0.180744
     5  C    0.377092   0.035737
     6  O   -0.103045   0.026352
     7  C    0.455570   0.103750
     8  O   -0.017821   0.192249
 Electronic spatial extent (au):  <R**2>=            986.0192
 Charge=              1.0000 electrons
 Dipole moment (field-independent basis, Debye):
    X=             -3.1728    Y=             -1.3263    Z=              0.5262  Tot=              3.4789
                          Isotropic Fermi Contact Couplings
        Atom                 a.u.       MegaHertz       Gauss      10(-4) cm-1
     1  N(14)              0.20858      67.39424      24.04794      22.48030
     2  C(13)             -0.01547     -17.38977      -6.20510      -5.80060
     3  C(13)             -0.00819      -9.21059      -3.28657      -3.07232
     4  O(17)              0.06730     -40.79618     -14.55709     -13.60814
     5  C(13)              0.00848       9.53422       3.40205       3.18027
     6  O(17)              0.00598      -3.62242      -1.29257      -1.20831
     7  C(13)              0.01157      13.00446       4.64031       4.33782
     8  O(17)              0.07621     -46.20083     -16.48561     -15.41094
     9  H(1)               0.00082       3.67398       1.31097       1.22551
    10  H(1)              -0.00444     -19.84167      -7.08000      -6.61847
    11  H(1)               0.01001      44.74606      15.96651      14.92568
    12  H(1)               0.00028       1.26935       0.45293       0.42341
    13  H(1)              -0.00218      -9.74178      -3.47611      -3.24951
    14  H(1)               0.00596      26.64259       9.50674       8.88701
    15  H(1)              -0.00095      -4.22765      -1.50853      -1.41019
    16  H(1)              -0.00030      -1.35552      -0.48368      -0.45215
    17  H(1)               0.02103      93.98339      33.53561      31.34948
    18  H(1)              -0.00070      -3.13306      -1.11795      -1.04508
    19  H(1)              -0.00372     -16.64847      -5.94059      -5.55333
 --------------------------------------------------------
       Center         ----  Spin Dipole Couplings  ----
                      3XX-RR        3YY-RR        3ZZ-RR
 --------------------------------------------------------
     1   Atom        0.063725      0.290295     -0.354020
     2   Atom       -0.092486      0.181289     -0.088803
     3   Atom        0.005259      0.002339     -0.007598
     4   Atom       -0.236962     -0.057036      0.293998
     5   Atom        0.027298     -0.006254     -0.021044
     6   Atom       -0.056005      0.080894     -0.024889
     7   Atom       -0.072516      0.128339     -0.055823
     8   Atom       -0.192445      0.534848     -0.342403
     9   Atom       -0.011940      0.017619     -0.005679
    10   Atom        0.036671     -0.012934     -0.023737
    11   Atom       -0.004763     -0.003185      0.007948
    12   Atom       -0.002646      0.007117     -0.004471
    13   Atom       -0.017722      0.034706     -0.016984
    14   Atom       -0.000071      0.002982     -0.002912
    15   Atom        0.000021     -0.003900      0.003879
    16   Atom        0.008217     -0.004089     -0.004129
    17   Atom        0.012309     -0.004426     -0.007882
    18   Atom       -0.009152     -0.005761      0.014913
    19   Atom       -0.024102     -0.004767      0.028869
 --------------------------------------------------------
                        XY            XZ            YZ
 --------------------------------------------------------
     1   Atom        0.567214      0.142964      0.181826
     2   Atom        0.010709      0.003722      0.045596
     3   Atom       -0.029930     -0.025568      0.033265
     4   Atom       -0.230399     -0.321467      0.493147
     5   Atom        0.033302      0.009934      0.008265
     6   Atom        0.004532      0.001094     -0.079597
     7   Atom       -0.023831      0.010990     -0.048439
     8   Atom       -0.472083     -0.149945      0.315993
     9   Atom       -0.015000      0.020768     -0.032819
    10   Atom       -0.014225     -0.023401      0.013323
    11   Atom       -0.000803      0.002491      0.003152
    12   Atom        0.001011     -0.002010     -0.000562
    13   Atom        0.007207     -0.010360     -0.018693
    14   Atom        0.003782      0.002451     -0.000858
    15   Atom        0.002325      0.004985      0.001818
    16   Atom        0.001825      0.004055     -0.000178
    17   Atom       -0.011768     -0.002361     -0.001452
    18   Atom        0.000108     -0.002031     -0.003527
    19   Atom        0.009897     -0.011813     -0.022667
 --------------------------------------------------------


 ---------------------------------------------------------------------------------
              Anisotropic Spin Dipole Couplings in Principal Axis System
 ---------------------------------------------------------------------------------

       Atom             a.u.   MegaHertz   Gauss  10(-4) cm-1        Axes

              Baa    -0.4055   -15.641    -5.581    -5.217  0.4962 -0.5745  0.6509
     1 N(14)  Bbb    -0.3962   -15.279    -5.452    -5.097 -0.6066  0.3070  0.7333
              Bcc     0.8017    30.920    11.033    10.314  0.6212  0.7587  0.1962
 
              Baa    -0.0972   -13.040    -4.653    -4.350 -0.4145 -0.1315  0.9005
     2 C(13)  Bbb    -0.0920   -12.352    -4.407    -4.120  0.9092 -0.1029  0.4034
              Bcc     0.1892    25.392     9.060     8.470  0.0396  0.9860  0.1622
 
              Baa    -0.0363    -4.866    -1.736    -1.623 -0.0092 -0.6568  0.7540
     3 C(13)  Bbb    -0.0233    -3.124    -1.115    -1.042  0.8095  0.4378  0.3912
              Bcc     0.0595     7.991     2.851     2.665 -0.5870  0.6140  0.5277
 
              Baa    -0.4054    29.336    10.468     9.785  0.1516  0.8393 -0.5221
     4 O(17)  Bbb    -0.3883    28.095    10.025     9.372  0.9212  0.0715  0.3824
              Bcc     0.7937   -57.431   -20.493   -19.157 -0.3583  0.5389  0.7624
 
              Baa    -0.0275    -3.696    -1.319    -1.233 -0.4259  0.8172 -0.3884
     5 C(13)  Bbb    -0.0226    -3.029    -1.081    -1.010 -0.3465  0.2492  0.9043
              Bcc     0.0501     6.725     2.400     2.243  0.8358  0.5198  0.1771
 
              Baa    -0.0684     4.946     1.765     1.650 -0.2451  0.4620  0.8523
     6 O(17)  Bbb    -0.0553     4.001     1.427     1.334  0.9693  0.0992  0.2250
              Bcc     0.1236    -8.946    -3.192    -2.984  0.0194  0.8813 -0.4722
 
              Baa    -0.0780   -10.463    -3.733    -3.490  0.8942 -0.0018 -0.4478
     7 C(13)  Bbb    -0.0654    -8.777    -3.132    -2.928  0.4318  0.2684  0.8611
              Bcc     0.1434    19.240     6.865     6.418 -0.1186  0.9633 -0.2408
 
              Baa    -0.4446    32.169    11.479    10.731 -0.0898 -0.3448  0.9344
     8 O(17)  Bbb    -0.4236    30.649    10.936    10.223  0.9016  0.3705  0.2233
              Bcc     0.8681   -62.818   -22.415   -20.954 -0.4232  0.8625  0.2776
 
              Baa    -0.0338   -18.032    -6.434    -6.015 -0.5040  0.3554  0.7872
     9 H(1)   Bbb    -0.0166    -8.835    -3.153    -2.947  0.7820  0.5748  0.2412
              Bcc     0.0504    26.867     9.587     8.962 -0.3667  0.7371 -0.5676
 
              Baa    -0.0352   -18.798    -6.708    -6.270  0.2117 -0.3982  0.8925
    10 H(1)   Bbb    -0.0145    -7.759    -2.769    -2.588  0.3802  0.8749  0.3002
              Bcc     0.0498    26.558     9.476     8.859  0.9004 -0.2757 -0.3366
 
              Baa    -0.0061    -3.235    -1.154    -1.079  0.8173  0.5137 -0.2609
    11 H(1)   Bbb    -0.0031    -1.637    -0.584    -0.546 -0.5540  0.8251 -0.1108
              Bcc     0.0091     4.872     1.739     1.625  0.1583  0.2351  0.9590
 
              Baa    -0.0058    -3.077    -1.098    -1.026  0.5429 -0.0060  0.8398
    12 H(1)   Bbb    -0.0015    -0.803    -0.287    -0.268  0.8320 -0.1327 -0.5388
              Bcc     0.0073     3.880     1.384     1.294  0.1146  0.9911 -0.0670
 
              Baa    -0.0290   -15.462    -5.517    -5.158  0.6119  0.1582  0.7750
    13 H(1)   Bbb    -0.0135    -7.192    -2.566    -2.399  0.7731 -0.3266 -0.5437
              Bcc     0.0425    22.655     8.084     7.557  0.1671  0.9318 -0.3221
 
              Baa    -0.0053    -2.830    -1.010    -0.944 -0.5909  0.3452  0.7291
    14 H(1)   Bbb    -0.0003    -0.153    -0.055    -0.051  0.5621 -0.4721  0.6791
              Bcc     0.0056     2.983     1.064     0.995  0.5786  0.8111  0.0849
 
              Baa    -0.0050    -2.683    -0.957    -0.895 -0.4984  0.8608  0.1033
    15 H(1)   Bbb    -0.0029    -1.568    -0.560    -0.523  0.6578  0.4530 -0.6017
              Bcc     0.0080     4.251     1.517     1.418  0.5648  0.2319  0.7920
 
              Baa    -0.0057    -3.033    -1.082    -1.012 -0.3042  0.4421  0.8438
    16 H(1)   Bbb    -0.0040    -2.111    -0.753    -0.704  0.0196  0.8885 -0.4585
              Bcc     0.0096     5.144     1.835     1.716  0.9524  0.1230  0.2789
 
              Baa    -0.0119    -6.359    -2.269    -2.121  0.4150  0.7513  0.5132
    17 H(1)   Bbb    -0.0065    -3.490    -1.245    -1.164 -0.1918 -0.4791  0.8565
              Bcc     0.0185     9.849     3.514     3.285  0.8894 -0.4539 -0.0547
 
              Baa    -0.0093    -4.980    -1.777    -1.661  0.9939  0.0609  0.0921
    18 H(1)   Bbb    -0.0063    -3.377    -1.205    -1.127 -0.0748  0.9849  0.1564
              Bcc     0.0157     8.357     2.982     2.788 -0.0812 -0.1623  0.9834
 
              Baa    -0.0284   -15.152    -5.407    -5.054  0.9403 -0.3349  0.0614
    19 H(1)   Bbb    -0.0152    -8.116    -2.896    -2.707  0.2624  0.8277  0.4960
              Bcc     0.0436    23.268     8.303     7.761 -0.2169 -0.4502  0.8662
 

 ---------------------------------------------------------------------------------

   1 Symmetry operations used in ECPInt.
 ECPInt:  NShTT=    2485 NPrTT=   10007 LenC2=    2466 LenP2D=    7959.
 LDataN:  DoStor=T MaxTD1= 5 Len=  102
 Calling FoFJK, ICntrl=      2127 FMM=F ISym2X=0 I1Cent= 0 IOpClX= 1 NMat=1 NMatS=1 NMatT=0.

 GradGradGradGradGradGradGradGradGradGradGradGradGradGradGradGradGradGrad
 FormGI is forming the generalized inverse of G from B-inverse, IUseBI=4.
 Internal  Forces:  Max     0.019357002 RMS     0.005629629
 Step number   1 out of a maximum of  100
 All quantities printed in internal units (Hartrees-Bohrs-Radians)
 Mixed Optimization -- RFO/linear search
 Second derivative matrix not updated -- first step.
 ITU=  0
     Eigenvalues ---    0.00230   0.00258   0.00372   0.00872   0.01590
     Eigenvalues ---    0.01612   0.01765   0.03840   0.04658   0.04677
     Eigenvalues ---    0.05134   0.05141   0.05325   0.05757   0.05810
     Eigenvalues ---    0.05914   0.06020   0.11107   0.11355   0.11791
     Eigenvalues ---    0.13667   0.13743   0.14092   0.14707   0.15483
     Eigenvalues ---    0.16000   0.16000   0.16000   0.16000   0.16000
     Eigenvalues ---    0.21987   0.22000   0.22049   0.27888   0.28664
     Eigenvalues ---    0.29442   0.32312   0.32592   0.32627   0.32868
     Eigenvalues ---    0.32954   0.33289   0.36717   0.44325   0.44375
     Eigenvalues ---    0.44634   0.44637   0.46546   0.50874   0.52253
     Eigenvalues ---    0.54450
 Linear search not attempted -- first point.
 Iteration  1 RMS(Cart)=  0.07527557 RMS(Int)=  0.00493481
 Iteration  2 RMS(Cart)=  0.00540186 RMS(Int)=  0.00162785
 Iteration  3 RMS(Cart)=  0.00003136 RMS(Int)=  0.00162768
 Iteration  4 RMS(Cart)=  0.00000004 RMS(Int)=  0.00162768
 Variable       Old X    -DE/DX   Delta X   Delta X   Delta X     New X
                                 (Linear)    (Quad)   (Total)
    R1        2.76274  -0.01346   0.00000  -0.03472  -0.03472   2.72802
    R2        1.92400   0.00564   0.00000   0.01208   0.01208   1.93608
    R3        1.92768   0.00816   0.00000   0.01760   0.01760   1.94528
    R4        2.90710   0.00641   0.00000   0.02087   0.02087   2.92797
    R5        2.89091   0.00060   0.00000   0.00189   0.00189   2.89280
    R6        2.92383   0.01197   0.00000   0.03997   0.03997   2.96380
    R7        2.63521  -0.00585   0.00000  -0.01204  -0.01204   2.62317
    R8        2.10277  -0.00213   0.00000  -0.00620  -0.00620   2.09657
    R9        2.09132  -0.00213   0.00000  -0.00609  -0.00609   2.08523
   R10        1.84358   0.00630   0.00000   0.01160   0.01160   1.85518
   R11        2.66009  -0.00793   0.00000  -0.01708  -0.01708   2.64300
   R12        2.09774  -0.00147   0.00000  -0.00425  -0.00425   2.09349
   R13        2.09711  -0.00163   0.00000  -0.00471  -0.00471   2.09241
   R14        1.82324   0.00395   0.00000   0.00700   0.00700   1.83024
   R15        2.65703  -0.01114   0.00000  -0.02386  -0.02386   2.63317
   R16        2.09284   0.00272   0.00000   0.00779   0.00779   2.10063
   R17        2.08547  -0.00181   0.00000  -0.00513  -0.00513   2.08034
   R18        1.85694   0.00142   0.00000   0.00268   0.00268   1.85961
    A1        1.96597   0.01425   0.00000   0.10849   0.10154   2.06751
    A2        1.92379   0.00354   0.00000   0.05022   0.04292   1.96671
    A3        1.91749  -0.00221   0.00000   0.04151   0.03139   1.94889
    A4        1.91851  -0.00396   0.00000  -0.02008  -0.01938   1.89912
    A5        1.95572  -0.00616   0.00000  -0.04147  -0.04111   1.91462
    A6        1.84260   0.00842   0.00000   0.04024   0.03958   1.88217
    A7        1.90116   0.01163   0.00000   0.07349   0.07351   1.97468
    A8        1.91621  -0.00536   0.00000  -0.02523  -0.02476   1.89145
    A9        1.92906  -0.00505   0.00000  -0.02993  -0.02954   1.89952
   A10        1.98540  -0.00636   0.00000  -0.03000  -0.03012   1.95528
   A11        1.88315   0.00269   0.00000   0.01134   0.01123   1.89437
   A12        1.90634  -0.00116   0.00000  -0.00944  -0.00943   1.89691
   A13        1.95266   0.00057   0.00000  -0.00517  -0.00524   1.94742
   A14        1.86743   0.00374   0.00000   0.01829   0.01809   1.88551
   A15        1.86489   0.00084   0.00000   0.01751   0.01750   1.88239
   A16        1.87614   0.01356   0.00000   0.07512   0.07512   1.95126
   A17        1.88894  -0.01094   0.00000  -0.04845  -0.04861   1.84033
   A18        1.90105  -0.00088   0.00000  -0.01775  -0.01781   1.88324
   A19        1.91267   0.00186   0.00000   0.00502   0.00533   1.91800
   A20        1.93564   0.00489   0.00000   0.02014   0.01911   1.95476
   A21        1.94357   0.00496   0.00000   0.02889   0.02867   1.97224
   A22        1.88163   0.00012   0.00000   0.01161   0.01127   1.89290
   A23        1.91080   0.00525   0.00000   0.02908   0.02908   1.93988
   A24        1.90479   0.00599   0.00000   0.02466   0.02469   1.92949
   A25        1.90853  -0.00780   0.00000  -0.04791  -0.04782   1.86071
   A26        1.93482   0.00170   0.00000   0.01330   0.01329   1.94811
   A27        1.94206   0.00192   0.00000   0.01738   0.01770   1.95975
   A28        1.88659  -0.00405   0.00000  -0.01804  -0.01822   1.86837
   A29        1.88719   0.00230   0.00000   0.01123   0.01129   1.89848
   A30        1.79427   0.01936   0.00000   0.10727   0.10727   1.90154
    D1       -0.50079   0.00315   0.00000   0.13103   0.13300  -0.36779
    D2        1.61582   0.01104   0.00000   0.18264   0.18513   1.80096
    D3       -2.56641   0.00678   0.00000   0.14848   0.15047  -2.41594
    D4       -2.64921  -0.00675   0.00000  -0.03706  -0.03939  -2.68861
    D5       -0.53260   0.00115   0.00000   0.01455   0.01273  -0.51986
    D6        1.56835  -0.00312   0.00000  -0.01961  -0.02192   1.54643
    D7       -0.94430  -0.00424   0.00000  -0.07443  -0.07448  -1.01878
    D8       -3.12157  -0.00259   0.00000  -0.05538  -0.05536   3.10626
    D9        1.14054  -0.00444   0.00000  -0.07728  -0.07719   1.06335
   D10       -3.09330  -0.00166   0.00000  -0.05810  -0.05825   3.13163
   D11        1.01262  -0.00000   0.00000  -0.03905  -0.03913   0.97349
   D12       -1.00846  -0.00185   0.00000  -0.06095  -0.06096  -1.06942
   D13        1.07531   0.00057   0.00000  -0.05184  -0.05185   1.02346
   D14       -1.10196   0.00222   0.00000  -0.03279  -0.03273  -1.13468
   D15       -3.12303   0.00038   0.00000  -0.05469  -0.05456   3.10560
   D16        0.87974   0.00049   0.00000  -0.02472  -0.02395   0.85579
   D17       -1.22626   0.00159   0.00000  -0.00989  -0.00962  -1.23588
   D18        3.00230   0.00089   0.00000  -0.01645  -0.01584   2.98646
   D19        3.00631  -0.00052   0.00000  -0.02655  -0.02644   2.97988
   D20        0.90031   0.00057   0.00000  -0.01171  -0.01210   0.88821
   D21       -1.15431  -0.00012   0.00000  -0.01827  -0.01833  -1.17264
   D22       -1.17017  -0.00285   0.00000  -0.02934  -0.02955  -1.19972
   D23        3.00701  -0.00176   0.00000  -0.01450  -0.01522   2.99179
   D24        0.95239  -0.00246   0.00000  -0.02106  -0.02144   0.93095
   D25        0.84586   0.00240   0.00000   0.06061   0.06057   0.90643
   D26       -1.28220   0.00116   0.00000   0.05373   0.05394  -1.22826
   D27        2.92188   0.00220   0.00000   0.06196   0.06217   2.98405
   D28       -1.22129   0.00511   0.00000   0.07467   0.07461  -1.14668
   D29        2.93383   0.00386   0.00000   0.06778   0.06799   3.00182
   D30        0.85473   0.00491   0.00000   0.07602   0.07621   0.93093
   D31        2.96419  -0.00269   0.00000   0.01859   0.01818   2.98237
   D32        0.83613  -0.00393   0.00000   0.01171   0.01156   0.84768
   D33       -1.24298  -0.00289   0.00000   0.01994   0.01978  -1.22320
   D34       -0.71857  -0.00669   0.00000  -0.16020  -0.16040  -0.87897
   D35        1.42093  -0.00749   0.00000  -0.17189  -0.17182   1.24911
   D36       -2.82539  -0.00390   0.00000  -0.14253  -0.14240  -2.96779
   D37       -3.09771   0.00056   0.00000  -0.00348  -0.00351  -3.10121
   D38       -1.01338  -0.00444   0.00000  -0.04349  -0.04405  -1.05743
   D39        1.08207   0.00231   0.00000   0.00402   0.00461   1.08668
   D40       -0.74808  -0.00067   0.00000  -0.07098  -0.07116  -0.81924
   D41        1.35961  -0.00522   0.00000  -0.10341  -0.10329   1.25632
   D42       -2.85388  -0.00381   0.00000  -0.09073  -0.09067  -2.94455
         Item               Value     Threshold  Converged?
 Maximum Force            0.019357     0.000015     NO 
 RMS     Force            0.005630     0.000010     NO 
 Maximum Displacement     0.235032     0.000060     NO 
 RMS     Displacement     0.075744     0.000040     NO 
 GradGradGradGradGradGradGradGradGradGradGradGradGradGradGradGradGradGrad

                    Distance matrix (angstroms):
                    1          2          3          4          5
     1  N    0.000000
     2  C    1.443608   0.000000
     3  C    2.434587   1.549414   0.000000
     4  O    2.847468   2.437417   1.388123   0.000000
     5  C    2.432531   1.530804   2.570656   3.794404   0.000000
     6  O    2.640736   2.332321   3.734908   4.765130   1.398618
     7  C    2.435389   1.568378   2.528309   2.907567   2.520589
     8  O    2.762038   2.436346   2.960925   2.645181   3.747758
     9  H    1.024529   2.131495   2.531590   2.765045   3.077764
    10  H    1.029396   2.071195   3.321854   3.868590   2.481291
    11  H    3.384180   2.173645   1.109457   2.071374   2.773309
    12  H    2.679767   2.171117   1.103457   2.023065   2.816426
    13  H    3.049475   2.582682   1.975546   0.981718   4.023482
    14  H    2.752559   2.147834   2.719911   4.023561   1.107825
    15  H    3.385203   2.173219   2.880331   4.138649   1.107254
    16  H    3.539458   3.209904   4.498953   5.627341   1.967618
    17  H    2.731543   2.166162   3.469480   3.951345   2.618666
    18  H    3.398817   2.223499   2.734141   3.177586   2.868485
    19  H    2.278071   2.506024   3.135347   2.724958   3.885197
                    6          7          8          9         10
     6  O    0.000000
     7  C    2.894059   0.000000
     8  O    4.065449   1.393415   0.000000
     9  H    3.448321   3.297193   3.420439   0.000000
    10  H    2.149953   2.906780   3.402324   1.699398   0.000000
    11  H    4.073085   2.782523   3.401621   3.605766   4.171453
    12  H    4.003169   3.487781   3.939806   2.423867   3.476949
    13  H    4.848113   2.477835   1.892655   3.216220   4.020560
    14  H    2.084281   3.473135   4.566852   3.059257   2.804764
    15  H    2.095804   2.696078   4.035583   4.046003   3.521938
    16  H    0.968519   3.769829   4.997362   4.260247   2.962291
    17  H    2.436349   1.111606   2.086157   3.730818   2.803941
    18  H    3.469097   1.100867   2.013213   4.179015   3.903097
    19  H    4.053241   1.949506   0.984064   2.839534   2.892215
                   11         12         13         14         15
    11  H    0.000000
    12  H    1.788620   0.000000
    13  H    2.443224   2.863870   0.000000
    14  H    2.981121   2.511442   4.489148   0.000000
    15  H    2.637187   3.273297   4.277332   1.797196   0.000000
    16  H    4.721167   4.657582   5.753334   2.374502   2.398567
    17  H    3.729448   4.305202   3.535566   3.678988   2.832789
    18  H    2.535343   3.767826   2.701812   3.812364   2.601762
    19  H    3.841873   3.933013   2.167872   4.590425   4.415909
                   16         17         18         19
    16  H    0.000000
    17  H    3.243264   0.000000
    18  H    4.205331   1.798689   0.000000
    19  H    5.016319   2.426562   2.835408   0.000000
 Framework group  C1[X(C4H11NO3)]
 Deg. of freedom    51
                         Standard orientation:                         
 ---------------------------------------------------------------------
 Center     Atomic      Atomic             Coordinates (Angstroms)
 Number     Number       Type             X           Y           Z
 ---------------------------------------------------------------------
      1          7           0       -0.220699   -0.109206    1.413684
      2          6           0       -0.192867   -0.233550   -0.024289
      3          6           0        0.903951   -1.255318   -0.416290
      4          8           0        2.156607   -0.878328    0.048056
      5          6           0       -1.583508   -0.617755   -0.536018
      6          8           0       -2.466597    0.275573    0.079002
      7          6           0        0.197639    1.163772   -0.619944
      8          8           0        1.360579    1.643301   -0.020588
      9          1           0        0.175634   -0.867607    1.977072
     10          1           0       -1.140265    0.187371    1.768784
     11          1           0        0.896645   -1.374942   -1.519254
     12          1           0        0.653397   -2.232165    0.031603
     13          1           0        2.368877    0.050445   -0.188785
     14          1           0       -1.778720   -1.666407   -0.236854
     15          1           0       -1.607924   -0.558262   -1.641403
     16          1           0       -3.384312    0.081375   -0.162067
     17          1           0       -0.671688    1.835551   -0.450681
     18          1           0        0.393316    1.103238   -1.701588
     19          1           0        1.283922    1.538588    0.954881
 ---------------------------------------------------------------------
 Rotational constants (GHZ):           2.9786902           1.5542256           1.3101657
   134 basis functions,   244 primitive gaussians,   142 cartesian basis functions
    33 alpha electrons       32 beta electrons
       nuclear repulsion energy       440.5896055166 Hartrees.
 NAtoms=   19 NActive=   19 NUniq=   19 SFac= 1.00D+00 NAtFMM=   60 NAOKFM=F Big=F
 Nuclear repulsion after empirical dispersion term =      440.5774140432 Hartrees.
   1 Symmetry operations used in ECPInt.
 ECPInt:  NShTT=    2485 NPrTT=   10007 LenC2=    2466 LenP2D=    7959.
 LDataN:  DoStor=T MaxTD1= 4 Len=   56
 Initial guess from the checkpoint file:  "27.chk"
 B after Tr=    -0.000000   -0.000000    0.000000
         Rot=    0.999497   -0.030966    0.006821    0.000504 Ang=  -3.63 deg.
 Initial guess <Sx>= 0.0000 <Sy>= 0.0000 <Sz>= 0.5000 <S**2>= 0.7552 S= 0.5026
 ExpMin= 1.22D-01 ExpMax= 2.27D+03 ExpMxC= 3.41D+02 IAcc=3 IRadAn=         5 AccDes= 0.00D+00
 Harris functional with IExCor= 4639 and IRadAn=       5 diagonalized for initial guess.
 HarFok:  IExCor= 4639 AccDes= 0.00D+00 IRadAn=         5 IDoV= 1 UseB2=F ITyADJ=14
 ICtDFT=  3500011 ScaDFX=  1.000000  1.000000  1.000000  1.000000
 FoFCou: FMM=F IPFlag=           0 FMFlag=      100000 FMFlg1=           0
         NFxFlg=           0 DoJE=T BraDBF=F KetDBF=T FulRan=T
         wScrn=  0.000000 ICntrl=       500 IOpCl=  0 I1Cent=   200000004 NGrid=           0
         NMat0=    1 NMatS0=      1 NMatT0=    0 NMatD0=    1 NMtDS0=    0 NMtDT0=    0
 Petite list used in FoFCou.
     Accept linear search using points  3 and  4.
     Minimum is close to point  4 DX= -4.72D-02 DF= -4.10D-06 DXR=  4.09D-02 DFR=  3.49D-04 which will be used.
     Minimum is close to point  2 DX=  3.37D-02 DF= -1.18D-06 DXR=  3.26D-02 DFR=  1.06D-03 which will be used.
     Accept linear search using points  1 and  2.
     Minimum is close to point  2 DX= -1.35D-02 DF= -1.02D-07 DXR=  1.52D-02 DFR=  1.86D-04 which will be used.
     Accept linear search using points  1 and  2.
     Minimum is close to point  2 DX= -4.17D-02 DF= -5.96D-07 DXR=  4.35D-02 DFR=  1.89D-03 which will be used.
     Accept linear search using points  1 and  2.
     Minimum is close to point  2 DX= -4.92D-02 DF= -5.59D-07 DXR=  5.79D-02 DFR=  2.74D-03 which will be used.
     Minimum is close to point  2 DX=  7.71D-02 DF= -8.94D-07 DXR=  7.89D-02 DFR=  6.27D-03 which will be used.
     Accept linear search using points  1 and  2.
     Minimum is close to point  2 DX=  6.89D-02 DF= -3.13D-07 DXR=  6.45D-02 DFR=  4.17D-03 which will be used.
     Minimum is close to point  2 DX=  3.42D-02 DF= -7.11D-08 DXR=  3.31D-02 DFR=  1.09D-03 which will be used.
     Accept linear search using points  1 and  2.
     Minimum is close to point  2 DX= -7.77D-02 DF= -3.84D-07 DXR=  7.60D-02 DFR=  6.78D-03 which will be used.
     Accept linear search using points  1 and  2.
     Minimum is close to point  2 DX=  4.97D-03 DF= -1.44D-08 DXR=  4.94D-03 DFR=  2.44D-05 which will be used.
     Minimum is close to point  2 DX=  1.69D-03 DF= -1.99D-12 DXR=  1.69D-03 DFR=  2.87D-06 which will be used.
 SCF Done:  E(UwB97XD) =  -438.623918952     a.u. after   17 cycles
            Convg  =    0.1440D-08                    78 Fock formations.
              S**2 =  0.7551                  -V/T =  2.0081
 <Sx>= 0.0000 <Sy>= 0.0000 <Sz>= 0.5000 <S**2>= 0.7551 S= 0.5025
 <L.S>=  0.00000000000    
 Annihilation of the first spin contaminant:
 S**2 before annihilation     0.7551,   after     0.7500
   1 Symmetry operations used in ECPInt.
 ECPInt:  NShTT=    2485 NPrTT=   10007 LenC2=    2466 LenP2D=    7959.
 LDataN:  DoStor=T MaxTD1= 5 Len=  102
 Calling FoFJK, ICntrl=      2127 FMM=F ISym2X=0 I1Cent= 0 IOpClX= 1 NMat=1 NMatS=1 NMatT=0.

 GradGradGradGradGradGradGradGradGradGradGradGradGradGradGradGradGradGrad
 Using GEDIIS/GDIIS optimizer.
 FormGI is forming the generalized inverse of G from B-inverse, IUseBI=4.
 Internal  Forces:  Max     0.016164416 RMS     0.003619293
 Step number   2 out of a maximum of  100
 All quantities printed in internal units (Hartrees-Bohrs-Radians)
 Mixed Optimization -- RFO/linear search
 Trust test= 1.10D+00 RLast= 5.44D-01 DXMaxT set to 5.05D-01
 ITU=  1  0
 Use linear search instead of GDIIS.
     Eigenvalues ---    0.00234   0.00287   0.00370   0.00790   0.01376
     Eigenvalues ---    0.01591   0.01747   0.02431   0.04453   0.04947
     Eigenvalues ---    0.05049   0.05294   0.05638   0.05830   0.05883
     Eigenvalues ---    0.05982   0.06188   0.10662   0.11063   0.11570
     Eigenvalues ---    0.13263   0.13438   0.13897   0.14244   0.15366
     Eigenvalues ---    0.15713   0.16000   0.16000   0.16000   0.17145
     Eigenvalues ---    0.21335   0.22037   0.24899   0.27763   0.28572
     Eigenvalues ---    0.30141   0.32303   0.32591   0.32619   0.32940
     Eigenvalues ---    0.33036   0.33278   0.36440   0.43864   0.44351
     Eigenvalues ---    0.44550   0.45194   0.46576   0.51401   0.53603
     Eigenvalues ---    0.54680
 Quartic linear search produced a step of  0.65656.
 Iteration  1 RMS(Cart)=  0.10088297 RMS(Int)=  0.02196400
 Iteration  2 RMS(Cart)=  0.02091018 RMS(Int)=  0.00470758
 Iteration  3 RMS(Cart)=  0.00093023 RMS(Int)=  0.00461576
 Iteration  4 RMS(Cart)=  0.00000581 RMS(Int)=  0.00461576
 Iteration  5 RMS(Cart)=  0.00000011 RMS(Int)=  0.00461576
 Variable       Old X    -DE/DX   Delta X   Delta X   Delta X     New X
                                 (Linear)    (Quad)   (Total)
    R1        2.72802  -0.01616  -0.02280  -0.06017  -0.08296   2.64506
    R2        1.93608  -0.00062   0.00793  -0.00244   0.00549   1.94157
    R3        1.94528   0.00003   0.01155  -0.00063   0.01092   1.95620
    R4        2.92797   0.00456   0.01370   0.02096   0.03466   2.96263
    R5        2.89280   0.00611   0.00124   0.02877   0.03001   2.92281
    R6        2.96380   0.01104   0.02624   0.05265   0.07889   3.04270
    R7        2.62317  -0.00644  -0.00790  -0.01910  -0.02701   2.59617
    R8        2.09657  -0.00055  -0.00407  -0.00208  -0.00615   2.09042
    R9        2.08523  -0.00043  -0.00400  -0.00150  -0.00550   2.07973
   R10        1.85518  -0.00325   0.00762  -0.00925  -0.00163   1.85355
   R11        2.64300  -0.00041  -0.01122  -0.00060  -0.01181   2.63119
   R12        2.09349  -0.00010  -0.00279  -0.00023  -0.00302   2.09047
   R13        2.09241  -0.00062  -0.00309  -0.00242  -0.00551   2.08690
   R14        1.83024   0.00021   0.00459   0.00030   0.00489   1.83513
   R15        2.63317  -0.00819  -0.01567  -0.02494  -0.04061   2.59256
   R16        2.10063  -0.00173   0.00511  -0.00773  -0.00262   2.09801
   R17        2.08034  -0.00056  -0.00337  -0.00209  -0.00547   2.07487
   R18        1.85961  -0.00755   0.00176  -0.02114  -0.01938   1.84023
    A1        2.06751   0.00314   0.06666   0.04943   0.09288   2.16038
    A2        1.96671   0.00082   0.02818   0.03653   0.04094   2.00765
    A3        1.94889   0.00218   0.02061   0.06710   0.06123   2.01011
    A4        1.89912  -0.00189  -0.01273  -0.00379  -0.01596   1.88317
    A5        1.91462  -0.00046  -0.02699  -0.00843  -0.03458   1.88004
    A6        1.88217   0.00249   0.02598   0.02049   0.04496   1.92713
    A7        1.97468   0.00275   0.04827   0.01518   0.06355   2.03823
    A8        1.89145   0.00119  -0.01626   0.01925   0.00408   1.89554
    A9        1.89952  -0.00403  -0.01939  -0.04178  -0.06066   1.83886
   A10        1.95528   0.00282  -0.01978   0.02042   0.00014   1.95542
   A11        1.89437  -0.00203   0.00737  -0.00575   0.00128   1.89565
   A12        1.89691  -0.00076  -0.00619  -0.01729  -0.02386   1.87304
   A13        1.94742   0.00186  -0.00344   0.04172   0.03815   1.98557
   A14        1.88551  -0.00291   0.01187  -0.04351  -0.03213   1.85339
   A15        1.88239   0.00092   0.01149   0.00233   0.01401   1.89640
   A16        1.95126  -0.00323   0.04932  -0.03353   0.01579   1.96706
   A17        1.84033   0.00352  -0.03192   0.02682  -0.00518   1.83515
   A18        1.88324  -0.00109  -0.01169  -0.00443  -0.01619   1.86705
   A19        1.91800  -0.00125   0.00350  -0.00896  -0.00526   1.91274
   A20        1.95476  -0.00082   0.01255  -0.00361   0.00816   1.96292
   A21        1.97224  -0.00093   0.01882  -0.00693   0.01171   1.98396
   A22        1.89290   0.00055   0.00740  -0.00255   0.00448   1.89739
   A23        1.93988   0.00175   0.01909   0.01214   0.03123   1.97110
   A24        1.92949   0.00984   0.01621   0.06087   0.07766   2.00715
   A25        1.86071  -0.00361  -0.03140  -0.01993  -0.05253   1.80818
   A26        1.94811  -0.00613   0.00872  -0.06020  -0.05184   1.89627
   A27        1.95975  -0.00155   0.01162   0.00673   0.01929   1.97904
   A28        1.86837  -0.00167  -0.01197  -0.00435  -0.01519   1.85318
   A29        1.89848   0.00295   0.00741   0.01527   0.02070   1.91918
   A30        1.90154   0.00369   0.07043   0.02168   0.09211   1.99364
    D1       -0.36779   0.00618   0.08733   0.21966   0.31039  -0.05740
    D2        1.80096   0.00806   0.12155   0.23056   0.35627   2.15723
    D3       -2.41594   0.00442   0.09879   0.18760   0.28940  -2.12653
    D4       -2.68861  -0.00153  -0.02586   0.02010  -0.00942  -2.69802
    D5       -0.51986   0.00035   0.00836   0.03100   0.03647  -0.48339
    D6        1.54643  -0.00330  -0.01439  -0.01196  -0.03040   1.51603
    D7       -1.01878   0.00111  -0.04890   0.09595   0.04727  -0.97151
    D8        3.10626  -0.00171  -0.03635   0.03328  -0.00271   3.10354
    D9        1.06335  -0.00127  -0.05068   0.04317  -0.00699   1.05636
   D10        3.13163   0.00121  -0.03824   0.09925   0.06094  -3.09061
   D11        0.97349  -0.00161  -0.02569   0.03658   0.01095   0.98443
   D12       -1.06942  -0.00117  -0.04002   0.04647   0.00667  -1.06275
   D13        1.02346   0.00371  -0.03404   0.12887   0.09426   1.11772
   D14       -1.13468   0.00088  -0.02149   0.06620   0.04427  -1.09042
   D15        3.10560   0.00133  -0.03582   0.07610   0.03999  -3.13760
   D16        0.85579  -0.00009  -0.01573  -0.03007  -0.04437   0.81142
   D17       -1.23588  -0.00046  -0.00632  -0.03787  -0.04313  -1.27901
   D18        2.98646   0.00021  -0.01040  -0.02722  -0.03635   2.95011
   D19        2.97988  -0.00096  -0.01736  -0.03064  -0.04772   2.93216
   D20        0.88821  -0.00133  -0.00795  -0.03845  -0.04647   0.84174
   D21       -1.17264  -0.00066  -0.01203  -0.02779  -0.03969  -1.21233
   D22       -1.19972  -0.00048  -0.01940  -0.02556  -0.04616  -1.24588
   D23        2.99179  -0.00085  -0.00999  -0.03337  -0.04491   2.94688
   D24        0.93095  -0.00018  -0.01408  -0.02272  -0.03814   0.89281
   D25        0.90643   0.00120   0.03977   0.02255   0.06282   0.96925
   D26       -1.22826  -0.00043   0.03542  -0.00898   0.02808  -1.20018
   D27        2.98405   0.00163   0.04082   0.01828   0.05878   3.04283
   D28       -1.14668   0.00143   0.04899   0.00555   0.05436  -1.09232
   D29        3.00182  -0.00020   0.04464  -0.02597   0.01962   3.02144
   D30        0.93093   0.00186   0.05003   0.00128   0.05032   0.98126
   D31        2.98237  -0.00018   0.01194   0.00088   0.01217   2.99454
   D32        0.84768  -0.00181   0.00759  -0.03065  -0.02257   0.82511
   D33       -1.22320   0.00025   0.01299  -0.00339   0.00813  -1.21507
   D34       -0.87897  -0.00462  -0.10531  -0.14377  -0.24923  -1.12821
   D35        1.24911  -0.00387  -0.11281  -0.10639  -0.21880   1.03030
   D36       -2.96779  -0.00349  -0.09349  -0.10640  -0.20014   3.11526
   D37       -3.10121  -0.00049  -0.00230  -0.01741  -0.01972  -3.12093
   D38       -1.05743  -0.00012  -0.02892  -0.00860  -0.03798  -1.09540
   D39        1.08668  -0.00072   0.00302  -0.01996  -0.01648   1.07020
   D40       -0.81924  -0.00496  -0.04672  -0.16213  -0.20957  -1.02881
   D41        1.25632  -0.00390  -0.06782  -0.14180  -0.20863   1.04768
   D42       -2.94455  -0.00226  -0.05953  -0.12194  -0.18174  -3.12629
         Item               Value     Threshold  Converged?
 Maximum Force            0.016164     0.000015     NO 
 RMS     Force            0.003619     0.000010     NO 
 Maximum Displacement     0.565291     0.000060     NO 
 RMS     Displacement     0.111234     0.000040     NO 
 GradGradGradGradGradGradGradGradGradGradGradGradGradGradGradGradGradGrad

                    Distance matrix (angstroms):
                    1          2          3          4          5
     1  N    0.000000
     2  C    1.399707   0.000000
     3  C    2.401203   1.567757   0.000000
     4  O    2.792746   2.441632   1.373832   0.000000
     5  C    2.380998   1.546686   2.652418   3.843133   0.000000
     6  O    2.564316   2.335871   3.780641   4.763363   1.392367
     7  C    2.474682   1.610126   2.580924   2.998874   2.510771
     8  O    2.931479   2.518305   3.047849   2.812301   3.767920
     9  H    1.027434   2.148027   2.535196   2.598287   3.202240
    10  H    1.035176   2.063212   3.318628   3.826056   2.435567
    11  H    3.345290   2.188285   1.106203   2.082293   2.873368
    12  H    2.628461   2.167083   1.100547   1.985403   2.884245
    13  H    3.160190   2.698690   1.972234   0.980855   4.155988
    14  H    2.712090   2.148251   2.782340   4.051648   1.106229
    15  H    3.327661   2.181119   2.983591   4.225861   1.104338
    16  H    3.477130   3.229382   4.579818   5.654048   1.983834
    17  H    2.725245   2.160055   3.489873   4.005662   2.531274
    18  H    3.393980   2.220053   2.762197   3.303878   2.801248
    19  H    2.670967   2.755644   3.397227   2.994522   4.068729
                    6          7          8          9         10
     6  O    0.000000
     7  C    2.888953   0.000000
     8  O    4.068131   1.371925   0.000000
     9  H    3.501533   3.283340   3.457014   0.000000
    10  H    2.066454   2.959522   3.559067   1.741244   0.000000
    11  H    4.154166   2.806443   3.405101   3.617666   4.171143
    12  H    4.026621   3.527417   4.047764   2.496218   3.445953
    13  H    4.976535   2.680435   2.160127   3.152260   4.152393
    14  H    2.083185   3.467788   4.619857   3.264730   2.769311
    15  H    2.095946   2.637892   3.979264   4.149720   3.470578
    16  H    0.971107   3.750067   4.978441   4.360100   2.882325
    17  H    2.363111   1.110219   2.079457   3.683949   2.810246
    18  H    3.437128   1.097975   1.981715   4.152836   3.912341
    19  H    4.164853   1.981652   0.973806   3.071285   3.225043
                   11         12         13         14         15
    11  H    0.000000
    12  H    1.792695   0.000000
    13  H    2.394370   2.844024   0.000000
    14  H    3.048925   2.576815   4.585683   0.000000
    15  H    2.781114   3.371025   4.406774   1.796428   0.000000
    16  H    4.844770   4.727421   5.894247   2.412397   2.420174
    17  H    3.744446   4.298967   3.736612   3.601031   2.700600
    18  H    2.535282   3.768976   2.909288   3.729046   2.482761
    19  H    3.999519   4.252123   2.477139   4.851669   4.502179
                   16         17         18         19
    16  H    0.000000
    17  H    3.137991   0.000000
    18  H    4.155851   1.808426   0.000000
    19  H    5.105702   2.411854   2.844136   0.000000
 Framework group  C1[X(C4H11NO3)]
 Deg. of freedom    51
                         Standard orientation:                         
 ---------------------------------------------------------------------
 Center     Atomic      Atomic             Coordinates (Angstroms)
 Number     Number       Type             X           Y           Z
 ---------------------------------------------------------------------
      1          7           0       -0.256078   -0.337973    1.346653
      2          6           0       -0.181362   -0.264851   -0.049144
      3          6           0        0.975495   -1.212393   -0.520000
      4          8           0        2.170085   -0.908174    0.086482
      5          6           0       -1.592515   -0.554973   -0.611917
      6          8           0       -2.456877    0.221478    0.155343
      7          6           0        0.163117    1.237339   -0.515260
      8          8           0        1.304233    1.766965    0.032030
      9          1           0        0.328001   -0.960748    1.918164
     10          1           0       -1.183377   -0.112977    1.748005
     11          1           0        1.019232   -1.193968   -1.625185
     12          1           0        0.717034   -2.231548   -0.194850
     13          1           0        2.503866   -0.019210   -0.159301
     14          1           0       -1.773739   -1.638995   -0.486235
     15          1           0       -1.618232   -0.314045   -1.689347
     16          1           0       -3.388612    0.109845   -0.094570
     17          1           0       -0.754428    1.807247   -0.258540
     18          1           0        0.314932    1.241419   -1.602680
     19          1           0        1.299929    1.805905    1.005048
 ---------------------------------------------------------------------
 Rotational constants (GHZ):           2.8466046           1.5557902           1.2759071
   134 basis functions,   244 primitive gaussians,   142 cartesian basis functions
    33 alpha electrons       32 beta electrons
       nuclear repulsion energy       437.7350952740 Hartrees.
 NAtoms=   19 NActive=   19 NUniq=   19 SFac= 1.00D+00 NAtFMM=   60 NAOKFM=F Big=F
 Nuclear repulsion after empirical dispersion term =      437.7229760012 Hartrees.
   1 Symmetry operations used in ECPInt.
 ECPInt:  NShTT=    2485 NPrTT=   10007 LenC2=    2466 LenP2D=    7930.
 LDataN:  DoStor=T MaxTD1= 4 Len=   56
 Initial guess from the checkpoint file:  "27.chk"
 B after Tr=    -0.000000    0.000000   -0.000000
         Rot=    0.999118   -0.040730    0.001047   -0.010143 Ang=  -4.81 deg.
 Initial guess <Sx>= 0.0000 <Sy>= 0.0000 <Sz>= 0.5000 <S**2>= 0.7551 S= 0.5025
 ExpMin= 1.22D-01 ExpMax= 2.27D+03 ExpMxC= 3.41D+02 IAcc=3 IRadAn=         5 AccDes= 0.00D+00
 Harris functional with IExCor= 4639 and IRadAn=       5 diagonalized for initial guess.
 HarFok:  IExCor= 4639 AccDes= 0.00D+00 IRadAn=         5 IDoV= 1 UseB2=F ITyADJ=14
 ICtDFT=  3500011 ScaDFX=  1.000000  1.000000  1.000000  1.000000
 FoFCou: FMM=F IPFlag=           0 FMFlag=      100000 FMFlg1=           0
         NFxFlg=           0 DoJE=T BraDBF=F KetDBF=T FulRan=T
         wScrn=  0.000000 ICntrl=       500 IOpCl=  0 I1Cent=   200000004 NGrid=           0
         NMat0=    1 NMatS0=      1 NMatT0=    0 NMatD0=    1 NMtDS0=    0 NMtDT0=    0
 Petite list used in FoFCou.
     Minimum is close to point  4 DX=  3.90D-02 DF= -2.34D-05 DXR=  3.15D-02 DFR=  9.91D-04 which will be used.
     Accept linear search using points  2 and  3.
     Accept linear search using points  1 and  2.
     Minimum is close to point  2 DX= -8.69D-02 DF= -2.02D-05 DXR=  8.58D-02 DFR=  8.62D-03 which will be used.
     Accept linear search using points  1 and  2.
     Accept linear search using points  1 and  2.
     Accept linear search using points  1 and  2.
     Accept linear search using points  1 and  2.
     Accept linear search using points  1 and  2.
     Accept linear search using points  1 and  2.
     Accept linear search using points  1 and  2.
     Minimum is close to point  2 DX=  1.94D-03 DF= -2.35D-09 DXR=  1.93D-03 DFR=  3.74D-06 which will be used.
     Minimum is close to point  2 DX=  2.57D-03 DF= -2.14D-11 DXR=  2.56D-03 DFR=  6.59D-06 which will be used.
 SCF Done:  E(UwB97XD) =  -438.636869105     a.u. after   20 cycles
            Convg  =    0.1705D-08                    93 Fock formations.
              S**2 =  0.7550                  -V/T =  2.0081
 <Sx>= 0.0000 <Sy>= 0.0000 <Sz>= 0.5000 <S**2>= 0.7550 S= 0.5025
 <L.S>=  0.00000000000    
 Annihilation of the first spin contaminant:
 S**2 before annihilation     0.7550,   after     0.7500
   1 Symmetry operations used in ECPInt.
 ECPInt:  NShTT=    2485 NPrTT=   10007 LenC2=    2466 LenP2D=    7930.
 LDataN:  DoStor=T MaxTD1= 5 Len=  102
 Calling FoFJK, ICntrl=      2127 FMM=F ISym2X=0 I1Cent= 0 IOpClX= 1 NMat=1 NMatS=1 NMatT=0.

 GradGradGradGradGradGradGradGradGradGradGradGradGradGradGradGradGradGrad
 Using GEDIIS/GDIIS optimizer.
 FormGI is forming the generalized inverse of G from B-inverse, IUseBI=4.
 Internal  Forces:  Max     0.007465488 RMS     0.003078916
 Step number   3 out of a maximum of  100
 All quantities printed in internal units (Hartrees-Bohrs-Radians)
 Mixed Optimization -- RFO/linear search
 Trust test= 9.79D-01 RLast= 8.38D-01 DXMaxT set to 8.49D-01
 ITU=  1  1  0
 Use linear search instead of GDIIS.
     Eigenvalues ---    0.00217   0.00305   0.00370   0.00680   0.01182
     Eigenvalues ---    0.01569   0.01591   0.01762   0.04332   0.04681
     Eigenvalues ---    0.05040   0.05442   0.05690   0.06081   0.06110
     Eigenvalues ---    0.06293   0.06372   0.10567   0.10807   0.11544
     Eigenvalues ---    0.13391   0.13710   0.14025   0.14524   0.15797
     Eigenvalues ---    0.15960   0.15992   0.16000   0.16492   0.18884
     Eigenvalues ---    0.21337   0.23781   0.25674   0.27020   0.29462
     Eigenvalues ---    0.29963   0.32317   0.32598   0.32637   0.32952
     Eigenvalues ---    0.33072   0.33352   0.35394   0.43691   0.44386
     Eigenvalues ---    0.44545   0.45375   0.46986   0.51432   0.53203
     Eigenvalues ---    0.54681
 Quartic linear search produced a step of  0.38570.
 Iteration  1 RMS(Cart)=  0.07433441 RMS(Int)=  0.02450783
 Iteration  2 RMS(Cart)=  0.02052131 RMS(Int)=  0.00432191
 Iteration  3 RMS(Cart)=  0.00123313 RMS(Int)=  0.00414551
 Iteration  4 RMS(Cart)=  0.00000374 RMS(Int)=  0.00414550
 Iteration  5 RMS(Cart)=  0.00000005 RMS(Int)=  0.00414550
 Variable       Old X    -DE/DX   Delta X   Delta X   Delta X     New X
                                 (Linear)    (Quad)   (Total)
    R1        2.64506  -0.00287  -0.03200  -0.01195  -0.04395   2.60112
    R2        1.94157  -0.00371   0.00212  -0.00706  -0.00494   1.93663
    R3        1.95620  -0.00527   0.00421  -0.01016  -0.00594   1.95026
    R4        2.96263  -0.00499   0.01337  -0.01642  -0.00305   2.95958
    R5        2.92281   0.00238   0.01158   0.00792   0.01950   2.94231
    R6        3.04270   0.00494   0.03043   0.02349   0.05392   3.09661
    R7        2.59617   0.00326  -0.01042   0.00640  -0.00402   2.59215
    R8        2.09042   0.00080  -0.00237   0.00179  -0.00058   2.08984
    R9        2.07973   0.00146  -0.00212   0.00390   0.00178   2.08151
   R10        1.85355  -0.00745  -0.00063  -0.01351  -0.01414   1.83941
   R11        2.63119   0.00189  -0.00456   0.00190  -0.00266   2.62853
   R12        2.09047   0.00075  -0.00116   0.00184   0.00067   2.09114
   R13        2.08690   0.00086  -0.00213   0.00220   0.00008   2.08697
   R14        1.83513  -0.00261   0.00189  -0.00415  -0.00227   1.83286
   R15        2.59256  -0.00539  -0.01566  -0.01633  -0.03199   2.56057
   R16        2.09801  -0.00216  -0.00101  -0.00561  -0.00662   2.09139
   R17        2.07487   0.00158  -0.00211   0.00443   0.00232   2.07719
   R18        1.84023  -0.00250  -0.00748  -0.00428  -0.01175   1.82848
    A1        2.16038  -0.00613   0.03582  -0.00977   0.00360   2.16398
    A2        2.00765   0.00336   0.01579   0.04506   0.03835   2.04601
    A3        2.01011   0.00442   0.02361   0.05014   0.05096   2.06108
    A4        1.88317   0.00225  -0.00616   0.02019   0.01356   1.89673
    A5        1.88004   0.00190  -0.01334   0.03465   0.02118   1.90122
    A6        1.92713  -0.00181   0.01734  -0.00929   0.00791   1.93504
    A7        2.03823  -0.00211   0.02451  -0.00487   0.01856   2.05678
    A8        1.89554  -0.00220   0.00158  -0.04332  -0.04127   1.85427
    A9        1.83886   0.00181  -0.02340   0.00164  -0.02157   1.81730
   A10        1.95542  -0.00638   0.00005  -0.03692  -0.03704   1.91838
   A11        1.89565   0.00090   0.00049  -0.00089  -0.00039   1.89526
   A12        1.87304   0.00149  -0.00920   0.00869  -0.00063   1.87242
   A13        1.98557   0.00279   0.01471   0.00882   0.02333   2.00890
   A14        1.85339   0.00247  -0.01239   0.02534   0.01258   1.86597
   A15        1.89640  -0.00117   0.00540  -0.00354   0.00178   1.89818
   A16        1.96706  -0.00647   0.00609  -0.02923  -0.02313   1.94392
   A17        1.83515   0.00553  -0.00200   0.01981   0.01781   1.85296
   A18        1.86705  -0.00021  -0.00624   0.00343  -0.00284   1.86421
   A19        1.91274  -0.00118  -0.00203  -0.00275  -0.00477   1.90797
   A20        1.96292  -0.00191   0.00315  -0.00557  -0.00249   1.96043
   A21        1.98396  -0.00230   0.00452  -0.01079  -0.00629   1.97767
   A22        1.89739   0.00029   0.00173  -0.00264  -0.00100   1.89639
   A23        1.97110  -0.00316   0.01204  -0.01701  -0.00497   1.96613
   A24        2.00715  -0.00681   0.02995  -0.03526  -0.00566   2.00149
   A25        1.80818   0.00343  -0.02026   0.02217   0.00128   1.80946
   A26        1.89627  -0.00492  -0.02000  -0.05079  -0.07152   1.82475
   A27        1.97904   0.00270   0.00744   0.03404   0.04152   2.02057
   A28        1.85318   0.00445  -0.00586   0.00873   0.00191   1.85509
   A29        1.91918   0.00081   0.00798   0.01900   0.02556   1.94473
   A30        1.99364  -0.00747   0.03553  -0.03380   0.00172   1.99537
    D1       -0.05740   0.00402   0.11972   0.18124   0.30208   0.24468
    D2        2.15723   0.00410   0.13742   0.21050   0.34906   2.50629
    D3       -2.12653   0.00636   0.11162   0.22685   0.33944  -1.78710
    D4       -2.69802  -0.00116  -0.00363  -0.02396  -0.02862  -2.72664
    D5       -0.48339  -0.00108   0.01407   0.00530   0.01836  -0.46503
    D6        1.51603   0.00118  -0.01172   0.02165   0.00874   1.52477
    D7       -0.97151   0.00213   0.01823   0.04874   0.06716  -0.90435
    D8        3.10354   0.00242  -0.00105   0.06452   0.06363  -3.11602
    D9        1.05636   0.00252  -0.00270   0.06446   0.06207   1.11843
   D10       -3.09061  -0.00071   0.02350  -0.00936   0.01399  -3.07662
   D11        0.98443  -0.00041   0.00422   0.00642   0.01046   0.99489
   D12       -1.06275  -0.00031   0.00257   0.00636   0.00890  -1.05385
   D13        1.11772   0.00001   0.03635   0.02475   0.06097   1.17869
   D14       -1.09042   0.00030   0.01707   0.04052   0.05744  -1.03298
   D15       -3.13760   0.00041   0.01542   0.04046   0.05589  -3.08172
   D16        0.81142  -0.00136  -0.01711  -0.03830  -0.05522   0.75619
   D17       -1.27901  -0.00186  -0.01663  -0.04358  -0.06004  -1.33905
   D18        2.95011  -0.00146  -0.01402  -0.04091  -0.05476   2.89534
   D19        2.93216   0.00165  -0.01840   0.01217  -0.00593   2.92624
   D20        0.84174   0.00115  -0.01792   0.00689  -0.01074   0.83100
   D21       -1.21233   0.00156  -0.01531   0.00956  -0.00547  -1.21780
   D22       -1.24588  -0.00110  -0.01780  -0.04503  -0.06330  -1.30918
   D23        2.94688  -0.00160  -0.01732  -0.05031  -0.06811   2.87876
   D24        0.89281  -0.00120  -0.01471  -0.04764  -0.06284   0.82997
   D25        0.96925   0.00157   0.02423   0.09765   0.12174   1.09099
   D26       -1.20018  -0.00019   0.01083   0.06009   0.07161  -1.12857
   D27        3.04283  -0.00066   0.02267   0.04971   0.07249   3.11532
   D28       -1.09232   0.00120   0.02097   0.10459   0.12550  -0.96682
   D29        3.02144  -0.00055   0.00757   0.06703   0.07537   3.09681
   D30        0.98126  -0.00102   0.01941   0.05665   0.07626   1.05751
   D31        2.99454   0.00391   0.00469   0.13467   0.13847   3.13301
   D32        0.82511   0.00216  -0.00871   0.09711   0.08834   0.91346
   D33       -1.21507   0.00169   0.00314   0.08673   0.08923  -1.12584
   D34       -1.12821  -0.00125  -0.09613  -0.05136  -0.14741  -1.27562
   D35        1.03030  -0.00296  -0.08439  -0.07517  -0.15974   0.87056
   D36        3.11526  -0.00113  -0.07719  -0.05744  -0.13453   2.98072
   D37       -3.12093  -0.00066  -0.00761  -0.01307  -0.02068   3.14157
   D38       -1.09540   0.00140  -0.01465  -0.00004  -0.01473  -1.11013
   D39        1.07020  -0.00158  -0.00636  -0.01670  -0.02301   1.04720
   D40       -1.02881  -0.00589  -0.08083  -0.14025  -0.22154  -1.25035
   D41        1.04768  -0.00435  -0.08047  -0.11088  -0.19123   0.85646
   D42       -3.12629   0.00129  -0.07010  -0.06108  -0.13084   3.02605
         Item               Value     Threshold  Converged?
 Maximum Force            0.007465     0.000015     NO 
 RMS     Force            0.003079     0.000010     NO 
 Maximum Displacement     0.330345     0.000060     NO 
 RMS     Displacement     0.085872     0.000040     NO 
 GradGradGradGradGradGradGradGradGradGradGradGradGradGradGradGradGradGrad

                    Distance matrix (angstroms):
                    1          2          3          4          5
     1  N    0.000000
     2  C    1.376451   0.000000
     3  C    2.393307   1.566144   0.000000
     4  O    2.721324   2.407886   1.371707   0.000000
     5  C    2.389466   1.557002   2.674885   3.837092   0.000000
     6  O    2.581784   2.359038   3.804872   4.749457   1.390961
[...]
 009,0.24594777,0.32079220,0.00900266,-0.00251003,-0.00400365,-0.017050
 43,0.00840460,0.00504388,-0.06942790,0.00268326,-0.17102449,0.03792834
 ,-0.13105151,0.29873084,-0.00219053,-0.00266907,-0.01282777,-0.1493614
 8,-0.02979239,-0.04424109,-0.01826233,0.00175991,-0.00366848,0.0028754
 5,-0.00045704,0.00250680,0.49106946,-0.00369621,-0.00265892,0.00321508
 ,-0.02043881,-0.07454012,-0.03109570,0.01092618,0.00828669,0.01002839,
 0.00452100,-0.00143881,0.00080141,0.01092419,0.58022784,-0.04303328,-0
 .00889143,-0.03201650,-0.02437566,-0.02077768,-0.09066394,0.00266234,0
 .00883132,0.00595099,0.00565058,-0.00208377,0.00077264,-0.00857463,-0.
 01574150,0.62070430,-0.00292909,0.00191453,-0.00023069,-0.04997684,0.0
 3236957,0.01806421,0.00072452,-0.00670875,-0.00452841,-0.00603594,0.00
 129170,-0.00117817,-0.16864364,0.09034692,0.06189483,0.67758876,0.0002
 5281,0.00243433,-0.00209066,0.00481661,0.00227631,0.00478175,-0.001980
 45,-0.00056167,-0.00045879,0.00120759,0.00049903,0.00029019,0.05343449
 ,-0.15798366,-0.07145414,-0.02455539,0.22661711,-0.00542167,0.00096284
 ,-0.00367601,-0.00368445,0.00493141,0.00825936,-0.00133047,0.00019315,
 -0.00147537,-0.00056309,0.00021489,0.00071624,0.03251948,-0.06719725,-
 0.12163957,0.05311422,0.14371687,0.17983315,-0.00573104,-0.00094548,0.
 01232049,-0.02580198,0.03487988,-0.03684718,0.00264922,0.01372442,0.00
 034217,-0.00298208,-0.00553908,0.00062821,-0.01782965,-0.02620516,0.00
 650152,0.00156074,-0.00096406,0.00026076,0.61649218,-0.00131561,-0.009
 63388,0.02842314,0.01685052,0.01352049,-0.04762634,0.01551267,-0.04038
 727,0.00964578,-0.01204019,-0.00021505,-0.00315411,-0.01283724,-0.0148
 3270,0.00412960,0.00220338,-0.00353295,0.00213544,-0.08902034,0.356675
 60,0.00857566,0.01807560,-0.04159627,-0.01349717,-0.00994592,-0.001851
 23,0.00857965,0.00528697,-0.00076770,-0.00296206,-0.00169833,-0.003230
 23,-0.00344681,0.00273347,0.00058622,0.00039954,-0.00135189,-0.0013242
 3,0.03165334,0.17197110,0.56877726,0.00190342,0.00061219,-0.00663628,-
 0.02126285,-0.03762630,0.02339602,-0.01053815,0.00588090,-0.00382753,0
 .00786403,0.00767324,0.00134678,0.00187054,0.00146658,-0.00028872,-0.0
 0143112,-0.00083633,-0.00054759,-0.32037240,-0.01445282,-0.04622790,0.
 42856408,-0.00082258,0.00154221,-0.00383211,-0.02643907,-0.01854821,0.
 00460378,-0.00117772,0.00456262,0.00002726,0.00213250,-0.00719008,0.00
 174420,-0.00033110,-0.00470917,0.00133894,-0.00093529,0.00161080,-0.00
 063111,-0.07632307,-0.08762693,-0.04643167,0.09773759,0.30295729,0.002
 90613,0.00197065,0.00250418,0.00614464,-0.00792232,0.00735551,-0.00587
 720,-0.00014337,-0.00228251,0.00152244,0.00592625,0.00234279,0.0013527
 0,0.00167138,-0.00183372,-0.00008182,0.00033584,0.00035873,-0.06292559
 ,-0.03422054,-0.10954516,0.07198059,0.28001571,0.39328282,-0.31499838,
 0.05020326,-0.16081510,0.00726321,-0.00709691,0.00503004,0.00635375,0.
 00390551,0.00195973,-0.00270293,-0.00127419,-0.00529817,-0.00120850,0.
 00374110,0.00073747,-0.00029945,-0.00063807,-0.00104472,0.00587292,0.0
 0445436,-0.00351922,-0.00520541,-0.00203540,-0.00192537,0.31338592,0.0
 5186244,-0.02512856,0.01992379,0.00353217,0.00196158,-0.00235808,-0.00
 714419,0.00038525,-0.00077530,0.00004001,-0.00302516,0.00284422,-0.003
 37733,0.00345087,-0.00383065,0.00026236,-0.00051734,-0.00002692,-0.000
 75980,0.00038447,0.00026002,-0.00067549,-0.00010694,-0.00169486,-0.047
 75974,0.02277163,-0.15705663,0.01930432,-0.17094755,-0.02984924,-0.001
 10150,-0.00917832,-0.00277932,-0.00068772,-0.00329612,-0.00199526,0.00
 177613,0.00276326,0.00285474,0.00062836,-0.00586401,0.00177988,-0.0000
 4808,0.00151164,0.00091512,0.00273949,-0.00226470,-0.00082853,-0.00090
 733,0.00011453,0.17503156,-0.02116166,0.17102589,-0.33650351,0.0933908
 9,0.13704652,0.00869452,0.00674860,-0.00434452,-0.00090384,-0.00245167
 ,-0.00128775,0.00073710,0.00015604,0.00091476,0.00357979,-0.00473485,-
 0.00107929,-0.00254639,0.00043783,0.00249915,-0.00380876,-0.00571598,0
 .00307013,0.00335103,0.00190873,0.00109300,-0.00766914,0.00348544,0.01
 185651,0.33741221,0.09331182,-0.04362296,-0.04899548,-0.00623290,0.005
 99566,0.00166754,0.00819272,0.00073404,-0.00180054,-0.00141814,-0.0004
 0820,-0.00216784,0.00222830,-0.00079095,0.00054922,0.00055656,-0.00165
 379,0.00117278,0.00101435,-0.00060830,-0.00141515,-0.00013631,-0.00069
 999,0.00037616,-0.00074440,-0.00006196,-0.00102967,-0.09575257,0.04225
 675,0.13235736,-0.04569244,-0.13896966,0.02834210,-0.01283203,-0.00598
 353,-0.00201550,0.00146377,-0.00637966,-0.00198402,0.00142837,0.002067
 94,0.00266380,-0.00166686,-0.00238340,0.00173746,0.00043545,0.00081644
 ,0.00186937,0.00175734,-0.00181007,-0.00162115,-0.00089099,-0.00019848
 ,-0.01329499,0.00453223,0.01420334,-0.14832843,0.05105918,0.13548323,-
 0.00451188,0.00324651,0.00186148,-0.00234205,-0.00154595,0.01950662,-0
 .07150953,-0.01118103,0.06848953,0.00020738,0.00092424,-0.04013914,0.0
 0056815,-0.00031259,0.00084709,0.00003107,0.00009576,-0.00031549,-0.00
 079973,-0.00266098,0.00216124,0.00137514,0.00052261,0.00039326,-0.0008
 7311,0.00005075,0.00005066,0.00018361,0.00031147,0.00118726,0.07569978
 ,0.00409431,-0.00071977,-0.00113364,0.00800259,-0.00499370,-0.01842920
 ,-0.01347913,-0.05733777,0.03443659,0.00040603,0.00382069,-0.00729121,
 -0.00048615,0.00010728,-0.00056898,0.00007108,-0.00003225,-0.00000950,
 0.00148836,0.00283282,-0.00316763,-0.00121828,-0.00065453,0.00001515,-
 0.00027364,-0.00024175,0.00004984,-0.00004644,0.00031352,-0.00107820,0
 .00712332,0.05609736,0.00133384,-0.00045943,0.00035329,0.00296267,0.00
 071803,-0.00528909,0.06092082,0.02878742,-0.29760028,-0.00587996,-0.00
 209248,-0.01991792,0.00019422,-0.00026403,-0.00070299,0.00013988,0.000
 01475,0.00035443,-0.00010992,0.00238374,0.00023099,-0.00065396,-0.0006
 2093,0.00007207,-0.00090498,0.00038393,0.00043589,-0.00027414,-0.00007
 974,0.00001739,-0.05965727,-0.03001381,0.32168203,0.00060910,0.0001030
 0,-0.00240667,0.00262834,0.02254424,0.00221105,-0.06531992,-0.06722560
 ,0.01644672,-0.02367040,-0.03114159,-0.00161952,0.00028714,0.00127214,
 -0.00002910,0.00013030,-0.00024343,-0.00032612,-0.00093981,0.00259889,
 -0.00125956,0.00031197,-0.00035209,0.00049092,-0.00105699,0.00112154,0
 .00003657,0.00043307,-0.00122082,-0.00007652,-0.00009160,-0.00704878,0
 .00144718,0.08896637,-0.00021749,0.00163737,0.00161793,0.00003415,-0.0
 2036173,0.00124191,-0.07856413,-0.28691022,0.04630675,-0.00575176,0.00
 083648,-0.00182105,-0.00121672,-0.00061513,-0.00016973,-0.00012539,0.0
 0072809,-0.00001068,0.00141459,-0.00191731,-0.00007237,0.00040033,0.00
 055785,0.00018270,-0.00004514,-0.00101065,0.00006122,-0.00011650,0.000
 64233,-0.00003994,0.00050446,0.00067552,-0.00008924,0.08194234,0.30458
 277,0.00003376,-0.00070047,0.00109215,0.00196202,-0.01202305,-0.001114
 17,0.01733527,0.05422765,-0.06543282,-0.01474072,-0.02233887,0.0051848
 7,-0.00059243,0.00031924,0.00022373,0.00001962,-0.00016024,-0.00006494
 ,0.00015773,0.00079744,0.00027827,-0.00023690,-0.00007754,0.00011586,0
 .00044777,-0.00084085,0.00005927,-0.00029790,0.00077519,0.00015465,0.0
 0802710,0.02721636,-0.00117907,-0.00961527,-0.04561583,0.06227195,-0.0
 0055276,0.00040008,-0.00105605,-0.00064713,-0.00208462,-0.00060865,-0.
 02447176,-0.02439845,0.01306192,-0.18265630,-0.18531297,0.08260190,-0.
 00083424,0.00070284,-0.00032402,0.00053132,-0.00021736,-0.00001238,-0.
 00366951,0.00176380,-0.00010833,0.00087935,-0.00246505,0.00129254,-0.0
 0008504,-0.00064106,0.00098253,-0.00063174,0.00033434,0.00028943,0.002
 76928,0.00066233,0.00011531,-0.00125709,0.00115299,-0.00248032,0.20934
 038,0.00121687,-0.00089665,-0.00031291,0.00341782,-0.00214810,0.001650
 89,-0.00616315,-0.00614184,0.00195254,-0.20691475,-0.23680346,0.130966
 53,-0.00005887,-0.00047528,-0.00043760,0.00053451,-0.00029114,-0.00003
 081,0.00631965,0.00604076,0.00115104,-0.00590873,-0.00357761,-0.002196
 53,-0.00091779,0.00144929,0.00052877,0.00036455,0.00008493,-0.00006442
 ,0.00193518,0.00049340,0.00154045,-0.00260026,0.00070110,-0.00191040,0
 .20929199,0.24378281,0.00130847,-0.00085040,0.00012902,-0.00120448,0.0
 0100087,-0.00053168,-0.02350032,-0.02285397,0.00778617,0.12254950,0.15
 896863,-0.12019289,-0.00001507,-0.00018410,0.00027979,-0.00016145,0.00
 019580,-0.00013196,-0.00070303,-0.00154660,-0.00014181,-0.00028830,0.0
 0072326,-0.00272288,0.00007934,0.00156606,0.00030494,0.00021050,-0.000
 21436,-0.00002270,-0.00066673,-0.00151174,0.00053938,-0.00534007,-0.00
 141478,-0.00240710,-0.09348230,-0.13305893,0.11650697,0.00061712,0.000
 18624,0.00270820,-0.00858704,-0.02454980,0.00221795,0.00064546,-0.0021
 8316,-0.00001731,-0.00027749,0.00086574,-0.00001007,-0.06460421,-0.059
 76987,0.01293721,0.00086375,0.03456911,0.00077937,-0.00347637,-0.00205
 858,0.00009260,0.00006470,-0.00107580,0.00049764,0.00073511,0.00091996
 ,0.00020593,-0.00133690,-0.00083684,-0.00021831,-0.00009514,0.00021969
 ,0.00008714,-0.00085370,0.00068242,-0.00007315,0.00033149,-0.00002674,
 -0.00000748,0.07085638,0.00053984,0.00127652,0.00022633,-0.00423480,-0
 .00609024,0.00197790,0.00092519,-0.00055174,-0.00010489,0.00019147,0.0
 0042894,-0.00021044,-0.05300171,-0.27480754,0.06044688,0.00842219,-0.0
 2298874,-0.00435595,-0.00044456,-0.00003112,-0.00038423,-0.00003642,-0
 .00007287,-0.00001831,0.00001452,0.00009445,-0.00000964,0.00023654,-0.
 00078771,0.00024947,0.00004261,0.00009714,-0.00005570,-0.00007998,0.00
 058665,0.00007864,0.00003977,-0.00000707,0.00009763,0.05032911,0.30318
 016,-0.00049138,-0.00101521,0.00160056,-0.00588215,-0.01152493,-0.0005
 3741,0.00037145,-0.00015969,0.00025533,-0.00009161,0.00010131,-0.00002
 510,0.01617238,0.06313627,-0.07323429,-0.00015679,-0.02189783,0.005727
 39,-0.00029606,-0.00014485,-0.00064822,0.00017993,0.00001206,0.0007559
 7,0.00044812,0.00056381,0.00021037,-0.00043942,-0.00064838,0.00007510,
 -0.00006131,0.00016448,-0.00000578,0.00010036,0.00003349,0.00017491,0.
 00008243,0.00001223,-0.00005213,-0.01676166,-0.05822213,0.06962770,-0.
 00657868,-0.00070444,-0.00306498,0.00070806,0.00096934,-0.02624100,0.0
 0112030,-0.00005060,-0.00060688,-0.00022599,0.00006735,0.00012643,-0.0
 5373375,-0.00080090,-0.00795735,-0.00511498,0.00589118,0.03138081,0.00
 170298,0.00190744,-0.00299287,-0.00047101,-0.00003448,-0.00013301,0.00
 010541,-0.00047914,-0.00149812,-0.00040674,0.00036227,-0.00009898,-0.0
 0028483,0.00003566,0.00022992,-0.00013632,0.00016041,0.00013482,0.0000
 8488,-0.00007331,-0.00005070,0.00336534,-0.00227672,0.00774178,0.05905
 519,-0.00120320,0.00135902,-0.00003754,-0.00338695,-0.00154656,-0.0082
 0099,-0.00008338,0.00003709,0.00005905,-0.00001062,-0.00006353,-0.0000
 7508,0.00199804,-0.06086466,0.03976324,0.00566807,0.00066017,-0.029672
 77,-0.00081662,0.00027043,-0.00158158,0.00048510,0.00011623,0.00010311
 ,0.00005817,0.00019077,-0.00036184,0.00077279,-0.00042316,0.00030699,0
 .00015250,0.00022332,-0.00000877,-0.00011931,0.00006422,0.00012509,-0.
 00003824,0.00005570,0.00001109,0.00162559,-0.00087077,0.02909231,-0.00
 334103,0.06071335,-0.00242058,-0.00023108,-0.00023794,-0.00047038,0.00
 174933,-0.00883306,0.00017768,-0.00013484,-0.00066880,-0.00030602,0.00
 008437,0.00029501,-0.00716151,0.03416797,-0.30471969,0.00927015,-0.007
 53475,-0.01141873,0.00224228,0.00174870,-0.00088494,-0.00046209,0.0002
 4486,0.00058082,0.00020516,-0.00029572,-0.00016952,0.00085102,0.000048
 16,0.00054766,-0.00031176,0.00014064,0.00017514,-0.00016484,-0.0000215
 5,-0.00001174,0.00003690,-0.00002923,-0.00008528,-0.00142464,0.0011502
 4,-0.00466968,0.00064733,-0.02973323,0.32898900,0.00093606,-0.00003449
 ,0.00089888,-0.00078612,0.00341517,0.00206156,-0.00059367,-0.00062083,
 -0.00037779,0.00037149,-0.00008285,0.00018795,-0.02454410,-0.00563959,
 -0.00754020,-0.44285030,-0.07127509,-0.10708013,-0.00063966,-0.0002317
 0,-0.00005818,0.00071286,0.00036204,0.00011337,-0.00007300,-0.00007952
 ,-0.00012827,-0.00059645,-0.00003540,-0.00096012,-0.00002781,-0.000004
 91,0.00004936,0.00007635,0.00006988,-0.00005910,-0.00023922,0.00007507
 ,0.00004209,0.00213941,-0.00095647,-0.00075760,0.00157270,-0.00111448,
 -0.00059945,0.46500584,-0.00013630,-0.00035782,-0.00045586,0.00298164,
 -0.00349667,-0.00211857,0.00083649,0.00097315,0.00037298,0.00020261,-0
 .00014768,-0.00004469,0.03107145,0.00207700,0.00767964,-0.11215121,-0.
 04816208,-0.05079261,0.00020465,0.00034766,-0.00012984,-0.00034795,-0.
 00022019,0.00012905,0.00006291,0.00020404,0.00004811,0.00012750,-0.000
 33723,0.00033436,-0.00001190,-0.00001146,-0.00002754,-0.00011707,0.000
 01669,0.00009933,0.00011969,-0.00004318,-0.00003350,0.00072380,0.00008
 479,0.00054890,-0.00017726,0.00046445,-0.00067625,0.07666373,0.0479227
 2,-0.00188276,0.00076259,-0.00034823,0.00195597,-0.00305879,-0.0028086
 3,0.00025406,0.00032931,0.00056310,0.00020949,-0.00005827,0.00011820,0
 .02387514,0.00358898,0.00318912,-0.14029144,-0.04584769,-0.05790584,0.
 00029698,-0.00013012,-0.00007314,-0.00019256,0.00004690,-0.00015924,-0
 .00001532,-0.00007805,0.00029590,0.00051843,-0.00031372,0.00186737,-0.
 00000136,0.00005966,-0.00004360,-0.00004521,0.00004548,0.00003093,0.00
 000693,-0.00004184,0.00003455,-0.00021203,-0.00075489,0.00044955,0.001
 05588,0.00008338,-0.00006480,0.11425687,0.04530939,0.05466892,0.000901
 11,-0.00126726,-0.00062362,0.00283678,-0.00333271,0.00214712,0.0004268
 2,-0.00110348,0.00005377,0.00006219,0.00025469,-0.00017558,0.00162664,
 0.00005700,-0.00083048,-0.00166049,-0.00056184,0.00048377,-0.18183167,
 0.11960570,0.05674201,-0.03242015,0.01588109,0.00491181,-0.00042151,0.
 00000631,-0.00006469,0.00059141,0.00007790,0.00001416,-0.00004940,-0.0
 0003077,0.00019498,0.00012097,-0.00025832,0.00010414,0.00019634,-0.000
 68056,0.00010102,0.00001452,0.00026160,0.00003152,-0.00029938,0.000282
 10,-0.00003984,-0.00027830,0.00009878,0.00003172,0.20358427,0.00079523
 ,0.00079624,-0.00297506,0.00814569,-0.01903282,0.00282206,0.00033006,-
 0.00283869,0.00016157,-0.00054606,0.00061475,-0.00043693,0.00226428,-0
 .00021797,-0.00110986,0.00013269,0.00074080,0.00016760,0.13238831,-0.1
 6464769,-0.07139029,-0.01878438,0.01351395,0.00301692,-0.00087394,0.00
 013358,-0.00032135,0.00084427,-0.00096296,0.00036749,0.00002957,0.0000
 0164,0.00036336,0.00037750,-0.00047161,0.00020049,0.00030626,-0.000542
 57,-0.00005788,0.00018167,0.00029622,0.00009143,-0.00064778,-0.0000111
 6,-0.00004015,-0.00028707,0.00058414,-0.00003668,-0.12747318,0.1699804
 0,-0.00220267,0.00252808,0.00289962,-0.00151511,0.01382991,-0.00782936
 ,-0.00068024,0.00034096,-0.00007708,0.00066034,-0.00023377,0.00080900,
 -0.00087782,-0.00146645,0.00056623,0.00007171,0.00055277,-0.00012585,0
 .05914605,-0.07160649,-0.08670993,-0.00739934,0.00557967,0.00927725,0.
 00129867,0.00007916,0.00040163,-0.00101770,0.00080149,0.00018633,-0.00
 045925,0.00032978,0.00044050,0.00003593,0.00003705,0.00022506,-0.00033
 887,0.00011269,0.00001519,-0.00026252,-0.00005357,-0.00015104,0.000565
 49,-0.00001533,0.00023369,-0.00003961,-0.00031054,0.00006513,-0.064429
 17,0.06567235,0.08219876,0.00002459,-0.00085593,0.00095128,0.00135309,
 0.00136970,0.00040332,0.00006619,0.00021197,-0.00109434,0.00009978,0.0
 0007452,0.00052247,-0.00049211,-0.00193188,0.00299243,-0.00018469,0.00
 024997,-0.00079056,-0.05239953,0.00516308,0.00129706,-0.01107521,-0.01
 721933,-0.03812272,0.00044437,-0.00001425,0.00016436,-0.00032785,0.000
 33533,0.00000515,-0.00014589,0.00053341,-0.00000449,-0.00002979,-0.000
 11373,-0.00004128,-0.00010818,-0.00013131,-0.00017667,-0.00035686,0.00
 002833,-0.00031784,-0.00051262,-0.00092743,-0.00025641,-0.00009879,-0.
 00019724,0.00015785,0.00566114,0.00226861,0.01816642,0.06327934,-0.001
 17451,-0.00143918,0.00147910,-0.00178484,-0.01207530,0.02269195,-0.003
 86163,0.00152468,0.00251767,0.00226422,-0.00058445,-0.00001486,0.00148
 262,-0.00053132,0.00257448,-0.00000521,0.00060282,-0.00086295,0.008732
 45,-0.04926515,-0.05341181,-0.01124202,-0.00485250,-0.01212574,-0.0004
 7622,0.00016784,-0.00026471,0.00075386,0.00007682,0.00000543,0.0006877
 1,-0.00078962,-0.00072815,0.00018652,0.00015177,-0.00029211,-0.0004682
 3,-0.00050164,0.00047917,0.00009077,0.00022661,-0.00017464,-0.00076438
 ,-0.00028284,-0.00076912,-0.00002630,-0.00005179,0.00011569,-0.0024050
 1,0.00091195,-0.01872643,0.00993613,0.06319477,0.00060445,0.00253032,-
 0.00138798,0.00093676,0.00231062,-0.01414170,0.00042833,-0.00196146,0.
 00051617,0.00000684,0.00014096,0.00014664,-0.00073169,-0.00175146,0.00
 039571,-0.00000435,0.00028063,0.00011734,-0.01323371,-0.06112853,-0.31
 612001,-0.00614605,-0.00384115,-0.00080694,0.00007527,-0.00009753,0.00
 001463,-0.00022537,-0.00017315,-0.00001131,-0.00057266,0.00065241,0.00
 049185,0.00009735,-0.00015367,0.00054521,0.00001297,-0.00009786,-0.000
 17123,-0.00031485,-0.00008764,0.00055697,0.00046701,0.00010034,0.00085
 752,0.00006227,0.00006595,0.00003550,-0.00106473,0.00088427,-0.0026363
 2,0.01991594,0.06010727,0.33082747,0.00016007,0.00070211,0.00022480,-0
 .00157409,-0.00093971,-0.00069921,0.00086041,0.00004019,0.00036522,-0.
 00088672,0.00001633,-0.00086731,-0.00017262,-0.00042809,-0.00019073,0.
 00024248,0.00031668,0.00007911,-0.00799586,-0.02972638,-0.03849914,-0.
 04412081,0.01066641,0.01636666,0.00043280,-0.00035047,0.00032221,-0.00
 025140,-0.00034767,0.00013192,-0.00010344,-0.00004867,-0.00019059,-0.0
 0020798,0.00004763,-0.00008516,0.00101993,0.00031981,0.00130570,-0.000
 04556,-0.00000051,0.00012784,0.00004946,-0.00000110,0.00018699,-0.0000
 8727,0.00004570,0.00002137,0.00093873,0.00054826,-0.00072230,-0.005196
 97,-0.00192591,-0.00031377,0.05693885,0.00078824,0.00036088,0.00008398
 ,-0.00122973,-0.00069184,-0.00050897,0.00015201,-0.00021558,-0.0008755
 1,-0.00030945,0.00123358,0.00104334,-0.00093569,0.00031655,-0.00024799
 ,0.00070769,-0.00044585,0.00009556,0.00085152,-0.00737387,-0.00849752,
 -0.02299090,-0.19660194,-0.23542123,-0.00030438,-0.00110140,0.00075727
 ,-0.00040904,0.00025317,0.00032480,0.00008577,0.00011816,0.00024815,0.
 00000276,0.00010583,0.00011993,0.00085190,-0.00117945,-0.00131627,0.00
 010670,-0.00006366,0.00003137,-0.00004361,-0.00009207,0.00013166,-0.00
 019717,0.00015347,-0.00002132,0.00058796,0.00115180,0.00254867,0.00122
 005,0.00351655,0.00221967,0.02106537,0.20055566,-0.00030055,-0.0002830
 0,-0.00016385,0.00179126,0.00464579,-0.00489312,0.00118473,-0.00089469
 ,0.00077612,-0.00046999,-0.00056764,-0.00059701,-0.00000197,-0.0009231
 9,0.00038939,0.00014164,0.00024000,0.00006775,-0.00221853,-0.00617421,
 -0.00290511,-0.02154643,-0.23710381,-0.29921159,0.00150474,0.00100641,
 0.00037892,-0.00076550,0.00038829,0.00033936,-0.00033930,0.00013900,-0
 .00005424,0.00001681,-0.00011768,-0.00014702,-0.00007193,0.00026540,0.
 00086366,-0.00022401,0.00003029,-0.00011020,0.00029444,0.00004254,0.00
 008534,-0.00007189,0.00000169,0.00008520,0.00241208,0.00262065,0.00021
 119,-0.00377199,-0.00260022,0.00077048,0.02243640,0.23928439,0.3041147
 3\\-0.00000148,0.00000064,0.00000051,0.00000047,-0.00000056,-0.0000003
 0,0.00000124,0.00000043,0.00000247,-0.00000220,-0.00000144,0.00000098,
 0.00000008,-0.00000041,-0.00000218,-0.00000011,0.00000111,-0.00000239,
 0.00000107,0.00000058,0.00000035,0.00000085,-0.00000072,0.00000167,-0.
 00000219,-0.00000012,0.00000057,-0.00000189,0.00000031,-0.00000120,0.0
 0000092,-0.00000054,0.00000117,-0.00000060,-0.00000027,0.00000096,-0.0
 0000049,-0.00000067,0.00000293,-0.00000030,0.00000073,-0.00000155,0.00
 000159,0.00000062,-0.00000148,0.00000016,0.00000090,-0.00000332,0.0000
 0097,0.00000023,-0.00000069,0.00000189,-0.00000026,0.00000010,0.,-0.00
 000056,0.00000141\\\@


 Standing in the middle of the road is very dangerous;
 you get knocked down by the traffic from both sides.
                                -- Margaret Thatcher
 Job cpu time:       0 days  0 hours 10 minutes 31.5 seconds.
 Elapsed time:       0 days  0 hours  2 minutes 39.1 seconds.
 File lengths (MBytes):  RWF=     89 Int=      0 D2E=      0 Chk=      3 Scr=      1
 Normal termination of Gaussian 16 at Mon Jul 10 19:42:46 2023.
real 1451.91
user 5484.51
sys 20.66
