 Entering Gaussian System, Link 0=g16
 Input=gaussian_test.inp
 Output=gaussian_test.log
 Initial command:
 /sw/restricted/lms/sw/Gaussian/g16_B01/g16/l1.exe "/scratch/user/peterchao1/peterchao1/6318272_1663960373000000386998006/Gau-147397.inp" -scrdir="/scratch/user/peterchao1/peterchao1/6318272_1663960373000000386998006/"
 Entering Link 1 = /sw/restricted/lms/sw/Gaussian/g16_B01/g16/l1.exe PID=    147398.
  
 Copyright (c) 1988-2017, Gaussian, Inc.  All Rights Reserved.
  
 This is part of the Gaussian(R) 16 program.  It is based on
 the Gaussian(R) 09 system (copyright 2009, Gaussian, Inc.),
 the Gaussian(R) 03 system (copyright 2003, Gaussian, Inc.),
 the Gaussian(R) 98 system (copyright 1998, Gaussian, Inc.),
 the Gaussian(R) 94 system (copyright 1995, Gaussian, Inc.),
 the Gaussian 92(TM) system (copyright 1992, Gaussian, Inc.),
 the Gaussian 90(TM) system (copyright 1990, Gaussian, Inc.),
 the Gaussian 88(TM) system (copyright 1988, Gaussian, Inc.),
 the Gaussian 86(TM) system (copyright 1986, Carnegie Mellon
 University), and the Gaussian 82(TM) system (copyright 1983,
 Carnegie Mellon University). Gaussian is a federally registered
 trademark of Gaussian, Inc.
  
 This software contains proprietary and confidential information,
 including trade secrets, belonging to Gaussian, Inc.
  
 This software is provided under written license and may be
 used, copied, transmitted, or stored only in accord with that
 written license.
  
 The following legend is applicable only to US Government
 contracts under FAR:
  
                    RESTRICTED RIGHTS LEGEND
  
 Use, reproduction and disclosure by the US Government is
 subject to restrictions as set forth in subparagraphs (a)
 and (c) of the Commercial Computer Software - Restricted
 Rights clause in FAR 52.227-19.
  
 Gaussian, Inc.
 340 Quinnipiac St., Bldg. 40, Wallingford CT 06492
  
  
 ---------------------------------------------------------------
 Warning -- This program may not be used in any manner that
 competes with the business of Gaussian, Inc. or will provide
 assistance to any competitor of Gaussian, Inc.  The licensee
 of this program is prohibited from giving any competitor of
 Gaussian, Inc. access to this program.  By using this program,
 the user acknowledges that Gaussian, Inc. is engaged in the
 business of creating and licensing software in the field of
 computational chemistry and represents and warrants to the
 licensee that it is not a competitor of Gaussian, Inc. and that
 it will not use this program in any manner prohibited above.
 ---------------------------------------------------------------
  

 Cite this work as:
 Gaussian 16, Revision B.01,
 M. J. Frisch, G. W. Trucks, H. B. Schlegel, G. E. Scuseria, 
 M. A. Robb, J. R. Cheeseman, G. Scalmani, V. Barone, 
 G. A. Petersson, H. Nakatsuji, X. Li, M. Caricato, A. V. Marenich, 
 J. Bloino, B. G. Janesko, R. Gomperts, B. Mennucci, H. P. Hratchian, 
 J. V. Ortiz, A. F. Izmaylov, J. L. Sonnenberg, D. Williams-Young, 
 F. Ding, F. Lipparini, F. Egidi, J. Goings, B. Peng, A. Petrone, 
 T. Henderson, D. Ranasinghe, V. G. Zakrzewski, J. Gao, N. Rega, 
 G. Zheng, W. Liang, M. Hada, M. Ehara, K. Toyota, R. Fukuda, 
 J. Hasegawa, M. Ishida, T. Nakajima, Y. Honda, O. Kitao, H. Nakai, 
 T. Vreven, K. Throssell, J. A. Montgomery, Jr., J. E. Peralta, 
 F. Ogliaro, M. J. Bearpark, J. J. Heyd, E. N. Brothers, K. N. Kudin, 
 V. N. Staroverov, T. A. Keith, R. Kobayashi, J. Normand, 
 K. Raghavachari, A. P. Rendell, J. C. Burant, S. S. Iyengar, 
 J. Tomasi, M. Cossi, J. M. Millam, M. Klene, C. Adamo, R. Cammi, 
 J. W. Ochterski, R. L. Martin, K. Morokuma, O. Farkas, 
 J. B. Foresman, and D. J. Fox, Gaussian, Inc., Wallingford CT, 2016.
 
 ******************************************
 Gaussian 16:  ES64L-G16RevB.01 20-Dec-2017
                23-Sep-2022 
 ******************************************
 %chk=19.chk
 %nprocshared=4
 Will use up to    4 processors via shared memory.
 %mem=8000mb
 --------------------------------------------------------------
 #T wB97XD//def2svpp Volume=tight Geom=AllCheckpoint Guess=Read
 --------------------------------------------------------------
 Structure from the checkpoint file:  "19.chk"
 -------
 Monomer
 -------
 Charge =  0 Multiplicity = 1
 Redundant internal coordinates found in file.  (old form).
 C,0,-0.414763,1.52391,-0.210448
 C,0,-0.405069,0.004353,0.008546
 C,0,-0.481203,-0.302773,1.508787
 C,0,-1.596091,-0.626643,-0.722115
 C,0,0.888569,-0.598219,-0.574211
 O,0,2.070059,-0.114979,0.01214
 H,0,-1.360539,1.96705,0.148172
 H,0,-0.312142,1.776323,-1.282486
 H,0,0.402853,2.019324,0.344017
 H,0,-1.376032,0.159287,1.963178
 H,0,0.41292,0.079314,2.029117
 H,0,-0.534158,-1.392038,1.686517
 H,0,-2.550881,-0.241643,-0.322051
 H,0,-1.600988,-1.725257,-0.602797
 H,0,-1.570451,-0.403068,-1.804327
 H,0,0.896928,-0.443179,-1.674926
 H,0,0.891092,-1.688121,-0.400524
 H,0,2.192266,0.808072,-0.244368
 Recover connectivity data from disk.
                           ----------------------------
                           !    Current Parameters    !
                           ! (Angstroms and Degrees)  !
 --------------------------                            --------------------------
 ! Name  Definition              Value                                          !
 --------------------------------------------------------------------------------
 ! R1    R(1,2)                  1.5353                                         !
 ! R2    R(1,7)                  1.1043                                         !
 ! R3    R(1,8)                  1.1061                                         !
 ! R4    R(1,9)                  1.1052                                         !
 ! R5    R(2,3)                  1.5332                                         !
 ! R6    R(2,4)                  1.5332                                         !
 ! R7    R(2,5)                  1.5415                                         !
 ! R8    R(3,10)                 1.1048                                         !
 ! R9    R(3,11)                 1.1028                                         !
 ! R10   R(3,12)                 1.1049                                         !
 ! R11   R(4,13)                 1.1045                                         !
 ! R12   R(4,14)                 1.1051                                         !
 ! R13   R(4,15)                 1.1054                                         !
 ! R14   R(5,6)                  1.4047                                         !
 ! R15   R(5,16)                 1.1116                                         !
 ! R16   R(5,17)                 1.1037                                         !
 ! R17   R(6,18)                 0.9658                                         !
 ! A1    A(2,1,7)              110.8707                                         !
 ! A2    A(2,1,8)              111.3164                                         !
 ! A3    A(2,1,9)              111.5583                                         !
 ! A4    A(7,1,8)              107.6155                                         !
 ! A5    A(7,1,9)              106.9061                                         !
 ! A6    A(8,1,9)              108.3799                                         !
 ! A7    A(1,2,3)              109.7255                                         !
 ! A8    A(1,2,4)              109.5401                                         !
 ! A9    A(1,2,5)              109.7716                                         !
 ! A10   A(3,2,4)              110.2001                                         !
 ! A11   A(3,2,5)              109.4679                                         !
 ! A12   A(4,2,5)              108.1127                                         !
 ! A13   A(2,3,10)             111.0303                                         !
 ! A14   A(2,3,11)             110.61                                           !
 ! A15   A(2,3,12)             110.9306                                         !
 ! A16   A(10,3,11)            108.5243                                         !
 ! A17   A(10,3,12)            107.8972                                         !
 ! A18   A(11,3,12)            107.729                                          !
 ! A19   A(2,4,13)             110.8221                                         !
 ! A20   A(2,4,14)             111.1704                                         !
 ! A21   A(2,4,15)             111.4278                                         !
 ! A22   A(13,4,14)            107.6737                                         !
 ! A23   A(13,4,15)            107.7087                                         !
 ! A24   A(14,4,15)            107.8721                                         !
 ! A25   A(2,5,6)              114.4293                                         !
 ! A26   A(2,5,16)             109.0342                                         !
 ! A27   A(2,5,17)             109.1749                                         !
 ! A28   A(6,5,16)             111.0398                                         !
 ! A29   A(6,5,17)             105.7899                                         !
 ! A30   A(16,5,17)            107.0705                                         !
 ! A31   A(5,6,18)             108.9263                                         !
 ! D1    D(7,1,2,3)            -62.9388                                         !
 ! D2    D(7,1,2,4)             58.1587                                         !
 ! D3    D(7,1,2,5)            176.7218                                         !
 ! D4    D(8,1,2,3)            177.2963                                         !
 ! D5    D(8,1,2,4)            -61.6062                                         !
 ! D6    D(8,1,2,5)             56.9569                                         !
 ! D7    D(9,1,2,3)             56.0914                                         !
 ! D8    D(9,1,2,4)            177.1889                                         !
 ! D9    D(9,1,2,5)            -64.2479                                         !
 ! D10   D(1,2,3,10)            56.769                                          !
 ! D11   D(1,2,3,11)           -63.7779                                         !
 ! D12   D(1,2,3,12)           176.7393                                         !
 ! D13   D(4,2,3,10)           -63.9299                                         !
 ! D14   D(4,2,3,11)           175.5231                                         !
 ! D15   D(4,2,3,12)            56.0404                                         !
 ! D16   D(5,2,3,10)           177.2926                                         !
 ! D17   D(5,2,3,11)            56.7457                                         !
 ! D18   D(5,2,3,12)           -62.7371                                         !
 ! D19   D(1,2,4,13)           -61.6937                                         !
 ! D20   D(1,2,4,14)           178.5968                                         !
 ! D21   D(1,2,4,15)            58.2302                                         !
 ! D22   D(3,2,4,13)            59.1164                                         !
 ! D23   D(3,2,4,14)           -60.5931                                         !
 ! D24   D(3,2,4,15)           179.0402                                         !
 ! D25   D(5,2,4,13)           178.7192                                         !
 ! D26   D(5,2,4,14)            59.0097                                         !
 ! D27   D(5,2,4,15)           -61.3569                                         !
 ! D28   D(1,2,5,6)             60.9885                                         !
 ! D29   D(1,2,5,16)           -64.0296                                         !
 ! D30   D(1,2,5,17)           179.3076                                         !
 ! D31   D(3,2,5,6)            -59.5071                                         !
 ! D32   D(3,2,5,16)           175.4748                                         !
 ! D33   D(3,2,5,17)            58.812                                          !
 ! D34   D(4,2,5,6)           -179.5704                                         !
 ! D35   D(4,2,5,16)            55.4115                                         !
 ! D36   D(4,2,5,17)           -61.2513                                         !
 ! D37   D(2,5,6,18)           -69.5332                                         !
 ! D38   D(16,5,6,18)           54.42                                           !
 ! D39   D(17,5,6,18)          170.2451                                         !
 --------------------------------------------------------------------------------
                    Distance matrix (angstroms):
                    1          2          3          4          5
     1  C    0.000000
     2  C    1.535287   0.000000
     3  C    2.509373   1.533247   0.000000
     4  C    2.506435   1.533152   2.514914   0.000000
     5  C    2.516829   1.541492   2.510467   2.489221   0.000000
     6  O    2.984936   2.478006   2.963808   3.773803   1.404723
     7  H    1.104298   2.187372   2.788656   2.745929   3.487252
     8  H    1.106123   2.194374   3.484599   2.781508   2.753509
     9  H    1.105153   2.196676   2.744154   3.483325   2.816131
    10  H    2.740599   2.188004   1.104848   2.806583   3.484333
    11  H    2.790621   2.181154   1.102810   3.479048   2.731778
    12  H    3.480730   2.186815   1.104939   2.741357   2.786609
    13  H    2.773560   2.185021   2.763923   1.104491   3.467066
    14  H    3.481114   2.189866   2.781396   1.105085   2.732934
    15  H    2.754870   2.193312   3.489018   1.105362   2.756456
    16  H    2.781127   2.174755   3.472029   2.675192   1.111612
    17  H    3.472539   2.170677   2.729075   2.723277   1.103658
    18  H    2.703733   2.730582   3.384519   4.079007   1.945784
                    6          7          8          9         10
     6  O    0.000000
     7  H    4.015265   0.000000
     8  H    3.305747   1.783899   0.000000
     9  H    2.728547   1.775004   1.793259   0.000000
    10  H    3.969548   2.561736   3.779021   3.040699   0.000000
    11  H    2.617643   3.201040   3.791078   2.569689   1.791952
    12  H    3.349084   3.785879   4.347733   3.783872   1.786590
    13  H    4.634740   2.552714   3.163317   3.778910   2.600632
    14  H    4.055580   3.775566   3.792646   4.351290   3.191604
    15  H    4.078708   3.077950   2.570098   3.791740   3.814202
    16  H    2.080900   3.772141   2.557743   3.222447   4.331872
    17  H    2.008739   4.327954   3.772002   3.812855   3.760300
    18  H    0.965792   3.757624   2.878760   2.239493   4.245813
                   11         12         13         14         15
    11  H    0.000000
    12  H    1.783033   0.000000
    13  H    3.796725   3.070004   0.000000
    14  H    3.773496   2.547571   1.783879   0.000000
    15  H    4.343011   3.773322   1.784501   1.786838   0.000000
    16  H    3.771896   3.774605   3.709215   3.005457   2.471095
    17  H    3.042307   2.544552   3.734385   2.500551   3.111466
    18  H    2.977565   4.000274   4.858537   4.575478   4.249514
                   16         17         18
    16  H    0.000000
    17  H    1.781577   0.000000
    18  H    2.300006   2.819294   0.000000
 Framework group  C1[X(C5H12O)]
 Deg. of freedom    48
                         Standard orientation:                         
 ---------------------------------------------------------------------
 Center     Atomic      Atomic             Coordinates (Angstroms)
 Number     Number       Type             X           Y           Z
 ---------------------------------------------------------------------
      1          6           0       -0.414763    1.523910   -0.210448
      2          6           0       -0.405069    0.004353    0.008546
      3          6           0       -0.481203   -0.302773    1.508787
      4          6           0       -1.596091   -0.626643   -0.722115
      5          6           0        0.888569   -0.598219   -0.574211
      6          8           0        2.070059   -0.114979    0.012140
      7          1           0       -1.360539    1.967050    0.148172
      8          1           0       -0.312142    1.776323   -1.282486
      9          1           0        0.402853    2.019324    0.344017
     10          1           0       -1.376032    0.159287    1.963178
     11          1           0        0.412920    0.079314    2.029117
     12          1           0       -0.534158   -1.392038    1.686517
     13          1           0       -2.550881   -0.241643   -0.322051
     14          1           0       -1.600988   -1.725257   -0.602797
     15          1           0       -1.570451   -0.403068   -1.804327
     16          1           0        0.896928   -0.443179   -1.674926
     17          1           0        0.891092   -1.688121   -0.400524
     18          1           0        2.192266    0.808072   -0.244368
 ---------------------------------------------------------------------
 Rotational constants (GHZ):           4.3635456           2.5870974           2.5776119
   108 basis functions,   198 primitive gaussians,   114 cartesian basis functions
    25 alpha electrons       25 beta electrons
       nuclear repulsion energy       267.2260963565 Hartrees.
 NAtoms=   18 NActive=   18 NUniq=   18 SFac= 1.00D+00 NAtFMM=   60 NAOKFM=F Big=F
 Nuclear repulsion after empirical dispersion term =      267.2144994262 Hartrees.
   1 Symmetry operations used in ECPInt.
 ECPInt:  NShTT=    1830 NPrTT=    7374 LenC2=    1828 LenP2D=    6157.
 LDataN:  DoStor=T MaxTD1= 4 Len=   56
 Initial guess from the checkpoint file:  "19.chk"
 B after Tr=    -0.000000    0.000000    0.000000
         Rot=    1.000000   -0.000000   -0.000000    0.000000 Ang=   0.00 deg.
 Skip diagonalization as Alpha Fock matrix is already diagonal.
 SCF Done:  E(RwB97XD) =  -272.673502330     A.U. after    1 cycles
            NFock=  1  Conv=0.00D+00     -V/T= 2.0104

 **********************************************************************

            Population analysis using the SCF Density.

 **********************************************************************

 Orbital symmetries:
       Occupied  (A) (A) (A) (A) (A) (A) (A) (A) (A) (A) (A) (A)
                 (A) (A) (A) (A) (A) (A) (A) (A) (A) (A) (A) (A)
                 (A)
       Virtual   (A) (A) (A) (A) (A) (A) (A) (A) (A) (A) (A) (A)
                 (A) (A) (A) (A) (A) (A) (A) (A) (A) (A) (A) (A)
                 (A) (A) (A) (A) (A) (A) (A) (A) (A) (A) (A) (A)
                 (A) (A) (A) (A) (A) (A) (A) (A) (A) (A) (A) (A)
                 (A) (A) (A) (A) (A) (A) (A) (A) (A) (A) (A) (A)
                 (A) (A) (A) (A) (A) (A) (A) (A) (A) (A) (A) (A)
                 (A) (A) (A) (A) (A) (A) (A) (A) (A) (A) (A)
 The electronic state is 1-A.
 Alpha  occ. eigenvalues --  -19.24735 -10.33153 -10.30526 -10.28670 -10.28340
 Alpha  occ. eigenvalues --  -10.27541  -1.11099  -0.91150  -0.78028  -0.77216
 Alpha  occ. eigenvalues --   -0.76007  -0.63658  -0.59032  -0.55158  -0.54346
 Alpha  occ. eigenvalues --   -0.51846  -0.49863  -0.46927  -0.46185  -0.44744
 Alpha  occ. eigenvalues --   -0.44276  -0.41664  -0.40922  -0.39458  -0.34745
 Alpha virt. eigenvalues --    0.12093   0.15139   0.17712   0.18184   0.19079
 Alpha virt. eigenvalues --    0.20301   0.20555   0.22762   0.23972   0.24678
 Alpha virt. eigenvalues --    0.26549   0.27155   0.27809   0.30038   0.31718
 Alpha virt. eigenvalues --    0.32471   0.33527   0.47940   0.48532   0.51247
 Alpha virt. eigenvalues --    0.52118   0.57846   0.62223   0.64034   0.66747
 Alpha virt. eigenvalues --    0.67296   0.69963   0.71403   0.75618   0.76203
 Alpha virt. eigenvalues --    0.76802   0.77281   0.77885   0.79133   0.80782
 Alpha virt. eigenvalues --    0.80990   0.82497   0.83368   0.83775   0.84742
 Alpha virt. eigenvalues --    0.85016   0.85170   0.86843   0.89936   0.93968
 Alpha virt. eigenvalues --    1.07094   1.11679   1.18114   1.23292   1.23650
 Alpha virt. eigenvalues --    1.23920   1.34293   1.46102   1.54043   1.63898
 Alpha virt. eigenvalues --    1.78941   1.80239   1.81411   1.89309   1.90718
 Alpha virt. eigenvalues --    1.93960   2.06902   2.10298   2.10883   2.12307
 Alpha virt. eigenvalues --    2.13427   2.20208   2.22426   2.24533   2.25127
 Alpha virt. eigenvalues --    2.25975   2.27440   2.29977   2.58466   2.61380
 Alpha virt. eigenvalues --    2.70415   2.72278   2.75879   2.78345   2.92644
 Alpha virt. eigenvalues --    3.08222   3.10535   3.48181
          Condensed to atoms (all electrons):
 Mulliken charges:
               1
     1  C   -0.306314
     2  C   -0.273499
     3  C   -0.265566
     4  C   -0.277580
     5  C    0.064626
     6  O   -0.483674
     7  H    0.121751
     8  H    0.113030
     9  H    0.110026
    10  H    0.110953
    11  H    0.125682
    12  H    0.110285
    13  H    0.117409
    14  H    0.116411
    15  H    0.112970
    16  H    0.086095
    17  H    0.099683
    18  H    0.317710
 Sum of Mulliken charges =   0.00000
 Mulliken charges with hydrogens summed into heavy atoms:
               1
     1  C    0.038493
     2  C   -0.273499
     3  C    0.081354
     4  C    0.069211
     5  C    0.250405
     6  O   -0.165964
 Electronic spatial extent (au):  <R**2>=            652.8807
 Charge=              0.0000 electrons
 Dipole moment (field-independent basis, Debye):
    X=             -0.9398    Y=              1.0142    Z=             -0.8409  Tot=              1.6183
 Evaluate density.
 Using the total density.
 Monte-Carlo method of calculating molar volume:
 based on  0.001 e/bohr**3 density envelope.
 Number of points per bohr**3 =  100 CutOff= 1.00D-04
 Using the SCF density.
 There are      1757 points.  Will hold      1757 in memory.
 LenV=  1048356233 MDV=  1048576000.
 Box volume = 5424.849 fraction occupied=0.166
 Integrated density= 4.2250779291832885D+01 error=-7.7492207081671154D+00
 Molar volume =  901.569 bohr**3/mol ( 80.455 cm**3/mol)
 Recommended a0 for SCRF calculation =  3.99 angstrom (  7.54 bohr)
 1\1\GINC-C324\SP\RwB97XD\def2SVPP\C5H12O1\PETERCHAO1\23-Sep-2022\0\\#T
  wB97XD//def2svpp Volume=tight Geom=AllCheckpoint Guess=Read\\Monomer\
 \0,1\C,0,-0.414763,1.52391,-0.210448\C,0,-0.405069,0.004353,0.008546\C
 ,0,-0.481203,-0.302773,1.508787\C,0,-1.596091,-0.626643,-0.722115\C,0,
 0.888569,-0.598219,-0.574211\O,0,2.070059,-0.114979,0.01214\H,0,-1.360
 539,1.96705,0.148172\H,0,-0.312142,1.776323,-1.282486\H,0,0.402853,2.0
 19324,0.344017\H,0,-1.376032,0.159287,1.963178\H,0,0.41292,0.079314,2.
 029117\H,0,-0.534158,-1.392038,1.686517\H,0,-2.550881,-0.241643,-0.322
 051\H,0,-1.600988,-1.725257,-0.602797\H,0,-1.570451,-0.403068,-1.80432
 7\H,0,0.896928,-0.443179,-1.674926\H,0,0.891092,-1.688121,-0.400524\H,
 0,2.192266,0.808072,-0.244368\\Version=ES64L-G16RevB.01\State=1-A\HF=-
 272.6735023\RMSD=0.000e+00\Dipole=-0.3697265,0.3990287,-0.3308304\Quad
 rupole=-1.8292331,1.5730092,0.2562239,2.2327158,-1.2505043,-0.1079509\
 PG=C01 [X(C5H12O1)]\\@


 Everything starts as somebody's daydream.
                           -- Larry Niven
 File lengths (MBytes):  RWF=     10 Int=      0 D2E=      0 Chk=      2 Scr=      1
 Normal termination of Gaussian 16 at Fri Sep 23 14:19:25 2022.
