 Entering Gaussian System, Link 0=g16
 Input=gaussian_test.inp
 Output=gaussian_test.log
 Initial command:
 /sw/restricted/lms/sw/Gaussian/g16_B01/g16/l1.exe "/scratch/user/peterchao1/peterchao1/7003922_1675700528000000741299252/Gau-250299.inp" -scrdir="/scratch/user/peterchao1/peterchao1/7003922_1675700528000000741299252/"
 Entering Link 1 = /sw/restricted/lms/sw/Gaussian/g16_B01/g16/l1.exe PID=    250309.
  
 Copyright (c) 1988-2017, Gaussian, Inc.  All Rights Reserved.
  
 This is part of the Gaussian(R) 16 program.  It is based on
 the Gaussian(R) 09 system (copyright 2009, Gaussian, Inc.),
 the Gaussian(R) 03 system (copyright 2003, Gaussian, Inc.),
 the Gaussian(R) 98 system (copyright 1998, Gaussian, Inc.),
 the Gaussian(R) 94 system (copyright 1995, Gaussian, Inc.),
 the Gaussian 92(TM) system (copyright 1992, Gaussian, Inc.),
 the Gaussian 90(TM) system (copyright 1990, Gaussian, Inc.),
 the Gaussian 88(TM) system (copyright 1988, Gaussian, Inc.),
 the Gaussian 86(TM) system (copyright 1986, Carnegie Mellon
 University), and the Gaussian 82(TM) system (copyright 1983,
 Carnegie Mellon University). Gaussian is a federally registered
 trademark of Gaussian, Inc.
  
 This software contains proprietary and confidential information,
 including trade secrets, belonging to Gaussian, Inc.
  
 This software is provided under written license and may be
 used, copied, transmitted, or stored only in accord with that
 written license.
  
 The following legend is applicable only to US Government
 contracts under FAR:
  
                    RESTRICTED RIGHTS LEGEND
  
 Use, reproduction and disclosure by the US Government is
 subject to restrictions as set forth in subparagraphs (a)
 and (c) of the Commercial Computer Software - Restricted
 Rights clause in FAR 52.227-19.
  
 Gaussian, Inc.
 340 Quinnipiac St., Bldg. 40, Wallingford CT 06492
  
  
 ---------------------------------------------------------------
 Warning -- This program may not be used in any manner that
 competes with the business of Gaussian, Inc. or will provide
 assistance to any competitor of Gaussian, Inc.  The licensee
 of this program is prohibited from giving any competitor of
 Gaussian, Inc. access to this program.  By using this program,
 the user acknowledges that Gaussian, Inc. is engaged in the
 business of creating and licensing software in the field of
 computational chemistry and represents and warrants to the
 licensee that it is not a competitor of Gaussian, Inc. and that
 it will not use this program in any manner prohibited above.
 ---------------------------------------------------------------
  

 Cite this work as:
 Gaussian 16, Revision B.01,
 M. J. Frisch, G. W. Trucks, H. B. Schlegel, G. E. Scuseria, 
 M. A. Robb, J. R. Cheeseman, G. Scalmani, V. Barone, 
 G. A. Petersson, H. Nakatsuji, X. Li, M. Caricato, A. V. Marenich, 
 J. Bloino, B. G. Janesko, R. Gomperts, B. Mennucci, H. P. Hratchian, 
 J. V. Ortiz, A. F. Izmaylov, J. L. Sonnenberg, D. Williams-Young, 
 F. Ding, F. Lipparini, F. Egidi, J. Goings, B. Peng, A. Petrone, 
 T. Henderson, D. Ranasinghe, V. G. Zakrzewski, J. Gao, N. Rega, 
 G. Zheng, W. Liang, M. Hada, M. Ehara, K. Toyota, R. Fukuda, 
 J. Hasegawa, M. Ishida, T. Nakajima, Y. Honda, O. Kitao, H. Nakai, 
 T. Vreven, K. Throssell, J. A. Montgomery, Jr., J. E. Peralta, 
 F. Ogliaro, M. J. Bearpark, J. J. Heyd, E. N. Brothers, K. N. Kudin, 
 V. N. Staroverov, T. A. Keith, R. Kobayashi, J. Normand, 
 K. Raghavachari, A. P. Rendell, J. C. Burant, S. S. Iyengar, 
 J. Tomasi, M. Cossi, J. M. Millam, M. Klene, C. Adamo, R. Cammi, 
 J. W. Ochterski, R. L. Martin, K. Morokuma, O. Farkas, 
 J. B. Foresman, and D. J. Fox, Gaussian, Inc., Wallingford CT, 2016.
 
 ******************************************
 Gaussian 16:  ES64L-G16RevB.01 20-Dec-2017
                 6-Feb-2023 
 ******************************************
 %nprocshared=4
 Will use up to    4 processors via shared memory.
 %mem=8000mb
 %chk=4.chk
 %nprocshared=4
 Will use up to    4 processors via shared memory.
 %mem=8000mb
 ----------------------------------------------------------------------
 #T wB97XD/def2svpp opt=tight freq int(grid=ultrafine) scf=(verytight,q
 c) Volume=tight
 ----------------------------------------------------------------------
 -------
 Monomer
 -------
 Symbolic Z-matrix:
 Charge =  0 Multiplicity = 1
 C                     1.27384  -0.2588    0.00003 
 C                     0.        0.58353  -0.00003 
 C                    -1.27384  -0.2588   -0.00001 
 H                     2.1778    0.37447   0.00002 
 H                     1.31982  -0.91055  -0.89109 
 H                     1.31979  -0.91047   0.89121 
 H                     0.00001   1.24873  -0.88286 
 H                    -0.00001   1.24881   0.88275 
 H                    -2.1778    0.37447  -0.00005 
 H                    -1.31982  -0.91047   0.89117 
 H                    -1.31979  -0.91055  -0.89113 
 

 GradGradGradGradGradGradGradGradGradGradGradGradGradGradGradGradGradGrad
 Initialization pass.
                           ----------------------------
                           !    Initial Parameters    !
                           ! (Angstroms and Degrees)  !
 --------------------------                            --------------------------
 ! Name  Definition              Value          Derivative Info.                !
 --------------------------------------------------------------------------------
 ! R1    R(1,2)                  1.5272         estimate D2E/DX2                !
 ! R2    R(1,4)                  1.1037         estimate D2E/DX2                !
 ! R3    R(1,5)                  1.105          estimate D2E/DX2                !
 ! R4    R(1,6)                  1.105          estimate D2E/DX2                !
 ! R5    R(2,3)                  1.5272         estimate D2E/DX2                !
 ! R6    R(2,7)                  1.1054         estimate D2E/DX2                !
 ! R7    R(2,8)                  1.1054         estimate D2E/DX2                !
 ! R8    R(3,9)                  1.1037         estimate D2E/DX2                !
 ! R9    R(3,10)                 1.105          estimate D2E/DX2                !
 ! R10   R(3,11)                 1.105          estimate D2E/DX2                !
 ! A1    A(2,1,4)              111.5121         estimate D2E/DX2                !
 ! A2    A(2,1,5)              111.1005         estimate D2E/DX2                !
 ! A3    A(2,1,6)              111.1006         estimate D2E/DX2                !
 ! A4    A(4,1,5)              107.7181         estimate D2E/DX2                !
 ! A5    A(4,1,6)              107.7182         estimate D2E/DX2                !
 ! A6    A(5,1,6)              107.5076         estimate D2E/DX2                !
 ! A7    A(1,2,3)              113.0507         estimate D2E/DX2                !
 ! A8    A(1,2,7)              109.3867         estimate D2E/DX2                !
 ! A9    A(1,2,8)              109.3867         estimate D2E/DX2                !
 ! A10   A(3,2,7)              109.3867         estimate D2E/DX2                !
 ! A11   A(3,2,8)              109.3867         estimate D2E/DX2                !
 ! A12   A(7,2,8)              106.0            estimate D2E/DX2                !
 ! A13   A(2,3,9)              111.5121         estimate D2E/DX2                !
 ! A14   A(2,3,10)             111.1006         estimate D2E/DX2                !
 ! A15   A(2,3,11)             111.1006         estimate D2E/DX2                !
 ! A16   A(9,3,10)             107.7182         estimate D2E/DX2                !
 ! A17   A(9,3,11)             107.7182         estimate D2E/DX2                !
 ! A18   A(10,3,11)            107.5075         estimate D2E/DX2                !
 ! D1    D(4,1,2,3)           -179.9999         estimate D2E/DX2                !
 ! D2    D(4,1,2,7)             57.8481         estimate D2E/DX2                !
 ! D3    D(4,1,2,8)            -57.848          estimate D2E/DX2                !
 ! D4    D(5,1,2,3)             59.8195         estimate D2E/DX2                !
 ! D5    D(5,1,2,7)            -62.3325         estimate D2E/DX2                !
 ! D6    D(5,1,2,8)           -178.0287         estimate D2E/DX2                !
 ! D7    D(6,1,2,3)            -59.8192         estimate D2E/DX2                !
 ! D8    D(6,1,2,7)            178.0288         estimate D2E/DX2                !
 ! D9    D(6,1,2,8)             62.3327         estimate D2E/DX2                !
 ! D10   D(1,2,3,9)           -179.9999         estimate D2E/DX2                !
 ! D11   D(1,2,3,10)            59.8194         estimate D2E/DX2                !
 ! D12   D(1,2,3,11)           -59.8193         estimate D2E/DX2                !
 ! D13   D(7,2,3,9)            -57.8479         estimate D2E/DX2                !
 ! D14   D(7,2,3,10)          -178.0286         estimate D2E/DX2                !
 ! D15   D(7,2,3,11)            62.3327         estimate D2E/DX2                !
 ! D16   D(8,2,3,9)             57.8482         estimate D2E/DX2                !
 ! D17   D(8,2,3,10)           -62.3325         estimate D2E/DX2                !
 ! D18   D(8,2,3,11)           178.0289         estimate D2E/DX2                !
 --------------------------------------------------------------------------------
 Number of steps in this run=     56 maximum allowed number of steps=    100.
 GradGradGradGradGradGradGradGradGradGradGradGradGradGradGradGradGradGrad

                    Distance matrix (angstroms):
                    1          2          3          4          5
     1  C    0.000000
     2  C    1.527150   0.000000
     3  C    2.547684   1.527150   0.000000
     4  H    1.103712   2.187815   3.509258   0.000000
     5  H    1.104985   2.183617   2.818844   1.783675   0.000000
     6  H    1.104985   2.183618   2.818843   1.783676   1.782305
     7  H    2.162122   1.105388   2.162122   2.507302   2.530698
     8  H    2.162121   1.105388   2.162121   2.507301   3.090513
     9  H    3.509258   2.187815   1.103712   4.355608   3.831266
    10  H    2.818844   2.183618   1.104985   3.831266   3.184989
    11  H    2.818843   2.183618   1.104986   3.831266   2.639608
                    6          7          8          9         10
     6  H    0.000000
     7  H    3.090514   0.000000
     8  H    2.530698   1.765604   0.000000
     9  H    3.831266   2.507301   2.507302   0.000000
    10  H    2.639608   3.090514   2.530697   1.783676   0.000000
    11  H    3.184985   2.530699   3.090514   1.783676   1.782305
                   11
    11  H    0.000000
 Framework group  C1[X(C3H8)]
 Deg. of freedom    27
                         Standard orientation:                         
 ---------------------------------------------------------------------
 Center     Atomic      Atomic             Coordinates (Angstroms)
 Number     Number       Type             X           Y           Z
 ---------------------------------------------------------------------
      1          6           0        1.273842   -0.258800    0.000032
      2          6           0        0.000000    0.583527   -0.000026
      3          6           0       -1.273842   -0.258800   -0.000009
      4          1           0        2.177804    0.374472    0.000020
      5          1           0        1.319819   -0.910549   -0.891092
      6          1           0        1.319789   -0.910473    0.891213
      7          1           0        0.000014    1.248728   -0.882857
      8          1           0       -0.000014    1.248805    0.882747
      9          1           0       -2.177804    0.374472   -0.000053
     10          1           0       -1.319819   -0.910471    0.891172
     11          1           0       -1.319789   -0.910552   -0.891133
 ---------------------------------------------------------------------
 Rotational constants (GHZ):          29.3308012           8.3812944           7.4337853
    58 basis functions,   107 primitive gaussians,    61 cartesian basis functions
    13 alpha electrons       13 beta electrons
       nuclear repulsion energy        82.1788173125 Hartrees.
 NAtoms=   11 NActive=   11 NUniq=   11 SFac= 1.00D+00 NAtFMM=   60 NAOKFM=F Big=F
 Nuclear repulsion after empirical dispersion term =       82.1748109832 Hartrees.
   1 Symmetry operations used in ECPInt.
 ECPInt:  NShTT=     595 NPrTT=    2409 LenC2=     596 LenP2D=    2157.
 LDataN:  DoStor=T MaxTD1= 4 Len=   56
 ExpMin= 1.22D-01 ExpMax= 1.24D+03 ExpMxC= 1.86D+02 IAcc=3 IRadAn=         5 AccDes= 0.00D+00
 Harris functional with IExCor= 4639 and IRadAn=       5 diagonalized for initial guess.
 HarFok:  IExCor= 4639 AccDes= 0.00D+00 IRadAn=         5 IDoV= 1 UseB2=F ITyADJ=14
 ICtDFT=  3500011 ScaDFX=  1.000000  1.000000  1.000000  1.000000
 FoFCou: FMM=F IPFlag=           0 FMFlag=      100000 FMFlg1=           0
         NFxFlg=           0 DoJE=T BraDBF=F KetDBF=T FulRan=T
         wScrn=  0.000000 ICntrl=       500 IOpCl=  0 I1Cent=   200000004 NGrid=           0
         NMat0=    1 NMatS0=      1 NMatT0=    0 NMatD0=    1 NMtDS0=    0 NMtDT0=    0
 Petite list used in FoFCou.
     Accept linear search using points  2 and  3.
     Minimum is close to point  2 DX=  7.92D-04 DF= -1.85D-11 DXR=  7.91D-04 DFR=  6.26D-07 which will be used.
 SCF Done:  E(RwB97XD) =  -119.002934853     a.u. after    6 cycles
            Convg  =    0.8989D-09                    28 Fock formations.
              S**2 =  0.0000                  -V/T =  2.0123

 **********************************************************************

            Population analysis using the SCF Density.

 **********************************************************************

 Orbital symmetries:
       Occupied  (A) (A) (A) (A) (A) (A) (A) (A) (A) (A) (A) (A)
                 (A)
       Virtual   (A) (A) (A) (A) (A) (A) (A) (A) (A) (A) (A) (A)
                 (A) (A) (A) (A) (A) (A) (A) (A) (A) (A) (A) (A)
                 (A) (A) (A) (A) (A) (A) (A) (A) (A) (A) (A) (A)
                 (A) (A) (A) (A) (A) (A) (A) (A) (A)
 The electronic state is 1-A.
 Alpha  occ. eigenvalues --  -10.28702 -10.27861 -10.27860  -0.87081  -0.76700
 Alpha  occ. eigenvalues --   -0.66840  -0.54311  -0.52211  -0.48209  -0.46240
 Alpha  occ. eigenvalues --   -0.41934  -0.41681  -0.40625
 Alpha virt. eigenvalues --    0.14064   0.18914   0.18933   0.18988   0.21922
 Alpha virt. eigenvalues --    0.24022   0.24321   0.24909   0.29379   0.33530
 Alpha virt. eigenvalues --    0.48764   0.51410   0.52127   0.54592   0.55490
 Alpha virt. eigenvalues --    0.71515   0.74938   0.75475   0.75487   0.75659
 Alpha virt. eigenvalues --    0.79850   0.80043   0.81141   0.81692   0.82103
 Alpha virt. eigenvalues --    0.83323   0.83689   0.85351   1.11863   1.11884
 Alpha virt. eigenvalues --    1.52961   1.55587   1.80267   1.93777   1.98775
 Alpha virt. eigenvalues --    1.99304   2.08060   2.11729   2.21722   2.23593
 Alpha virt. eigenvalues --    2.33406   2.39411   2.44608   2.62247   2.72569
          Condensed to atoms (all electrons):
 Mulliken charges:
               1
     1  C   -0.334906
     2  C   -0.240535
     3  C   -0.334907
     4  H    0.120670
     5  H    0.113791
     6  H    0.113791
     7  H    0.106921
     8  H    0.106921
     9  H    0.120670
    10  H    0.113791
    11  H    0.113791
 Sum of Mulliken charges =   0.00000
 Mulliken charges with hydrogens summed into heavy atoms:
               1
     1  C    0.013347
     2  C   -0.026693
     3  C    0.013347
 Electronic spatial extent (au):  <R**2>=            227.7861
 Charge=              0.0000 electrons
 Dipole moment (field-independent basis, Debye):
    X=              0.0000    Y=              0.0588    Z=             -0.0000  Tot=              0.0588
 Evaluate density.
 Using the total density.
 Monte-Carlo method of calculating molar volume:
 based on  0.001 e/bohr**3 density envelope.
 Number of points per bohr**3 =  100 CutOff= 1.00D-04
 Using the SCF density.
 There are      1503 points.  Will hold      1503 in memory.
 LenV=  1048474703 MDV=  1048576000.
 Box volume = 3396.704 fraction occupied=0.160
 Integrated density= 1.8278254603383637D+01 error=-7.7217453966163632D+00
 Molar volume =  542.388 bohr**3/mol ( 48.402 cm**3/mol)
 Recommended a0 for SCRF calculation =  3.45 angstrom (  6.51 bohr)
   1 Symmetry operations used in ECPInt.
 ECPInt:  NShTT=     595 NPrTT=    2409 LenC2=     596 LenP2D=    2157.
 LDataN:  DoStor=T MaxTD1= 5 Len=  102
 Calling FoFJK, ICntrl=      2127 FMM=F ISym2X=0 I1Cent= 0 IOpClX= 0 NMat=1 NMatS=1 NMatT=0.

 GradGradGradGradGradGradGradGradGradGradGradGradGradGradGradGradGradGrad
 FormGI is forming the generalized inverse of G from B-inverse, IUseBI=4.
 Internal  Forces:  Max     0.000006381 RMS     0.000001309
 Step number   1 out of a maximum of   56
 All quantities printed in internal units (Hartrees-Bohrs-Radians)
 Mixed Optimization -- En-DIIS/RFO-DIIS
 Second derivative matrix not updated -- first step.
 ITU=  0
     Eigenvalues ---    0.00407   0.00407   0.03507   0.04841   0.05478
     Eigenvalues ---    0.05478   0.05536   0.05536   0.08443   0.12279
     Eigenvalues ---    0.16000   0.16000   0.16000   0.16000   0.16000
     Eigenvalues ---    0.16000   0.21894   0.29688   0.29688   0.33093
     Eigenvalues ---    0.33093   0.33137   0.33137   0.33137   0.33137
     Eigenvalues ---    0.33275   0.33275
 Linear search not attempted -- first point.
 Iteration  1 RMS(Cart)=  0.00001495 RMS(Int)=  0.00000000
 Iteration  2 RMS(Cart)=  0.00000000 RMS(Int)=  0.00000000
 Variable       Old X    -DE/DX   Delta X   Delta X   Delta X     New X
                                 (Linear)    (Quad)   (Total)
    R1        2.88590  -0.00000   0.00000  -0.00000  -0.00000   2.88590
    R2        2.08571   0.00000   0.00000   0.00000   0.00000   2.08572
    R3        2.08812  -0.00000   0.00000  -0.00000  -0.00000   2.08812
    R4        2.08812  -0.00000   0.00000  -0.00000  -0.00000   2.08812
    R5        2.88590  -0.00000   0.00000  -0.00000  -0.00000   2.88590
    R6        2.08888  -0.00000   0.00000  -0.00000  -0.00000   2.08888
    R7        2.08888  -0.00000   0.00000  -0.00000  -0.00000   2.08888
    R8        2.08571   0.00000   0.00000   0.00000   0.00000   2.08572
    R9        2.08812  -0.00000   0.00000  -0.00000  -0.00000   2.08812
   R10        2.08812  -0.00000   0.00000  -0.00000  -0.00000   2.08812
    A1        1.94625  -0.00000   0.00000  -0.00000  -0.00000   1.94625
    A2        1.93907  -0.00000   0.00000  -0.00001  -0.00001   1.93906
    A3        1.93907  -0.00000   0.00000  -0.00001  -0.00001   1.93906
    A4        1.88004   0.00000   0.00000   0.00001   0.00001   1.88004
    A5        1.88004   0.00000   0.00000   0.00001   0.00001   1.88004
    A6        1.87636   0.00000   0.00000   0.00000   0.00000   1.87636
    A7        1.97311   0.00001   0.00000   0.00003   0.00003   1.97313
    A8        1.90916  -0.00000   0.00000  -0.00001  -0.00001   1.90915
    A9        1.90916  -0.00000   0.00000  -0.00001  -0.00001   1.90915
   A10        1.90916  -0.00000   0.00000  -0.00001  -0.00001   1.90915
   A11        1.90916  -0.00000   0.00000  -0.00001  -0.00001   1.90915
   A12        1.85005   0.00000   0.00000   0.00002   0.00002   1.85006
   A13        1.94625  -0.00000   0.00000  -0.00000  -0.00000   1.94625
   A14        1.93907  -0.00000   0.00000  -0.00001  -0.00001   1.93906
   A15        1.93907  -0.00000   0.00000  -0.00001  -0.00001   1.93906
   A16        1.88004   0.00000   0.00000   0.00001   0.00001   1.88004
   A17        1.88004   0.00000   0.00000   0.00001   0.00001   1.88004
   A18        1.87636   0.00000   0.00000   0.00000   0.00000   1.87636
    D1       -3.14159   0.00000   0.00000  -0.00000  -0.00000  -3.14159
    D2        1.00964   0.00000   0.00000   0.00000   0.00000   1.00964
    D3       -1.00964   0.00000   0.00000  -0.00000  -0.00000  -1.00964
    D4        1.04405  -0.00000   0.00000  -0.00001  -0.00001   1.04404
    D5       -1.08791  -0.00000   0.00000  -0.00000  -0.00000  -1.08791
    D6       -3.10719  -0.00000   0.00000  -0.00001  -0.00001  -3.10719
    D7       -1.04404   0.00000   0.00000   0.00000   0.00000  -1.04404
    D8        3.10719   0.00000   0.00000   0.00001   0.00001   3.10719
    D9        1.08791   0.00000   0.00000  -0.00000  -0.00000   1.08791
   D10       -3.14159   0.00000   0.00000  -0.00000  -0.00000  -3.14159
   D11        1.04405  -0.00000   0.00000  -0.00000  -0.00000   1.04404
   D12       -1.04404   0.00000   0.00000   0.00000   0.00000  -1.04404
   D13       -1.00964  -0.00000   0.00000  -0.00000  -0.00000  -1.00964
   D14       -3.10719  -0.00000   0.00000  -0.00001  -0.00001  -3.10719
   D15        1.08791   0.00000   0.00000  -0.00000  -0.00000   1.08791
   D16        1.00964  -0.00000   0.00000   0.00000   0.00000   1.00964
   D17       -1.08791  -0.00000   0.00000  -0.00000  -0.00000  -1.08791
   D18        3.10719   0.00000   0.00000   0.00000   0.00000   3.10719
         Item               Value     Threshold  Converged?
 Maximum Force            0.000006     0.000015     YES
 RMS     Force            0.000001     0.000010     YES
 Maximum Displacement     0.000043     0.000060     YES
 RMS     Displacement     0.000015     0.000040     YES
 Optimization completed.
    -- Stationary point found.
                           ----------------------------
                           !   Optimized Parameters   !
                           ! (Angstroms and Degrees)  !
 --------------------------                            --------------------------
 ! Name  Definition              Value          Derivative Info.                !
 --------------------------------------------------------------------------------
 ! R1    R(1,2)                  1.5272         -DE/DX =    0.0                 !
 ! R2    R(1,4)                  1.1037         -DE/DX =    0.0                 !
 ! R3    R(1,5)                  1.105          -DE/DX =    0.0                 !
 ! R4    R(1,6)                  1.105          -DE/DX =    0.0                 !
 ! R5    R(2,3)                  1.5272         -DE/DX =    0.0                 !
 ! R6    R(2,7)                  1.1054         -DE/DX =    0.0                 !
 ! R7    R(2,8)                  1.1054         -DE/DX =    0.0                 !
 ! R8    R(3,9)                  1.1037         -DE/DX =    0.0                 !
 ! R9    R(3,10)                 1.105          -DE/DX =    0.0                 !
 ! R10   R(3,11)                 1.105          -DE/DX =    0.0                 !
 ! A1    A(2,1,4)              111.5121         -DE/DX =    0.0                 !
 ! A2    A(2,1,5)              111.1005         -DE/DX =    0.0                 !
 ! A3    A(2,1,6)              111.1006         -DE/DX =    0.0                 !
 ! A4    A(4,1,5)              107.7181         -DE/DX =    0.0                 !
 ! A5    A(4,1,6)              107.7182         -DE/DX =    0.0                 !
 ! A6    A(5,1,6)              107.5076         -DE/DX =    0.0                 !
 ! A7    A(1,2,3)              113.0507         -DE/DX =    0.0                 !
 ! A8    A(1,2,7)              109.3867         -DE/DX =    0.0                 !
 ! A9    A(1,2,8)              109.3867         -DE/DX =    0.0                 !
 ! A10   A(3,2,7)              109.3867         -DE/DX =    0.0                 !
 ! A11   A(3,2,8)              109.3867         -DE/DX =    0.0                 !
 ! A12   A(7,2,8)              106.0            -DE/DX =    0.0                 !
 ! A13   A(2,3,9)              111.5121         -DE/DX =    0.0                 !
 ! A14   A(2,3,10)             111.1006         -DE/DX =    0.0                 !
 ! A15   A(2,3,11)             111.1006         -DE/DX =    0.0                 !
 ! A16   A(9,3,10)             107.7182         -DE/DX =    0.0                 !
 ! A17   A(9,3,11)             107.7182         -DE/DX =    0.0                 !
 ! A18   A(10,3,11)            107.5075         -DE/DX =    0.0                 !
 ! D1    D(4,1,2,3)           -179.9999         -DE/DX =    0.0                 !
 ! D2    D(4,1,2,7)             57.8481         -DE/DX =    0.0                 !
 ! D3    D(4,1,2,8)            -57.848          -DE/DX =    0.0                 !
 ! D4    D(5,1,2,3)             59.8195         -DE/DX =    0.0                 !
 ! D5    D(5,1,2,7)            -62.3325         -DE/DX =    0.0                 !
 ! D6    D(5,1,2,8)           -178.0287         -DE/DX =    0.0                 !
 ! D7    D(6,1,2,3)            -59.8192         -DE/DX =    0.0                 !
 ! D8    D(6,1,2,7)            178.0288         -DE/DX =    0.0                 !
 ! D9    D(6,1,2,8)             62.3327         -DE/DX =    0.0                 !
 ! D10   D(1,2,3,9)           -179.9999         -DE/DX =    0.0                 !
 ! D11   D(1,2,3,10)            59.8194         -DE/DX =    0.0                 !
 ! D12   D(1,2,3,11)           -59.8193         -DE/DX =    0.0                 !
 ! D13   D(7,2,3,9)            -57.8479         -DE/DX =    0.0                 !
 ! D14   D(7,2,3,10)          -178.0286         -DE/DX =    0.0                 !
 ! D15   D(7,2,3,11)            62.3327         -DE/DX =    0.0                 !
 ! D16   D(8,2,3,9)             57.8482         -DE/DX =    0.0                 !
 ! D17   D(8,2,3,10)           -62.3325         -DE/DX =    0.0                 !
 ! D18   D(8,2,3,11)           178.0289         -DE/DX =    0.0                 !
 --------------------------------------------------------------------------------
 GradGradGradGradGradGradGradGradGradGradGradGradGradGradGradGradGradGrad

                    Distance matrix (angstroms):
                    1          2          3          4          5
     1  C    0.000000
     2  C    1.527150   0.000000
     3  C    2.547684   1.527150   0.000000
     4  H    1.103712   2.187815   3.509258   0.000000
     5  H    1.104985   2.183617   2.818844   1.783675   0.000000
     6  H    1.104985   2.183618   2.818843   1.783676   1.782305
     7  H    2.162122   1.105388   2.162122   2.507302   2.530698
     8  H    2.162121   1.105388   2.162121   2.507301   3.090513
     9  H    3.509258   2.187815   1.103712   4.355608   3.831266
    10  H    2.818844   2.183618   1.104985   3.831266   3.184989
    11  H    2.818843   2.183618   1.104986   3.831266   2.639608
                    6          7          8          9         10
     6  H    0.000000
     7  H    3.090514   0.000000
     8  H    2.530698   1.765604   0.000000
     9  H    3.831266   2.507301   2.507302   0.000000
    10  H    2.639608   3.090514   2.530697   1.783676   0.000000
    11  H    3.184985   2.530699   3.090514   1.783676   1.782305
                   11
    11  H    0.000000
 Framework group  C1[X(C3H8)]
 Deg. of freedom    27
                         Standard orientation:                         
 ---------------------------------------------------------------------
 Center     Atomic      Atomic             Coordinates (Angstroms)
 Number     Number       Type             X           Y           Z
 ---------------------------------------------------------------------
      1          6           0        1.273842   -0.258800    0.000032
      2          6           0        0.000000    0.583527   -0.000026
      3          6           0       -1.273842   -0.258800   -0.000009
      4          1           0        2.177804    0.374472    0.000020
      5          1           0        1.319819   -0.910549   -0.891092
      6          1           0        1.319789   -0.910473    0.891213
      7          1           0        0.000014    1.248728   -0.882857
      8          1           0       -0.000014    1.248805    0.882747
      9          1           0       -2.177804    0.374472   -0.000053
     10          1           0       -1.319819   -0.910471    0.891172
     11          1           0       -1.319789   -0.910552   -0.891133
 ---------------------------------------------------------------------
 Rotational constants (GHZ):          29.3308012           8.3812944           7.4337853
 1\1\GINC-C007\FOpt\RwB97XD\def2SVPP\C3H8\PETERCHAO1\06-Feb-2023\0\\#T 
 wB97XD/def2svpp opt=tight freq int(grid=ultrafine) scf=(verytight,qc) 
 Volume=tight\\Monomer\\0,1\C,1.273842,-0.2588,0.000032\C,0.,0.583527,-
 0.000026\C,-1.273842,-0.2588,-0.000009\H,2.177804,0.374472,0.00002\H,1
 .319819,-0.910549,-0.891092\H,1.319789,-0.910473,0.891213\H,0.000014,1
 .248728,-0.882857\H,-0.000014,1.248805,0.882747\H,-2.177804,0.374472,-
 0.000053\H,-1.319819,-0.910471,0.891172\H,-1.319789,-0.910552,-0.89113
 3\\Version=ES64L-G16RevB.01\State=1-A\HF=-119.0029349\RMSD=2.628e-11\R
 MSF=1.156e-06\Dipole=0.,0.0231528,-0.0000009\Quadrupole=-0.2762424,-0.
 030295,0.3065374,0.,-0.0000092,0.0000133\PG=C01 [X(C3H8)]\\@


 TRUST EVERYONE, BUT CUT THE CARDS.
 File lengths (MBytes):  RWF=      6 Int=      0 D2E=      0 Chk=      1 Scr=      1
 Normal termination of Gaussian 16 at Mon Feb  6 10:22:23 2023.
 Link1:  Proceeding to internal job step number  2.
 ---------------------------------------------------------------------
 #T Geom=AllCheck Guess=TCheck SCRF=Check GenChk RwB97XD/def2SVPP Freq
 ---------------------------------------------------------------------
 Structure from the checkpoint file:  "4.chk"
 -------
 Monomer
 -------
 Charge =  0 Multiplicity = 1
 Redundant internal coordinates found in file.  (old form).
 C,0,1.273842,-0.2588,0.000032
 C,0,0.,0.583527,-0.000026
 C,0,-1.273842,-0.2588,-0.000009
 H,0,2.177804,0.374472,0.00002
 H,0,1.319819,-0.910549,-0.891092
 H,0,1.319789,-0.910473,0.891213
 H,0,0.000014,1.248728,-0.882857
 H,0,-0.000014,1.248805,0.882747
 H,0,-2.177804,0.374472,-0.000053
 H,0,-1.319819,-0.910471,0.891172
 H,0,-1.319789,-0.910552,-0.891133
 Recover connectivity data from disk.

 GradGradGradGradGradGradGradGradGradGradGradGradGradGradGradGradGradGrad
 Initialization pass.
                           ----------------------------
                           !    Initial Parameters    !
                           ! (Angstroms and Degrees)  !
 --------------------------                            --------------------------
 ! Name  Definition              Value          Derivative Info.                !
 --------------------------------------------------------------------------------
 ! R1    R(1,2)                  1.5272         calculate D2E/DX2 analytically  !
 ! R2    R(1,4)                  1.1037         calculate D2E/DX2 analytically  !
 ! R3    R(1,5)                  1.105          calculate D2E/DX2 analytically  !
 ! R4    R(1,6)                  1.105          calculate D2E/DX2 analytically  !
 ! R5    R(2,3)                  1.5272         calculate D2E/DX2 analytically  !
 ! R6    R(2,7)                  1.1054         calculate D2E/DX2 analytically  !
 ! R7    R(2,8)                  1.1054         calculate D2E/DX2 analytically  !
 ! R8    R(3,9)                  1.1037         calculate D2E/DX2 analytically  !
 ! R9    R(3,10)                 1.105          calculate D2E/DX2 analytically  !
 ! R10   R(3,11)                 1.105          calculate D2E/DX2 analytically  !
 ! A1    A(2,1,4)              111.5121         calculate D2E/DX2 analytically  !
 ! A2    A(2,1,5)              111.1005         calculate D2E/DX2 analytically  !
 ! A3    A(2,1,6)              111.1006         calculate D2E/DX2 analytically  !
 ! A4    A(4,1,5)              107.7181         calculate D2E/DX2 analytically  !
 ! A5    A(4,1,6)              107.7182         calculate D2E/DX2 analytically  !
 ! A6    A(5,1,6)              107.5076         calculate D2E/DX2 analytically  !
 ! A7    A(1,2,3)              113.0507         calculate D2E/DX2 analytically  !
 ! A8    A(1,2,7)              109.3867         calculate D2E/DX2 analytically  !
 ! A9    A(1,2,8)              109.3867         calculate D2E/DX2 analytically  !
 ! A10   A(3,2,7)              109.3867         calculate D2E/DX2 analytically  !
 ! A11   A(3,2,8)              109.3867         calculate D2E/DX2 analytically  !
 ! A12   A(7,2,8)              106.0            calculate D2E/DX2 analytically  !
 ! A13   A(2,3,9)              111.5121         calculate D2E/DX2 analytically  !
 ! A14   A(2,3,10)             111.1006         calculate D2E/DX2 analytically  !
 ! A15   A(2,3,11)             111.1006         calculate D2E/DX2 analytically  !
 ! A16   A(9,3,10)             107.7182         calculate D2E/DX2 analytically  !
 ! A17   A(9,3,11)             107.7182         calculate D2E/DX2 analytically  !
 ! A18   A(10,3,11)            107.5075         calculate D2E/DX2 analytically  !
 ! D1    D(4,1,2,3)           -179.9999         calculate D2E/DX2 analytically  !
 ! D2    D(4,1,2,7)             57.8481         calculate D2E/DX2 analytically  !
 ! D3    D(4,1,2,8)            -57.848          calculate D2E/DX2 analytically  !
 ! D4    D(5,1,2,3)             59.8195         calculate D2E/DX2 analytically  !
 ! D5    D(5,1,2,7)            -62.3325         calculate D2E/DX2 analytically  !
 ! D6    D(5,1,2,8)           -178.0287         calculate D2E/DX2 analytically  !
 ! D7    D(6,1,2,3)            -59.8192         calculate D2E/DX2 analytically  !
 ! D8    D(6,1,2,7)            178.0288         calculate D2E/DX2 analytically  !
 ! D9    D(6,1,2,8)             62.3327         calculate D2E/DX2 analytically  !
 ! D10   D(1,2,3,9)           -179.9999         calculate D2E/DX2 analytically  !
 ! D11   D(1,2,3,10)            59.8194         calculate D2E/DX2 analytically  !
 ! D12   D(1,2,3,11)           -59.8193         calculate D2E/DX2 analytically  !
 ! D13   D(7,2,3,9)            -57.8479         calculate D2E/DX2 analytically  !
 ! D14   D(7,2,3,10)          -178.0286         calculate D2E/DX2 analytically  !
 ! D15   D(7,2,3,11)            62.3327         calculate D2E/DX2 analytically  !
 ! D16   D(8,2,3,9)             57.8482         calculate D2E/DX2 analytically  !
 ! D17   D(8,2,3,10)           -62.3325         calculate D2E/DX2 analytically  !
 ! D18   D(8,2,3,11)           178.0289         calculate D2E/DX2 analytically  !
 --------------------------------------------------------------------------------
 Number of steps in this run=      2 maximum allowed number of steps=      2.
 GradGradGradGradGradGradGradGradGradGradGradGradGradGradGradGradGradGrad

                    Distance matrix (angstroms):
                    1          2          3          4          5
     1  C    0.000000
     2  C    1.527150   0.000000
     3  C    2.547684   1.527150   0.000000
     4  H    1.103712   2.187815   3.509258   0.000000
     5  H    1.104985   2.183617   2.818844   1.783675   0.000000
     6  H    1.104985   2.183618   2.818843   1.783676   1.782305
     7  H    2.162122   1.105388   2.162122   2.507302   2.530698
     8  H    2.162121   1.105388   2.162121   2.507301   3.090513
     9  H    3.509258   2.187815   1.103712   4.355608   3.831266
    10  H    2.818844   2.183618   1.104985   3.831266   3.184989
    11  H    2.818843   2.183618   1.104986   3.831266   2.639608
                    6          7          8          9         10
     6  H    0.000000
     7  H    3.090514   0.000000
     8  H    2.530698   1.765604   0.000000
     9  H    3.831266   2.507301   2.507302   0.000000
    10  H    2.639608   3.090514   2.530697   1.783676   0.000000
    11  H    3.184985   2.530699   3.090514   1.783676   1.782305
                   11
    11  H    0.000000
 Framework group  C1[X(C3H8)]
 Deg. of freedom    27
                         Standard orientation:                         
 ---------------------------------------------------------------------
 Center     Atomic      Atomic             Coordinates (Angstroms)
 Number     Number       Type             X           Y           Z
 ---------------------------------------------------------------------
      1          6           0        1.273842   -0.258800    0.000032
      2          6           0        0.000000    0.583527   -0.000026
      3          6           0       -1.273842   -0.258800   -0.000009
      4          1           0        2.177804    0.374472    0.000020
      5          1           0        1.319819   -0.910549   -0.891092
      6          1           0        1.319789   -0.910473    0.891213
      7          1           0        0.000014    1.248728   -0.882857
      8          1           0       -0.000014    1.248805    0.882747
      9          1           0       -2.177804    0.374472   -0.000053
     10          1           0       -1.319819   -0.910471    0.891172
     11          1           0       -1.319789   -0.910552   -0.891133
 ---------------------------------------------------------------------
 Rotational constants (GHZ):          29.3308012           8.3812944           7.4337853
    58 basis functions,   107 primitive gaussians,    61 cartesian basis functions
    13 alpha electrons       13 beta electrons
       nuclear repulsion energy        82.1788173125 Hartrees.
 NAtoms=   11 NActive=   11 NUniq=   11 SFac= 1.00D+00 NAtFMM=   60 NAOKFM=F Big=F
 Nuclear repulsion after empirical dispersion term =       82.1748109832 Hartrees.
   1 Symmetry operations used in ECPInt.
 ECPInt:  NShTT=     595 NPrTT=    2409 LenC2=     596 LenP2D=    2157.
 LDataN:  DoStor=T MaxTD1= 4 Len=   56
 Initial guess from the checkpoint file:  "4.chk"
 B after Tr=     0.000000    0.000000    0.000000
         Rot=    1.000000   -0.000000    0.000000    0.000000 Ang=   0.00 deg.
 SCF Done:  E(RwB97XD) =  -119.002934853     a.u. after    1 cycles
            Convg  =    0.8993D-09                     1 Fock formations.
              S**2 =  0.0000                  -V/T =  2.0123
 DoSCS=F DFT=T ScalE2(SS,OS)=  1.000000  1.000000
 NROrb=     58 NOA=    13 NOB=    13 NVA=    45 NVB=    45

 **** Warning!!: The largest alpha MO coefficient is  0.10551515D+02

   1 Symmetry operations used in ECPInt.
 ECPInt:  NShTT=     595 NPrTT=    2409 LenC2=     596 LenP2D=    2157.
 LDataN:  DoStor=T MaxTD1= 5 Len=  102
 Symmetrizing basis deriv contribution to polar:
 IMax=3 JMax=2 DiffMx= 0.00D+00
 Calling FoFCou, ICntrl=  3107 FMM=F I1Cent=   0 AccDes= 0.00D+00.
 End of G2Drv F.D. properties file   721 does not exist.
 End of G2Drv F.D. properties file   722 does not exist.
 End of G2Drv F.D. properties file   788 does not exist.
          IDoAtm=11111111111
 End of Minotr F.D. properties file   721 does not exist.
 End of Minotr F.D. properties file   722 does not exist.
 End of Minotr F.D. properties file   788 does not exist.

 **********************************************************************

            Population analysis using the SCF Density.

 **********************************************************************

 Orbital symmetries:
       Occupied  (A) (A) (A) (A) (A) (A) (A) (A) (A) (A) (A) (A)
                 (A)
       Virtual   (A) (A) (A) (A) (A) (A) (A) (A) (A) (A) (A) (A)
                 (A) (A) (A) (A) (A) (A) (A) (A) (A) (A) (A) (A)
                 (A) (A) (A) (A) (A) (A) (A) (A) (A) (A) (A) (A)
                 (A) (A) (A) (A) (A) (A) (A) (A) (A)
 The electronic state is 1-A.
 Alpha  occ. eigenvalues --  -10.28702 -10.27861 -10.27860  -0.87081  -0.76700
 Alpha  occ. eigenvalues --   -0.66840  -0.54311  -0.52211  -0.48209  -0.46240
 Alpha  occ. eigenvalues --   -0.41934  -0.41681  -0.40625
 Alpha virt. eigenvalues --    0.14064   0.18914   0.18933   0.18988   0.21922
 Alpha virt. eigenvalues --    0.24022   0.24321   0.24909   0.29379   0.33530
 Alpha virt. eigenvalues --    0.48764   0.51410   0.52127   0.54592   0.55490
 Alpha virt. eigenvalues --    0.71515   0.74938   0.75475   0.75487   0.75659
 Alpha virt. eigenvalues --    0.79850   0.80043   0.81141   0.81692   0.82103
 Alpha virt. eigenvalues --    0.83323   0.83689   0.85351   1.11863   1.11884
 Alpha virt. eigenvalues --    1.52961   1.55587   1.80267   1.93777   1.98775
 Alpha virt. eigenvalues --    1.99304   2.08060   2.11729   2.21722   2.23593
 Alpha virt. eigenvalues --    2.33406   2.39411   2.44608   2.62247   2.72569
          Condensed to atoms (all electrons):
 Mulliken charges:
               1
     1  C   -0.334906
     2  C   -0.240535
     3  C   -0.334907
     4  H    0.120670
     5  H    0.113791
     6  H    0.113791
     7  H    0.106921
     8  H    0.106921
     9  H    0.120670
    10  H    0.113791
    11  H    0.113791
 Sum of Mulliken charges =  -0.00000
 Mulliken charges with hydrogens summed into heavy atoms:
               1
     1  C    0.013347
     2  C   -0.026693
     3  C    0.013347
 APT charges:
               1
     1  C    0.042003
     2  C    0.129771
     3  C    0.042003
     4  H   -0.019846
     5  H   -0.018638
     6  H   -0.018638
     7  H   -0.049767
     8  H   -0.049767
     9  H   -0.019846
    10  H   -0.018638
    11  H   -0.018638
 Sum of APT charges =   0.00000
 APT charges with hydrogens summed into heavy atoms:
               1
     1  C   -0.015118
     2  C    0.030236
     3  C   -0.015118
 Electronic spatial extent (au):  <R**2>=            227.7861
 Charge=              0.0000 electrons
 Dipole moment (field-independent basis, Debye):
    X=              0.0000    Y=              0.0588    Z=             -0.0000  Tot=              0.0588
  Exact polarizability:  36.462   0.000  32.963   0.000  -0.000  31.901
 Approx polarizability:  32.735   0.000  32.919  -0.000   0.000  33.097
   1 Symmetry operations used in ECPInt.
 ECPInt:  NShTT=     595 NPrTT=    2409 LenC2=     596 LenP2D=    2157.
 LDataN:  DoStor=T MaxTD1= 6 Len=  172
 Calling FoFJK, ICntrl=    100127 FMM=F ISym2X=0 I1Cent= 0 IOpClX= 0 NMat=1 NMatS=1 NMatT=0.
 Full mass-weighted force constant matrix:
 Low frequencies ---  -25.6946  -12.6387   -5.9035   -0.0003    0.0002    0.0009
 Low frequencies ---  227.5420  285.5681  375.5028
 Diagonal vibrational polarizability:
        0.4053123       0.4719048       0.6491670
 Harmonic frequencies (cm**-1), IR intensities (KM/Mole), Raman scattering
 activities (A**4/AMU), depolarization ratios for plane and unpolarized
 incident light, reduced masses (AMU), force constants (mDyne/A),
 and normal coordinates:
                      1                      2                      3
                      A                      A                      A
 Frequencies --    227.5410               285.5681               375.5028
 Red. masses --      1.0278                 1.1385                 2.0554
 Frc consts  --      0.0314                 0.0547                 0.1708
 IR Inten    --      0.0000                 0.0067                 0.1247
  Atom  AN      X      Y      Z        X      Y      Z        X      Y      Z
     1   6     0.00  -0.00  -0.03    -0.00   0.00   0.04    -0.17  -0.06  -0.00
     2   6     0.00  -0.00  -0.00     0.00  -0.00  -0.09     0.00   0.17  -0.00
     3   6    -0.00   0.00   0.03    -0.00   0.00   0.04     0.17  -0.06   0.00
     4   1    -0.00   0.00   0.36    -0.00   0.00   0.46     0.03  -0.34   0.00
     5   1     0.18   0.31  -0.24     0.26   0.21  -0.10    -0.39  -0.08   0.01
     6   1    -0.18  -0.31  -0.24    -0.26  -0.21  -0.10    -0.39  -0.08  -0.01
     7   1    -0.00  -0.00  -0.00     0.00  -0.10  -0.17     0.00   0.15  -0.01
     8   1     0.00   0.00  -0.00     0.00   0.10  -0.17    -0.00   0.15   0.01
     9   1     0.00  -0.00  -0.36    -0.00   0.00   0.46    -0.03  -0.34   0.00
    10   1    -0.18   0.31   0.24     0.26  -0.21  -0.10     0.39  -0.08  -0.01
    11   1     0.18  -0.31   0.24    -0.26   0.21  -0.10     0.39  -0.08   0.01
                      4                      5                      6
                      A                      A                      A
 Frequencies --    761.3508               897.2440               921.6342
 Red. masses --      1.0798                 2.4243                 1.1027
 Frc consts  --      0.3688                 1.1499                 0.5519
 IR Inten    --      4.4023                 1.1866                 0.0000
  Atom  AN      X      Y      Z        X      Y      Z        X      Y      Z
     1   6     0.00  -0.00  -0.02     0.21  -0.06   0.00     0.00  -0.00  -0.07
     2   6     0.00  -0.00  -0.08     0.00   0.19  -0.00    -0.00   0.00   0.00
     3   6     0.00  -0.00  -0.02    -0.21  -0.06  -0.00    -0.00   0.00   0.07
     4   1    -0.00   0.00   0.12     0.46  -0.40   0.00    -0.00   0.00   0.20
     5   1     0.21  -0.19   0.13    -0.00  -0.11   0.03     0.31  -0.24   0.13
     6   1    -0.21   0.19   0.13    -0.00  -0.11  -0.03    -0.31   0.24   0.13
     7   1    -0.00   0.46   0.28    -0.00   0.19  -0.00    -0.35  -0.00  -0.00
     8   1    -0.00  -0.46   0.28    -0.00   0.19   0.00     0.35   0.00   0.00
     9   1    -0.00   0.00   0.12    -0.46  -0.40   0.00     0.00  -0.00  -0.20
    10   1     0.21   0.19   0.13     0.00  -0.11  -0.03    -0.31  -0.24  -0.13
    11   1    -0.21  -0.19   0.13     0.00  -0.11   0.03     0.31   0.24  -0.13
                      7                      8                      9
                      A                      A                      A
 Frequencies --    944.5945              1090.6556              1188.4662
 Red. masses --      1.1879                 2.1895                 1.7918
 Frc consts  --      0.6245                 1.5345                 1.4911
 IR Inten    --      2.6126                 0.3350                 1.8691
  Atom  AN      X      Y      Z        X      Y      Z        X      Y      Z
     1   6     0.03   0.08  -0.00    -0.13   0.10  -0.00    -0.04  -0.13   0.00
     2   6     0.04  -0.00   0.00     0.24   0.00   0.00     0.00   0.19  -0.00
     3   6     0.03  -0.08   0.00    -0.13  -0.10   0.00     0.04  -0.13   0.00
     4   1     0.33  -0.35   0.00    -0.16   0.14  -0.00    -0.29   0.25  -0.00
     5   1    -0.33   0.01   0.04    -0.16   0.13  -0.02     0.37  -0.01  -0.07
     6   1    -0.33   0.01  -0.04    -0.16   0.13   0.02     0.37  -0.01   0.07
     7   1    -0.21   0.00  -0.00     0.56  -0.00   0.00     0.00   0.18  -0.01
     8   1    -0.21  -0.00  -0.00     0.56   0.00   0.00    -0.00   0.18   0.01
     9   1     0.33   0.35  -0.00    -0.16  -0.14   0.00     0.29   0.25  -0.00
    10   1    -0.33  -0.01   0.04    -0.16  -0.13  -0.02    -0.37  -0.01   0.07
    11   1    -0.33  -0.01  -0.04    -0.16  -0.13   0.02    -0.37  -0.01  -0.07
                     10                     11                     12
                      A                      A                      A
 Frequencies --   1220.9244              1324.9267              1376.8720
 Red. masses --      1.6647                 1.1257                 1.3256
 Frc consts  --      1.4620                 1.1643                 1.4807
 IR Inten    --      0.5835                 0.0000                 1.1882
  Atom  AN      X      Y      Z        X      Y      Z        X      Y      Z
     1   6     0.00  -0.00  -0.12    -0.00   0.00   0.07     0.01  -0.06   0.00
     2   6    -0.00   0.00   0.18    -0.00   0.00   0.00     0.15   0.00   0.00
     3   6     0.00  -0.00  -0.12     0.00  -0.00  -0.07     0.01   0.06  -0.00
     4   1    -0.00   0.00   0.23     0.00  -0.00  -0.11    -0.22   0.26  -0.00
     5   1     0.25  -0.26   0.09    -0.12   0.14  -0.04    -0.14   0.14  -0.14
     6   1    -0.25   0.26   0.09     0.12  -0.14  -0.04    -0.14   0.14   0.14
     7   1     0.00  -0.36  -0.09    -0.64  -0.00  -0.00    -0.50   0.00  -0.00
     8   1     0.00   0.36  -0.09     0.64  -0.00   0.00    -0.50   0.00  -0.00
     9   1    -0.00   0.00   0.23    -0.00   0.00   0.11    -0.22  -0.26   0.00
    10   1     0.25   0.26   0.09     0.12   0.14   0.04    -0.14  -0.14  -0.14
    11   1    -0.25  -0.26   0.09    -0.12  -0.14   0.04    -0.14  -0.14   0.14
                     13                     14                     15
                      A                      A                      A
 Frequencies --   1426.4184              1428.0744              1485.2444
 Red. masses --      1.4345                 1.2492                 1.0348
 Frc consts  --      1.7196                 1.5010                 1.3450
 IR Inten    --      9.0197                 3.1377                 0.0000
  Atom  AN      X      Y      Z        X      Y      Z        X      Y      Z
     1   6    -0.11   0.03  -0.00     0.08  -0.06   0.00     0.00  -0.00  -0.04
     2   6     0.12  -0.00   0.00     0.00   0.01  -0.00    -0.00  -0.00  -0.00
     3   6    -0.11  -0.03  -0.00    -0.08  -0.06   0.00    -0.00   0.00   0.04
     4   1     0.13  -0.30   0.00    -0.21   0.35  -0.00    -0.00   0.00   0.50
     5   1     0.36  -0.01   0.05    -0.34   0.14  -0.16    -0.33  -0.10   0.03
     6   1     0.36  -0.01  -0.05    -0.34   0.14   0.16     0.33   0.10   0.03
     7   1    -0.32  -0.00  -0.00    -0.00   0.07   0.04    -0.06   0.00   0.00
     8   1    -0.32  -0.00  -0.00    -0.00   0.07  -0.04     0.06   0.00  -0.00
     9   1     0.13   0.30  -0.00     0.21   0.35  -0.00     0.00  -0.00  -0.50
    10   1     0.36   0.01   0.05     0.34   0.14   0.16     0.33  -0.10  -0.03
    11   1     0.36   0.01  -0.05     0.34   0.14  -0.16    -0.33   0.10  -0.03
                     16                     17                     18
                      A                      A                      A
 Frequencies --   1488.8862              1493.8522              1502.2910
 Red. masses --      1.0425                 1.0644                 1.0392
 Frc consts  --      1.3616                 1.3995                 1.3818
 IR Inten    --      0.0919                 2.2683                17.5125
  Atom  AN      X      Y      Z        X      Y      Z        X      Y      Z
     1   6     0.01   0.02   0.00     0.00   0.04  -0.00    -0.00  -0.00  -0.03
     2   6     0.00  -0.05   0.00     0.05   0.00   0.00     0.00  -0.00  -0.03
     3   6    -0.01   0.02  -0.00     0.00  -0.04   0.00     0.00  -0.00  -0.03
     4   1    -0.09   0.13  -0.00    -0.13   0.21   0.00    -0.00   0.00   0.49
     5   1    -0.03  -0.23   0.18    -0.05  -0.36   0.28    -0.34  -0.10   0.03
     6   1    -0.03  -0.23  -0.18    -0.05  -0.36  -0.28     0.34   0.10   0.03
     7   1    -0.00   0.43   0.34    -0.12  -0.00  -0.00    -0.00   0.04  -0.00
     8   1     0.00   0.43  -0.34    -0.12  -0.00   0.00    -0.00  -0.04  -0.00
     9   1     0.09   0.13  -0.00    -0.13  -0.21  -0.00    -0.00   0.00   0.49
    10   1     0.03  -0.23  -0.18    -0.05   0.36   0.28    -0.34   0.10   0.03
    11   1     0.03  -0.23   0.18    -0.05   0.36  -0.28     0.34  -0.10   0.03
                     19                     20                     21
                      A                      A                      A
 Frequencies --   1506.5704              3024.6309              3026.5696
 Red. masses --      1.0872                 1.0378                 1.0381
 Frc consts  --      1.4540                 5.5938                 5.6025
 IR Inten    --      7.3339                33.8813                21.9906
  Atom  AN      X      Y      Z        X      Y      Z        X      Y      Z
     1   6    -0.02  -0.02   0.00    -0.03   0.02  -0.00    -0.03   0.02  -0.00
     2   6     0.00  -0.07   0.00     0.00  -0.00   0.00     0.00   0.00  -0.00
     3   6     0.02  -0.02   0.00    -0.03  -0.02  -0.00     0.03   0.02   0.00
     4   1     0.12  -0.22  -0.00     0.29   0.22  -0.00     0.30   0.22  -0.00
     5   1     0.08   0.28  -0.21     0.01  -0.25  -0.35     0.01  -0.25  -0.34
     6   1     0.08   0.28   0.21     0.01  -0.25   0.35     0.01  -0.25   0.34
     7   1    -0.00   0.31   0.29    -0.00   0.00  -0.00    -0.00  -0.03   0.05
     8   1     0.00   0.31  -0.29    -0.00   0.00   0.00    -0.00  -0.03  -0.05
     9   1    -0.12  -0.22  -0.00     0.29  -0.22   0.00    -0.30   0.22  -0.00
    10   1    -0.08   0.28   0.21     0.01   0.25  -0.35    -0.01  -0.25   0.34
    11   1    -0.08   0.28  -0.21     0.01   0.25   0.35    -0.01  -0.25  -0.34
                     22                     23                     24
                      A                      A                      A
 Frequencies --   3038.0257              3080.5361              3112.3292
 Red. masses --      1.0638                 1.1045                 1.1052
 Frc consts  --      5.7846                 6.1752                 6.3074
 IR Inten    --     26.5706                 3.9047                 0.0000
  Atom  AN      X      Y      Z        X      Y      Z        X      Y      Z
     1   6    -0.00  -0.01  -0.00    -0.00   0.00   0.03     0.00   0.00   0.07
     2   6    -0.00   0.07  -0.00     0.00  -0.00  -0.09    -0.00  -0.00  -0.00
     3   6     0.00  -0.01  -0.00    -0.00   0.00   0.03     0.00  -0.00  -0.07
     4   1     0.03   0.02  -0.00    -0.00  -0.00   0.01    -0.00  -0.00   0.01
     5   1    -0.00   0.04   0.05     0.01  -0.13  -0.17     0.02  -0.30  -0.40
     6   1    -0.00   0.04  -0.05    -0.01   0.13  -0.17    -0.02   0.30  -0.40
     7   1    -0.00  -0.41   0.57    -0.00  -0.39   0.51    -0.00  -0.00   0.00
     8   1     0.00  -0.41  -0.57    -0.00   0.39   0.51     0.00   0.00   0.00
     9   1    -0.03   0.02  -0.00     0.00  -0.00   0.01    -0.00   0.00  -0.01
    10   1     0.00   0.04  -0.05     0.01   0.13  -0.17    -0.02  -0.30   0.40
    11   1     0.00   0.04   0.05    -0.01  -0.13  -0.17     0.02   0.30   0.40
                     25                     26                     27
                      A                      A                      A
 Frequencies --   3120.4541              3122.7197              3124.2353
 Red. masses --      1.1049                 1.1049                 1.1038
 Frc consts  --      6.3389                 6.3478                 6.3480
 IR Inten    --     76.7585                20.2015                36.7347
  Atom  AN      X      Y      Z        X      Y      Z        X      Y      Z
     1   6    -0.00  -0.00  -0.06    -0.04  -0.05  -0.00    -0.04  -0.05   0.00
     2   6     0.00  -0.00  -0.04    -0.00   0.00  -0.00    -0.00  -0.01   0.00
     3   6     0.00  -0.00  -0.06    -0.04   0.05  -0.00     0.04  -0.05   0.00
     4   1     0.00   0.00  -0.01     0.49   0.35  -0.00     0.49   0.35  -0.00
     5   1    -0.02   0.27   0.36    -0.01   0.14   0.21    -0.01   0.14   0.21
     6   1     0.02  -0.27   0.36    -0.01   0.14  -0.21    -0.01   0.14  -0.21
     7   1    -0.00  -0.18   0.24    -0.00  -0.00   0.00     0.00   0.05  -0.06
     8   1    -0.00   0.18   0.24    -0.00   0.00   0.00    -0.00   0.05   0.06
     9   1    -0.00   0.00  -0.01     0.49  -0.35   0.00    -0.49   0.35  -0.00
    10   1    -0.02  -0.27   0.36    -0.01  -0.14   0.21     0.01   0.14  -0.21
    11   1     0.02   0.27   0.36    -0.01  -0.14  -0.21     0.01   0.14   0.21
 
 Temperature   298.150 Kelvin.  Pressure   1.00000 Atm.
 Zero-point correction=                           0.103876 (Hartree/Particle)
 Thermal correction to Energy=                    0.108355
 Thermal correction to Enthalpy=                  0.109299
 Thermal correction to Gibbs Free Energy=         0.078258
 Sum of electronic and zero-point Energies=           -118.899059
 Sum of electronic and thermal Energies=              -118.894580
 Sum of electronic and thermal Enthalpies=            -118.893636
 Sum of electronic and thermal Free Energies=         -118.924677
 FormGI is forming the generalized inverse of G from B-inverse, IUseBI=4.

 GradGradGradGradGradGradGradGradGradGradGradGradGradGradGradGradGradGrad
 Internal  Forces:  Max     0.000006381 RMS     0.000001309
 Step number   1 out of a maximum of    2
 All quantities printed in internal units (Hartrees-Bohrs-Radians)
 Second derivative matrix not updated -- analytic derivatives used.
 ITU=  0
     Eigenvalues ---    0.00244   0.00300   0.03637   0.03977   0.04587
     Eigenvalues ---    0.04630   0.04690   0.04708   0.07403   0.10544
     Eigenvalues ---    0.12344   0.12690   0.13294   0.14621   0.15379
     Eigenvalues ---    0.16707   0.21918   0.30582   0.31632   0.33047
     Eigenvalues ---    0.33567   0.33653   0.33673   0.33687   0.33905
     Eigenvalues ---    0.34101   0.34366
 Angle between quadratic step and forces=  24.53 degrees.
 Linear search not attempted -- first point.
 Iteration  1 RMS(Cart)=  0.00001930 RMS(Int)=  0.00000000
 Iteration  2 RMS(Cart)=  0.00000000 RMS(Int)=  0.00000000
 Variable       Old X    -DE/DX   Delta X   Delta X   Delta X     New X
                                 (Linear)    (Quad)   (Total)
    R1        2.88590  -0.00000   0.00000   0.00000   0.00000   2.88590
    R2        2.08571   0.00000   0.00000   0.00000   0.00000   2.08572
    R3        2.08812  -0.00000   0.00000  -0.00000  -0.00000   2.08812
    R4        2.08812  -0.00000   0.00000  -0.00000  -0.00000   2.08812
    R5        2.88590  -0.00000   0.00000   0.00000   0.00000   2.88590
    R6        2.08888  -0.00000   0.00000  -0.00000  -0.00000   2.08888
    R7        2.08888  -0.00000   0.00000  -0.00000  -0.00000   2.08888
    R8        2.08571   0.00000   0.00000   0.00000   0.00000   2.08572
    R9        2.08812  -0.00000   0.00000  -0.00000  -0.00000   2.08812
   R10        2.08812  -0.00000   0.00000  -0.00000  -0.00000   2.08812
    A1        1.94625  -0.00000   0.00000  -0.00001  -0.00001   1.94624
    A2        1.93907  -0.00000   0.00000  -0.00000  -0.00000   1.93907
    A3        1.93907  -0.00000   0.00000  -0.00001  -0.00001   1.93907
    A4        1.88004   0.00000   0.00000   0.00001   0.00001   1.88005
    A5        1.88004   0.00000   0.00000   0.00001   0.00001   1.88005
    A6        1.87636   0.00000   0.00000   0.00000   0.00000   1.87636
    A7        1.97311   0.00001   0.00000   0.00003   0.00003   1.97314
    A8        1.90916  -0.00000   0.00000  -0.00001  -0.00001   1.90915
    A9        1.90916  -0.00000   0.00000  -0.00001  -0.00001   1.90915
   A10        1.90916  -0.00000   0.00000  -0.00001  -0.00001   1.90915
   A11        1.90916  -0.00000   0.00000  -0.00001  -0.00001   1.90915
   A12        1.85005   0.00000   0.00000   0.00002   0.00002   1.85007
   A13        1.94625  -0.00000   0.00000  -0.00001  -0.00001   1.94624
   A14        1.93907  -0.00000   0.00000  -0.00001  -0.00001   1.93907
   A15        1.93907  -0.00000   0.00000  -0.00000  -0.00000   1.93907
   A16        1.88004   0.00000   0.00000   0.00001   0.00001   1.88005
   A17        1.88004   0.00000   0.00000   0.00001   0.00001   1.88005
   A18        1.87636   0.00000   0.00000   0.00000   0.00000   1.87636
    D1       -3.14159   0.00000   0.00000  -0.00000  -0.00000  -3.14159
    D2        1.00964   0.00000   0.00000   0.00000   0.00000   1.00964
    D3       -1.00964   0.00000   0.00000  -0.00000  -0.00000  -1.00964
    D4        1.04405  -0.00000   0.00000  -0.00000  -0.00000   1.04404
    D5       -1.08791  -0.00000   0.00000   0.00000   0.00000  -1.08791
    D6       -3.10719  -0.00000   0.00000  -0.00001  -0.00001  -3.10719
    D7       -1.04404   0.00000   0.00000   0.00000   0.00000  -1.04404
    D8        3.10719   0.00000   0.00000   0.00000   0.00000   3.10719
    D9        1.08791   0.00000   0.00000  -0.00000  -0.00000   1.08791
   D10       -3.14159   0.00000   0.00000  -0.00000  -0.00000   3.14159
   D11        1.04405  -0.00000   0.00000  -0.00000  -0.00000   1.04404
   D12       -1.04404   0.00000   0.00000   0.00000   0.00000  -1.04404
   D13       -1.00964  -0.00000   0.00000  -0.00001  -0.00001  -1.00964
   D14       -3.10719  -0.00000   0.00000  -0.00001  -0.00001  -3.10719
   D15        1.08791   0.00000   0.00000  -0.00000  -0.00000   1.08791
   D16        1.00964  -0.00000   0.00000   0.00000   0.00000   1.00964
   D17       -1.08791  -0.00000   0.00000  -0.00000  -0.00000  -1.08791
   D18        3.10719   0.00000   0.00000   0.00000   0.00000   3.10719
         Item               Value     Threshold  Converged?
 Maximum Force            0.000006     0.000015     YES
 RMS     Force            0.000001     0.000010     YES
 Maximum Displacement     0.000050     0.000060     YES
 RMS     Displacement     0.000019     0.000040     YES
 Optimization completed.
    -- Stationary point found.
                           ----------------------------
                           !   Optimized Parameters   !
                           ! (Angstroms and Degrees)  !
 --------------------------                            --------------------------
 ! Name  Definition              Value          Derivative Info.                !
 --------------------------------------------------------------------------------
 ! R1    R(1,2)                  1.5272         -DE/DX =    0.0                 !
 ! R2    R(1,4)                  1.1037         -DE/DX =    0.0                 !
 ! R3    R(1,5)                  1.105          -DE/DX =    0.0                 !
 ! R4    R(1,6)                  1.105          -DE/DX =    0.0                 !
 ! R5    R(2,3)                  1.5272         -DE/DX =    0.0                 !
 ! R6    R(2,7)                  1.1054         -DE/DX =    0.0                 !
 ! R7    R(2,8)                  1.1054         -DE/DX =    0.0                 !
 ! R8    R(3,9)                  1.1037         -DE/DX =    0.0                 !
 ! R9    R(3,10)                 1.105          -DE/DX =    0.0                 !
 ! R10   R(3,11)                 1.105          -DE/DX =    0.0                 !
 ! A1    A(2,1,4)              111.5121         -DE/DX =    0.0                 !
 ! A2    A(2,1,5)              111.1005         -DE/DX =    0.0                 !
 ! A3    A(2,1,6)              111.1006         -DE/DX =    0.0                 !
 ! A4    A(4,1,5)              107.7181         -DE/DX =    0.0                 !
 ! A5    A(4,1,6)              107.7182         -DE/DX =    0.0                 !
 ! A6    A(5,1,6)              107.5076         -DE/DX =    0.0                 !
 ! A7    A(1,2,3)              113.0507         -DE/DX =    0.0                 !
 ! A8    A(1,2,7)              109.3867         -DE/DX =    0.0                 !
 ! A9    A(1,2,8)              109.3867         -DE/DX =    0.0                 !
 ! A10   A(3,2,7)              109.3867         -DE/DX =    0.0                 !
 ! A11   A(3,2,8)              109.3867         -DE/DX =    0.0                 !
 ! A12   A(7,2,8)              106.0            -DE/DX =    0.0                 !
 ! A13   A(2,3,9)              111.5121         -DE/DX =    0.0                 !
 ! A14   A(2,3,10)             111.1006         -DE/DX =    0.0                 !
 ! A15   A(2,3,11)             111.1006         -DE/DX =    0.0                 !
 ! A16   A(9,3,10)             107.7182         -DE/DX =    0.0                 !
 ! A17   A(9,3,11)             107.7182         -DE/DX =    0.0                 !
 ! A18   A(10,3,11)            107.5075         -DE/DX =    0.0                 !
 ! D1    D(4,1,2,3)           -179.9999         -DE/DX =    0.0                 !
 ! D2    D(4,1,2,7)             57.8481         -DE/DX =    0.0                 !
 ! D3    D(4,1,2,8)            -57.848          -DE/DX =    0.0                 !
 ! D4    D(5,1,2,3)             59.8195         -DE/DX =    0.0                 !
 ! D5    D(5,1,2,7)            -62.3325         -DE/DX =    0.0                 !
 ! D6    D(5,1,2,8)           -178.0287         -DE/DX =    0.0                 !
 ! D7    D(6,1,2,3)            -59.8192         -DE/DX =    0.0                 !
 ! D8    D(6,1,2,7)            178.0288         -DE/DX =    0.0                 !
 ! D9    D(6,1,2,8)             62.3327         -DE/DX =    0.0                 !
 ! D10   D(1,2,3,9)            180.0001         -DE/DX =    0.0                 !
 ! D11   D(1,2,3,10)            59.8194         -DE/DX =    0.0                 !
 ! D12   D(1,2,3,11)           -59.8193         -DE/DX =    0.0                 !
 ! D13   D(7,2,3,9)            -57.8479         -DE/DX =    0.0                 !
 ! D14   D(7,2,3,10)          -178.0286         -DE/DX =    0.0                 !
 ! D15   D(7,2,3,11)            62.3327         -DE/DX =    0.0                 !
 ! D16   D(8,2,3,9)             57.8482         -DE/DX =    0.0                 !
 ! D17   D(8,2,3,10)           -62.3325         -DE/DX =    0.0                 !
 ! D18   D(8,2,3,11)           178.0289         -DE/DX =    0.0                 !
 --------------------------------------------------------------------------------
 GradGradGradGradGradGradGradGradGradGradGradGradGradGradGradGradGradGrad


 ----------------------------------------------------------------------

 Electric dipole moment (input orientation):
 (Debye = 10**-18 statcoulomb cm , SI units = C m)
                  (au)            (Debye)         (10**-30 SI)
   Tot        0.231528D-01      0.588486D-01      0.196298D+00
   x          0.000000D+00      0.000000D+00      0.000000D+00
   y          0.231528D-01      0.588486D-01      0.196298D+00
   z          0.000000D+00      0.000000D+00      0.000000D+00

 Dipole polarizability, Alpha (input orientation).
 (esu units = cm**3 , SI units = C**2 m**2 J**-1)
 Alpha(0;0):
               (au)            (10**-24 esu)      (10**-40 SI)
   iso        0.337753D+02      0.500499D+01      0.556880D+01
   aniso      0.413405D+01      0.612603D+00      0.681613D+00
   xx         0.364623D+02      0.540316D+01      0.601183D+01
   yx         0.000000D+00      0.000000D+00      0.000000D+00
   yy         0.329626D+02      0.488455D+01      0.543480D+01
   zx         0.761872D-04      0.112898D-04      0.125616D-04
   zy        -0.443201D-04     -0.656757D-05     -0.730740D-05
   zz         0.319010D+02      0.472724D+01      0.525977D+01

 ----------------------------------------------------------------------

 Dipole orientation:
     6          2.40721440         -0.00005163         -0.48905178
     6         -0.00000428          0.00000815          1.10270622
     6         -2.40721061          0.00004452         -0.48907046
     1          4.11545037         -0.00008006          0.70766549
     1          2.49410965          1.68397410         -1.72061597
     1          2.49403989         -1.68409422         -1.72059753
     1          0.00002377          1.66827023          2.35981593
     1         -0.00004208         -1.66823777          2.35983743
     1         -4.11545586          0.00008982          0.70763356
     1         -2.49409630         -1.68399739         -1.72061310
     1         -2.49402654          1.68407094         -1.72064099

 Electric dipole moment (dipole orientation):
 (Debye = 10**-18 statcoulomb cm , SI units = C m)
                  (au)            (Debye)         (10**-30 SI)
   Tot        0.231528D-01      0.588486D-01      0.196298D+00
   x          0.000000D+00      0.000000D+00      0.000000D+00
   y          0.000000D+00      0.000000D+00      0.000000D+00
   z          0.231528D-01      0.588486D-01      0.196298D+00

 Dipole polarizability, Alpha (dipole orientation).
 (esu units = cm**3 , SI units = C**2 m**2 J**-1)
 Alpha(0;0):
               (au)            (10**-24 esu)      (10**-40 SI)
   iso        0.337753D+02      0.500499D+01      0.556880D+01
   aniso      0.413405D+01      0.612603D+00      0.681613D+00
   xx         0.364623D+02      0.540316D+01      0.601183D+01
   yx        -0.938847D-04     -0.139123D-04     -0.154795D-04
   yy         0.319010D+02      0.472724D+01      0.525977D+01
   zx         0.155810D-04      0.230887D-05      0.256897D-05
   zy         0.000000D+00      0.000000D+00      0.000000D+00
   zz         0.329626D+02      0.488455D+01      0.543480D+01

 ----------------------------------------------------------------------
 1\1\GINC-C007\Freq\RwB97XD\def2SVPP\C3H8\PETERCHAO1\06-Feb-2023\0\\#T 
 Geom=AllCheck Guess=TCheck SCRF=Check GenChk RwB97XD/def2SVPP Freq\\Mo
 nomer\\0,1\C,1.273842,-0.2588,0.000032\C,0.,0.583527,-0.000026\C,-1.27
 3842,-0.2588,-0.000009\H,2.177804,0.374472,0.00002\H,1.319819,-0.91054
 9,-0.891092\H,1.319789,-0.910473,0.891213\H,0.000014,1.248728,-0.88285
 7\H,-0.000014,1.248805,0.882747\H,-2.177804,0.374472,-0.000053\H,-1.31
 9819,-0.910471,0.891172\H,-1.319789,-0.910552,-0.891133\\Version=ES64L
 -G16RevB.01\State=1-A\HF=-119.0029349\RMSD=2.629e-11\RMSF=1.156e-06\Ze
 roPoint=0.1038756\Thermal=0.1083551\Dipole=0.,0.0231528,-0.0000009\Dip
 oleDeriv=-0.009625,0.0061747,-0.0000017,-0.0141149,0.0544858,0.000001,
 -0.0000008,0.0000014,0.0811484,0.1520884,0.,0.0000004,0.,0.1088082,0.0
 000007,0.0000002,0.0000008,0.1284174,-0.009625,-0.0061746,-0.0000011,0
 .014115,0.0544861,0.0000016,-0.0000019,0.0000015,0.0811487,-0.1298836,
 -0.0619303,-0.0000009,-0.0962264,-0.0101137,0.0000023,0.0000006,0.0000
 029,0.0804592,0.0403503,0.0094782,-0.0216218,0.0473811,-0.0224047,-0.0
 933712,0.0195034,-0.1118583,-0.0738587,0.0403504,0.0094762,0.0216249,0
 .0473762,-0.0223871,0.0933683,-0.0195036,0.111854,-0.0738761,-0.017236
 3,-0.0000021,0.000001,-0.0000017,-0.0539742,0.1011549,0.000001,0.13185
 22,-0.0780917,-0.0172364,0.000002,0.000001,0.0000017,-0.0539947,-0.101
 157,0.000001,-0.1318544,-0.0780714,-0.1298835,0.0619302,-0.0000063,0.0
 962263,-0.0101137,0.0000057,-0.0000078,0.0000051,0.0804591,0.0403504,-
 0.0094801,-0.021621,-0.0473794,-0.0223867,0.0933667,0.0195075,0.111853
 6,-0.0738768,0.0403502,-0.0094743,0.0216256,-0.047378,-0.0224053,-0.09
 3373,-0.0194996,-0.1118588,-0.0738583\Polar=36.4623353,0.000002,32.962
 5983,0.0000762,-0.0000443,31.9010149\Quadrupole=-0.2762424,-0.030295,0
 .3065374,0.,-0.0000092,0.0000133\PG=C01 [X(C3H8)]\NImag=0\\0.52852175,
 0.04402932,0.55637842,-0.00000290,0.00000140,0.57926389,-0.17209947,0.
 06390544,-0.00000419,0.48345838,0.06167110,-0.12682590,0.00000293,-0.0
 0000001,0.55476628,-0.00000410,0.00000298,-0.08401415,-0.00000203,0.00
 000197,0.60582490,-0.03034840,-0.01559061,0.00000019,-0.17209948,-0.06
 167110,0.00000131,0.52852193,0.01559062,0.01294631,-0.00000033,-0.0639
 0544,-0.12682590,0.00000089,-0.04402936,0.55637822,-0.00000119,-0.0000
 0083,-0.00016657,0.00000142,0.00000095,-0.08401414,0.00000126,-0.00000
 065,0.57926293,-0.22539414,-0.12715320,0.00000251,-0.01949533,-0.01779
 119,0.00000047,-0.00380975,0.00534499,-0.00000031,0.24312781,-0.129259
 23,-0.14149767,0.00000179,0.01755092,0.01309568,-0.00000033,0.00274219
 ,-0.00213796,0.00000016,0.13594906,0.14728307,0.00000260,0.00000182,-0
 .04973928,-0.00000105,-0.00000093,-0.00143150,-0.00000019,0.00000020,0
 .00051488,-0.00000253,-0.00000207,0.04592033,-0.04904594,0.00318638,0.
 00586687,-0.00096492,0.01641113,0.02426187,0.00173284,0.00061271,0.001
 15079,0.00244701,-0.01343931,-0.02209814,0.05063819,0.00392562,-0.1392
 0033,-0.12486006,0.00011686,-0.01137432,-0.01554318,-0.00107950,0.0007
 5412,0.00060422,0.00232264,-0.00951143,-0.01427048,-0.00842222,0.14698
 345,0.00692822,-0.12546792,-0.22476652,-0.00049269,0.00119805,0.001439
 58,-0.00010695,0.00034117,0.00037873,-0.00011611,0.00220471,0.00189966
 ,-0.00744443,0.13716401,0.23628045,-0.04904554,0.00318169,-0.00586114,
 -0.00096410,0.01640906,-0.02426334,0.00173287,0.00061262,-0.00115080,0
 .00244626,-0.01343734,0.02209930,-0.00099800,-0.00046674,0.00037733,0.
 05063771,0.00392085,-0.13917914,0.12485312,0.00011636,-0.01137306,0.01
 554425,-0.00107948,0.00075404,-0.00060429,0.00232217,-0.00951040,0.014
 27153,-0.00046623,0.01313874,-0.01594739,-0.00841697,0.14696017,-0.006
 92254,0.12546095,-0.22478862,0.00049260,-0.00119642,0.00143754,0.00010
 709,-0.00034118,0.00037878,0.00011593,-0.00220420,0.00189938,-0.000376
 72,0.01594474,-0.01766531,0.00743880,-0.13715688,0.23630466,-0.0011217
 0,0.01750460,-0.02419594,-0.04820541,-0.00000197,0.00000276,-0.0011224
 9,-0.01750454,0.02419587,0.00078431,-0.00066189,-0.00035093,0.00108505
 ,-0.00056518,0.00048918,-0.00478715,0.00371344,0.00029546,0.05685172,0
 .00035223,-0.01099536,0.01498641,-0.00000195,-0.14089492,0.12172053,-0
 .00035272,-0.01099535,0.01498641,-0.00010396,0.00085045,-0.00035725,-0
 .00066975,0.00003284,0.00001666,0.00345786,-0.00136305,-0.00026628,0.0
 0000216,0.15099409,0.00030697,-0.00161455,0.00146847,0.00000277,0.1234
 8583,-0.22035480,-0.00030705,-0.00161509,0.00146922,-0.00057288,0.0000
 6271,0.00005233,-0.00033117,0.00007144,0.00084572,0.00009099,-0.000499
 84,0.00153260,-0.00000281,-0.13500074,0.23125153,-0.00112251,0.0175067
 0,0.02419434,-0.04820533,0.00000197,0.00000276,-0.00112172,-0.01750675
 ,-0.02419441,0.00078428,-0.00066186,0.00035101,-0.00478714,0.00371342,
 -0.00029599,0.00108505,-0.00056522,-0.00048913,-0.00056652,0.00000025,
 0.00000029,0.05685169,0.00035271,-0.01099654,-0.01498533,0.00000195,-0
 .14091617,-0.12172730,-0.00035222,-0.01099654,-0.01498533,-0.00010393,
 0.00085048,0.00035718,0.00345785,-0.00136300,0.00026665,-0.00066972,0.
 00003283,-0.00001661,-0.00000025,0.01285106,0.01547601,-0.00000217,0.1
 5101755,-0.00030707,0.00161617,0.00147039,0.00000277,-0.12349261,-0.22
 033305,0.00030699,0.00161562,0.00146964,0.00057291,-0.00006279,0.00005
 234,-0.00009149,0.00050021,0.00153252,0.00033123,-0.00007138,0.0008457
 2,0.00000029,-0.01547876,-0.01869572,-0.00000281,0.13500761,0.23122760
 ,-0.00380975,-0.00534499,0.00000016,-0.01949533,0.01779119,-0.00000111
 ,-0.22539417,0.12715320,-0.00000878,-0.00152824,0.00098869,-0.00000007
 ,0.00031890,-0.00010105,0.00007423,0.00031889,-0.00010105,-0.00007421,
 0.00078428,0.00010398,0.00057291,0.00078431,0.00010391,-0.00057289,0.2
 4312783,-0.00274219,-0.00213796,0.00000007,-0.01755092,0.01309568,-0.0
 0000094,0.12925924,-0.14149767,0.00000639,-0.00098869,0.00061840,-0.00
 000002,-0.00011440,-0.00002028,0.00022552,-0.00011436,-0.00002032,-0.0
 0022551,0.00066189,0.00085045,0.00006273,0.00066186,0.00085047,-0.0000
 6278,-0.13594906,0.14728306,0.00000006,0.00000003,0.00051488,0.0000005
 0,-0.00000036,-0.00143149,-0.00000888,0.00000635,-0.04973927,0.0000000
 1,0.,0.00049036,-0.00030833,0.00024065,0.00017072,0.00030834,-0.000240
 64,0.00017077,0.00035095,-0.00035725,0.00005236,-0.00035098,0.00035718
 ,0.00005230,0.00000954,-0.00000694,0.04592032,0.00173283,-0.00061261,0
 .00115084,-0.00096489,-0.01640897,0.02426330,-0.04904596,-0.00318588,0
 .00586706,0.00031890,0.00011437,-0.00030834,-0.00006751,0.00006510,-0.
 00002101,-0.00035848,0.00049101,-0.00060828,-0.00478714,-0.00345785,-0
 .00009119,0.00108505,0.00066972,-0.00033123,0.00244701,0.01343735,-0.0
 2209932,0.05063819,0.00107949,0.00075403,-0.00060425,-0.00011689,-0.01
 137304,0.01554428,-0.00392502,-0.13917855,0.12485279,0.00010105,-0.000
 02032,-0.00024063,-0.00006511,0.00001306,-0.00007496,-0.00049100,0.000
 54712,-0.00007355,-0.00371344,-0.00136306,-0.00049995,0.00056522,0.000
 03284,-0.00007136,-0.00232265,-0.00951037,0.01427148,0.00842157,0.1469
 5955,-0.00010704,-0.00034120,0.00037881,-0.00049269,-0.00119694,0.0014
 3831,0.00692847,0.12546067,-0.22478872,0.00007422,-0.00022551,0.000170
 76,-0.00002101,0.00007495,-0.00011452,0.00060827,-0.00007354,-0.000001
 00,-0.00029566,-0.00026640,0.00153258,0.00048913,-0.00001659,0.0008457
 3,-0.00011591,-0.00220372,0.00189861,-0.00744507,-0.13715639,0.2363047
 8,0.00173287,-0.00061272,-0.00115075,-0.00096411,-0.01641120,-0.024261
 90,-0.04904566,-0.00318215,-0.00586090,0.00031889,0.00011439,0.0003083
 3,-0.00035848,0.00049105,0.00060823,-0.00006751,0.00006511,0.00002101,
 0.00108505,0.00066975,0.00033118,-0.00478715,-0.00345786,0.00009129,0.
 00244627,0.01343928,0.02209811,-0.00099799,0.00046676,0.00037728,0.050
 63783,0.00107949,0.00075413,0.00060426,-0.00011633,-0.01137433,-0.0155
 4314,-0.00392141,-0.13920072,-0.12485983,0.00010104,-0.00002028,0.0002
 4065,-0.00049106,0.00054714,0.00007349,-0.00006511,0.00001307,0.000074
 95,0.00056518,0.00003284,0.00007146,-0.00371342,-0.00136299,0.00050009
 ,-0.00232216,-0.00951146,-0.01427052,0.00046620,0.01313872,0.01594466,
 0.00841759,0.14698388,0.00010699,0.00034115,0.00037870,0.00049260,0.00
 119752,0.00143880,-0.00692224,-0.12546764,-0.22476549,-0.00007422,0.00
 022553,0.00017073,-0.00060824,0.00007350,-0.00000101,0.00002101,-0.000
 07496,-0.00011453,-0.00048918,0.00001668,0.00084571,0.00029578,0.00026
 654,0.00153253,0.00011614,0.00220519,0.00190044,-0.00037677,-0.0159474
 5,-0.01766534,0.00743812,0.13716394,0.23627947\\-0.00000333,-0.0000010
 9,0.00000020,0.,0.00000140,-0.00000020,0.00000334,-0.00000082,0.000000
 34,-0.00000026,-0.00000126,-0.00000001,0.00000099,-0.00000023,-0.00000
 029,0.00000103,-0.00000024,0.00000021,-0.00000003,0.00000215,0.0000005
 4,0.00000003,0.00000209,-0.00000051,0.00000027,-0.00000124,-0.00000001
 ,-0.00000103,-0.00000028,0.00000023,-0.00000101,-0.00000048,-0.0000005
 0\\\@


 REALITY IS FOR PEOPLE WHO CAN'T FACE SCIENCE FICTION.
 File lengths (MBytes):  RWF=      8 Int=      0 D2E=      0 Chk=      1 Scr=      1
 Normal termination of Gaussian 16 at Mon Feb  6 10:22:38 2023.
real 27.30
user 98.95
sys 2.34
