 Entering Gaussian System, Link 0=g16
 Input=gaussian_test.inp
 Output=gaussian_test.log
 Initial command:
 /sw/restricted/lms/sw/Gaussian/g16_B01/g16/l1.exe "/scratch/user/peterchao1/peterchao1/6991737_1675632193000000648968836/Gau-123667.inp" -scrdir="/scratch/user/peterchao1/peterchao1/6991737_1675632193000000648968836/"
 Entering Link 1 = /sw/restricted/lms/sw/Gaussian/g16_B01/g16/l1.exe PID=    123763.
  
 Copyright (c) 1988-2017, Gaussian, Inc.  All Rights Reserved.
  
 This is part of the Gaussian(R) 16 program.  It is based on
 the Gaussian(R) 09 system (copyright 2009, Gaussian, Inc.),
 the Gaussian(R) 03 system (copyright 2003, Gaussian, Inc.),
 the Gaussian(R) 98 system (copyright 1998, Gaussian, Inc.),
 the Gaussian(R) 94 system (copyright 1995, Gaussian, Inc.),
 the Gaussian 92(TM) system (copyright 1992, Gaussian, Inc.),
 the Gaussian 90(TM) system (copyright 1990, Gaussian, Inc.),
 the Gaussian 88(TM) system (copyright 1988, Gaussian, Inc.),
 the Gaussian 86(TM) system (copyright 1986, Carnegie Mellon
 University), and the Gaussian 82(TM) system (copyright 1983,
 Carnegie Mellon University). Gaussian is a federally registered
 trademark of Gaussian, Inc.
  
 This software contains proprietary and confidential information,
 including trade secrets, belonging to Gaussian, Inc.
  
 This software is provided under written license and may be
 used, copied, transmitted, or stored only in accord with that
 written license.
  
 The following legend is applicable only to US Government
 contracts under FAR:
  
                    RESTRICTED RIGHTS LEGEND
  
 Use, reproduction and disclosure by the US Government is
 subject to restrictions as set forth in subparagraphs (a)
 and (c) of the Commercial Computer Software - Restricted
 Rights clause in FAR 52.227-19.
  
 Gaussian, Inc.
 340 Quinnipiac St., Bldg. 40, Wallingford CT 06492
  
  
 ---------------------------------------------------------------
 Warning -- This program may not be used in any manner that
 competes with the business of Gaussian, Inc. or will provide
 assistance to any competitor of Gaussian, Inc.  The licensee
 of this program is prohibited from giving any competitor of
 Gaussian, Inc. access to this program.  By using this program,
 the user acknowledges that Gaussian, Inc. is engaged in the
 business of creating and licensing software in the field of
 computational chemistry and represents and warrants to the
 licensee that it is not a competitor of Gaussian, Inc. and that
 it will not use this program in any manner prohibited above.
 ---------------------------------------------------------------
  

 Cite this work as:
 Gaussian 16, Revision B.01,
 M. J. Frisch, G. W. Trucks, H. B. Schlegel, G. E. Scuseria, 
 M. A. Robb, J. R. Cheeseman, G. Scalmani, V. Barone, 
 G. A. Petersson, H. Nakatsuji, X. Li, M. Caricato, A. V. Marenich, 
 J. Bloino, B. G. Janesko, R. Gomperts, B. Mennucci, H. P. Hratchian, 
 J. V. Ortiz, A. F. Izmaylov, J. L. Sonnenberg, D. Williams-Young, 
 F. Ding, F. Lipparini, F. Egidi, J. Goings, B. Peng, A. Petrone, 
 T. Henderson, D. Ranasinghe, V. G. Zakrzewski, J. Gao, N. Rega, 
 G. Zheng, W. Liang, M. Hada, M. Ehara, K. Toyota, R. Fukuda, 
 J. Hasegawa, M. Ishida, T. Nakajima, Y. Honda, O. Kitao, H. Nakai, 
 T. Vreven, K. Throssell, J. A. Montgomery, Jr., J. E. Peralta, 
 F. Ogliaro, M. J. Bearpark, J. J. Heyd, E. N. Brothers, K. N. Kudin, 
 V. N. Staroverov, T. A. Keith, R. Kobayashi, J. Normand, 
 K. Raghavachari, A. P. Rendell, J. C. Burant, S. S. Iyengar, 
 J. Tomasi, M. Cossi, J. M. Millam, M. Klene, C. Adamo, R. Cammi, 
 J. W. Ochterski, R. L. Martin, K. Morokuma, O. Farkas, 
 J. B. Foresman, and D. J. Fox, Gaussian, Inc., Wallingford CT, 2016.
 
 ******************************************
 Gaussian 16:  ES64L-G16RevB.01 20-Dec-2017
                 5-Feb-2023 
 ******************************************
 %nprocshared=4
 Will use up to    4 processors via shared memory.
 %mem=8000mb
 %chk=0.chk
 %nprocshared=4
 Will use up to    4 processors via shared memory.
 %mem=8000mb
 ----------------------------------------------------------------------
 #T wB97XD/def2svpp opt=tight freq int(grid=ultrafine) scf=(verytight,q
 c) Volume=tight
 ----------------------------------------------------------------------
 -----
 Dimer
 -----
 Symbolic Z-matrix:
 Charge =  0 Multiplicity = 1
 C                     2.66276  -1.79176   1.72453 
 C                     1.97204  -0.63968   1.00292 
 C                     2.74655   0.00104  -0.16761 
 C                     4.10643   0.55702   0.30432 
 C                     4.05732   1.6237    1.3933 
 C                     3.06167  -1.04161  -1.2611 
 C                     1.86541  -1.75908  -1.87808 
 C                     1.84522   1.12685  -0.71722 
 C                     2.40316   1.93066  -1.88696 
 H                     2.87181  -2.61584   1.04777 
 H                     2.0128   -2.16444   2.5144 
 H                     3.59562  -1.47288   2.18154 
 H                     1.74576   0.14034   1.73307 
 H                     1.0146   -0.99841   0.62152 
 H                     4.62759   0.96941  -0.56194 
 H                     4.71236  -0.27725   0.6635 
 H                     3.50974   2.50268   1.06418 
 H                     5.07063   1.93426   1.64152 
 H                     3.593     1.24493   2.29985 
 H                     3.73374  -1.79086  -0.83768 
 H                     3.61568  -0.5435   -2.05914 
 H                     2.21402  -2.44857  -2.64494 
 H                     1.17875  -1.05881  -2.3458 
 H                     1.32144  -2.33651  -1.13527 
 H                     1.61948   1.81545   0.0995 
 H                     0.895     0.68693  -1.02395 
 H                     2.59578   1.2972   -2.74863 
 H                     3.32454   2.43993  -1.61763 
 H                     1.67803   2.68646  -2.18353 
 C                    -2.66227  -1.77261  -1.74385 
 C                    -1.97048  -0.63036  -1.00776 
 C                    -2.74621  -0.00104   0.16813 
 C                    -4.10556   0.5594   -0.29993 
 C                    -4.05489   1.63581  -1.37919 
 C                    -3.06237  -1.05415   1.2513 
 C                    -1.86682  -1.77699   1.86341 
 C                    -1.84555   1.11942   0.72962 
 C                    -2.40626   1.9139    1.9044 
 H                    -2.87661  -2.60302  -1.07654 
 H                    -2.01059  -2.13917  -2.53519 
 H                    -3.59235  -1.44582  -2.20101 
 H                    -1.74063   0.15724  -1.72863 
 H                    -1.01482  -0.99567  -0.62815 
 H                    -4.62741   0.96407   0.56953 
 H                    -4.71134  -0.27144  -0.66718 
 H                    -3.50618   2.51102  -1.04201 
 H                    -5.06776   1.94996  -1.62476 
 H                    -3.59084   1.26462  -2.28902 
 H                    -3.73335  -1.79971   0.81972 
 H                    -3.6179   -0.56393   2.05316 
 H                    -1.18143  -1.08098   2.33926 
 H                    -1.32116  -2.34692   1.11607 
 H                    -2.21651  -2.47408   2.62286 
 H                    -1.61705   1.81473  -0.08065 
 H                    -0.89647   0.67625   1.03525 
 H                    -1.68075   2.66561   2.21033 
 H                    -2.6034    1.2732    2.75973 
 H                    -3.32563   2.4274    1.63614 
 
 Add virtual bond connecting atoms H43        and H14        Dist= 4.50D+00.

 GradGradGradGradGradGradGradGradGradGradGradGradGradGradGradGradGradGrad
 Initialization pass.
                           ----------------------------
                           !    Initial Parameters    !
                           ! (Angstroms and Degrees)  !
 --------------------------                            --------------------------
 ! Name  Definition              Value          Derivative Info.                !
 --------------------------------------------------------------------------------
 ! R1    R(1,2)                  1.5248         estimate D2E/DX2                !
 ! R2    R(1,10)                 1.0866         estimate D2E/DX2                !
 ! R3    R(1,11)                 1.0887         estimate D2E/DX2                !
 ! R4    R(1,12)                 1.0866         estimate D2E/DX2                !
 ! R5    R(2,3)                  1.5429         estimate D2E/DX2                !
 ! R6    R(2,13)                 1.0921         estimate D2E/DX2                !
 ! R7    R(2,14)                 1.0913         estimate D2E/DX2                !
 ! R8    R(3,4)                  1.5431         estimate D2E/DX2                !
 ! R9    R(3,6)                  1.5434         estimate D2E/DX2                !
 ! R10   R(3,8)                  1.5433         estimate D2E/DX2                !
 ! R11   R(4,5)                  1.5252         estimate D2E/DX2                !
 ! R12   R(4,15)                 1.0918         estimate D2E/DX2                !
 ! R13   R(4,16)                 1.0919         estimate D2E/DX2                !
 ! R14   R(5,17)                 1.0866         estimate D2E/DX2                !
 ! R15   R(5,18)                 1.0885         estimate D2E/DX2                !
 ! R16   R(5,19)                 1.0867         estimate D2E/DX2                !
 ! R17   R(6,7)                  1.5253         estimate D2E/DX2                !
 ! R18   R(6,20)                 1.0919         estimate D2E/DX2                !
 ! R19   R(6,21)                 1.0917         estimate D2E/DX2                !
 ! R20   R(7,22)                 1.0886         estimate D2E/DX2                !
 ! R21   R(7,23)                 1.0866         estimate D2E/DX2                !
 ! R22   R(7,24)                 1.0868         estimate D2E/DX2                !
 ! R23   R(8,9)                  1.525          estimate D2E/DX2                !
 ! R24   R(8,25)                 1.0919         estimate D2E/DX2                !
 ! R25   R(8,26)                 1.0911         estimate D2E/DX2                !
 ! R26   R(9,27)                 1.0867         estimate D2E/DX2                !
 ! R27   R(9,28)                 1.0867         estimate D2E/DX2                !
 ! R28   R(9,29)                 1.0886         estimate D2E/DX2                !
 ! R29   R(14,43)                2.3833         estimate D2E/DX2                !
 ! R30   R(30,31)                1.5248         estimate D2E/DX2                !
 ! R31   R(30,39)                1.0867         estimate D2E/DX2                !
 ! R32   R(30,40)                1.0887         estimate D2E/DX2                !
 ! R33   R(30,41)                1.0867         estimate D2E/DX2                !
 ! R34   R(31,32)                1.5429         estimate D2E/DX2                !
 ! R35   R(31,42)                1.0922         estimate D2E/DX2                !
 ! R36   R(31,43)                1.0913         estimate D2E/DX2                !
 ! R37   R(32,33)                1.543          estimate D2E/DX2                !
 ! R38   R(32,35)                1.5435         estimate D2E/DX2                !
 ! R39   R(32,37)                1.5433         estimate D2E/DX2                !
 ! R40   R(33,34)                1.5251         estimate D2E/DX2                !
 ! R41   R(33,44)                1.0918         estimate D2E/DX2                !
 ! R42   R(33,45)                1.0918         estimate D2E/DX2                !
 ! R43   R(34,46)                1.0866         estimate D2E/DX2                !
 ! R44   R(34,47)                1.0885         estimate D2E/DX2                !
 ! R45   R(34,48)                1.0867         estimate D2E/DX2                !
 ! R46   R(35,36)                1.5253         estimate D2E/DX2                !
 ! R47   R(35,49)                1.0919         estimate D2E/DX2                !
 ! R48   R(35,50)                1.0917         estimate D2E/DX2                !
 ! R49   R(36,51)                1.0866         estimate D2E/DX2                !
 ! R50   R(36,52)                1.0868         estimate D2E/DX2                !
 ! R51   R(36,53)                1.0886         estimate D2E/DX2                !
 ! R52   R(37,38)                1.525          estimate D2E/DX2                !
 ! R53   R(37,54)                1.0919         estimate D2E/DX2                !
 ! R54   R(37,55)                1.0911         estimate D2E/DX2                !
 ! R55   R(38,56)                1.0886         estimate D2E/DX2                !
 ! R56   R(38,57)                1.0867         estimate D2E/DX2                !
 ! R57   R(38,58)                1.0867         estimate D2E/DX2                !
 ! A1    A(2,1,10)             111.4321         estimate D2E/DX2                !
 ! A2    A(2,1,11)             109.3629         estimate D2E/DX2                !
 ! A3    A(2,1,12)             111.4808         estimate D2E/DX2                !
 ! A4    A(10,1,11)            107.8848         estimate D2E/DX2                !
 ! A5    A(10,1,12)            108.6223         estimate D2E/DX2                !
 ! A6    A(11,1,12)            107.929          estimate D2E/DX2                !
 ! A7    A(1,2,3)              116.4487         estimate D2E/DX2                !
 ! A8    A(1,2,13)             108.4874         estimate D2E/DX2                !
 ! A9    A(1,2,14)             108.3284         estimate D2E/DX2                !
 ! A10   A(3,2,13)             108.3373         estimate D2E/DX2                !
 ! A11   A(3,2,14)             108.1666         estimate D2E/DX2                !
 ! A12   A(13,2,14)            106.6585         estimate D2E/DX2                !
 ! A13   A(2,3,4)              111.0991         estimate D2E/DX2                !
 ! A14   A(2,3,6)              111.0668         estimate D2E/DX2                !
 ! A15   A(2,3,8)              106.2563         estimate D2E/DX2                !
 ! A16   A(4,3,6)              106.2694         estimate D2E/DX2                !
 ! A17   A(4,3,8)              111.1465         estimate D2E/DX2                !
 ! A18   A(6,3,8)              111.0828         estimate D2E/DX2                !
 ! A19   A(3,4,5)              116.2309         estimate D2E/DX2                !
 ! A20   A(3,4,15)             108.3058         estimate D2E/DX2                !
 ! A21   A(3,4,16)             108.3228         estimate D2E/DX2                !
 ! A22   A(5,4,15)             108.5248         estimate D2E/DX2                !
 ! A23   A(5,4,16)             108.5045         estimate D2E/DX2                !
 ! A24   A(15,4,16)            106.5408         estimate D2E/DX2                !
 ! A25   A(4,5,17)             111.451          estimate D2E/DX2                !
 ! A26   A(4,5,18)             109.4133         estimate D2E/DX2                !
 ! A27   A(4,5,19)             111.4469         estimate D2E/DX2                !
 ! A28   A(17,5,18)            107.9015         estimate D2E/DX2                !
 ! A29   A(17,5,19)            108.6211         estimate D2E/DX2                !
 ! A30   A(18,5,19)            107.8771         estimate D2E/DX2                !
 ! A31   A(3,6,7)              116.374          estimate D2E/DX2                !
 ! A32   A(3,6,20)             108.3284         estimate D2E/DX2                !
 ! A33   A(3,6,21)             108.257          estimate D2E/DX2                !
 ! A34   A(7,6,20)             108.47           estimate D2E/DX2                !
 ! A35   A(7,6,21)             108.4771         estimate D2E/DX2                !
 ! A36   A(20,6,21)            106.5097         estimate D2E/DX2                !
 ! A37   A(6,7,22)             109.3738         estimate D2E/DX2                !
 ! A38   A(6,7,23)             111.506          estimate D2E/DX2                !
 ! A39   A(6,7,24)             111.4702         estimate D2E/DX2                !
 ! A40   A(22,7,23)            107.8989         estimate D2E/DX2                !
 ! A41   A(22,7,24)            107.7739         estimate D2E/DX2                !
 ! A42   A(23,7,24)            108.6823         estimate D2E/DX2                !
 ! A43   A(3,8,9)              116.3576         estimate D2E/DX2                !
 ! A44   A(3,8,25)             108.3255         estimate D2E/DX2                !
 ! A45   A(3,8,26)             108.3366         estimate D2E/DX2                !
 ! A46   A(9,8,25)             108.4797         estimate D2E/DX2                !
 ! A47   A(9,8,26)             108.391          estimate D2E/DX2                !
 ! A48   A(25,8,26)            106.5292         estimate D2E/DX2                !
 ! A49   A(8,9,27)             111.4573         estimate D2E/DX2                !
 ! A50   A(8,9,28)             111.5382         estimate D2E/DX2                !
 ! A51   A(8,9,29)             109.3422         estimate D2E/DX2                !
 ! A52   A(27,9,28)            108.629          estimate D2E/DX2                !
 ! A53   A(27,9,29)            107.8647         estimate D2E/DX2                !
 ! A54   A(28,9,29)            107.8757         estimate D2E/DX2                !
 ! A55   A(2,14,43)            158.4305         estimate D2E/DX2                !
 ! A56   A(31,30,39)           111.4378         estimate D2E/DX2                !
 ! A57   A(31,30,40)           109.3619         estimate D2E/DX2                !
 ! A58   A(31,30,41)           111.4772         estimate D2E/DX2                !
 ! A59   A(39,30,40)           107.8863         estimate D2E/DX2                !
 ! A60   A(39,30,41)           108.6221         estimate D2E/DX2                !
 ! A61   A(40,30,41)           107.9267         estimate D2E/DX2                !
 ! A62   A(30,31,32)           116.4458         estimate D2E/DX2                !
 ! A63   A(30,31,42)           108.4845         estimate D2E/DX2                !
 ! A64   A(30,31,43)           108.329          estimate D2E/DX2                !
 ! A65   A(32,31,42)           108.3432         estimate D2E/DX2                !
 ! A66   A(32,31,43)           108.1637         estimate D2E/DX2                !
 ! A67   A(42,31,43)           106.6613         estimate D2E/DX2                !
 ! A68   A(31,32,33)           111.0934         estimate D2E/DX2                !
 ! A69   A(31,32,35)           111.0714         estimate D2E/DX2                !
 ! A70   A(31,32,37)           106.2595         estimate D2E/DX2                !
 ! A71   A(33,32,35)           106.2743         estimate D2E/DX2                !
 ! A72   A(33,32,37)           111.1481         estimate D2E/DX2                !
 ! A73   A(35,32,37)           111.0741         estimate D2E/DX2                !
 ! A74   A(32,33,34)           116.214          estimate D2E/DX2                !
 ! A75   A(32,33,44)           108.3079         estimate D2E/DX2                !
 ! A76   A(32,33,45)           108.3259         estimate D2E/DX2                !
 ! A77   A(34,33,44)           108.5314         estimate D2E/DX2                !
 ! A78   A(34,33,45)           108.5101         estimate D2E/DX2                !
 ! A79   A(44,33,45)           106.5415         estimate D2E/DX2                !
 ! A80   A(33,34,46)           111.4479         estimate D2E/DX2                !
 ! A81   A(33,34,47)           109.4157         estimate D2E/DX2                !
 ! A82   A(33,34,48)           111.4431         estimate D2E/DX2                !
 ! A83   A(46,34,47)           107.9038         estimate D2E/DX2                !
 ! A84   A(46,34,48)           108.6195         estimate D2E/DX2                !
 ! A85   A(47,34,48)           107.8815         estimate D2E/DX2                !
 ! A86   A(32,35,36)           116.3867         estimate D2E/DX2                !
 ! A87   A(32,35,49)           108.3227         estimate D2E/DX2                !
 ! A88   A(32,35,50)           108.2586         estimate D2E/DX2                !
 ! A89   A(36,35,49)           108.4623         estimate D2E/DX2                !
 ! A90   A(36,35,50)           108.4745         estimate D2E/DX2                !
 ! A91   A(49,35,50)           106.5106         estimate D2E/DX2                !
 ! A92   A(35,36,51)           111.5061         estimate D2E/DX2                !
 ! A93   A(35,36,52)           111.4758         estimate D2E/DX2                !
 ! A94   A(35,36,53)           109.3696         estimate D2E/DX2                !
 ! A95   A(51,36,52)           108.6851         estimate D2E/DX2                !
 ! A96   A(51,36,53)           107.8966         estimate D2E/DX2                !
 ! A97   A(52,36,53)           107.7716         estimate D2E/DX2                !
 ! A98   A(32,37,38)           116.3534         estimate D2E/DX2                !
 ! A99   A(32,37,54)           108.3285         estimate D2E/DX2                !
 ! A100  A(32,37,55)           108.3389         estimate D2E/DX2                !
 ! A101  A(38,37,54)           108.4726         estimate D2E/DX2                !
 ! A102  A(38,37,55)           108.3985         estimate D2E/DX2                !
 ! A103  A(54,37,55)           106.5278         estimate D2E/DX2                !
 ! A104  A(37,38,56)           109.3408         estimate D2E/DX2                !
 ! A105  A(37,38,57)           111.4612         estimate D2E/DX2                !
 ! A106  A(37,38,58)           111.5352         estimate D2E/DX2                !
 ! A107  A(56,38,57)           107.8677         estimate D2E/DX2                !
 ! A108  A(56,38,58)           107.8739         estimate D2E/DX2                !
 ! A109  A(57,38,58)           108.6282         estimate D2E/DX2                !
 ! A110  A(14,43,31)           158.2003         estimate D2E/DX2                !
 ! D1    D(10,1,2,3)           -59.9871         estimate D2E/DX2                !
 ! D2    D(10,1,2,13)          177.5442         estimate D2E/DX2                !
 ! D3    D(10,1,2,14)           62.1288         estimate D2E/DX2                !
 ! D4    D(11,1,2,3)          -179.1732         estimate D2E/DX2                !
 ! D5    D(11,1,2,13)           58.3581         estimate D2E/DX2                !
 ! D6    D(11,1,2,14)          -57.0573         estimate D2E/DX2                !
 ! D7    D(12,1,2,3)            61.5554         estimate D2E/DX2                !
 ! D8    D(12,1,2,13)          -60.9133         estimate D2E/DX2                !
 ! D9    D(12,1,2,14)         -176.3287         estimate D2E/DX2                !
 ! D10   D(1,2,3,4)            -58.8538         estimate D2E/DX2                !
 ! D11   D(1,2,3,6)             59.2081         estimate D2E/DX2                !
 ! D12   D(1,2,3,8)           -179.8708         estimate D2E/DX2                !
 ! D13   D(13,2,3,4)            63.6933         estimate D2E/DX2                !
 ! D14   D(13,2,3,6)          -178.2449         estimate D2E/DX2                !
 ! D15   D(13,2,3,8)           -57.3237         estimate D2E/DX2                !
 ! D16   D(14,2,3,4)           178.9455         estimate D2E/DX2                !
 ! D17   D(14,2,3,6)           -62.9927         estimate D2E/DX2                !
 ! D18   D(14,2,3,8)            57.9285         estimate D2E/DX2                !
 ! D19   D(1,2,14,43)         -168.7571         estimate D2E/DX2                !
 ! D20   D(3,2,14,43)          -41.7068         estimate D2E/DX2                !
 ! D21   D(13,2,14,43)          74.6403         estimate D2E/DX2                !
 ! D22   D(2,3,4,5)            -59.3587         estimate D2E/DX2                !
 ! D23   D(2,3,4,15)           178.2241         estimate D2E/DX2                !
 ! D24   D(2,3,4,16)            63.0451         estimate D2E/DX2                !
 ! D25   D(6,3,4,5)            179.713          estimate D2E/DX2                !
 ! D26   D(6,3,4,15)            57.2957         estimate D2E/DX2                !
 ! D27   D(6,3,4,16)           -57.8832         estimate D2E/DX2                !
 ! D28   D(8,3,4,5)             58.738          estimate D2E/DX2                !
 ! D29   D(8,3,4,15)           -63.6792         estimate D2E/DX2                !
 ! D30   D(8,3,4,16)          -178.8581         estimate D2E/DX2                !
 ! D31   D(2,3,6,7)             58.0961         estimate D2E/DX2                !
 ! D32   D(2,3,6,20)           -64.3677         estimate D2E/DX2                !
 ! D33   D(2,3,6,21)          -179.4876         estimate D2E/DX2                !
 ! D34   D(4,3,6,7)            179.0453         estimate D2E/DX2                !
 ! D35   D(4,3,6,20)            56.5814         estimate D2E/DX2                !
 ! D36   D(4,3,6,21)           -58.5385         estimate D2E/DX2                !
 ! D37   D(8,3,6,7)            -59.9388         estimate D2E/DX2                !
 ! D38   D(8,3,6,20)           177.5973         estimate D2E/DX2                !
 ! D39   D(8,3,6,21)            62.4774         estimate D2E/DX2                !
 ! D40   D(2,3,8,9)            179.3854         estimate D2E/DX2                !
 ! D41   D(2,3,8,25)            56.9227         estimate D2E/DX2                !
 ! D42   D(2,3,8,26)           -58.2601         estimate D2E/DX2                !
 ! D43   D(4,3,8,9)             58.3989         estimate D2E/DX2                !
 ! D44   D(4,3,8,25)           -64.0639         estimate D2E/DX2                !
 ! D45   D(4,3,8,26)          -179.2467         estimate D2E/DX2                !
 ! D46   D(6,3,8,9)            -59.7038         estimate D2E/DX2                !
 ! D47   D(6,3,8,25)           177.8335         estimate D2E/DX2                !
 ! D48   D(6,3,8,26)            62.6507         estimate D2E/DX2                !
 ! D49   D(3,4,5,17)           -60.8315         estimate D2E/DX2                !
 ! D50   D(3,4,5,18)           179.9173         estimate D2E/DX2                !
 ! D51   D(3,4,5,19)            60.6989         estimate D2E/DX2                !
 ! D52   D(15,4,5,17)           61.4706         estimate D2E/DX2                !
 ! D53   D(15,4,5,18)          -57.7806         estimate D2E/DX2                !
 ! D54   D(15,4,5,19)         -176.999          estimate D2E/DX2                !
 ! D55   D(16,4,5,17)          176.8601         estimate D2E/DX2                !
 ! D56   D(16,4,5,18)           57.6089         estimate D2E/DX2                !
 ! D57   D(16,4,5,19)          -61.6095         estimate D2E/DX2                !
 ! D58   D(3,6,7,22)           178.8188         estimate D2E/DX2                !
 ! D59   D(3,6,7,23)            59.5621         estimate D2E/DX2                !
 ! D60   D(3,6,7,24)           -62.102          estimate D2E/DX2                !
 ! D61   D(20,6,7,22)          -58.7915         estimate D2E/DX2                !
 ! D62   D(20,6,7,23)         -178.0482         estimate D2E/DX2                !
 ! D63   D(20,6,7,24)           60.2877         estimate D2E/DX2                !
 ! D64   D(21,6,7,22)           56.5179         estimate D2E/DX2                !
 ! D65   D(21,6,7,23)          -62.7388         estimate D2E/DX2                !
 ! D66   D(21,6,7,24)          175.597          estimate D2E/DX2                !
 ! D67   D(3,8,9,27)            60.6478         estimate D2E/DX2                !
 ! D68   D(3,8,9,28)           -60.9613         estimate D2E/DX2                !
 ! D69   D(3,8,9,29)           179.8113         estimate D2E/DX2                !
 ! D70   D(25,8,9,27)         -176.9702         estimate D2E/DX2                !
 ! D71   D(25,8,9,28)           61.4207         estimate D2E/DX2                !
 ! D72   D(25,8,9,29)          -57.8067         estimate D2E/DX2                !
 ! D73   D(26,8,9,27)          -61.6781         estimate D2E/DX2                !
 ! D74   D(26,8,9,28)          176.7128         estimate D2E/DX2                !
 ! D75   D(26,8,9,29)           57.4853         estimate D2E/DX2                !
 ! D76   D(2,14,43,31)         -52.2521         estimate D2E/DX2                !
 ! D77   D(39,30,31,32)        -59.8766         estimate D2E/DX2                !
 ! D78   D(39,30,31,42)        177.6514         estimate D2E/DX2                !
 ! D79   D(39,30,31,43)         62.2339         estimate D2E/DX2                !
 ! D80   D(40,30,31,32)       -179.0674         estimate D2E/DX2                !
 ! D81   D(40,30,31,42)         58.4605         estimate D2E/DX2                !
 ! D82   D(40,30,31,43)        -56.957          estimate D2E/DX2                !
 ! D83   D(41,30,31,32)         61.6671         estimate D2E/DX2                !
 ! D84   D(41,30,31,42)        -60.805          estimate D2E/DX2                !
 ! D85   D(41,30,31,43)       -176.2225         estimate D2E/DX2                !
 ! D86   D(30,31,32,33)        -58.6739         estimate D2E/DX2                !
 ! D87   D(30,31,32,35)         59.3933         estimate D2E/DX2                !
 ! D88   D(30,31,32,37)       -179.6916         estimate D2E/DX2                !
 ! D89   D(42,31,32,33)         63.8719         estimate D2E/DX2                !
 ! D90   D(42,31,32,35)       -178.0609         estimate D2E/DX2                !
 ! D91   D(42,31,32,37)        -57.1457         estimate D2E/DX2                !
 ! D92   D(43,31,32,33)        179.1289         estimate D2E/DX2                !
 ! D93   D(43,31,32,35)        -62.8039         estimate D2E/DX2                !
 ! D94   D(43,31,32,37)         58.1113         estimate D2E/DX2                !
 ! D95   D(30,31,43,14)       -169.471          estimate D2E/DX2                !
 ! D96   D(32,31,43,14)        -42.4259         estimate D2E/DX2                !
 ! D97   D(42,31,43,14)         73.928          estimate D2E/DX2                !
 ! D98   D(31,32,33,34)        -59.318          estimate D2E/DX2                !
 ! D99   D(31,32,33,44)        178.2664         estimate D2E/DX2                !
 ! D100  D(31,32,33,45)         63.0839         estimate D2E/DX2                !
 ! D101  D(35,32,33,34)        179.7482         estimate D2E/DX2                !
 ! D102  D(35,32,33,44)         57.3326         estimate D2E/DX2                !
 ! D103  D(35,32,33,45)        -57.8499         estimate D2E/DX2                !
 ! D104  D(37,32,33,34)         58.78           estimate D2E/DX2                !
 ! D105  D(37,32,33,44)        -63.6356         estimate D2E/DX2                !
 ! D106  D(37,32,33,45)       -178.8181         estimate D2E/DX2                !
 ! D107  D(31,32,35,36)         58.1328         estimate D2E/DX2                !
 ! D108  D(31,32,35,49)        -64.3253         estimate D2E/DX2                !
 ! D109  D(31,32,35,50)       -179.4441         estimate D2E/DX2                !
 ! D110  D(33,32,35,36)        179.0807         estimate D2E/DX2                !
 ! D111  D(33,32,35,49)         56.6225         estimate D2E/DX2                !
 ! D112  D(33,32,35,50)        -58.4963         estimate D2E/DX2                !
 ! D113  D(37,32,35,36)        -59.9035         estimate D2E/DX2                !
 ! D114  D(37,32,35,49)        177.6384         estimate D2E/DX2                !
 ! D115  D(37,32,35,50)         62.5196         estimate D2E/DX2                !
 ! D116  D(31,32,37,38)        179.2462         estimate D2E/DX2                !
 ! D117  D(31,32,37,54)         56.7933         estimate D2E/DX2                !
 ! D118  D(31,32,37,55)        -58.3905         estimate D2E/DX2                !
 ! D119  D(33,32,37,38)         58.2637         estimate D2E/DX2                !
 ! D120  D(33,32,37,54)        -64.1891         estimate D2E/DX2                !
 ! D121  D(33,32,37,55)       -179.373          estimate D2E/DX2                !
 ! D122  D(35,32,37,38)        -59.8404         estimate D2E/DX2                !
 ! D123  D(35,32,37,54)        177.7068         estimate D2E/DX2                !
 ! D124  D(35,32,37,55)         62.5229         estimate D2E/DX2                !
 ! D125  D(32,33,34,46)        -60.7539         estimate D2E/DX2                !
 ! D126  D(32,33,34,47)        179.9925         estimate D2E/DX2                !
 ! D127  D(32,33,34,48)         60.7696         estimate D2E/DX2                !
 ! D128  D(44,33,34,46)         61.5442         estimate D2E/DX2                !
 ! D129  D(44,33,34,47)        -57.7094         estimate D2E/DX2                !
 ! D130  D(44,33,34,48)       -176.9323         estimate D2E/DX2                !
 ! D131  D(45,33,34,46)        176.941          estimate D2E/DX2                !
 ! D132  D(45,33,34,47)         57.6874         estimate D2E/DX2                !
 ! D133  D(45,33,34,48)        -61.5355         estimate D2E/DX2                !
 ! D134  D(32,35,36,51)         59.5916         estimate D2E/DX2                !
 ! D135  D(32,35,36,52)        -62.0802         estimate D2E/DX2                !
 ! D136  D(32,35,36,53)        178.8427         estimate D2E/DX2                !
 ! D137  D(49,35,36,51)       -178.0233         estimate D2E/DX2                !
 ! D138  D(49,35,36,52)         60.3049         estimate D2E/DX2                !
 ! D139  D(49,35,36,53)        -58.7722         estimate D2E/DX2                !
 ! D140  D(50,35,36,51)        -62.7184         estimate D2E/DX2                !
 ! D141  D(50,35,36,52)        175.6098         estimate D2E/DX2                !
 ! D142  D(50,35,36,53)         56.5327         estimate D2E/DX2                !
 ! D143  D(32,37,38,56)        179.7241         estimate D2E/DX2                !
 ! D144  D(32,37,38,57)         60.5554         estimate D2E/DX2                !
 ! D145  D(32,37,38,58)        -61.0534         estimate D2E/DX2                !
 ! D146  D(54,37,38,56)        -57.8986         estimate D2E/DX2                !
 ! D147  D(54,37,38,57)       -177.0673         estimate D2E/DX2                !
 ! D148  D(54,37,38,58)         61.3238         estimate D2E/DX2                !
 ! D149  D(55,37,38,56)         57.392          estimate D2E/DX2                !
 ! D150  D(55,37,38,57)        -61.7766         estimate D2E/DX2                !
 ! D151  D(55,37,38,58)        176.6145         estimate D2E/DX2                !
 --------------------------------------------------------------------------------
 Number of steps in this run=    328 maximum allowed number of steps=    348.
 GradGradGradGradGradGradGradGradGradGradGradGradGradGradGradGradGradGrad

 Framework group  C1[X(C18H40)]
 Deg. of freedom   168
                         Standard orientation:                         
 ---------------------------------------------------------------------
 Center     Atomic      Atomic             Coordinates (Angstroms)
 Number     Number       Type             X           Y           Z
 ---------------------------------------------------------------------
      1          6           0       -2.667728   -1.791429   -1.717179
      2          6           0       -1.974925   -0.639473   -0.997373
      3          6           0       -2.746061    0.001078    0.175468
      4          6           0       -4.107279    0.557157   -0.292481
      5          6           0       -4.061270    1.624005   -1.381431
      6          6           0       -3.058064   -1.041731    1.269695
      7          6           0       -1.860060   -1.759323    1.883132
      8          6           0       -1.843145    1.126790    0.722668
      9          6           0       -2.397722    1.930427    1.894128
     10          1           0       -2.874850   -2.615611   -1.039958
     11          1           0       -2.020040   -2.163992   -2.508973
     12          1           0       -3.601891   -1.472459   -2.171472
     13          1           0       -1.750726    0.140662   -1.728044
     14          1           0       -1.016400   -0.998279   -0.618771
     15          1           0       -4.625947    0.969416    0.575343
     16          1           0       -4.714251   -0.277044   -0.650049
     17          1           0       -3.512741    2.502930   -1.053741
     18          1           0       -5.075286    1.934622   -1.626689
     19          1           0       -3.599561    1.245374   -2.289361
     20          1           0       -3.731364   -1.790905    0.848081
     21          1           0       -3.609777   -0.543742    2.069392
     22          1           0       -2.206486   -2.448921    2.650879
     23          1           0       -1.172046   -1.059137    2.348997
     24          1           0       -1.318227   -2.336644    1.138678
     25          1           0       -1.619738    1.815516   -0.094583
     26          1           0       -0.892057    0.686808    1.026607
     27          1           0       -2.587877    1.296831    2.756251
     28          1           0       -3.319854    2.439750    1.627520
     29          1           0       -1.671724    2.686163    2.188743
     30          6           0        2.667215   -1.772901    1.735932
     31          6           0        1.973337   -0.630534    1.001998
     32          6           0        2.745711   -0.001036   -0.176004
     33          6           0        4.106406    0.559301    0.288245
     34          6           0        4.058848    1.635548    1.367818
     35          6           0        3.058746   -1.053982   -1.260239
     36          6           0        1.861440   -1.776712   -1.869038
     37          6           0        1.843465    1.119528   -0.734735
     38          6           0        2.400825    1.914177   -1.910996
     39          1           0        2.879636   -2.603220    1.067878
     40          1           0        2.017799   -2.139579    2.529071
     41          1           0        3.598608   -1.446208    2.190471
     42          1           0        1.745570    0.156958    1.723654
     43          1           0        1.016588   -0.995765    0.625073
     44          1           0        4.625771    0.964098   -0.582646
     45          1           0        4.713218   -0.271602    0.653628
     46          1           0        3.509186    2.510823    1.032347
     47          1           0        5.072417    1.949642    1.610531
     48          1           0        3.597402    1.264218    2.278907
     49          1           0        3.730952   -1.799621   -0.830706
     50          1           0        3.611988   -0.563652   -2.063616
     51          1           0        1.174703   -1.080614   -2.342812
     52          1           0        1.317909   -2.346750   -1.120227
     53          1           0        2.208942   -2.473689   -2.629596
     54          1           0        1.617299    1.814713    0.076287
     55          1           0        0.893509    0.676415   -1.037718
     56          1           0        1.674453    2.665945   -2.214732
     57          1           0        2.595494    1.273609   -2.766989
     58          1           0        3.320965    2.427622   -1.645293
 ---------------------------------------------------------------------
 Rotational constants (GHZ):           0.5105757           0.1922151           0.1911380
   332 basis functions,   610 primitive gaussians,   350 cartesian basis functions
    74 alpha electrons       74 beta electrons
       nuclear repulsion energy      1522.7996171935 Hartrees.
 NAtoms=   58 NActive=   58 NUniq=   58 SFac= 1.00D+00 NAtFMM=   60 NAOKFM=F Big=F
 Nuclear repulsion after empirical dispersion term =     1522.7393173713 Hartrees.
   1 Symmetry operations used in ECPInt.
 ECPInt:  NShTT=   17766 NPrTT=   71230 LenC2=   16837 LenP2D=   46521.
 LDataN:  DoStor=T MaxTD1= 4 Len=   56
 ExpMin= 1.22D-01 ExpMax= 1.24D+03 ExpMxC= 1.86D+02 IAcc=3 IRadAn=         5 AccDes= 0.00D+00
 Harris functional with IExCor= 4639 and IRadAn=       5 diagonalized for initial guess.
 HarFok:  IExCor= 4639 AccDes= 0.00D+00 IRadAn=         5 IDoV= 1 UseB2=F ITyADJ=14
 ICtDFT=  3500011 ScaDFX=  1.000000  1.000000  1.000000  1.000000
 FoFCou: FMM=F IPFlag=           0 FMFlag=      100000 FMFlg1=           0
         NFxFlg=           0 DoJE=T BraDBF=F KetDBF=T FulRan=T
         wScrn=  0.000000 ICntrl=       500 IOpCl=  0 I1Cent=   200000004 NGrid=           0
         NMat0=    1 NMatS0=      1 NMatT0=    0 NMatD0=    1 NMtDS0=    0 NMtDT0=    0
 Petite list used in FoFCou.
     Minimum is close to point  3 DX=  4.37D-02 DF= -6.23D-04 DXR=  6.80D-02 DFR=  4.64D-03 which will be used.
     Minimum is close to point  3 DX=  6.31D-02 DF= -5.76D-05 DXR=  6.55D-02 DFR=  4.30D-03 which will be used.
     Accept linear search using points  1 and  2.
     Accept linear search using points  1 and  2.
     Minimum is close to point  2 DX= -1.88D-04 DF= -4.55D-13 DXR=  1.88D-04 DFR=  3.27D-08 which will be used.
 SCF Done:  E(RwB97XD) =  -709.255269677     a.u. after    6 cycles
            Convg  =    0.1144D-05                    20 Fock formations.
              S**2 =  0.0000                  -V/T =  2.0110

 **********************************************************************

            Population analysis using the SCF Density.

 **********************************************************************

 Orbital symmetries:
       Occupied  (A) (A) (A) (A) (A) (A) (A) (A) (A) (A) (A) (A)
                 (A) (A) (A) (A) (A) (A) (A) (A) (A) (A) (A) (A)
                 (A) (A) (A) (A) (A) (A) (A) (A) (A) (A) (A) (A)
                 (A) (A) (A) (A) (A) (A) (A) (A) (A) (A) (A) (A)
                 (A) (A) (A) (A) (A) (A) (A) (A) (A) (A) (A) (A)
                 (A) (A) (A) (A) (A) (A) (A) (A) (A) (A) (A) (A)
                 (A) (A)
       Virtual   (A) (A) (A) (A) (A) (A) (A) (A) (A) (A) (A) (A)
                 (A) (A) (A) (A) (A) (A) (A) (A) (A) (A) (A) (A)
                 (A) (A) (A) (A) (A) (A) (A) (A) (A) (A) (A) (A)
                 (A) (A) (A) (A) (A) (A) (A) (A) (A) (A) (A) (A)
                 (A) (A) (A) (A) (A) (A) (A) (A) (A) (A) (A) (A)
                 (A) (A) (A) (A) (A) (A) (A) (A) (A) (A) (A) (A)
                 (A) (A) (A) (A) (A) (A) (A) (A) (A) (A) (A) (A)
                 (A) (A) (A) (A) (A) (A) (A) (A) (A) (A) (A) (A)
                 (A) (A) (A) (A) (A) (A) (A) (A) (A) (A) (A) (A)
                 (A) (A) (A) (A) (A) (A) (A) (A) (A) (A) (A) (A)
                 (A) (A) (A) (A) (A) (A) (A) (A) (A) (A) (A) (A)
                 (A) (A) (A) (A) (A) (A) (A) (A) (A) (A) (A) (A)
                 (A) (A) (A) (A) (A) (A) (A) (A) (A) (A) (A) (A)
                 (A) (A) (A) (A) (A) (A) (A) (A) (A) (A) (A) (A)
                 (A) (A) (A) (A) (A) (A) (A) (A) (A) (A) (A) (A)
                 (A) (A) (A) (A) (A) (A) (A) (A) (A) (A) (A) (A)
                 (A) (A) (A) (A) (A) (A) (A) (A) (A) (A) (A) (A)
                 (A) (A) (A) (A) (A) (A) (A) (A) (A) (A) (A) (A)
                 (A) (A) (A) (A) (A) (A) (A) (A) (A) (A) (A) (A)
                 (A) (A) (A) (A) (A) (A) (A) (A) (A) (A) (A) (A)
                 (A) (A) (A) (A) (A) (A) (A) (A) (A) (A) (A) (A)
                 (A) (A) (A) (A) (A) (A)
 The electronic state is 1-A.
 Alpha  occ. eigenvalues --  -10.29455 -10.29455 -10.27760 -10.27756 -10.27724
 Alpha  occ. eigenvalues --  -10.27722 -10.27692 -10.27691 -10.27616 -10.27615
 Alpha  occ. eigenvalues --  -10.27240 -10.27237 -10.27210 -10.27209 -10.27196
 Alpha  occ. eigenvalues --  -10.27195 -10.27155 -10.27154  -0.92903  -0.92805
 Alpha  occ. eigenvalues --   -0.84306  -0.84271  -0.84218  -0.84197  -0.82990
 Alpha  occ. eigenvalues --   -0.82939  -0.76693  -0.76648  -0.73098  -0.72704
 Alpha  occ. eigenvalues --   -0.68209  -0.68188  -0.68095  -0.68091  -0.60137
 Alpha  occ. eigenvalues --   -0.59770  -0.57049  -0.56802  -0.56740  -0.56546
 Alpha  occ. eigenvalues --   -0.54974  -0.54873  -0.49812  -0.49603  -0.49350
 Alpha  occ. eigenvalues --   -0.49316  -0.49289  -0.49221  -0.48847  -0.48806
 Alpha  occ. eigenvalues --   -0.48762  -0.48667  -0.47612  -0.47591  -0.46429
 Alpha  occ. eigenvalues --   -0.45725  -0.44047  -0.44021  -0.43969  -0.43955
 Alpha  occ. eigenvalues --   -0.42701  -0.42496  -0.42491  -0.42233  -0.42146
 Alpha  occ. eigenvalues --   -0.41982  -0.40427  -0.40388  -0.37955  -0.37786
 Alpha  occ. eigenvalues --   -0.37782  -0.37617  -0.37335  -0.36730
 Alpha virt. eigenvalues --    0.11287   0.13215   0.14198   0.14422   0.15424
 Alpha virt. eigenvalues --    0.16424   0.16552   0.17301   0.17922   0.18016
 Alpha virt. eigenvalues --    0.18187   0.18451   0.19268   0.20016   0.20250
 Alpha virt. eigenvalues --    0.21200   0.21756   0.22114   0.22309   0.22371
 Alpha virt. eigenvalues --    0.22494   0.22664   0.23026   0.23683   0.23782
 Alpha virt. eigenvalues --    0.24024   0.24638   0.24938   0.25633   0.26968
 Alpha virt. eigenvalues --    0.28037   0.28113   0.28450   0.28703   0.29043
 Alpha virt. eigenvalues --    0.29293   0.29584   0.30301   0.30614   0.30709
 Alpha virt. eigenvalues --    0.31002   0.31854   0.32779   0.33162   0.33348
 Alpha virt. eigenvalues --    0.33422   0.33753   0.34164   0.34563   0.35082
 Alpha virt. eigenvalues --    0.35445   0.35970   0.35991   0.37236   0.37919
 Alpha virt. eigenvalues --    0.39200   0.48720   0.49641   0.50994   0.51262
 Alpha virt. eigenvalues --    0.51447   0.52518   0.52796   0.53001   0.53305
 Alpha virt. eigenvalues --    0.53754   0.55727   0.56008   0.56557   0.56567
 Alpha virt. eigenvalues --    0.58651   0.60177   0.60774   0.61041   0.62795
 Alpha virt. eigenvalues --    0.62908   0.62973   0.63895   0.64912   0.65263
 Alpha virt. eigenvalues --    0.66727   0.67173   0.68286   0.68612   0.70120
 Alpha virt. eigenvalues --    0.70158   0.71030   0.72643   0.72664   0.75018
 Alpha virt. eigenvalues --    0.76334   0.76717   0.77438   0.77528   0.77828
 Alpha virt. eigenvalues --    0.78151   0.78416   0.78848   0.79048   0.79295
 Alpha virt. eigenvalues --    0.79319   0.79474   0.80052   0.80236   0.80478
 Alpha virt. eigenvalues --    0.80525   0.80820   0.80844   0.80935   0.81757
 Alpha virt. eigenvalues --    0.81764   0.82005   0.82230   0.82696   0.82887
 Alpha virt. eigenvalues --    0.83115   0.83118   0.83904   0.83955   0.84491
 Alpha virt. eigenvalues --    0.84761   0.85253   0.85542   0.85770   0.86132
 Alpha virt. eigenvalues --    0.87430   0.87433   0.87927   0.87939   0.88348
 Alpha virt. eigenvalues --    0.88446   0.88841   0.89017   0.89778   0.90710
 Alpha virt. eigenvalues --    0.91807   0.92605   0.92745   0.93876   0.93940
 Alpha virt. eigenvalues --    0.95262   0.95999   0.97016   0.97853   1.01201
 Alpha virt. eigenvalues --    1.05465   1.05516   1.07295   1.07806   1.09808
 Alpha virt. eigenvalues --    1.09824   1.11605   1.12838   1.13841   1.15841
 Alpha virt. eigenvalues --    1.16949   1.17224   1.20190   1.22685   1.24847
 Alpha virt. eigenvalues --    1.26694   1.28543   1.30787   1.33209   1.33313
 Alpha virt. eigenvalues --    1.36084   1.41357   1.41769   1.43567   1.43688
 Alpha virt. eigenvalues --    1.50084   1.50197   1.64310   1.64664   1.64804
 Alpha virt. eigenvalues --    1.64998   1.65875   1.66523   1.75926   1.76449
 Alpha virt. eigenvalues --    1.81088   1.81944   1.84702   1.84799   1.85208
 Alpha virt. eigenvalues --    1.86070   1.97480   1.97855   1.97949   1.98100
 Alpha virt. eigenvalues --    1.99271   1.99599   1.99651   2.01899   2.01915
 Alpha virt. eigenvalues --    2.02888   2.04556   2.04658   2.04764   2.04795
 Alpha virt. eigenvalues --    2.05224   2.06805   2.06892   2.08823   2.11414
 Alpha virt. eigenvalues --    2.11421   2.12285   2.12673   2.15643   2.15667
 Alpha virt. eigenvalues --    2.15839   2.16034   2.16124   2.16404   2.20913
 Alpha virt. eigenvalues --    2.21291   2.28015   2.28500   2.31687   2.31947
 Alpha virt. eigenvalues --    2.32381   2.32597   2.32861   2.32892   2.33222
 Alpha virt. eigenvalues --    2.33651   2.35097   2.35500   2.36269   2.37162
 Alpha virt. eigenvalues --    2.37278   2.37302   2.38590   2.38944   2.39531
 Alpha virt. eigenvalues --    2.39619   2.40731   2.40777   2.45130   2.45385
 Alpha virt. eigenvalues --    2.54746   2.54750   2.62610   2.62639   2.65027
 Alpha virt. eigenvalues --    2.65128   2.65304   2.66024   2.66488   2.66847
 Alpha virt. eigenvalues --    2.86055   2.86354   2.87644   2.87864   2.88054
 Alpha virt. eigenvalues --    2.88274   2.90925   2.91221
          Condensed to atoms (all electrons):
 Mulliken charges:
               1
     1  C   -0.292606
     2  C   -0.228993
     3  C   -0.242200
     4  C   -0.183364
     5  C   -0.299814
     6  C   -0.182883
     7  C   -0.311654
     8  C   -0.207235
     9  C   -0.295821
    10  H    0.115522
    11  H    0.115515
    12  H    0.116514
    13  H    0.108389
    14  H    0.126350
    15  H    0.098362
    16  H    0.098069
    17  H    0.117035
    18  H    0.114786
    19  H    0.116760
    20  H    0.098206
    21  H    0.098409
    22  H    0.114998
    23  H    0.124170
    24  H    0.121253
    25  H    0.102154
    26  H    0.112335
    27  H    0.115498
    28  H    0.116131
    29  H    0.114045
    30  C   -0.292595
    31  C   -0.229095
    32  C   -0.242303
    33  C   -0.183439
    34  C   -0.299843
    35  C   -0.182849
    36  C   -0.311553
    37  C   -0.207136
    38  C   -0.295836
    39  H    0.115474
    40  H    0.115522
    41  H    0.116560
    42  H    0.108538
    43  H    0.126369
    44  H    0.098378
    45  H    0.098097
    46  H    0.117027
    47  H    0.114804
    48  H    0.116779
    49  H    0.098192
    50  H    0.098413
    51  H    0.124095
    52  H    0.121226
    53  H    0.114991
    54  H    0.102172
    55  H    0.112394
    56  H    0.114052
    57  H    0.115461
    58  H    0.116176
 Sum of Mulliken charges =   0.00000
 Mulliken charges with hydrogens summed into heavy atoms:
               1
     1  C    0.054945
     2  C    0.005745
     3  C   -0.242200
     4  C    0.013068
     5  C    0.048767
     6  C    0.013732
     7  C    0.048766
     8  C    0.007254
     9  C    0.049854
    30  C    0.054961
    31  C    0.005812
    32  C   -0.242303
    33  C    0.013036
    34  C    0.048767
    35  C    0.013757
    36  C    0.048759
    37  C    0.007430
    38  C    0.049852
 Electronic spatial extent (au):  <R**2>=           6947.4652
 Charge=              0.0000 electrons
 Dipole moment (field-independent basis, Debye):
    X=              0.0004    Y=             -0.0314    Z=             -0.0001  Tot=              0.0314
 Evaluate density.
 Using the total density.
 Monte-Carlo method of calculating molar volume:
 based on  0.001 e/bohr**3 density envelope.
 Number of points per bohr**3 =  100 CutOff= 1.00D-04
 Using the SCF density.
 There are      2262 points.  Will hold      2262 in memory.
 LenV=  1047658549 MDV=  1048576000.
 Box volume =11576.184 fraction occupied=0.245
 Integrated density= 1.9144462379998208D+02 error= 4.3444623799982082D+01
 Molar volume = 2840.310 bohr**3/mol (253.466 cm**3/mol)
 Recommended a0 for SCRF calculation =  5.62 angstrom ( 10.61 bohr)
   1 Symmetry operations used in ECPInt.
 ECPInt:  NShTT=   17766 NPrTT=   71230 LenC2=   16837 LenP2D=   46521.
 LDataN:  DoStor=T MaxTD1= 5 Len=  102
 Calling FoFJK, ICntrl=      2127 FMM=F ISym2X=0 I1Cent= 0 IOpClX= 0 NMat=1 NMatS=1 NMatT=0.

 GradGradGradGradGradGradGradGradGradGradGradGradGradGradGradGradGradGrad
 FormGI is forming the generalized inverse of G from B-inverse, IUseBI=4.
 Internal  Forces:  Max     0.011345539 RMS     0.003767759
 Step number   1 out of a maximum of  328
 All quantities printed in internal units (Hartrees-Bohrs-Radians)
 Mixed Optimization -- RFO/linear search
 Second derivative matrix not updated -- first step.
 ITU=  0
     Eigenvalues ---    0.00230   0.00230   0.00230   0.00230   0.00230
     Eigenvalues ---    0.00230   0.00230   0.00230   0.00230   0.00230
     Eigenvalues ---    0.00230   0.00431   0.00432   0.00433   0.00433
     Eigenvalues ---    0.00435   0.00435   0.00437   0.00438   0.01620
     Eigenvalues ---    0.03061   0.03061   0.03182   0.03183   0.03186
     Eigenvalues ---    0.03186   0.03197   0.03198   0.04585   0.04585
     Eigenvalues ---    0.04604   0.04604   0.04741   0.04741   0.04743
     Eigenvalues ---    0.04743   0.04745   0.04746   0.04788   0.04789
     Eigenvalues ---    0.04791   0.04791   0.05461   0.05461   0.05464
     Eigenvalues ---    0.05464   0.05473   0.05474   0.05475   0.05475
     Eigenvalues ---    0.05742   0.05742   0.05745   0.05746   0.05748
     Eigenvalues ---    0.05749   0.05749   0.05749   0.07071   0.07071
     Eigenvalues ---    0.08899   0.08902   0.08923   0.08923   0.08926
     Eigenvalues ---    0.08928   0.12258   0.12259   0.12608   0.12610
     Eigenvalues ---    0.12624   0.12625   0.12626   0.12628   0.13787
     Eigenvalues ---    0.13787   0.14984   0.14985   0.16000   0.16000
     Eigenvalues ---    0.16000   0.16000   0.16000   0.16000   0.16000
     Eigenvalues ---    0.16000   0.16000   0.16000   0.16000   0.16000
     Eigenvalues ---    0.16000   0.16000   0.16000   0.16000   0.16000
     Eigenvalues ---    0.16000   0.16000   0.16000   0.16000   0.16000
     Eigenvalues ---    0.16000   0.16000   0.16000   0.16000   0.18251
     Eigenvalues ---    0.18252   0.21989   0.21989   0.21991   0.21992
     Eigenvalues ---    0.21992   0.21992   0.28215   0.28219   0.28225
     Eigenvalues ---    0.28225   0.28247   0.28251   0.28264   0.28264
     Eigenvalues ---    0.29863   0.29864   0.29876   0.29877   0.29888
     Eigenvalues ---    0.29888   0.29905   0.29906   0.34564   0.34567
     Eigenvalues ---    0.34588   0.34589   0.34597   0.34598   0.34599
     Eigenvalues ---    0.34600   0.34602   0.34604   0.34611   0.34612
     Eigenvalues ---    0.34667   0.34668   0.34682   0.34684   0.34964
     Eigenvalues ---    0.34965   0.34976   0.34977   0.34978   0.34978
     Eigenvalues ---    0.34984   0.34985   0.35187   0.35188   0.35195
     Eigenvalues ---    0.35198   0.35199   0.35199   0.35200   0.35200
     Eigenvalues ---    0.35202   0.35202   0.35203   0.35204   0.35204
     Eigenvalues ---    0.35205   0.35211   0.35213
 Linear search not attempted -- first point.
 Iteration  1 RMS(Cart)=  0.18959379 RMS(Int)=  0.00411496
 Iteration  2 RMS(Cart)=  0.05289017 RMS(Int)=  0.00029260
 Iteration  3 RMS(Cart)=  0.00063371 RMS(Int)=  0.00006033
 Iteration  4 RMS(Cart)=  0.00000013 RMS(Int)=  0.00006033
 Variable       Old X    -DE/DX   Delta X   Delta X   Delta X     New X
                                 (Linear)    (Quad)   (Total)
    R1        2.88151   0.00389   0.00000   0.01239   0.01239   2.89389
    R2        2.05347   0.01123   0.00000   0.03060   0.03060   2.08407
    R3        2.05732   0.01008   0.00000   0.02764   0.02764   2.08496
    R4        2.05345   0.01123   0.00000   0.03058   0.03058   2.08403
    R5        2.91564   0.00307   0.00000   0.01030   0.01030   2.92594
    R6        2.06383   0.00824   0.00000   0.02286   0.02286   2.08669
    R7        2.06218   0.00625   0.00000   0.01727   0.01727   2.07945
    R8        2.91601   0.00440   0.00000   0.01480   0.01480   2.93081
    R9        2.91663   0.00391   0.00000   0.01315   0.01315   2.92978
   R10        2.91650   0.00471   0.00000   0.01584   0.01584   2.93234
   R11        2.88212   0.00399   0.00000   0.01270   0.01270   2.89482
   R12        2.06326   0.00838   0.00000   0.02322   0.02322   2.08648
   R13        2.06332   0.00836   0.00000   0.02315   0.02315   2.08647
   R14        2.05344   0.01121   0.00000   0.03053   0.03053   2.08397
   R15        2.05699   0.01012   0.00000   0.02775   0.02775   2.08474
   R16        2.05353   0.01122   0.00000   0.03058   0.03058   2.08411
   R17        2.88235   0.00431   0.00000   0.01374   0.01374   2.89609
   R18        2.06349   0.00832   0.00000   0.02306   0.02306   2.08655
   R19        2.06309   0.00838   0.00000   0.02321   0.02321   2.08630
   R20        2.05711   0.01013   0.00000   0.02777   0.02777   2.08488
   R21        2.05334   0.01134   0.00000   0.03089   0.03089   2.08423
   R22        2.05372   0.01130   0.00000   0.03081   0.03081   2.08453
   R23        2.88188   0.00399   0.00000   0.01271   0.01271   2.89459
   R24        2.06331   0.00837   0.00000   0.02319   0.02319   2.08650
   R25        2.06191   0.00882   0.00000   0.02437   0.02437   2.08628
   R26        2.05352   0.01119   0.00000   0.03049   0.03049   2.08400
   R27        2.05348   0.01123   0.00000   0.03059   0.03059   2.08407
   R28        2.05712   0.01011   0.00000   0.02770   0.02770   2.08482
   R29        4.50381  -0.00234   0.00000  -0.07482  -0.07482   4.42900
   R30        2.88152   0.00389   0.00000   0.01240   0.01240   2.89392
   R31        2.05351   0.01122   0.00000   0.03056   0.03056   2.08407
   R32        2.05734   0.01007   0.00000   0.02762   0.02762   2.08496
   R33        2.05349   0.01121   0.00000   0.03053   0.03053   2.08402
   R34        2.91564   0.00308   0.00000   0.01035   0.01035   2.92600
   R35        2.06388   0.00823   0.00000   0.02282   0.02282   2.08670
   R36        2.06217   0.00625   0.00000   0.01729   0.01729   2.07946
   R37        2.91594   0.00441   0.00000   0.01482   0.01482   2.93076
   R38        2.91671   0.00391   0.00000   0.01315   0.01315   2.92985
   R39        2.91649   0.00473   0.00000   0.01593   0.01593   2.93241
   R40        2.88209   0.00399   0.00000   0.01273   0.01273   2.89482
   R41        2.06322   0.00839   0.00000   0.02324   0.02324   2.08646
   R42        2.06329   0.00836   0.00000   0.02317   0.02317   2.08646
   R43        2.05344   0.01120   0.00000   0.03052   0.03052   2.08396
   R44        2.05701   0.01012   0.00000   0.02773   0.02773   2.08474
   R45        2.05355   0.01122   0.00000   0.03056   0.03056   2.08411
   R46        2.88238   0.00430   0.00000   0.01371   0.01371   2.89610
   R47        2.06347   0.00833   0.00000   0.02308   0.02308   2.08655
   R48        2.06311   0.00838   0.00000   0.02319   0.02319   2.08630
   R49        2.05331   0.01135   0.00000   0.03090   0.03090   2.08421
   R50        2.05371   0.01130   0.00000   0.03081   0.03081   2.08452
   R51        2.05710   0.01013   0.00000   0.02777   0.02777   2.08487
   R52        2.88188   0.00400   0.00000   0.01274   0.01274   2.89462
   R53        2.06334   0.00836   0.00000   0.02317   0.02317   2.08651
   R54        2.06194   0.00881   0.00000   0.02434   0.02434   2.08628
   R55        2.05714   0.01010   0.00000   0.02768   0.02768   2.08482
   R56        2.05359   0.01116   0.00000   0.03042   0.03042   2.08402
   R57        2.05353   0.01120   0.00000   0.03052   0.03052   2.08405
    A1        1.94486   0.00146   0.00000   0.00809   0.00806   1.95291
    A2        1.90874   0.00173   0.00000   0.01028   0.01023   1.91897
    A3        1.94571   0.00149   0.00000   0.00835   0.00832   1.95402
    A4        1.88295  -0.00158   0.00000  -0.00868  -0.00873   1.87422
    A5        1.89582  -0.00173   0.00000  -0.01064  -0.01066   1.88515
    A6        1.88372  -0.00158   0.00000  -0.00857  -0.00862   1.87510
    A7        2.03241   0.00347   0.00000   0.02201   0.02197   2.05438
    A8        1.89346  -0.00065   0.00000   0.00689   0.00678   1.90024
    A9        1.89069   0.00100   0.00000   0.01049   0.01071   1.90140
   A10        1.89084  -0.00033   0.00000   0.00098   0.00054   1.89138
   A11        1.88786  -0.00341   0.00000  -0.02705  -0.02718   1.86068
   A12        1.86154  -0.00037   0.00000  -0.01680  -0.01695   1.84459
   A13        1.93905   0.00049   0.00000   0.00554   0.00556   1.94461
   A14        1.93848  -0.00039   0.00000  -0.00552  -0.00557   1.93291
   A15        1.85452  -0.00060   0.00000  -0.00819  -0.00822   1.84630
   A16        1.85475   0.00029   0.00000   0.00631   0.00632   1.86108
   A17        1.93987   0.00023   0.00000   0.00434   0.00436   1.94423
   A18        1.93876  -0.00001   0.00000  -0.00244  -0.00251   1.93625
   A19        2.02861   0.00194   0.00000   0.01248   0.01241   2.04102
   A20        1.89029  -0.00040   0.00000   0.00010   0.00004   1.89034
   A21        1.89059  -0.00046   0.00000  -0.00056  -0.00062   1.88997
   A22        1.89412  -0.00022   0.00000   0.00210   0.00206   1.89618
   A23        1.89376  -0.00019   0.00000   0.00204   0.00200   1.89576
   A24        1.85949  -0.00091   0.00000  -0.01910  -0.01910   1.84039
   A25        1.94519   0.00148   0.00000   0.00816   0.00813   1.95331
   A26        1.90962   0.00190   0.00000   0.01136   0.01130   1.92093
   A27        1.94512   0.00145   0.00000   0.00802   0.00799   1.95310
   A28        1.88324  -0.00166   0.00000  -0.00902  -0.00907   1.87417
   A29        1.89580  -0.00175   0.00000  -0.01092  -0.01094   1.88485
   A30        1.88281  -0.00164   0.00000  -0.00881  -0.00886   1.87395
   A31        2.03111   0.00051   0.00000   0.00591   0.00588   2.03698
   A32        1.89069  -0.00003   0.00000   0.00084   0.00082   1.89150
   A33        1.88944   0.00001   0.00000   0.00178   0.00174   1.89119
   A34        1.89316   0.00020   0.00000   0.00313   0.00312   1.89628
   A35        1.89328   0.00025   0.00000   0.00412   0.00410   1.89738
   A36        1.85894  -0.00110   0.00000  -0.01822  -0.01821   1.84074
   A37        1.90893   0.00190   0.00000   0.01209   0.01203   1.92096
   A38        1.94615   0.00159   0.00000   0.00846   0.00842   1.95457
   A39        1.94552   0.00144   0.00000   0.00758   0.00755   1.95307
   A40        1.88319  -0.00162   0.00000  -0.00810  -0.00817   1.87502
   A41        1.88101  -0.00153   0.00000  -0.00758  -0.00764   1.87337
   A42        1.89686  -0.00199   0.00000  -0.01359  -0.01360   1.88327
   A43        2.03082   0.00224   0.00000   0.01448   0.01440   2.04522
   A44        1.89064  -0.00051   0.00000  -0.00054  -0.00062   1.89001
   A45        1.89083  -0.00064   0.00000  -0.00151  -0.00160   1.88923
   A46        1.89333  -0.00021   0.00000   0.00280   0.00276   1.89609
   A47        1.89178  -0.00008   0.00000   0.00374   0.00370   1.89548
   A48        1.85929  -0.00108   0.00000  -0.02248  -0.02249   1.83680
   A49        1.94530   0.00149   0.00000   0.00829   0.00825   1.95355
   A50        1.94671   0.00145   0.00000   0.00810   0.00807   1.95477
   A51        1.90838   0.00182   0.00000   0.01087   0.01082   1.91920
   A52        1.89593  -0.00174   0.00000  -0.01074  -0.01076   1.88517
   A53        1.88260  -0.00164   0.00000  -0.00897  -0.00902   1.87357
   A54        1.88279  -0.00161   0.00000  -0.00876  -0.00881   1.87398
   A55        2.76513  -0.00447   0.00000  -0.02554  -0.02554   2.73960
   A56        1.94496   0.00145   0.00000   0.00805   0.00802   1.95298
   A57        1.90873   0.00172   0.00000   0.01027   0.01022   1.91894
   A58        1.94564   0.00150   0.00000   0.00842   0.00838   1.95403
   A59        1.88297  -0.00158   0.00000  -0.00870  -0.00875   1.87422
   A60        1.89581  -0.00173   0.00000  -0.01064  -0.01066   1.88516
   A61        1.88368  -0.00158   0.00000  -0.00858  -0.00863   1.87505
   A62        2.03236   0.00351   0.00000   0.02224   0.02220   2.05456
   A63        1.89341  -0.00066   0.00000   0.00688   0.00677   1.90019
   A64        1.89070   0.00098   0.00000   0.01040   0.01063   1.90132
   A65        1.89095  -0.00035   0.00000   0.00087   0.00042   1.89136
   A66        1.88781  -0.00341   0.00000  -0.02705  -0.02718   1.86063
   A67        1.86159  -0.00037   0.00000  -0.01684  -0.01700   1.84459
   A68        1.93895   0.00052   0.00000   0.00575   0.00577   1.94472
   A69        1.93856  -0.00040   0.00000  -0.00560  -0.00565   1.93291
   A70        1.85458  -0.00062   0.00000  -0.00831  -0.00834   1.84624
   A71        1.85484   0.00027   0.00000   0.00619   0.00620   1.86104
   A72        1.93990   0.00022   0.00000   0.00436   0.00437   1.94427
   A73        1.93861   0.00001   0.00000  -0.00234  -0.00240   1.93621
   A74        2.02832   0.00196   0.00000   0.01257   0.01251   2.04082
   A75        1.89033  -0.00040   0.00000   0.00013   0.00007   1.89039
   A76        1.89064  -0.00047   0.00000  -0.00057  -0.00063   1.89002
   A77        1.89423  -0.00022   0.00000   0.00206   0.00202   1.89625
   A78        1.89386  -0.00020   0.00000   0.00200   0.00197   1.89583
   A79        1.85950  -0.00091   0.00000  -0.01913  -0.01913   1.84037
   A80        1.94513   0.00148   0.00000   0.00819   0.00815   1.95329
   A81        1.90966   0.00190   0.00000   0.01138   0.01132   1.92099
   A82        1.94505   0.00145   0.00000   0.00806   0.00802   1.95307
   A83        1.88328  -0.00167   0.00000  -0.00905  -0.00910   1.87418
   A84        1.89577  -0.00175   0.00000  -0.01093  -0.01095   1.88482
   A85        1.88289  -0.00164   0.00000  -0.00886  -0.00891   1.87398
   A86        2.03133   0.00052   0.00000   0.00594   0.00590   2.03723
   A87        1.89059  -0.00002   0.00000   0.00095   0.00092   1.89151
   A88        1.88947   0.00001   0.00000   0.00169   0.00165   1.89112
   A89        1.89302   0.00020   0.00000   0.00317   0.00315   1.89618
   A90        1.89324   0.00025   0.00000   0.00412   0.00410   1.89733
   A91        1.85896  -0.00111   0.00000  -0.01831  -0.01830   1.84066
   A92        1.94615   0.00159   0.00000   0.00847   0.00844   1.95458
   A93        1.94562   0.00143   0.00000   0.00754   0.00751   1.95313
   A94        1.90886   0.00190   0.00000   0.01209   0.01202   1.92088
   A95        1.89691  -0.00199   0.00000  -0.01358  -0.01359   1.88332
   A96        1.88315  -0.00162   0.00000  -0.00808  -0.00814   1.87501
   A97        1.88097  -0.00153   0.00000  -0.00758  -0.00764   1.87333
   A98        2.03075   0.00227   0.00000   0.01463   0.01454   2.04529
   A99        1.89069  -0.00052   0.00000  -0.00055  -0.00064   1.89005
   A100       1.89087  -0.00065   0.00000  -0.00156  -0.00165   1.88922
   A101       1.89320  -0.00021   0.00000   0.00287   0.00282   1.89602
   A102       1.89191  -0.00010   0.00000   0.00361   0.00358   1.89549
   A103       1.85926  -0.00107   0.00000  -0.02250  -0.02250   1.83676
   A104       1.90836   0.00183   0.00000   0.01090   0.01085   1.91921
   A105       1.94536   0.00149   0.00000   0.00827   0.00823   1.95359
   A106       1.94666   0.00146   0.00000   0.00812   0.00808   1.95474
   A107       1.88265  -0.00164   0.00000  -0.00901  -0.00906   1.87359
   A108       1.88276  -0.00161   0.00000  -0.00875  -0.00880   1.87396
   A109       1.89592  -0.00174   0.00000  -0.01074  -0.01076   1.88516
   A110       2.76112  -0.00445   0.00000  -0.02540  -0.02540   2.73572
    D1       -1.04697   0.00099   0.00000   0.01227   0.01226  -1.03471
    D2        3.09873  -0.00052   0.00000  -0.01025  -0.01029   3.08844
    D3        1.08435  -0.00027   0.00000   0.00039   0.00045   1.08480
    D4       -3.12716   0.00093   0.00000   0.01138   0.01137  -3.11580
    D5        1.01854  -0.00059   0.00000  -0.01115  -0.01119   1.00735
    D6       -0.99584  -0.00033   0.00000  -0.00051  -0.00045  -0.99629
    D7        1.07434   0.00084   0.00000   0.01016   0.01014   1.08448
    D8       -1.06314  -0.00067   0.00000  -0.01236  -0.01242  -1.07555
    D9       -3.07752  -0.00042   0.00000  -0.00173  -0.00167  -3.07919
   D10       -1.02719  -0.00003   0.00000   0.00089   0.00080  -1.02640
   D11        1.03338   0.00039   0.00000   0.00879   0.00868   1.04205
   D12       -3.13934  -0.00022   0.00000  -0.00244  -0.00251   3.14133
   D13        1.11166   0.00131   0.00000   0.02644   0.02643   1.13808
   D14       -3.11096   0.00173   0.00000   0.03434   0.03431  -3.07665
   D15       -1.00049   0.00112   0.00000   0.02312   0.02312  -0.97737
   D16        3.12319  -0.00108   0.00000  -0.00688  -0.00677   3.11641
   D17       -1.09943  -0.00066   0.00000   0.00102   0.00111  -1.09832
   D18        1.01104  -0.00126   0.00000  -0.01021  -0.01008   1.00096
   D19       -2.94537  -0.00012   0.00000   0.05038   0.05037  -2.89500
   D20       -0.72792   0.00260   0.00000   0.06676   0.06656  -0.66137
   D21        1.30272   0.00034   0.00000   0.04583   0.04605   1.34877
   D22       -1.03601   0.00008   0.00000   0.00115   0.00116  -1.03485
   D23        3.11060  -0.00068   0.00000  -0.01050  -0.01049   3.10010
   D24        1.10034   0.00084   0.00000   0.01219   0.01219   1.11254
   D25        3.13658   0.00010   0.00000   0.00075   0.00075   3.13733
   D26        1.00000  -0.00066   0.00000  -0.01090  -0.01090   0.98909
   D27       -1.01025   0.00085   0.00000   0.01178   0.01178  -0.99847
   D28        1.02517  -0.00020   0.00000  -0.00272  -0.00272   1.02245
   D29       -1.11141  -0.00096   0.00000  -0.01437  -0.01437  -1.12578
   D30       -3.12166   0.00056   0.00000   0.00831   0.00831  -3.11335
   D31        1.01397  -0.00055   0.00000  -0.00805  -0.00805   1.00592
   D32       -1.12343  -0.00115   0.00000  -0.01705  -0.01704  -1.14047
   D33       -3.13265   0.00015   0.00000   0.00299   0.00299  -3.12966
   D34        3.12493   0.00001   0.00000  -0.00053  -0.00054   3.12439
   D35        0.98753  -0.00060   0.00000  -0.00953  -0.00954   0.97800
   D36       -1.02169   0.00071   0.00000   0.01050   0.01050  -1.01119
   D37       -1.04613   0.00046   0.00000   0.00729   0.00729  -1.03884
   D38        3.09966  -0.00015   0.00000  -0.00170  -0.00171   3.09795
   D39        1.09044   0.00116   0.00000   0.01833   0.01833   1.10877
   D40        3.13087   0.00043   0.00000   0.00836   0.00835   3.13922
   D41        0.99349  -0.00047   0.00000  -0.00517  -0.00517   0.98832
   D42       -1.01683   0.00140   0.00000   0.02233   0.02231  -0.99452
   D43        1.01925   0.00007   0.00000   0.00427   0.00427   1.02352
   D44       -1.11813  -0.00083   0.00000  -0.00926  -0.00926  -1.12738
   D45       -3.12844   0.00104   0.00000   0.01824   0.01823  -3.11022
   D46       -1.04203  -0.00043   0.00000  -0.00485  -0.00484  -1.04687
   D47        3.10378  -0.00133   0.00000  -0.01838  -0.01837   3.08541
   D48        1.09346   0.00054   0.00000   0.00912   0.00912   1.10258
   D49       -1.06171   0.00007   0.00000   0.00078   0.00079  -1.06092
   D50        3.14015  -0.00002   0.00000  -0.00047  -0.00047   3.13968
   D51        1.05940  -0.00012   0.00000  -0.00188  -0.00189   1.05751
   D52        1.07286   0.00074   0.00000   0.01142   0.01144   1.08430
   D53       -1.00846   0.00065   0.00000   0.01017   0.01018  -0.99828
   D54       -3.08921   0.00056   0.00000   0.00876   0.00876  -3.08045
   D55        3.08679  -0.00055   0.00000  -0.00893  -0.00893   3.07786
   D56        1.00546  -0.00063   0.00000  -0.01017  -0.01019   0.99528
   D57       -1.07529  -0.00073   0.00000  -0.01158  -0.01161  -1.08689
   D58        3.12098   0.00005   0.00000   0.00192   0.00193   3.12290
   D59        1.03956  -0.00016   0.00000  -0.00113  -0.00114   1.03842
   D60       -1.08389   0.00027   0.00000   0.00503   0.00505  -1.07884
   D61       -1.02611   0.00054   0.00000   0.00974   0.00975  -1.01636
   D62       -3.10753   0.00033   0.00000   0.00669   0.00668  -3.10084
   D63        1.05222   0.00076   0.00000   0.01285   0.01287   1.06509
   D64        0.98642  -0.00053   0.00000  -0.00791  -0.00792   0.97850
   D65       -1.09500  -0.00074   0.00000  -0.01096  -0.01099  -1.10599
   D66        3.06475  -0.00031   0.00000  -0.00481  -0.00480   3.05994
   D67        1.05850  -0.00010   0.00000  -0.00146  -0.00147   1.05704
   D68       -1.06398   0.00005   0.00000   0.00079   0.00080  -1.06317
   D69        3.13830  -0.00003   0.00000  -0.00042  -0.00042   3.13788
   D70       -3.08871   0.00064   0.00000   0.01035   0.01037  -3.07835
   D71        1.07199   0.00080   0.00000   0.01261   0.01264   1.08463
   D72       -1.00892   0.00072   0.00000   0.01139   0.01141  -0.99751
   D73       -1.07649  -0.00078   0.00000  -0.01269  -0.01272  -1.08921
   D74        3.08422  -0.00062   0.00000  -0.01043  -0.01045   3.07377
   D75        1.00331  -0.00071   0.00000  -0.01165  -0.01168   0.99163
   D76       -0.91197   0.00204   0.00000   0.11783   0.11783  -0.79415
   D77       -1.04504   0.00099   0.00000   0.01219   0.01218  -1.03286
   D78        3.10060  -0.00053   0.00000  -0.01034  -0.01038   3.09023
   D79        1.08619  -0.00027   0.00000   0.00040   0.00047   1.08665
   D80       -3.12532   0.00093   0.00000   0.01135   0.01134  -3.11398
   D81        1.02033  -0.00059   0.00000  -0.01118  -0.01122   1.00911
   D82       -0.99409  -0.00033   0.00000  -0.00044  -0.00038  -0.99446
   D83        1.07629   0.00084   0.00000   0.01011   0.01009   1.08638
   D84       -1.06125  -0.00067   0.00000  -0.01242  -0.01247  -1.07372
   D85       -3.07566  -0.00041   0.00000  -0.00168  -0.00163  -3.07729
   D86       -1.02405  -0.00004   0.00000   0.00038   0.00029  -1.02376
   D87        1.03661   0.00037   0.00000   0.00822   0.00810   1.04471
   D88       -3.13621  -0.00023   0.00000  -0.00300  -0.00308  -3.13929
   D89        1.11478   0.00131   0.00000   0.02600   0.02599   1.14076
   D90       -3.10775   0.00172   0.00000   0.03383   0.03380  -3.07395
   D91       -0.99738   0.00112   0.00000   0.02262   0.02262  -0.97476
   D92        3.12639  -0.00108   0.00000  -0.00744  -0.00733   3.11906
   D93       -1.09613  -0.00067   0.00000   0.00040   0.00049  -1.09565
   D94        1.01423  -0.00127   0.00000  -0.01082  -0.01069   1.00354
   D95       -2.95783  -0.00012   0.00000   0.05080   0.05079  -2.90704
   D96       -0.74047   0.00263   0.00000   0.06741   0.06721  -0.67326
   D97        1.29029   0.00034   0.00000   0.04633   0.04654   1.33683
   D98       -1.03529   0.00008   0.00000   0.00114   0.00114  -1.03415
   D99        3.11133  -0.00068   0.00000  -0.01054  -0.01053   3.10080
   D100       1.10102   0.00084   0.00000   0.01218   0.01218   1.11320
   D101       3.13720   0.00011   0.00000   0.00079   0.00079   3.13799
   D102       1.00064  -0.00066   0.00000  -0.01089  -0.01089   0.98975
   D103      -1.00967   0.00086   0.00000   0.01183   0.01183  -0.99784
   D104       1.02590  -0.00020   0.00000  -0.00274  -0.00274   1.02317
   D105      -1.11065  -0.00097   0.00000  -0.01442  -0.01442  -1.12507
   D106      -3.12096   0.00055   0.00000   0.00830   0.00830  -3.11266
   D107       1.01461  -0.00056   0.00000  -0.00828  -0.00827   1.00634
   D108      -1.12269  -0.00117   0.00000  -0.01743  -0.01742  -1.14011
   D109      -3.13189   0.00014   0.00000   0.00271   0.00271  -3.12918
   D110       3.12555   0.00001   0.00000  -0.00063  -0.00063   3.12491
   D111       0.98825  -0.00060   0.00000  -0.00978  -0.00978   0.97847
   D112      -1.02095   0.00071   0.00000   0.01035   0.01035  -1.01060
   D113      -1.04551   0.00046   0.00000   0.00720   0.00719  -1.03832
   D114       3.10037  -0.00015   0.00000  -0.00195  -0.00195   3.09842
   D115       1.09117   0.00116   0.00000   0.01818   0.01818   1.10935
   D116       3.12844   0.00046   0.00000   0.00933   0.00933   3.13777
   D117       0.99123  -0.00045   0.00000  -0.00436  -0.00436   0.98687
   D118      -1.01911   0.00142   0.00000   0.02319   0.02318  -0.99593
   D119       1.01689   0.00008   0.00000   0.00506   0.00506   1.02195
   D120      -1.12031  -0.00083   0.00000  -0.00864  -0.00863  -1.12895
   D121      -3.13065   0.00104   0.00000   0.01891   0.01891  -3.11174
   D122      -1.04441  -0.00041   0.00000  -0.00399  -0.00398  -1.04839
   D123       3.10157  -0.00132   0.00000  -0.01768  -0.01767   3.08390
   D124       1.09123   0.00056   0.00000   0.00987   0.00987   1.10110
   D125      -1.06036   0.00006   0.00000   0.00061   0.00062  -1.05973
   D126       3.14146  -0.00002   0.00000  -0.00062  -0.00063   3.14084
   D127       1.06063  -0.00012   0.00000  -0.00201  -0.00202   1.05861
   D128       1.07415   0.00074   0.00000   0.01131   0.01134   1.08549
   D129      -1.00722   0.00065   0.00000   0.01008   0.01009  -0.99713
   D130      -3.08805   0.00056   0.00000   0.00869   0.00870  -3.07935
   D131       3.08820  -0.00055   0.00000  -0.00911  -0.00912   3.07909
   D132       1.00684  -0.00064   0.00000  -0.01035  -0.01036   0.99647
   D133      -1.07400  -0.00074   0.00000  -0.01173  -0.01175  -1.08575
   D134       1.04007  -0.00017   0.00000  -0.00129  -0.00131   1.03876
   D135      -1.08350   0.00026   0.00000   0.00487   0.00488  -1.07862
   D136       3.12139   0.00005   0.00000   0.00179   0.00179   3.12319
   D137      -3.10709   0.00033   0.00000   0.00671   0.00670  -3.10039
   D138       1.05252   0.00076   0.00000   0.01287   0.01289   1.06541
   D139      -1.02577   0.00055   0.00000   0.00979   0.00980  -1.01597
   D140      -1.09464  -0.00074   0.00000  -0.01103  -0.01105  -1.10570
   D141       3.06497  -0.00031   0.00000  -0.00487  -0.00486   3.06011
   D142       0.98668  -0.00052   0.00000  -0.00795  -0.00795   0.97873
   D143       3.13678  -0.00004   0.00000  -0.00049  -0.00049   3.13628
   D144       1.05689  -0.00010   0.00000  -0.00149  -0.00149   1.05540
   D145      -1.06558   0.00005   0.00000   0.00076   0.00077  -1.06481
   D146      -1.01052   0.00072   0.00000   0.01144   0.01147  -0.99906
   D147      -3.09041   0.00065   0.00000   0.01045   0.01047  -3.07994
   D148       1.07030   0.00081   0.00000   0.01270   0.01273   1.08303
   D149       1.00168  -0.00071   0.00000  -0.01165  -0.01168   0.99000
   D150      -1.07821  -0.00078   0.00000  -0.01265  -0.01268  -1.09088
   D151       3.08250  -0.00062   0.00000  -0.01039  -0.01041   3.07209
         Item               Value     Threshold  Converged?
 Maximum Force            0.011346     0.000015     NO 
 RMS     Force            0.003768     0.000010     NO 
 Maximum Displacement     0.973472     0.000060     NO 
 RMS     Displacement     0.240705     0.000040     NO 
 GradGradGradGradGradGradGradGradGradGradGradGradGradGradGradGradGradGrad

 Framework group  C1[X(C18H40)]
 Deg. of freedom   168
                         Standard orientation:                         
 ---------------------------------------------------------------------
 Center     Atomic      Atomic             Coordinates (Angstroms)
 Number     Number       Type             X           Y           Z
 ---------------------------------------------------------------------
      1          6           0       -2.804095   -1.941283   -1.526709
      2          6           0       -1.980209   -0.793075   -0.936825
      3          6           0       -2.593671    0.001716    0.241876
      4          6           0       -3.948489    0.645013   -0.153068
      5          6           0       -3.933854    1.627830   -1.328014
      6          6           0       -2.880395   -0.933497    1.444713
      7          6           0       -1.688369   -1.712744    2.010875
      8          6           0       -1.542658    1.080201    0.616163
      9          6           0       -1.891986    2.027719    1.767878
     10          1           0       -3.036225   -2.711017   -0.771803
     11          1           0       -2.238437   -2.433383   -2.336134
     12          1           0       -3.755973   -1.587351   -1.956685
     13          1           0       -1.730127   -0.081658   -1.743464
     14          1           0       -1.017508   -1.190121   -0.581240
     15          1           0       -4.359186    1.160194    0.732929
     16          1           0       -4.663581   -0.165060   -0.379975
     17          1           0       -3.283172    2.495990   -1.130380
     18          1           0       -4.951063    2.013368   -1.511566
     19          1           0       -3.589861    1.149467   -2.260293
     20          1           0       -3.663395   -1.652959    1.147319
     21          1           0       -3.326681   -0.330903    2.255007
     22          1           0       -2.010299   -2.325210    2.870206
     23          1           0       -0.887216   -1.042342    2.364651
     24          1           0       -1.252351   -2.397599    1.264107
     25          1           0       -1.328820    1.682761   -0.284003
     26          1           0       -0.593633    0.569520    0.855743
     27          1           0       -2.053649    1.484234    2.713749
     28          1           0       -2.797956    2.619662    1.555556
[...]
 0001691,0.00001511,0.00000574,0.00000378,-0.00000376,0.00000369,-0.000
 00149,0.00000342,-0.00000870,-0.00000858,0.00000279,0.00001200,-0.0000
 0049,-0.00000087,-0.00000749,0.00000272,-0.00001006,0.00000244,-0.0000
 0602,-0.00000048,0.00000381,0.00000029,-0.00000784,0.00000293,-0.00000
 325,-0.00000389,0.00000015,-0.00000024,0.00000494,0.00000017,0.0000067
 9,-0.00000081,-0.00001189,-0.00005248,-0.00003589,0.00001156,0.0000162
 3,0.00002248,0.00000408,0.00000654,-0.00001187,0.00001088,0.00000532,-
 0.00000499,-0.00000725,0.00000257,-0.00000552,-0.00012414,0.00003945,0
 .00012023,0.00043779,0.00035365,0.00016238,-0.00104733,0.00101042,0.00
 190429,-0.00052516,0.00000913,0.00036447,0.00008771,-0.00013852,0.0000
 0034,-0.00020524,-0.00001811,0.00032053,0.00003561,-0.00001380,-0.0000
 5875,0.00913957,0.01133866,0.00459652,-0.16636540,-0.12552548,-0.04911
 199,-0.00000313,0.00000557,-0.00000399,0.00003712,0.00004214,0.0000361
 7,0.00001703,-0.00000063,0.00001869,-0.00000236,-0.00001752,0.00000518
 ,0.00000927,0.00000089,-0.00003068,0.00042749,-0.00006982,-0.00035987,
 0.00016555,-0.00009065,-0.00018353,-0.00003448,-0.00003909,0.00004552,
 -0.00001205,-0.00000261,0.00001351,0.00001043,0.00004032,-0.00008496,0
 .00003909,0.00000070,-0.00006264,0.00009127,0.00002736,-0.00019181,-0.
 00001241,0.00000392,-0.00001109,0.00003727,-0.00002657,0.00000629,-0.0
 0001371,-0.00000613,0.00000173,0.00042842,-0.00026673,-0.00059215,0.00
 080432,0.00004649,-0.00040077,0.17410503,0.00001180,0.00002923,0.00004
 963,-0.00003445,-0.00012642,-0.00011707,0.00002804,0.00004739,0.000032
 23,0.00000253,-0.00001389,-0.00000799,0.00000832,0.00000184,-0.0000188
 2,-0.00002069,-0.00002342,-0.00001340,-0.00001044,0.00000742,0.0000067
 2,-0.00002813,-0.00010264,-0.00009812,0.00000773,0.00003791,0.00002357
 ,-0.00001948,0.00002524,0.00000157,-0.00000893,-0.00001405,-0.00001565
 ,0.00001628,-0.00000501,-0.00000280,0.00002762,0.00003125,0.00004396,0
 .00000468,0.00001760,0.00002136,-0.00000282,0.00000510,0.00001486,-0.0
 0000069,0.00001106,0.00000330,0.00001053,0.00002093,-0.00002209,-0.000
 01282,0.00000694,0.00001075,0.00001508,-0.00002680,0.00002623,0.000007
 58,0.00000883,0.00000833,0.00000526,0.00001075,0.00001163,0.00000964,0
 .00000564,0.00000493,-0.00000561,-0.00001942,0.00001655,-0.00000641,0.
 00001401,-0.00001918,0.00001806,0.00004637,0.00001369,-0.00000487,0.00
 001020,0.00001843,-0.00001450,-0.00000280,0.00002234,0.00000915,0.0000
 0146,-0.00000527,-0.00000252,-0.00001283,-0.00000353,0.00032342,-0.000
 04881,-0.00026150,-0.00084194,-0.00062775,-0.00021349,0.00266897,0.000
 01171,-0.00203262,0.00049384,0.00007807,0.00007274,-0.00007395,0.00001
 454,-0.00001404,-0.00013032,0.00037397,-0.00010290,-0.00013304,0.00001
 683,-0.00008792,-0.01084249,-0.01150524,-0.00308556,-0.12452477,-0.180
 13934,-0.05011220,-0.00000998,0.00001096,0.00002711,-0.00005245,-0.000
 10374,-0.00010287,-0.00002883,0.00001169,-0.00000085,0.00001390,0.0000
 4128,-0.00004862,0.00001151,-0.00002839,0.00004380,-0.00011409,0.00001
 434,0.00021105,-0.00013931,0.00004152,0.00006409,0.00003581,0.00001203
 ,-0.00001842,-0.00002456,0.00002907,-0.00003648,0.00001046,-0.00000282
 ,0.00002316,0.00006104,-0.00011159,-0.00008749,0.00030076,0.00005332,-
 0.00014645,-0.00002706,0.00001860,0.00000906,0.00005365,-0.00002311,-0
 .00000942,0.00002519,-0.00002481,0.00003469,0.00017104,0.00093520,0.00
 005767,0.00001647,-0.00014201,0.00040731,0.13398725,0.19053152,0.00001
 378,0.00001128,0.00000306,-0.00002871,-0.00002491,-0.00002246,0.000017
 40,-0.00001417,0.00005892,0.00000096,0.00001510,-0.00001236,0.00000410
 ,-0.00002779,0.00001459,-0.00002048,0.00000221,-0.00002990,-0.00000108
 ,0.00000191,0.00000501,-0.00004022,-0.00007360,-0.00010146,0.00001567,
 0.00003087,0.00002166,-0.00000522,0.00000416,-0.00000199,0.00000102,0.
 00000808,-0.00000725,0.00000248,-0.00000366,0.00000556,0.00000164,-0.0
 0000968,0.00002015,0.00000382,0.00001782,0.00000448,0.00000737,-0.0000
 0089,-0.00000031,-0.00001010,0.00000883,-0.00000047,0.00000675,0.00001
 788,-0.00000868,-0.00000775,0.00000775,-0.00000028,0.00000441,-0.00000
 010,0.00000118,0.00000103,0.00001636,0.00001080,0.00001112,0.00000138,
 -0.00000159,0.00000701,0.00000432,0.00000156,-0.00001125,-0.00001748,0
 .00001161,-0.00000260,0.00001627,-0.00001626,0.00004169,0.00003578,0.0
 0006672,-0.00001101,-0.00002498,0.00000096,-0.00001732,0.00000444,0.00
 002278,0.00000482,-0.00000390,-0.00000303,-0.00000554,0.00000371,-0.00
 003080,0.00041646,-0.00005759,-0.00038116,-0.00109292,-0.00107941,-0.0
 0019805,0.00367129,-0.00082389,-0.00342933,0.00052810,-0.00012743,0.00
 015223,-0.00007096,-0.00009318,0.00007112,0.00054031,0.00038455,-0.000
 45142,-0.00003637,-0.00004870,0.00012731,-0.01891530,-0.01911252,-0.00
 781424,-0.04803075,-0.04933849,-0.06679556,-0.00001246,-0.00002559,0.0
 0003172,-0.00006424,-0.00016483,-0.00010839,-0.00002079,0.00001734,0.0
 0001004,-0.00002632,0.00005762,-0.00003277,0.00004171,-0.00002465,0.00
 003237,0.00001147,0.00009462,-0.00003831,-0.00006666,-0.00000460,-0.00
 006182,-0.00000229,0.00000519,0.00002225,-0.00001239,0.00004543,-0.000
 03092,0.00001893,-0.00000363,0.00000296,-0.00015459,-0.00000876,0.0002
 1839,-0.00036194,0.00002907,0.00032689,0.00005293,0.00000643,-0.000010
 72,-0.00005101,0.00004753,-0.00001179,0.00003638,-0.00004175,0.0000241
 8,-0.00069764,0.00044978,0.00035754,0.00012808,0.00038085,0.00106600,0
 .05026562,0.05761743,0.07088430,-0.00001133,-0.00001139,-0.00001255,0.
 00001490,0.00005730,0.00003126,-0.00001070,-0.00006403,0.00003933,-0.0
 0000063,0.00002424,-0.00001552,-0.00000420,-0.00001942,0.00002290,0.00
 000331,0.00002478,-0.00001847,0.00000181,-0.00001108,0.00001059,0.0000
 2667,0.00002234,-0.00000558,-0.00001047,0.00000780,-0.00001051,0.00000
 905,-0.00001108,-0.00000680,0.00000327,0.00002827,-0.00001120,-0.00000
 287,0.00000340,0.00000304,-0.00002366,-0.00004414,-0.00000531,-0.00000
 109,-0.00000290,0.00001692,0.00001021,-0.00000021,-0.00000758,-0.00001
 412,0.00000133,-0.00000222,0.00000142,0.00000694,0.00000073,0.00000019
 ,0.00000262,-0.00000642,-0.00000239,0.00000635,-0.00001252,-0.00001081
 ,0.00000863,0.00000349,0.00000490,-0.00000687,-0.00001141,-0.00000367,
 0.00000225,-0.00000332,-0.00000241,0.00000579,-0.00001267,0.00000567,0
 .00000056,0.00000384,0.00003184,0.00000320,0.00002472,-0.00000845,-0.0
 0004283,-0.00002848,-0.00000139,0.00000108,0.00000643,-0.00000917,-0.0
 0000791,0.00000562,0.00000408,0.00001466,-0.00001718,-0.00003515,0.000
 01240,-0.00002959,0.00004827,-0.00012023,0.00002180,0.00003207,-0.0000
 0973,-0.00053828,0.00002462,0.00007329,-0.00012313,0.00012070,0.000033
 17,0.00003453,0.00038333,-0.00056011,-0.00036802,0.00022161,0.00018013
 ,0.00015961,-0.00226897,-0.00802675,0.00923265,-0.05512636,-0.02264115
 ,0.02968069,0.00002787,0.00002229,-0.00000296,-0.00000070,0.00001337,0
 .00001293,0.00000641,0.00000166,-0.00000588,-0.00001625,0.00003079,-0.
 00005525,-0.00004643,-0.00000445,0.00001060,-0.00001338,0.00015119,0.0
 0003788,0.00002130,-0.00002581,0.00002072,-0.00005216,-0.00003066,0.00
 019368,0.00002735,0.00000510,0.00001379,-0.00006443,-0.00010109,-0.000
 02753,-0.00004190,0.00012601,-0.00005793,-0.00010558,-0.00078928,-0.00
 029001,-0.00031175,0.00011427,0.00000668,-0.00012757,-0.00007868,-0.00
 007677,-0.00002822,-0.00002504,-0.00003113,-0.00022901,0.00166550,0.00
 208525,0.00006802,-0.00057615,-0.00008396,-0.00220558,-0.01166210,0.01
 773763,0.05310718,-0.00000416,-0.00000620,-0.00000414,0.00000479,0.000
 01917,0.00001721,0.00000485,0.00000850,0.00000083,0.00000219,-0.000001
 92,0.00000265,-0.00000142,-0.00001205,0.00000950,0.00000012,0.00000419
 ,0.00000078,0.00000091,0.00000183,-0.00000522,-0.00000085,-0.00003952,
 -0.00002442,0.00000584,0.00000478,0.00001124,0.00000297,-0.00000133,-0
 .00000287,0.00000437,0.00000800,0.00000606,-0.00001055,0.00000041,0.00
 000146,-0.00000250,-0.00000720,0.00000734,-0.00000370,-0.00000046,-0.0
 0001251,-0.00000030,-0.00000266,-0.00000252,0.00000031,0.00000305,0.00
 000091,0.00000232,0.00000360,-0.00000287,-0.00000342,0.00000072,-0.000
 00125,0.00000155,0.00000394,-0.00000107,-0.00000260,0.00000189,-0.0000
 0109,-0.00000145,-0.00000287,-0.00000094,-0.00000213,-0.00000088,0.000
 00163,0.00000046,0.00000383,-0.00000244,0.00000264,-0.00000486,0.00000
 370,-0.00000046,-0.00000546,0.00000470,-0.00000729,0.00002951,0.000014
 70,-0.00000114,0.00000198,0.00000135,0.00000432,-0.00000103,-0.0000032
 7,-0.00000643,-0.00000255,-0.00000468,-0.00007725,-0.00008897,0.000121
 61,0.00022581,0.00005347,0.00007124,-0.00051403,0.00049988,0.00023178,
 0.00000653,0.00000216,0.00007814,-0.00005348,-0.00003253,-0.00002103,-
 0.00066553,-0.00144695,-0.00065331,-0.00016270,-0.00010301,-0.00004389
 ,0.00234246,0.01318059,-0.01410227,-0.02269572,-0.14682764,0.12776652,
 -0.00000326,-0.00001784,-0.00005203,0.00000861,0.00003126,0.00002443,-
 0.00000118,-0.00000037,-0.00000621,-0.00004290,-0.00000647,0.00013678,
 0.00001977,0.00001497,-0.00001388,-0.00005047,-0.00002245,0.00008093,-
 0.00001874,0.00004323,0.00004924,0.00005554,0.00000344,-0.00007810,-0.
 00001062,-0.00001450,0.00001138,0.00002945,0.00004884,0.00004569,0.000
 08063,0.00013822,0.00000081,-0.00056476,-0.00131330,-0.00078108,0.0002
 3012,0.00004723,0.00007007,0.00003425,0.00013955,0.00003086,-0.0000020
 8,0.00001765,-0.00000508,0.00136046,-0.00115820,-0.00355850,-0.0003315
 0,0.00079376,0.00076319,-0.00082923,-0.01188113,0.01681922,0.02531832,
 0.15571351,0.00002183,0.00000844,-0.00001529,0.00000630,-0.00003396,0.
 00000719,0.00000549,0.00006959,-0.00004405,-0.00000066,-0.00003627,0.0
 0001314,0.00000469,0.00001315,-0.00001204,0.00000608,-0.00001147,0.000
 02877,-0.00000022,0.00001459,-0.00002555,-0.00004751,-0.00005307,-0.00
 001542,0.00002432,-0.00001025,0.00002305,0.00000597,-0.00000465,0.0000
 0180,0.00000430,-0.00002076,0.00002866,0.00000038,-0.00001035,0.000004
 83,-0.00000584,0.00000714,-0.00002763,0.00001066,0.00004822,-0.0000221
 8,-0.00000880,0.00000202,0.00000268,0.00002291,-0.00000389,0.00000811,
 -0.00000308,-0.00001232,-0.00000190,0.00000607,-0.00000103,0.00000455,
 -0.00000296,-0.00000167,0.00000559,0.00001265,-0.00001724,-0.00000497,
 -0.00000882,0.00000299,0.00000380,0.00000419,-0.00000898,-0.00000081,0
 .00000501,-0.00000124,0.00001834,-0.00000339,-0.00000107,0.00000325,-0
 .00006054,-0.00004085,-0.00004722,0.00001791,0.00010081,0.00007952,0.0
 0000642,-0.00000116,-0.00001775,0.00002217,0.00001276,-0.00001308,-0.0
 0001194,-0.00002258,0.00002252,0.00000288,-0.00004015,0.00008671,-0.00
 006724,-0.00011170,-0.00004043,0.00035527,0.00147646,0.00028999,0.0000
 6631,-0.00019948,-0.00015977,0.00004024,0.00017130,0.00015285,0.000401
 38,-0.00037252,-0.00060380,0.00002337,-0.00022143,0.00026757,0.0032533
 4,0.01642030,-0.01939803,0.02977179,0.12687084,-0.21220428,-0.00003308
 ,-0.00012188,-0.00002326,-0.00000645,-0.00002735,0.00000910,-0.0000021
 0,-0.00000529,-0.00000610,-0.00010536,-0.00009071,0.00029110,0.0000182
 3,0.00006691,0.00000255,-0.00006252,0.00013581,-0.00006409,-0.00011101
 ,-0.00004926,-0.00004096,0.00006033,-0.00018482,0.00010827,-0.00005922
 ,-0.00006965,-0.00000270,0.00000830,-0.00005053,0.00005711,-0.00019463
 ,0.00015341,0.00043233,-0.00082319,-0.00033789,0.00067854,0.00018081,-
 0.00019133,-0.00007657,-0.00008843,0.00017076,0.00003345,0.00003232,0.
 00000907,0.00000723,0.00217892,-0.00350658,-0.00332225,-0.00004750,-0.
 00005401,0.00102510,-0.00096520,-0.00644289,0.00854849,-0.03535444,-0.
 13582997,0.22811490,-0.00002978,-0.00000983,0.00003508,0.00003479,-0.0
 0000846,-0.00003019,0.00000271,0.00000908,-0.00000788,0.00000793,0.000
 00929,0.00001368,-0.00000851,0.00000022,-0.00001018,-0.00000832,-0.000
 01643,-0.00000932,-0.00000144,0.00000818,0.00000372,0.00003797,-0.0000
 1683,-0.00000195,-0.00003565,0.00003424,-0.00001359,-0.00001156,0.0000
 2345,-0.00000152,0.00000681,-0.00000648,-0.00000035,-0.00001681,0.0000
 0999,-0.00001213,0.00004377,0.00004123,0.00005730,-0.00003048,-0.00006
 128,-0.00003590,-0.00001275,-0.00000739,0.00000946,-0.00000740,0.00000
 463,-0.00000653,0.00001251,0.00001295,-0.00000663,-0.00001788,-0.00000
 098,0.00000125,0.00001259,-0.00000783,0.00001762,-0.00000282,0.0000106
 9,-0.00000064,-0.00000651,0.00000056,0.00001643,-0.00000694,0.00000910
 ,0.00000969,0.00000115,-0.00000089,-0.00001374,-0.00000129,-0.00001515
 ,0.00000125,0.00004287,0.00005746,0.00002016,-0.00003036,-0.00003480,-
 0.00006264,-0.00000917,-0.00000453,0.00002213,-0.00001643,-0.00001256,
 0.00001311,0.00001088,-0.00000919,0.00000473,-0.00006007,-0.00002922,0
 .00002215,0.00010183,0.00016264,-0.00007468,-0.00032383,-0.00068892,-0
 .00024221,-0.00041117,-0.00037838,-0.00056489,0.00015165,-0.00002869,0
 .00006951,0.00003680,0.00004214,0.00013295,-0.00001410,-0.00005126,-0.
 00008754,-0.00904399,0.00456686,-0.00200561,-0.24770326,0.10588516,-0.
 04963314,0.00000684,0.00000111,-0.00000037,0.00001818,0.00002198,0.000
 02936,0.00006884,0.00001235,0.00003127,-0.00004007,-0.00001831,-0.0000
 0591,0.00009357,-0.00006369,0.00000782,0.00006166,-0.00074469,-0.00090
 218,0.00023982,-0.00011765,-0.00002133,-0.00000194,-0.00001784,0.00028
 504,-0.00002138,-0.00005540,-0.00000577,-0.00002240,-0.00006276,-0.000
 05329,0.00002283,0.00008788,0.00001082,-0.00005763,0.00007350,0.000025
 75,0.00002900,-0.00000032,0.00007860,-0.00000280,-0.00002267,0.0000052
 5,0.00003117,0.00004059,0.00000599,0.00009055,-0.00020797,0.00013210,0
 .00048199,0.00084045,0.00236210,-0.01538611,0.01042164,-0.00381605,0.0
 0658475,-0.00367775,0.00149328,0.26510941,0.00002831,0.00001611,-0.000
 01527,-0.00001113,-0.00004272,-0.00001107,0.00000028,0.00000861,0.0000
 2061,-0.00000278,-0.00001483,-0.00001639,0.00000449,-0.00000024,0.0000
 0196,0.00000835,0.00001522,0.00000895,-0.00000359,-0.00000651,-0.00000
 227,-0.00002162,-0.00001896,-0.00004607,0.00002712,-0.00000805,0.00001
 493,0.00000893,-0.00001431,-0.00000038,-0.00000609,0.00000623,-0.00000
 048,0.00001473,-0.00001220,0.00000901,-0.00003838,-0.00004409,-0.00004
 316,0.00002542,0.00007351,0.00004876,0.00000752,0.00000806,-0.00000103
 ,0.00000609,-0.00000012,0.00000709,-0.00000112,-0.00000047,-0.00000626
 ,0.00000509,0.00000337,0.00000206,-0.00000137,-0.00000637,-0.00000206,
 -0.00000077,-0.00000810,-0.00000055,0.00000038,-0.00000147,-0.00000957
 ,0.00000291,-0.00000548,-0.00000611,0.00000298,0.00000671,0.00000485,0
 .00000328,0.00000572,0.00000429,-0.00003354,-0.00004089,-0.00003188,0.
 00002509,0.00005023,0.00007422,0.00000786,-0.00000095,-0.00001265,0.00
 001244,0.00000915,-0.00001332,-0.00000527,0.00000137,0.00000395,-0.000
 06648,0.00002614,0.00000555,-0.00010691,-0.00000347,-0.00013009,0.0009
 2074,0.00031181,0.00086810,0.00039727,-0.00035708,-0.00096952,-0.00016
 612,0.00031292,-0.00004915,0.00001790,-0.00013530,-0.00017207,0.000053
 51,0.00019514,0.00010656,0.01380304,-0.00741748,0.00458924,0.10540793,
 -0.10472190,0.02744184,0.00000523,-0.00000771,-0.00000748,-0.00001936,
 0.00001050,-0.00000023,-0.00004507,-0.00003590,-0.00007014,0.00002507,
 0.00000047,0.00005385,-0.00018551,0.00010258,0.00006830,-0.00104581,-0
 .00036550,-0.00010480,-0.00016002,0.00019247,0.00038553,-0.00000487,-0
 .00003387,-0.00008706,0.00001322,-0.00000373,-0.00000965,0.00000260,-0
 .00007174,0.00016656,-0.00005499,-0.00007722,-0.00000564,0.00009925,-0
 .00001198,0.00016986,-0.00017493,0.00013384,-0.00008018,-0.00008043,0.
 00000214,-0.00004604,-0.00005057,-0.00001630,-0.00002326,-0.00065622,0
 .00066459,-0.00000086,0.00092542,-0.00080358,-0.00313248,-0.01981433,0
 .01245220,-0.00500698,0.01690408,-0.00782080,0.00244567,-0.11600923,0.
 10750022,0.00005475,0.00003030,-0.00001898,-0.00002755,-0.00010066,-0.
 00002455,-0.00000161,0.00003027,0.00002354,-0.00000249,-0.00001729,-0.
 00001339,0.00000901,0.00000405,-0.00000623,0.00000094,0.00000673,0.000
 01268,-0.00000147,-0.00000464,-0.00000578,-0.00004172,-0.00001822,-0.0
 0006798,0.00004881,-0.00001651,0.00002296,0.00000479,-0.00001128,0.000
 00620,-0.00000503,-0.00001280,0.00000672,0.00001791,-0.00001960,0.0000
 1108,-0.00003713,-0.00001806,-0.00005136,0.00003760,0.00009688,0.00004
 212,0.00000660,0.00000693,0.00000273,0.00000898,0.00000129,0.00000564,
 -0.00000131,-0.00000101,-0.00000541,0.00000269,0.00000247,0.00000398,-
 0.00000004,-0.00000765,0.00000190,0.00000264,-0.00000744,-0.00000225,0
 .00000064,-0.00000057,-0.00000497,0.00000377,-0.00000434,-0.00000353,0
 .00000288,0.00000244,0.00000890,0.00000120,0.00000707,0.00000102,-0.00
 003995,-0.00004309,-0.00002114,0.00003962,0.00004588,0.00009098,0.0000
 0569,0.00000338,-0.00001317,0.00001323,0.00001358,-0.00001895,-0.00000
 503,0.00000531,-0.00000295,-0.00013615,0.00006740,-0.00001000,0.000093
 65,0.00014043,0.00001285,-0.00001050,0.00037257,0.00092237,-0.00047129
 ,-0.00072192,-0.00034843,-0.00028580,-0.00029467,-0.00013166,-0.000061
 30,0.00007126,-0.00005750,-0.00003337,-0.00004265,0.00005258,0.0248315
 7,-0.01191144,0.00800987,-0.05028777,0.02805301,-0.06169046,-0.0000022
 7,-0.00000531,-0.00000119,0.00000035,0.00001758,0.00001023,-0.00002528
 ,-0.00005568,-0.00004094,0.00006073,0.00001532,-0.00000552,-0.00014988
 ,0.00012157,0.00004277,-0.00048537,-0.00054293,-0.00016617,-0.00002947
 ,0.00016700,0.00011282,0.00018565,0.00025973,-0.00035299,0.00003188,0.
 00003840,0.00002395,0.00012531,0.00014494,0.00015227,-0.00002680,-0.00
 000995,0.00006894,-0.00009716,-0.00001819,-0.00001593,0.00008949,-0.00
 006009,-0.00010721,0.00004303,0.00008203,0.00004120,-0.00004013,-0.000
 03215,-0.00001023,-0.00017059,0.00070010,0.00113088,0.00198552,-0.0032
 0041,-0.00430093,-0.00575632,0.00422947,-0.00252350,-0.02218471,0.0088
 2870,-0.00417098,0.05270855,-0.02638754,0.06337310\\0.00000047,0.00000
 005,-0.00000081,0.00000032,-0.00000012,-0.00000039,0.,-0.00000030,-0.0
 0000067,-0.00000022,-0.00000004,-0.00000127,0.00000048,0.00000003,-0.0
 0000130,-0.00000045,0.00000033,-0.00000080,-0.00000064,-0.00000003,-0.
 00000063,0.00000008,0.00000001,-0.00000068,-0.00000062,-0.00000010,-0.
 00000052,0.00000039,-0.00000011,-0.00000096,0.00000070,-0.00000003,-0.
 00000052,0.00000083,0.00000006,-0.00000102,0.00000050,0.00000003,-0.00
 000042,0.00000034,0.00000046,-0.00000038,-0.00000008,-0.00000001,-0.00
 000156,0.00000032,-0.00000009,-0.00000145,0.00000013,0.00000013,-0.000
 00117,0.00000061,0.00000006,-0.00000156,0.00000058,-0.00000009,-0.0000
 0099,-0.00000020,-0.00000009,-0.00000106,-0.00000056,0.00000004,-0.000
 00119,-0.00000083,-0.00000005,-0.00000077,-0.00000084,0.00000011,-0.00
 000035,-0.00000041,-0.00000011,-0.00000022,-0.00000003,0.00000005,-0.0
 0000045,-0.00000041,-0.00000002,-0.00000029,-0.00000087,-0.00000014,-0
 .00000091,-0.00000044,0.00000014,-0.00000109,-0.00000083,0.00000014,-0
 .00000050,-0.00000059,0.00000010,0.00000089,-0.00000060,0.00000012,0.0
 0000107,0.00000003,-0.00000029,0.00000077,0.00000020,0.00000008,0.0000
 0116,-0.00000051,-0.00000015,0.00000131,0.00000065,0.00000011,0.000000
 70,0.00000044,-0.00000003,0.00000040,0.00000025,0.,0.00000067,0.000000
 62,-0.00000018,0.00000056,-0.00000033,-0.00000014,0.00000094,-0.000000
 69,-0.00000001,0.00000048,-0.00000090,0.00000010,0.00000106,-0.0000004
 7,0.00000008,0.00000038,-0.00000010,-0.00000016,0.00000006,0.00000016,
 0.00000009,0.00000152,-0.00000027,-0.00000017,0.00000140,-0.00000019,0
 .00000010,0.00000115,-0.00000063,0.00000005,0.00000152,-0.00000063,-0.
 00000006,0.00000097,0.00000015,-0.00000013,0.00000112,0.00000065,0.000
 00015,0.00000122,0.00000087,0.00000016,0.00000042,0.00000042,-0.000000
 03,0.00000029,0.00000078,-0.00000017,0.00000068,0.,0.00000011,0.000000
 47,0.00000026,-0.00000011,0.00000032,0.00000085,0.00000009,0.00000051,
 0.00000086,-0.00000005,0.00000090,0.00000037,0.00000006,0.00000097\\\@


 AND ALL THIS SCIENCE I DON'T UNDERSTAND
 IT'S JUST MY JOB FIVE DAYS A WEEK

                           -- ELTON JOHN, "ROCKET MAN"
 File lengths (MBytes):  RWF=    744 Int=      0 D2E=      0 Chk=     11 Scr=      1
 Normal termination of Gaussian 16 at Sun Feb  5 19:37:07 2023.
real 15231.59
user 60288.93
sys 58.08
