You are running Q-Chem version: 5.3.2

#
# job setting
#
local host:  tnxt-0442.cluster
current dir: /scratch/user/peterli3819/peterli3819/12613603_1663277321000000150524368
input file:  qchem_test.inp
output file: 
nprocs     : 0
nthreads   : 8
#
# qchem installation setting
#
QC:          /sw/restricted/qchem/sw/5.3.2
QCAUX:       /sw/restricted/qchem/sw/5.3.2/qcaux
QCPROG:      /sw/restricted/qchem/sw/5.3.2/exe/qcprog.exe_s
QCPROG_S:    /sw/restricted/qchem/sw/5.3.2/exe/qcprog.exe_s
PARALLEL:    -DSERIAL
QCMPI:       seq
#
# qchem directory setting
#
qcrun:       qchem44522
QCSCRATCH:   /scratch/user/peterli3819/peterli3819/12613603_1663277321000000150524368
QCLOCALSCR:  
QCTMPDIR:    /scratch/user/peterli3819/peterli3819/12613603_1663277321000000150524368
QCFILEPREF:  /scratch/user/peterli3819/peterli3819/12613603_1663277321000000150524368/qchem44522
QCSAVEDIR:   
workdirs:    /scratch/user/peterli3819/peterli3819/12613603_1663277321000000150524368/qchem44522
workdir0:    /scratch/user/peterli3819/peterli3819/12613603_1663277321000000150524368/qchem44522
partmpdirs =  
#
# parallel setting
#
QCRSH:           ssh
QCMPI:           seq
QCMPIRUN:        
QCMACHINEFILE:   /scratch/user/peterli3819/peterli3819/12613603_1663277321000000150524368/qchem44522/hostfile

#
# env setting
#
exported envs:   QC QCAUX QCSCRATCH QCRUNNAME QCFILEPREF QCPROG QCPROG_S GUIFILE

Running Job 1 of 1 qchem_test.inp
qchem qchem_test.inp_44522.0 /scratch/user/peterli3819/peterli3819/12613603_1663277321000000150524368/qchem44522/ 0
/sw/restricted/qchem/sw/5.3.2/exe/qcprog.exe_s qchem_test.inp_44522.0 /scratch/user/peterli3819/peterli3819/12613603_1663277321000000150524368/qchem44522/
                  Welcome to Q-Chem
     A Quantum Leap Into The Future Of Chemistry


 Q-Chem 5.3, Q-Chem, Inc., Pleasanton, CA (2020)

 License issued to: MRG Daniel Tabor and Mike Hall, Texas A&M University

 Yihan Shao,  Zhengting Gan,  E. Epifanovsky,  A. T. B. Gilbert,  M. Wormit,  
 J. Kussmann,  A. W. Lange,  A. Behn,  Jia Deng,  Xintian Feng,  D. Ghosh,  
 M. Goldey,  P. R. Horn,  L. D. Jacobson,  I. Kaliman,  T. Kus,  A. Landau,  
 Jie Liu,  E. I. Proynov,  R. M. Richard,  R. P. Steele,  E. J. Sundstrom,  
 H. L. Woodcock III,  P. M. Zimmerman,  D. Zuev,  B. Alam,  B. Albrecht,  
 A. Aldossary,  E. Alguire,  S. A. Baeppler,  D. Barton,  Z. Benda,  
 Y. A. Bernard,  E. J. Berquist,  K. B. Bravaya,  H. Burton,  K. Carter-Fenk,  
 D. Casanova,  Chun-Min Chang,  Yunqing Chen,  A. Chien,  K. D. Closser,  
 M. P. Coons,  S. Coriani,  S. Dasgupta,  A. L. Dempwolff,  M. Diedenhofen,  
 Hainam Do,  R. G. Edgar,  Po-Tung Fang,  S. Faraji,  S. Fatehi,  
 Qingguo Feng,  J. Fosso-Tande,  J. Gayvert,  Qinghui Ge,  A. Ghysels,  
 G. Gidofalvi,  J. Gomes,  J. Gonthier,  S. Gulania,  A. Gunina,  D. Hait,  
 M. W. D. Hanson-Heine,  S. Hammes-Schiffer,  P. H. P. Harbach,  
 A. W. Hauser,  M. F. Herbst,  J. E. Herr,  E. G. Hohenstein,  Z. C. Holden,  
 S. Houck,  Kerwin Hui,  B. C. Huynh,  M. Ivanov,  T.-C. Jagau,  Hyunjun Ji,  
 B. Kaduk,  K. Khistyaev,  Jaehoon Kim,  P. Klunzinger,  K. Koh,  
 D. Kosenkov,  L. Koulias,  T. Kowalczyk,  C. M. Krauter,  A. Kunitsa,  
 Ka Un Lao,  A. Laurent,  K. V. Lawler,  Joonho Lee,  D. Lefrancois,  
 S. Lehtola,  D. S. Levine,  Yi-Pei Li,  You-Sheng Lin,  Fenglai Liu,  
 Kuan-Yu Liu,  E. Livshits,  M. Loipersberger,  A. Luenser,  A. Manjanath,  
 P. Manohar,  E. Mansoor,  S. F. Manzer,  Shan-Ping Mao,  Yuezhi Mao,  
 N. Mardirossian,  A. V. Marenich,  T. Markovich,  L. A. Martinez-Martinez,  
 S. A. Maurer,  N. J. Mayhall,  S. C. McKenzie,  J.-M. Mewes,  P. Morgante,  
 A. F. Morrison,  J. W. Mullinax,  K. Nanda,  T. S. Nguyen-Beck,  
 R. Olivares-Amaya,  K. J. Oosterbaan,  J. A. Parkhill,  S. K. Paul,  
 F. Pavosevic,  Zheng Pei,  T. M. Perrine,  F. Plasser,  P. Pokhilko,  
 S. Prager,  A. Prociuk,  E. Ramos,  B. Rana,  D. R. Rehn,  F. Rob,  
 E. Rossomme,  M. Scheurer,  M. Schneider,  N. Sergueev,  S. M. Sharada,  
 S. Sharma,  W. Skomorowski,  D. W. Small,  T. Stauch,  C. J. Stein,  
 T. Stein,  Yu-Chuan Su,  S. P. Veccham,  Zhen Tao,  A. J. W. Thom,  
 A. Tkatchenko,  T. Tsuchimochi,  N. M. Tubman,  L. Vogt,  M. L. Vidal,  
 O. Vydrov,  M. A. Watson,  J. Wenzel,  M. de Wergifosse,  T. A. Wesolowski,  
 A. White,  J. Witte,  A. Yamada,  Jun Yang,  K. Yao,  S. Yeganeh,  
 S. R. Yost,  Zhi-Qiang You,  A. Zech,  Igor Ying Zhang,  Xing Zhang,  
 Yan Zhao,  Ying Zhu,  B. R. Brooks,  G. K. L. Chan,  C. J. Cramer,  
 M. S. Gordon,  W. J. Hehre,  A. Klamt,  M. W. Schmidt,  C. D. Sherrill,  
 D. G. Truhlar,  A. Aspuru-Guzik,  R. Baer,  A. T. Bell,  N. A. Besley,  
 Jeng-Da Chai,  A. E. DePrince, III,  R. A. DiStasio Jr.,  A. Dreuw,  
 B. D. Dunietz,  T. R. Furlani,  Chao-Ping Hsu,  Yousung Jung,  Jing Kong,  
 D. S. Lambrecht,  WanZhen Liang,  C. Ochsenfeld,  V. A. Rassolov,  
 L. V. Slipchenko,  J. E. Subotnik,  T. Van Voorhis,  J. M. Herbert,  
 A. I. Krylov,  P. M. W. Gill,  M. Head-Gordon

 Contributors to earlier versions of Q-Chem not listed above: 
 R. D. Adamson,  B. Austin,  J. Baker,  G. J. O. Beran,  K. Brandhorst,  
 S. T. Brown,  E. F. C. Byrd,  A. K. Chakraborty,  C.-L. Cheng,  
 Siu Hung Chien,  D. M. Chipman,  D. L. Crittenden,  H. Dachsel,  
 R. J. Doerksen,  A. D. Dutoi,  L. Fusti-Molnar,  W. A. Goddard III,  
 A. Golubeva-Zadorozhnaya,  S. R. Gwaltney,  G. Hawkins,  A. Heyden,  
 S. Hirata,  G. Kedziora,  F. J. Keil,  C. Kelley,  Jihan Kim,  R. A. King,  
 R. Z. Khaliullin,  P. P. Korambath,  W. Kurlancheek,  A. M. Lee,  M. S. Lee,  
 S. V. Levchenko,  Ching Yeh Lin,  D. Liotard,  R. C. Lochan,  I. Lotan,  
 P. E. Maslen,  N. Nair,  D. P. O'Neill,  D. Neuhauser,  E. Neuscamman,  
 C. M. Oana,  R. Olson,  B. Peters,  R. Peverati,  P. A. Pieniazek,  
 Y. M. Rhee,  J. Ritchie,  M. A. Rohrdanz,  E. Rosta,  N. J. Russ,  
 H. F. Schaefer III,  N. E. Schultz,  N. Shenvi,  A. C. Simmonett,  A. Sodt,  
 D. Stuck,  K. S. Thanthiriwatte,  V. Vanovschi,  Tao Wang,  A. Warshel,  
 C. F. Williams,  Q. Wu,  X. Xu,  W. Zhang

 Please cite Q-Chem as follows:
 Y. Shao et al., Mol. Phys. 113, 184-215 (2015)
 DOI: 10.1080/00268976.2014.952696

 Q-Chem 5.3.2 for Intel X86 EM64T Linux

 Parts of Q-Chem use Armadillo 9.800.1 (Horizon Scraper).
 http://arma.sourceforge.net/

 Q-Chem begins on Thu Sep 15 16:29:05 2022  

Host: 
0

     Scratch files written to /scratch/user/peterli3819/peterli3819/12613603_1663277321000000150524368/qchem44522//
 Dec820 |scratch|qcdevops|jenkins|workspace|build_RNUM 7711   
Processing $rem in /sw/restricted/qchem/sw/5.3.2/config/preferences:
Processing $rem in /home/peterli3819/.qchemrc:

 Q-Chem warning in module libgen/rem_setup.C, line 2945:

 Neither GIA nor STOLL is specified by user. Use STOLL as the default


Checking the input file for inconsistencies... 	...done.

--------------------------------------------------------------
User input:
--------------------------------------------------------------
$molecule
0 1
--
0 1
C       -2.881824    1.327886   -0.765903
C       -2.587448    0.144629    0.159929
C       -1.839198    0.616838    1.409145
C       -3.887555   -0.563516    0.554386
S       -1.587408   -1.122027   -0.750099
H       -3.514911    2.070364   -0.244641
H       -3.409558    0.997757   -1.676309
H       -1.948754    1.832611   -1.071456
H       -2.455112    1.348655    1.965150
H       -0.888440    1.109389    1.141978
H       -1.614039   -0.228084    2.081515
H       -4.540910    0.136486    1.105772
H       -3.688236   -1.431209    1.207140
H       -4.436961   -0.917322   -0.335154
H       -0.541372   -0.306583   -1.040964
--
0 1
C        3.971836    0.278752    0.536390
C        2.563037   -0.185634    0.158910
C        2.622799   -1.337578   -0.846836
C        1.782174   -0.611516    1.406854
S        1.617334    1.240140   -0.558133
H        4.534126   -0.554903    0.996609
H        3.935477    1.113234    1.256287
H        4.534571    0.615701   -0.351973
H        3.173567   -2.189984   -0.407991
H        3.146901   -1.038744   -1.771734
H        1.612336   -1.686673   -1.116151
H        2.315685   -1.439070    1.907765
H        0.770572   -0.965365    1.143394
H        1.689529    0.219552    2.127846
H        2.383787    1.405218   -1.662624
$end

$rem
JOBTYPE           eda
EDA2              2
METHOD            wB97X-D
BASIS             def2-SV(P)
SCF_CONVERGENCE   8
THRESH            14
SYMMETRY          false
DISP_FREE_X       wB97X-D
DISP_FREE_C       none
EDA_BSSE          true
$end
--------------------------------------------------------------
 ----------------------------------------------------------------
             Standard Nuclear Orientation (Angstroms)
    I     Atom           X                Y                Z
 ----------------------------------------------------------------
    1      C       2.8818239593    -1.3278861692    -0.7659027604
    2      C       2.5874479837    -0.1446291036     0.1599291635
    3      C       1.8391978952    -0.6168379944     1.4091451517
    4      C       3.8875550061     0.5635158407     0.5543861898
    5      S       1.5874081024     1.1220269076    -0.7500989513
    6      H       3.5149108903    -2.0703641791    -0.2446406908
    7      H       3.4095580230    -0.9977572477    -1.6763087520
    8      H       1.9487539446    -1.8326111304    -1.0714557795
    9      H       2.4551118252    -1.3486550015     1.9651502199
   10      H       0.8884398793    -1.1093889525     1.1419781312
   11      H       1.6140389121     0.2280840539     2.0815150966
   12      H       4.5409099382    -0.1364861689     1.1057722581
   13      H       3.6882360253     1.4312088865     1.2071401348
   14      H       4.4369610702     0.9173217620    -0.3351538019
   15      H       0.5413720687     0.3065829539    -1.0409639597
   16      C      -3.9718360425    -0.2787516988     0.5363898512
   17      C      -2.5630369968     0.1856341988     0.1589098956
   18      C      -2.6227988802     1.3375781498    -0.8468361675
   19      C      -1.7821740326     0.6115162181     1.4068539113
   20      S      -1.6173340456    -1.2401398942    -0.5581329840
   21      H      -4.5341260159     0.5549033583     0.9966087803
   22      H      -3.9354771265    -1.1132336633     1.2562868966
   23      H      -4.5345710190    -0.6157007121    -0.3519731586
   24      H      -3.1735668516     2.1899842050    -0.4079912388
   25      H      -3.1469008528     1.0387441323    -1.7717341774
   26      H      -1.6123358466     1.6866730764    -1.1161511365
   27      H      -2.3156850084     1.4390702756     1.9077648422
   28      H      -0.7705719990     0.9653651449     1.1433939421
   29      H      -1.6895291165    -0.2195517497     2.1278459592
   30      H      -2.3837870016    -1.4052179069    -1.6626240127
 ----------------------------------------------------------------
 Molecular Point Group                 C1    NOp =  1
 Largest Abelian Subgroup              C1    NOp =  1
 Nuclear Repulsion Energy =         757.09960798 hartrees
 There are       50 alpha and       50 beta electrons
 Requested basis set is def2-SV(P)
 There are 104 shells and 188 basis functions

 Total QAlloc Memory Limit  56000 MB
 Mega-Array Size       188 MB
 MEM_STATIC part       192 MB
 A cutoff of  1.0D-14 yielded   4848 shell pairs
 There are     15538 function pairs (     17122 Cartesian)
 Smallest overlap matrix eigenvalue = 1.95E-03

 Scale SEOQF with 1.000000e-01/1.000000e-01/1.000000e-01

 Standard Electronic Orientation quadrupole field applied
 Nucleus-field energy     =     0.0000000218 hartrees

 -----------------------------------------------------------------------
  General SCF calculation program by
  Eric Jon Sundstrom, Paul Horn, Yuezhi Mao, Dmitri Zuev, Alec White,
  David Stuck, Shaama M.S., Shane Yost, Joonho Lee, David Small,
  Daniel Levine, Susi Lehtola, Hugh Burton, Evgeny Epifanovsky,
  Bang C. Huynh
 -----------------------------------------------------------------------
================================================================
                 ALMO-EDA with the EDA2 driver                  
================================================================
 The second-generation ALMO-EDA (for DFT):                      
 P. R. Horn, Y. Mao and M. Head-Gordon, PCCP, 18, 23067 (2016)  
 Decomposition of the frozen energy:                            
 P. R. Horn, Y. Mao and M. Head-Gordon, JCP, 144, 114107 (2016) 
Using eda2 option set 2
Option set summary: Frozen orbital wavefunction, initial wavefunction decomposition, and traditional AO-based POL.
--------------------------------
Printing EDA Options
--------------------------------
eda_child_super_basis      0
fragmo_guess_mode          0
child_mp                   0
child_mp_orders            0
cls_elec                   1
cls_disp                   0
scfmi_mode                 1
scfmi_occs                 0
scfmi_virts                0
frz_relax                  0
frz_relax_method           0
dc_pen_start               0
dc_pen_conv                0
dc_pen_increment           0
dc_pen_steps               0
dc_pen_thresh_factor       0
dc_pen_pre_newton_thresh   0
frz_ortho_decomp           1
frz_ortho_decomp_conv      6
plot_mo_ortho_frz          0
frgm_method                2
scfmi_freeze_ss            0
separate_rehyb             0
plot_diff_den              0
eda_nocv                   0
eda_vct_relax              1
disp_free_x                -110
disp_free_c                0
eda_bsse                   1
eda_pct_a                  0
eda_covp                   0
--------------------------------
Attempting to make child job directory: /scratch/user/peterli3819/peterli3819/12613603_1663277321000000150524368/qchem44522//Frg1/
Attempting to make child job directory: /scratch/user/peterli3819/peterli3819/12613603_1663277321000000150524368/qchem44522//Frg2/
Creating input file /scratch/user/peterli3819/peterli3819/12613603_1663277321000000150524368/qchem44522/Frg1.input
using default PutDataFrgm: nothing
calling putenv with: QCSCRATCH=/scratch/user/peterli3819/peterli3819/12613603_1663277321000000150524368/qchem44522/ 
Spawning Job For Fragment 0
Done Job For Fragment 0
calling putenv with: QCSCRATCH=/scratch/user/peterli3819/peterli3819/12613603_1663277321000000150524368 
calling putenv with: QCTHREADS=8 
Creating input file /scratch/user/peterli3819/peterli3819/12613603_1663277321000000150524368/qchem44522/Frg2.input
using default PutDataFrgm: nothing
calling putenv with: QCSCRATCH=/scratch/user/peterli3819/peterli3819/12613603_1663277321000000150524368/qchem44522/ 
Spawning Job For Fragment 1
Done Job For Fragment 1
calling putenv with: QCSCRATCH=/scratch/user/peterli3819/peterli3819/12613603_1663277321000000150524368 
calling putenv with: QCTHREADS=8 
Doing General SCFMI
 Exchange:     0.2220 Hartree-Fock + 1.0000 wB97X-D + LR-HF
 Correlation:  1.0000 wB97X-D
 Using SG-2 standard quadrature grid
 Dispersion:   Grimme D
performing fock build before subrot guess so that all methods have access
Printing subrot_rss_gen Method Specification:
Occupied Subspace Method is 0
Virtual Subspace Method is 0
Energy of the unrelaxed supersystem initial determinant -1112.651427774383
write pseudocanon occs and virts to disk
write pseudocanon orbital energies to disk
Tolerance of ortho_decomp_scf: 1.00e-06
GDM subspace size: 20
Beginning the Orthogonal Decomposition of the Initial Supersystem Wavefunction
    1   -1112.6196059931      6.37e-02     ortho_decomp Preconditoned Steepest Descent
    2   -1112.6264975009      6.37e-04     ortho_decomp BFGS Step
    3   -1112.6265013071      3.23e-05     ortho_decomp BFGS Step
    4   -1112.6265013240      2.14e-06     ortho_decomp BFGS Step
    5   -1112.6265013240      8.21e-08     ortho_decomp 00000 Convergence criterion met
 Exchange:     0.2220 Hartree-Fock + 1.0000 wB97X-D + LR-HF
 Correlation:  1.0000 wB97X-D
 Using SG-2 standard quadrature grid
 Dispersion:   Grimme D
 Long-range K will be added via erf
 Coulomb attenuation parameter = 0.2 bohr**(-1)
 Exchange:     0.2220 Hartree-Fock + 1.0000 wB97X-D + LR-HF
 Correlation:  1.0000 wB97X-D
 Using SG-2 standard quadrature grid
 Dispersion:   Grimme D
 Long-range K will be added via erf
 Coulomb attenuation parameter = 0.2 bohr**(-1)
 Exchange:     0.2220 Hartree-Fock + 1.0000 wB97X-D + LR-HF
 Correlation:  1.0000 wB97X-D
 Using SG-2 standard quadrature grid
 Dispersion:   Grimme D
 Long-range K will be added via erf
 Coulomb attenuation parameter = 0.2 bohr**(-1)
Doing General SCFMI
 Exchange:     0.2220 Hartree-Fock + 1.0000 wB97X-D + LR-HF
 Correlation:  1.0000 wB97X-D
 Using SG-2 standard quadrature grid
 Dispersion:   Grimme D
performing fock build at end of subrot_r(subrot) constructor so that all methods have access
<S^2> of initial wavefunction before polarization iterations 0.0000000000
Beginning iterations for the determination of the polarized wavefunction
Energy prior to optimization (guess energy) = -1112.651427774381
Begin Timing: Total SCF Calculation
begin iterations for algorithm: DIIS         
the SCF tolerance is set to 1.00e-08
    1   -1112.6514277744      1.88e-04     00000 
    2   -1112.6519496737      6.00e-05     00000 
    3   -1112.6519885779      2.86e-05     00000 
    4   -1112.6519978737      9.70e-06     00000 
    5   -1112.6519989688      2.89e-06     00000 
    6   -1112.6519990922      9.22e-07     00000 
    7   -1112.6519991055      3.13e-07     00000 
    8   -1112.6519991073      7.57e-08     00000 
    9   -1112.6519991075      2.60e-08     00000 
   10   -1112.6519991075      9.34e-09     00000 Convergence criterion met
write pseudocanon occs and virts to disk
write pseudocanon orbital energies to disk
Timing for Total SCF: 17.00s (wall), 133.62s (cpu)
<S^2> of polarized wavefunction after polarization iterations 0.0000000000
relaxing scfmi constraint to allow all rotations in the entire AO span
Doing General SCFMI
 Exchange:     0.2220 Hartree-Fock + 1.0000 wB97X-D + LR-HF
 Correlation:  1.0000 wB97X-D
 Using SG-2 standard quadrature grid
 Dispersion:   Grimme D
performing fock build at end of subrot_r(subrot) constructor so that all methods have access
<S^2> of polarized wavefunction before ct-allowed iterations 0.0000000000
Beginning iterations for the determination of the CT-Allowed wavefunction
Energy prior to optimization (guess energy) = -1112.651999107532
Begin Timing: Total SCF Calculation
begin iterations for algorithm: DIIS         
the SCF tolerance is set to 1.00e-08
    1   -1112.6519991075      6.93e-04     00000 
    2   -1112.6584158648      8.10e-05     00000 
    3   -1112.6588716922      2.36e-05     00000 
    4   -1112.6589111646      1.28e-05     00000 
    5   -1112.6589157140      2.51e-06     00000 
    6   -1112.6589159084      1.05e-06     00000 
    7   -1112.6589159408      2.56e-07     00000 
    8   -1112.6589159423      7.67e-08     00000 
    9   -1112.6589159426      1.90e-08     00000 
   10   -1112.6589159426      6.61e-09     00000 Convergence criterion met
write pseudocanon occs and virts to disk
write pseudocanon orbital energies to disk
Timing for Total SCF: 18.00s (wall), 137.56s (cpu)
<S^2> of ct_allowed wavefunction after ct-allowed iterations 0.0000000000
Attempting to make child job directory: /scratch/user/peterli3819/peterli3819/12613603_1663277321000000150524368/qchem44522//FrgBSSE1/
Attempting to make child job directory: /scratch/user/peterli3819/peterli3819/12613603_1663277321000000150524368/qchem44522//FrgBSSE2/
Creating input file /scratch/user/peterli3819/peterli3819/12613603_1663277321000000150524368/qchem44522/FrgBSSE1.input
calling putenv with: QCSCRATCH=/scratch/user/peterli3819/peterli3819/12613603_1663277321000000150524368/qchem44522/ 
Spawning Job For Fragment 0
Done Job For Fragment 0
calling putenv with: QCSCRATCH=/scratch/user/peterli3819/peterli3819/12613603_1663277321000000150524368 
calling putenv with: QCTHREADS=8 
Creating input file /scratch/user/peterli3819/peterli3819/12613603_1663277321000000150524368/qchem44522/FrgBSSE2.input
calling putenv with: QCSCRATCH=/scratch/user/peterli3819/peterli3819/12613603_1663277321000000150524368/qchem44522/ 
Spawning Job For Fragment 1
Done Job For Fragment 1
calling putenv with: QCSCRATCH=/scratch/user/peterli3819/peterli3819/12613603_1663277321000000150524368 
calling putenv with: QCTHREADS=8 
====================================================================
   Evaluating the BSSE with fragment SCF in the supersystem basis
   Fragment contributions (kJ/mol) 
   Frgm 1: 5.1869
   Frgm 2: 4.7400
   BSSE (kJ/mol) = 9.9269
====================================================================

================================
        Results of EDA2         
================================
Basic EDA Quantities
--------------------
Fragment Energies (Ha):
1 -556.3246621424
2 -556.3246007979
--------------------
  E_prp (kJ/mol) = -0.0000
  E_frz (kJ/mol) = -5.6838
  E_pol (kJ/mol) = -1.5001
  E_vct (kJ/mol) = -8.2335 (CP-corrected)
  E_int (kJ/mol) = -15.4174 (CP-corrected)
--------------------


Decomposition of frozen interaction energy
--------------------
  --------------------
  Orthogonal Frozen Decomposition:
  --------------------
     E_elec   (ELEC)   (kJ/mol) = -32.3166
     E_pauli  (PAULI)  (kJ/mol) = 40.3400
     E_disp   (DISP)   (kJ/mol) = -13.7072
  --------------------
  Classical Frozen Decomposition:
  --------------------
     E_cls_elec  (CLS ELEC)  (kJ/mol) = -14.8925
     E_mod_pauli (MOD PAULI) (kJ/mol) = 22.9159 (FRZ - CLS ELEC - DISP)
     E_disp      (DISP)      (kJ/mol) = -13.7072
  --------------------
--------------------

Simplified EDA Summary (kJ/mol)
--------------------
 PREPARATION      -0.0000
 FROZEN           -5.6838 (ELEC + PAULI + DISP)
[ELEC + PAULI = 8.0234, DISP = -13.7072]
 POLARIZATION    -1.5001
 CHARGE TRANSFER -8.2335     (counterpoise-corrected)
 TOTAL           -15.4174     (PRP + FRZ + POL + CT)
--------------------
 
 --------------------------------------------------------------
 
                    Orbital Energies (a.u.)
 --------------------------------------------------------------
 
 Alpha MOs
 -- Occupied --
-88.9964 -88.9759 -10.3461 -10.3343 -10.2921 -10.2917 -10.2895 -10.2852
-10.2817 -10.2816  -8.0543  -8.0343  -6.0094  -6.0057  -5.9988  -5.9892
 -5.9856  -5.9790  -0.9339  -0.9223  -0.8053  -0.7895  -0.7849  -0.7846
 -0.7772  -0.7743  -0.6343  -0.6230  -0.5574  -0.5472  -0.5373  -0.5362
 -0.5282  -0.5273  -0.4921  -0.4835  -0.4811  -0.4731  -0.4552  -0.4525
 -0.4468  -0.4401  -0.4284  -0.4253  -0.4184  -0.4160  -0.3898  -0.3792
 -0.3183  -0.3021
 -- Virtual --
  0.0882   0.1114   0.1287   0.1382   0.1487   0.1601   0.1834   0.1921
  0.1932   0.1967   0.2010   0.2030   0.2089   0.2156   0.2204   0.2233
  0.2414   0.2437   0.2497   0.2535   0.2639   0.2708   0.2866   0.2883
  0.2917   0.2962   0.3108   0.3185   0.4075   0.4468   0.4664   0.4732
  0.4795   0.4883   0.5025   0.5107   0.5188   0.5462   0.5482   0.5828
  0.5950   0.6135   0.6373   0.6426   0.6599   0.6747   0.6863   0.7044
  0.7127   0.7236   0.7283   0.7337   0.7368   0.7403   0.7438   0.7513
  0.7581   0.7624   0.7704   0.7762   0.7813   0.7845   0.7849   0.8012
  0.8051   0.8127   0.8142   0.8202   0.8264   0.8383   0.8404   0.8516
  0.8564   0.8672   0.8723   0.8785   0.8870   0.8982   0.9085   0.9128
  0.9217   0.9576   0.9772   1.0048   1.0300   1.0373   1.0523   1.0831
  1.0971   1.1671   1.1810   1.2033   1.2136   1.2204   1.2330   1.2725
  1.2999   1.3125   1.5114   1.5263   1.5308   1.5408   1.7919   1.8012
  1.8893   1.8896   1.9011   1.9111   1.9815   1.9955   2.0132   2.0191
  2.0217   2.0453   2.1011   2.1038   2.1121   2.1167   2.1606   2.1839
  2.2240   2.2296   2.2330   2.2359   2.2418   2.2507   2.2602   2.2729
  2.5205   2.5275   2.5290   2.5317   2.5387   2.5520   2.7349   2.7407
  2.7467   2.7507
 --------------------------------------------------------------
 
          Ground-State Mulliken Net Atomic Charges

     Atom                 Charge (a.u.)
  ----------------------------------------
      1 C                    -0.237702
      2 C                    -0.363918
      3 C                    -0.246755
      4 C                    -0.256014
      5 S                    -0.191679
      6 H                     0.111458
      7 H                     0.125398
      8 H                     0.122725
      9 H                     0.112624
     10 H                     0.132278
     11 H                     0.129340
     12 H                     0.119678
     13 H                     0.128308
     14 H                     0.130006
     15 H                     0.174452
     16 C                    -0.229108
     17 C                    -0.365956
     18 C                    -0.239945
     19 C                    -0.281328
     20 S                    -0.154530
     21 H                     0.117139
     22 H                     0.129304
     23 H                     0.114677
     24 H                     0.118832
     25 H                     0.115282
     26 H                     0.133788
     27 H                     0.123953
     28 H                     0.144937
     29 H                     0.131559
     30 H                     0.151198
  ----------------------------------------
  Sum of atomic charges =     0.000000

 -----------------------------------------------------------------
                    Cartesian Multipole Moments
 -----------------------------------------------------------------
    Charge (ESU x 10^10)
                 0.0000
    Dipole Moment (Debye)
         X      -1.4574      Y      -0.5382      Z       0.4853
       Tot       1.6276
    Quadrupole Moments (Debye-Ang)
        XX     -73.8314     XY      -3.9852     YY     -84.8821
        XZ       3.7362     YZ       2.3231     ZZ     -80.4643
    Octopole Moments (Debye-Ang^2)
       XXX      -5.5622    XXY      -1.5885    XYY      -2.8566
       YYY      -0.2847    XXZ      -0.2394    XYZ      -2.6504
       YYZ      -0.0889    XZZ      -9.0945    YZZ      -4.6921
       ZZZ      -3.1268
    Hexadecapole Moments (Debye-Ang^3)
      XXXX   -3272.8467   XXXY     -10.7140   XXYY    -654.9150
      XYYY      -8.1764   YYYY    -606.7677   XXXZ      23.1096
      XXYZ      13.3327   XYYZ       9.1088   YYYZ       8.7424
      XXZZ    -626.7213   XYZZ       6.5144   YYZZ    -178.0410
      XZZZ      14.3659   YZZZ       9.6207   ZZZZ    -508.3865
 -----------------------------------------------------------------
Archival summary:
1\1\tnxt-0442.cluster\SP\ProcedureUnspecified\BasisUnspecified\2820\peterli3\ThuSep1516:31:352022ThuSep1516:31:352022\0\\#,ProcedureUnspecified,BasisUnspecified,\\0,1\S\H,1,1.35784\C,1,1.85274,2,96.3418\C,3,1.53082,1,110.358,2,-62.835,0\H,4,1.10303,3,111.157,1,-58.2554,0\H,4,1.1036,3,111.175,1,62.4429,0\H,4,1.10637,3,110.001,1,-178.199,0\C,3,1.53099,1,109.581,2,58.979,0\H,8,1.10287,3,111.091,1,57.4911,0\H,8,1.10396,3,110.991,1,-62.9788,0\H,8,1.10625,3,110.11,1,177.619,0\C,3,1.5321,1,105.575,2,177.96,0\H,12,1.10377,3,111.288,1,-60.3663,0\H,12,1.10395,3,111.242,1,60.5334,0\H,12,1.10494,3,109.72,1,-179.979,0\H,2,2.55905,1,109.315,3,148.633,0\C,16,1.10247,2,126.4,1,-148.496,0\H,17,1.10427,16,108.427,2,-96.8082,0\H,17,1.10568,16,108.023,2,146.7,0\C,17,1.53038,16,111.29,2,26.0831,0\C,20,1.53064,17,110.763,16,179.353,0\H,21,1.10269,20,111.116,17,179.641,0\H,21,1.10426,20,111.298,17,59.0785,0\H,21,1.10587,20,109.993,17,-60.3274,0\C,20,1.53248,17,110.236,16,56.5667,0\H,25,1.10361,20,111.209,17,-56.1247,0\H,25,1.10412,20,111.428,17,-177.55,0\H,25,1.10471,20,109.35,17,63.1858,0\S,20,1.85508,17,110.146,16,-59.5468,0\H,29,1.35447,20,96.9145,17,-56.9914,0\\\@

 Total job time:  149.38s(wall), 570.72s(cpu) 
 Thu Sep 15 16:31:35 2022

        *************************************************************
        *                                                           *
        *  Thank you very much for using Q-Chem.  Have a nice day.  *
        *                                                           *
        *************************************************************


remove work dirs /scratch/user/peterli3819/peterli3819/12613603_1663277321000000150524368/qchem44522.0 -- /scratch/user/peterli3819/peterli3819/12613603_1663277321000000150524368/qchem44522.-1
rm -rf /scratch/user/peterli3819/peterli3819/12613603_1663277321000000150524368/qchem44522
real 160.63
user 895.21
sys 30.86
