 Entering Gaussian System, Link 0=g16
 Input=gaussian_test.inp
 Output=gaussian_test.log
 Initial command:
 /sw/restricted/lms/sw/Gaussian/g16_B01/g16/l1.exe "/scratch/user/peterchao1/peterchao1/9993809_1712001847000000270494681/Gau-247695.inp" -scrdir="/scratch/user/peterchao1/peterchao1/9993809_1712001847000000270494681/"
 Entering Link 1 = /sw/restricted/lms/sw/Gaussian/g16_B01/g16/l1.exe PID=    247702.
  
 Copyright (c) 1988-2017, Gaussian, Inc.  All Rights Reserved.
  
 This is part of the Gaussian(R) 16 program.  It is based on
 the Gaussian(R) 09 system (copyright 2009, Gaussian, Inc.),
 the Gaussian(R) 03 system (copyright 2003, Gaussian, Inc.),
 the Gaussian(R) 98 system (copyright 1998, Gaussian, Inc.),
 the Gaussian(R) 94 system (copyright 1995, Gaussian, Inc.),
 the Gaussian 92(TM) system (copyright 1992, Gaussian, Inc.),
 the Gaussian 90(TM) system (copyright 1990, Gaussian, Inc.),
 the Gaussian 88(TM) system (copyright 1988, Gaussian, Inc.),
 the Gaussian 86(TM) system (copyright 1986, Carnegie Mellon
 University), and the Gaussian 82(TM) system (copyright 1983,
 Carnegie Mellon University). Gaussian is a federally registered
 trademark of Gaussian, Inc.
  
 This software contains proprietary and confidential information,
 including trade secrets, belonging to Gaussian, Inc.
  
 This software is provided under written license and may be
 used, copied, transmitted, or stored only in accord with that
 written license.
  
 The following legend is applicable only to US Government
 contracts under FAR:
  
                    RESTRICTED RIGHTS LEGEND
  
 Use, reproduction and disclosure by the US Government is
 subject to restrictions as set forth in subparagraphs (a)
 and (c) of the Commercial Computer Software - Restricted
 Rights clause in FAR 52.227-19.
  
 Gaussian, Inc.
 340 Quinnipiac St., Bldg. 40, Wallingford CT 06492
  
  
 ---------------------------------------------------------------
 Warning -- This program may not be used in any manner that
 competes with the business of Gaussian, Inc. or will provide
 assistance to any competitor of Gaussian, Inc.  The licensee
 of this program is prohibited from giving any competitor of
 Gaussian, Inc. access to this program.  By using this program,
 the user acknowledges that Gaussian, Inc. is engaged in the
 business of creating and licensing software in the field of
 computational chemistry and represents and warrants to the
 licensee that it is not a competitor of Gaussian, Inc. and that
 it will not use this program in any manner prohibited above.
 ---------------------------------------------------------------
  

 Cite this work as:
 Gaussian 16, Revision B.01,
 M. J. Frisch, G. W. Trucks, H. B. Schlegel, G. E. Scuseria, 
 M. A. Robb, J. R. Cheeseman, G. Scalmani, V. Barone, 
 G. A. Petersson, H. Nakatsuji, X. Li, M. Caricato, A. V. Marenich, 
 J. Bloino, B. G. Janesko, R. Gomperts, B. Mennucci, H. P. Hratchian, 
 J. V. Ortiz, A. F. Izmaylov, J. L. Sonnenberg, D. Williams-Young, 
 F. Ding, F. Lipparini, F. Egidi, J. Goings, B. Peng, A. Petrone, 
 T. Henderson, D. Ranasinghe, V. G. Zakrzewski, J. Gao, N. Rega, 
 G. Zheng, W. Liang, M. Hada, M. Ehara, K. Toyota, R. Fukuda, 
 J. Hasegawa, M. Ishida, T. Nakajima, Y. Honda, O. Kitao, H. Nakai, 
 T. Vreven, K. Throssell, J. A. Montgomery, Jr., J. E. Peralta, 
 F. Ogliaro, M. J. Bearpark, J. J. Heyd, E. N. Brothers, K. N. Kudin, 
 V. N. Staroverov, T. A. Keith, R. Kobayashi, J. Normand, 
 K. Raghavachari, A. P. Rendell, J. C. Burant, S. S. Iyengar, 
 J. Tomasi, M. Cossi, J. M. Millam, M. Klene, C. Adamo, R. Cammi, 
 J. W. Ochterski, R. L. Martin, K. Morokuma, O. Farkas, 
 J. B. Foresman, and D. J. Fox, Gaussian, Inc., Wallingford CT, 2016.
 
 ******************************************
 Gaussian 16:  ES64L-G16RevB.01 20-Dec-2017
                 1-Apr-2024 
 ******************************************
 %nprocshared=4
 Will use up to    4 processors via shared memory.
 %mem=8000mb
 %chk=dimer.chk
 %nprocshared=4
 Will use up to    4 processors via shared memory.
 %mem=8000mb
 ----------------------------------------------------------------------
 #T wB97XD/def2svpp opt=tight freq int(grid=ultrafine) scf=(verytight,q
 c) Volume=tight
 ----------------------------------------------------------------------
 -----
 Dimer
 -----
 Symbolic Z-matrix:
 Charge =  0 Multiplicity = 1
 C                     2.42653  -0.67515  -1.70429 
 C                     2.37877  -0.44949  -0.21044 
 C                     2.0017   -1.66759   0.59766 
 Cl                    3.96035   0.21126   0.37691 
 N                     1.45475   0.69011   0.08236 
 O                     1.47444   1.6332   -0.66282 
 O                     0.75449   0.61161   1.06451 
 H                     1.44279  -0.99335  -2.04505 
 H                     3.15665  -1.44352  -1.93993 
 H                     2.69483   0.24383  -2.21936 
 H                     1.94768  -1.42973   1.65701 
 H                     2.74291  -2.44697   0.44778 
 H                     1.03162  -2.04055   0.27669 
 C                    -2.00473   1.66876  -0.59586 
 C                    -2.37894   0.44907   0.21111 
 C                    -2.42402   0.67248   1.70541 
 Cl                   -3.96112  -0.21245  -0.37404 
 N                    -1.45423  -0.68895  -0.08494 
 O                    -0.75411  -0.60741  -1.06693 
 O                    -1.47296  -1.63402   0.65784 
 H                    -1.95313   1.43272  -1.65574 
 H                    -1.03409   2.04174  -0.27661 
 H                    -2.7461    2.4474   -0.44284 
 H                    -1.44001   0.99146   2.04465 
 H                    -2.69012  -0.24764   2.21959 
 H                    -3.15466   1.43954   1.94367 
 
 Add virtual bond connecting atoms O19        and H8         Dist= 4.60D+00.
 Add virtual bond connecting atoms O20        and H13        Dist= 4.85D+00.
 Add virtual bond connecting atoms H22        and O6         Dist= 4.86D+00.
 Add virtual bond connecting atoms H24        and O7         Dist= 4.60D+00.

 GradGradGradGradGradGradGradGradGradGradGradGradGradGradGradGradGradGrad
 Initialization pass.
                           ----------------------------
                           !    Initial Parameters    !
                           ! (Angstroms and Degrees)  !
 --------------------------                            --------------------------
 ! Name  Definition              Value          Derivative Info.                !
 --------------------------------------------------------------------------------
 ! R1    R(1,2)                  1.5116         estimate D2E/DX2                !
 ! R2    R(1,8)                  1.0886         estimate D2E/DX2                !
 ! R3    R(1,9)                  1.0858         estimate D2E/DX2                !
 ! R4    R(1,10)                 1.0871         estimate D2E/DX2                !
 ! R5    R(2,3)                  1.5096         estimate D2E/DX2                !
 ! R6    R(2,4)                  1.8119         estimate D2E/DX2                !
 ! R7    R(2,5)                  1.4961         estimate D2E/DX2                !
 ! R8    R(3,11)                 1.0871         estimate D2E/DX2                !
 ! R9    R(3,12)                 1.086          estimate D2E/DX2                !
 ! R10   R(3,13)                 1.0877         estimate D2E/DX2                !
 ! R11   R(5,6)                  1.2021         estimate D2E/DX2                !
 ! R12   R(5,7)                  1.2088         estimate D2E/DX2                !
 ! R13   R(6,22)                 2.5708         estimate D2E/DX2                !
 ! R14   R(7,24)                 2.4333         estimate D2E/DX2                !
 ! R15   R(8,19)                 2.4356         estimate D2E/DX2                !
 ! R16   R(13,20)                2.5658         estimate D2E/DX2                !
 ! R17   R(14,15)                1.5096         estimate D2E/DX2                !
 ! R18   R(14,21)                1.0871         estimate D2E/DX2                !
 ! R19   R(14,22)                1.0877         estimate D2E/DX2                !
 ! R20   R(14,23)                1.086          estimate D2E/DX2                !
 ! R21   R(15,16)                1.5116         estimate D2E/DX2                !
 ! R22   R(15,17)                1.812          estimate D2E/DX2                !
 ! R23   R(15,18)                1.4959         estimate D2E/DX2                !
 ! R24   R(16,24)                1.0886         estimate D2E/DX2                !
 ! R25   R(16,25)                1.0871         estimate D2E/DX2                !
 ! R26   R(16,26)                1.0858         estimate D2E/DX2                !
 ! R27   R(18,19)                1.2088         estimate D2E/DX2                !
 ! R28   R(18,20)                1.2022         estimate D2E/DX2                !
 ! A1    A(2,1,8)              108.9314         estimate D2E/DX2                !
 ! A2    A(2,1,9)              109.9598         estimate D2E/DX2                !
 ! A3    A(2,1,10)             110.4777         estimate D2E/DX2                !
 ! A4    A(8,1,9)              109.4424         estimate D2E/DX2                !
 ! A5    A(8,1,10)             108.7726         estimate D2E/DX2                !
 ! A6    A(9,1,10)             109.2339         estimate D2E/DX2                !
 ! A7    A(1,2,3)              114.6113         estimate D2E/DX2                !
 ! A8    A(1,2,4)              110.3179         estimate D2E/DX2                !
 ! A9    A(1,2,5)              109.0656         estimate D2E/DX2                !
 ! A10   A(3,2,4)              109.8014         estimate D2E/DX2                !
 ! A11   A(3,2,5)              110.83           estimate D2E/DX2                !
 ! A12   A(4,2,5)              101.4136         estimate D2E/DX2                !
 ! A13   A(2,3,11)             110.9476         estimate D2E/DX2                !
 ! A14   A(2,3,12)             109.5566         estimate D2E/DX2                !
 ! A15   A(2,3,13)             109.9664         estimate D2E/DX2                !
 ! A16   A(11,3,12)            108.9926         estimate D2E/DX2                !
 ! A17   A(11,3,13)            108.5574         estimate D2E/DX2                !
 ! A18   A(12,3,13)            108.7784         estimate D2E/DX2                !
 ! A19   A(2,5,6)              117.7849         estimate D2E/DX2                !
 ! A20   A(2,5,7)              117.8623         estimate D2E/DX2                !
 ! A21   A(6,5,7)              124.3404         estimate D2E/DX2                !
 ! A22   A(5,6,22)              90.892          estimate D2E/DX2                !
 ! A23   A(5,7,24)             147.0995         estimate D2E/DX2                !
 ! A24   A(1,8,19)             130.0215         estimate D2E/DX2                !
 ! A25   A(3,13,20)            140.5685         estimate D2E/DX2                !
 ! A26   A(15,14,21)           110.9486         estimate D2E/DX2                !
 ! A27   A(15,14,22)           109.9593         estimate D2E/DX2                !
 ! A28   A(15,14,23)           109.558          estimate D2E/DX2                !
 ! A29   A(21,14,22)           108.5568         estimate D2E/DX2                !
 ! A30   A(21,14,23)           108.9943         estimate D2E/DX2                !
 ! A31   A(22,14,23)           108.7822         estimate D2E/DX2                !
 ! A32   A(14,15,16)           114.6095         estimate D2E/DX2                !
 ! A33   A(14,15,17)           109.803          estimate D2E/DX2                !
 ! A34   A(14,15,18)           110.8316         estimate D2E/DX2                !
 ! A35   A(16,15,17)           110.3137         estimate D2E/DX2                !
 ! A36   A(16,15,18)           109.0573         estimate D2E/DX2                !
 ! A37   A(17,15,18)           101.4262         estimate D2E/DX2                !
 ! A38   A(15,16,24)           108.9303         estimate D2E/DX2                !
 ! A39   A(15,16,25)           110.4736         estimate D2E/DX2                !
 ! A40   A(15,16,26)           109.9621         estimate D2E/DX2                !
 ! A41   A(24,16,25)           108.7758         estimate D2E/DX2                !
 ! A42   A(24,16,26)           109.442          estimate D2E/DX2                !
 ! A43   A(25,16,26)           109.2341         estimate D2E/DX2                !
 ! A44   A(15,18,19)           117.8712         estimate D2E/DX2                !
 ! A45   A(15,18,20)           117.7832         estimate D2E/DX2                !
 ! A46   A(19,18,20)           124.3335         estimate D2E/DX2                !
 ! A47   A(8,19,18)            146.9296         estimate D2E/DX2                !
 ! A48   A(13,20,18)            91.0062         estimate D2E/DX2                !
 ! A49   A(6,22,14)            140.5484         estimate D2E/DX2                !
 ! A50   A(7,24,16)            130.0856         estimate D2E/DX2                !
 ! D1    D(8,1,2,3)             60.0666         estimate D2E/DX2                !
 ! D2    D(8,1,2,4)           -175.3961         estimate D2E/DX2                !
 ! D3    D(8,1,2,5)            -64.8333         estimate D2E/DX2                !
 ! D4    D(9,1,2,3)            -59.8638         estimate D2E/DX2                !
 ! D5    D(9,1,2,4)             64.6735         estimate D2E/DX2                !
 ! D6    D(9,1,2,5)            175.2364         estimate D2E/DX2                !
 ! D7    D(10,1,2,3)           179.4895         estimate D2E/DX2                !
 ! D8    D(10,1,2,4)           -55.9732         estimate D2E/DX2                !
 ! D9    D(10,1,2,5)            54.5896         estimate D2E/DX2                !
 ! D10   D(2,1,8,19)            24.7799         estimate D2E/DX2                !
 ! D11   D(9,1,8,19)           145.0301         estimate D2E/DX2                !
 ! D12   D(10,1,8,19)          -95.6982         estimate D2E/DX2                !
 ! D13   D(1,2,3,11)          -177.7907         estimate D2E/DX2                !
 ! D14   D(1,2,3,12)            61.8249         estimate D2E/DX2                !
 ! D15   D(1,2,3,13)           -57.6814         estimate D2E/DX2                !
 ! D16   D(4,2,3,11)            57.3994         estimate D2E/DX2                !
 ! D17   D(4,2,3,12)           -62.985          estimate D2E/DX2                !
 ! D18   D(4,2,3,13)           177.5086         estimate D2E/DX2                !
 ! D19   D(5,2,3,11)           -53.8249         estimate D2E/DX2                !
 ! D20   D(5,2,3,12)          -174.2093         estimate D2E/DX2                !
 ! D21   D(5,2,3,13)            66.2843         estimate D2E/DX2                !
 ! D22   D(1,2,5,6)            -39.166          estimate D2E/DX2                !
 ! D23   D(1,2,5,7)            142.056          estimate D2E/DX2                !
 ! D24   D(3,2,5,6)           -166.2465         estimate D2E/DX2                !
 ! D25   D(3,2,5,7)             14.9755         estimate D2E/DX2                !
 ! D26   D(4,2,5,6)             77.2295         estimate D2E/DX2                !
 ! D27   D(4,2,5,7)           -101.5485         estimate D2E/DX2                !
 ! D28   D(2,3,13,20)          -83.435          estimate D2E/DX2                !
 ! D29   D(11,3,13,20)          38.1125         estimate D2E/DX2                !
 ! D30   D(12,3,13,20)         156.5852         estimate D2E/DX2                !
 ! D31   D(2,5,6,22)           147.4778         estimate D2E/DX2                !
 ! D32   D(7,5,6,22)           -33.8306         estimate D2E/DX2                !
 ! D33   D(2,5,7,24)          -138.9919         estimate D2E/DX2                !
 ! D34   D(6,5,7,24)            42.3174         estimate D2E/DX2                !
 ! D35   D(5,6,22,14)          -79.6904         estimate D2E/DX2                !
 ! D36   D(5,7,24,16)           52.812          estimate D2E/DX2                !
 ! D37   D(1,8,19,18)          -53.2414         estimate D2E/DX2                !
 ! D38   D(3,13,20,18)          79.5961         estimate D2E/DX2                !
 ! D39   D(21,14,15,16)        177.8264         estimate D2E/DX2                !
 ! D40   D(21,14,15,17)        -57.3693         estimate D2E/DX2                !
 ! D41   D(21,14,15,18)         53.8719         estimate D2E/DX2                !
 ! D42   D(22,14,15,16)         57.722          estimate D2E/DX2                !
 ! D43   D(22,14,15,17)       -177.4737         estimate D2E/DX2                !
 ! D44   D(22,14,15,18)        -66.2325         estimate D2E/DX2                !
 ! D45   D(23,14,15,16)        -61.7855         estimate D2E/DX2                !
 ! D46   D(23,14,15,17)         63.0188         estimate D2E/DX2                !
 ! D47   D(23,14,15,18)        174.26           estimate D2E/DX2                !
 ! D48   D(15,14,22,6)          83.2899         estimate D2E/DX2                !
 ! D49   D(21,14,22,6)         -38.254          estimate D2E/DX2                !
 ! D50   D(23,14,22,6)        -156.7306         estimate D2E/DX2                !
 ! D51   D(14,15,16,24)        -60.0521         estimate D2E/DX2                !
 ! D52   D(14,15,16,25)       -179.4757         estimate D2E/DX2                !
 ! D53   D(14,15,16,26)         59.8784         estimate D2E/DX2                !
 ! D54   D(17,15,16,24)        175.4131         estimate D2E/DX2                !
 ! D55   D(17,15,16,25)         55.9895         estimate D2E/DX2                !
 ! D56   D(17,15,16,26)        -64.6563         estimate D2E/DX2                !
 ! D57   D(18,15,16,24)         64.8419         estimate D2E/DX2                !
 ! D58   D(18,15,16,25)        -54.5817         estimate D2E/DX2                !
 ! D59   D(18,15,16,26)       -175.2275         estimate D2E/DX2                !
 ! D60   D(14,15,18,19)        -14.8535         estimate D2E/DX2                !
 ! D61   D(14,15,18,20)        166.3546         estimate D2E/DX2                !
 ! D62   D(16,15,18,19)       -141.9267         estimate D2E/DX2                !
 ! D63   D(16,15,18,20)         39.2814         estimate D2E/DX2                !
 ! D64   D(17,15,18,19)        101.6796         estimate D2E/DX2                !
 ! D65   D(17,15,18,20)        -77.1123         estimate D2E/DX2                !
 ! D66   D(15,16,24,7)         -24.7788         estimate D2E/DX2                !
 ! D67   D(25,16,24,7)          95.6955         estimate D2E/DX2                !
 ! D68   D(26,16,24,7)        -145.0309         estimate D2E/DX2                !
 ! D69   D(15,18,19,8)         139.3258         estimate D2E/DX2                !
 ! D70   D(20,18,19,8)         -41.9686         estimate D2E/DX2                !
 ! D71   D(15,18,20,13)       -147.3905         estimate D2E/DX2                !
 ! D72   D(19,18,20,13)         33.9028         estimate D2E/DX2                !
 --------------------------------------------------------------------------------
 Number of steps in this run=    156 maximum allowed number of steps=    156.
 GradGradGradGradGradGradGradGradGradGradGradGradGradGradGradGradGradGrad

                    Distance matrix (angstroms):
                    1          2          3          4          5
     1  C    0.000000
     2  C    1.511558   0.000000
     3  C    2.542514   1.509618   0.000000
     4  Cl   2.733081   1.811894   2.723070   0.000000
     5  N    2.449579   1.496077   2.474555   2.567891   0.000000
     6  O    2.705476   2.315182   3.572391   3.046748   1.202122
     7  O    3.481055   2.321577   2.639738   3.303119   1.208779
     8  H    1.088622   2.130172   2.784035   3.695274   2.712946
     9  H    1.085816   2.141107   2.797045   2.958377   3.396841
    10  H    1.087110   2.148572   3.474122   2.888458   2.652338
    11  H    3.478083   2.152691   1.087072   2.895236   2.686306
    12  H    2.805509   2.134427   1.085959   2.924619   3.410895
    13  H    2.781072   2.140927   1.087744   3.695697   2.770074
    14  C    5.134063   4.883714   5.348569   6.217137   3.658660
    15  C    5.293880   4.860138   4.880539   6.345914   3.843420
    16  C    6.080291   5.291131   5.127377   6.537413   4.204693
    17  Cl   6.541074   6.346427   6.214241   7.968254   5.509499
    18  N    4.205083   3.842520   3.656103   5.508295   3.223659
    19  O    3.244577   3.251688   3.389591   4.998102   2.807761
    20  O    4.658871   4.122234   3.475340   5.744980   3.782095
    21  H    4.860746   4.939330   5.507301   6.371249   3.896938
    22  H    4.625540   4.225900   4.872316   5.359303   2.854836
    23  H    6.172323   5.891539   6.368459   7.116788   4.583777
    24  H    5.637582   4.663143   4.583638   5.705610   3.510136
    25  H    6.462169   5.624890   5.163337   6.916268   4.756790
    26  H    6.994939   6.231169   6.168794   7.388284   5.027203
                    6          7          8          9         10
     6  O    0.000000
     7  O    2.132054   0.000000
     8  H    2.968215   3.566375   0.000000
     9  H    3.731894   4.361263   1.775107   0.000000
    10  H    2.417128   3.831972   1.768787   1.771585   0.000000
    11  H    3.871321   2.437586   3.761725   3.794707   4.287810
    12  H    4.414777   3.699880   3.165048   2.622835   3.788981
    13  H    3.817743   2.780540   2.579948   3.128194   3.770268
    14  C    3.480000   3.389358   4.590468   6.175166   5.172243
    15  C    4.124857   3.251633   4.666527   6.233107   5.629608
    16  C    4.661486   3.243051   5.638538   6.993553   6.464531
    17  Cl   5.747616   4.998549   5.710017   7.391219   6.922071
    18  N    3.781984   2.809120   3.511036   5.026978   4.758204
    19  O    3.185915   2.881831   2.435580   4.093318   3.734691
    20  O    4.594125   3.189005   4.027116   5.312058   5.401396
    21  H    3.574115   3.924949   4.191617   5.870549   4.830597
    22  H    2.570753   2.653850   4.298147   5.698767   4.572919
    23  H    4.303977   4.230409   5.652660   7.226540   6.133140
    24  H    4.029426   2.433272   5.382909   6.552508   5.986461
    25  H    5.402718   3.733342   5.985325   7.274364   6.995961
    26  H    5.315999   4.091437   6.554797   7.951540   7.278535
                   11         12         13         14         15
    11  H    0.000000
    12  H    1.769016   0.000000
    13  H    1.765660   1.767201   0.000000
    14  C    5.504330   6.369349   4.872340   0.000000
    15  C    4.933573   5.888674   4.223077   1.509593   0.000000
    16  C    4.851119   6.165208   4.619864   2.542481   1.511575
    17  Cl   6.365593   7.114246   5.356561   2.723157   1.811988
    18  N    3.893084   4.581529   2.852540   2.474449   1.495943
    19  O    3.923741   4.231730   2.654810   2.639487   2.321554
    20  O    3.569426   4.298673   2.565819   3.572517   2.315088
    21  H    5.863808   6.444350   4.970569   1.087068   2.152678
    22  H    4.967994   5.910926   4.608508   1.087747   2.140818
    23  H    6.439955   7.407921   5.910198   1.085959   2.134423
    24  H    4.181974   5.645329   4.292754   2.783876   2.130176
    25  H    4.819021   6.123249   4.565157   3.474059   2.148536
    26  H    5.860780   7.219698   5.693393   2.797156   2.141148
                   16         17         18         19         20
    16  C    0.000000
    17  Cl   2.733107   0.000000
    18  N    2.449357   2.568099   0.000000
    19  O    3.480310   3.304689   1.208764   0.000000
    20  O    2.705887   3.045746   1.202176   2.132021   0.000000
    21  H    3.478076   2.895060   2.686598   2.438537   3.871449
    22  H    2.781222   3.695725   2.769468   2.778665   3.817986
    23  H    2.805182   2.925031   3.410822   3.699906   4.414784
    24  H    1.088627   3.695330   2.712783   3.564943   2.969424
    25  H    1.087111   2.888524   2.651988   3.831285   2.417137
    26  H    1.085812   2.958245   3.396648   4.360772   3.732052
                   21         22         23         24         25
    21  H    0.000000
    22  H    1.765653   0.000000
    23  H    1.769033   1.767246   0.000000
    24  H    3.761770   2.579950   3.164370   0.000000
    25  H    4.287765   3.770242   3.788786   1.768827   0.000000
    26  H    3.794662   3.128758   2.622620   1.775102   1.771584
                   26
    26  H    0.000000
 Framework group  C1[X(C6H12Cl2N2O4)]
 Deg. of freedom    72
                         Standard orientation:                         
 ---------------------------------------------------------------------
 Center     Atomic      Atomic             Coordinates (Angstroms)
 Number     Number       Type             X           Y           Z
 ---------------------------------------------------------------------
      1          6           0        2.469948   -0.604812   -1.667964
      2          6           0        2.392245   -0.389667   -0.173815
      3          6           0        2.032140   -1.621635    0.620872
      4         17           0        3.947257    0.306038    0.443349
      5          7           0        1.435773    0.725087    0.110318
      6          8           0        1.444396    1.672975   -0.628959
      7          8           0        0.721705    0.623334    1.080317
      8          1           0        1.500049   -0.944932   -2.026731
      9          1           0        3.222527   -1.353562   -1.895987
     10          1           0        2.723915    0.323654   -2.173197
     11          1           0        1.954971   -1.391758    1.680554
     12          1           0        2.794678   -2.381658    0.478719
     13          1           0        1.076911   -2.016286    0.281794
     14          6           0       -2.035228    1.622746   -0.619167
     15          6           0       -2.392410    0.389263    0.174440
     16          6           0       -2.467388    0.602222    1.669059
     17         17           0       -3.948038   -0.307237   -0.440546
     18          7           0       -1.435229   -0.723873   -0.112926
     19          8           0       -0.721384   -0.619082   -1.082748
     20          8           0       -1.442808   -1.673701    0.623956
     21          1           0       -1.960511    1.394628   -1.679401
     22          1           0       -1.079409    2.017446   -0.281800
     23          1           0       -2.797946    2.381997   -0.473878
     24          1           0       -1.497214    0.943143    2.026329
     25          1           0       -2.719107   -0.327323    2.173435
     26          1           0       -3.220500    1.349632    1.899686
 ---------------------------------------------------------------------
 Rotational constants (GHZ):           1.2669991           0.2727387           0.2648235
   228 basis functions,   422 primitive gaussians,   242 cartesian basis functions
    64 alpha electrons       64 beta electrons
       nuclear repulsion energy      1266.8481521732 Hartrees.
 NAtoms=   26 NActive=   26 NUniq=   26 SFac= 1.00D+00 NAtFMM=   60 NAOKFM=F Big=F
 Nuclear repulsion after empirical dispersion term =     1266.8289077795 Hartrees.
   1 Symmetry operations used in ECPInt.
 ECPInt:  NShTT=    6328 NPrTT=   26344 LenC2=    6035 LenP2D=   17687.
 LDataN:  DoStor=T MaxTD1= 4 Len=   56
 ExpMin= 1.22D-01 ExpMax= 1.04D+04 ExpMxC= 1.57D+03 IAcc=3 IRadAn=         5 AccDes= 0.00D+00
 Harris functional with IExCor= 4639 and IRadAn=       5 diagonalized for initial guess.
 HarFok:  IExCor= 4639 AccDes= 0.00D+00 IRadAn=         5 IDoV= 1 UseB2=F ITyADJ=14
 ICtDFT=  3500011 ScaDFX=  1.000000  1.000000  1.000000  1.000000
 FoFCou: FMM=F IPFlag=           0 FMFlag=      100000 FMFlg1=           0
         NFxFlg=           0 DoJE=T BraDBF=F KetDBF=T FulRan=T
         wScrn=  0.000000 ICntrl=       500 IOpCl=  0 I1Cent=   200000004 NGrid=           0
         NMat0=    1 NMatS0=      1 NMatT0=    0 NMatD0=    1 NMtDS0=    0 NMtDT0=    0
 Petite list used in FoFCou.
     Accept linear search using points  1 and  2.
     Accept linear search using points  2 and  3.
     Accept linear search using points  1 and  2.
     Accept linear search using points  1 and  2.
     Minimum is close to point  2 DX= -1.73D-04 DF= -1.14D-12 DXR=  1.74D-04 DFR=  3.23D-08 which will be used.
 SCF Done:  E(RwB97XD) =  -1565.49075474     a.u. after    9 cycles
            Convg  =    0.4434D-09                    46 Fock formations.
              S**2 =  0.0000                  -V/T =  2.0042

 **********************************************************************

            Population analysis using the SCF Density.

 **********************************************************************

 Orbital symmetries:
       Occupied  (A) (A) (A) (A) (A) (A) (A) (A) (A) (A) (A) (A)
                 (A) (A) (A) (A) (A) (A) (A) (A) (A) (A) (A) (A)
                 (A) (A) (A) (A) (A) (A) (A) (A) (A) (A) (A) (A)
                 (A) (A) (A) (A) (A) (A) (A) (A) (A) (A) (A) (A)
                 (A) (A) (A) (A) (A) (A) (A) (A) (A) (A) (A) (A)
                 (A) (A) (A) (A)
       Virtual   (A) (A) (A) (A) (A) (A) (A) (A) (A) (A) (A) (A)
                 (A) (A) (A) (A) (A) (A) (A) (A) (A) (A) (A) (A)
                 (A) (A) (A) (A) (A) (A) (A) (A) (A) (A) (A) (A)
                 (A) (A) (A) (A) (A) (A) (A) (A) (A) (A) (A) (A)
                 (A) (A) (A) (A) (A) (A) (A) (A) (A) (A) (A) (A)
                 (A) (A) (A) (A) (A) (A) (A) (A) (A) (A) (A) (A)
                 (A) (A) (A) (A) (A) (A) (A) (A) (A) (A) (A) (A)
                 (A) (A) (A) (A) (A) (A) (A) (A) (A) (A) (A) (A)
                 (A) (A) (A) (A) (A) (A) (A) (A) (A) (A) (A) (A)
                 (A) (A) (A) (A) (A) (A) (A) (A) (A) (A) (A) (A)
                 (A) (A) (A) (A) (A) (A) (A) (A) (A) (A) (A) (A)
                 (A) (A) (A) (A) (A) (A) (A) (A) (A) (A) (A) (A)
                 (A) (A) (A) (A) (A) (A) (A) (A) (A) (A) (A) (A)
                 (A) (A) (A) (A) (A) (A) (A) (A)
 The electronic state is 1-A.
 Alpha  occ. eigenvalues -- -101.68545-101.68545 -19.30854 -19.30852 -19.30792
 Alpha  occ. eigenvalues --  -19.30785 -14.69974 -14.69969 -10.42628 -10.42625
 Alpha  occ. eigenvalues --  -10.30681 -10.30680 -10.30463 -10.30461  -9.59370
 Alpha  occ. eigenvalues --   -9.59370  -7.34778  -7.34778  -7.33770  -7.33770
 Alpha  occ. eigenvalues --   -7.33728  -7.33728  -1.36495  -1.36114  -1.18136
 Alpha  occ. eigenvalues --   -1.18030  -1.01274  -1.01116  -0.89427  -0.89166
 Alpha  occ. eigenvalues --   -0.82093  -0.81656  -0.81636  -0.81607  -0.68012
 Alpha  occ. eigenvalues --   -0.68009  -0.67197  -0.64917  -0.63078  -0.62639
 Alpha  occ. eigenvalues --   -0.62624  -0.62291  -0.56066  -0.56042  -0.54505
 Alpha  occ. eigenvalues --   -0.54329  -0.51481  -0.51354  -0.50499  -0.50455
 Alpha  occ. eigenvalues --   -0.47678  -0.46930  -0.46817  -0.46531  -0.43250
 Alpha  occ. eigenvalues --   -0.42320  -0.41740  -0.41726  -0.40040  -0.40007
 Alpha  occ. eigenvalues --   -0.39714  -0.39674  -0.39464  -0.39402
 Alpha virt. eigenvalues --   -0.02444  -0.00565   0.09847   0.09890   0.14914
 Alpha virt. eigenvalues --    0.15541   0.16616   0.17926   0.18915   0.20256
 Alpha virt. eigenvalues --    0.21769   0.22404   0.22906   0.23014   0.23301
 Alpha virt. eigenvalues --    0.24010   0.24118   0.24298   0.26732   0.27316
 Alpha virt. eigenvalues --    0.28165   0.28702   0.35503   0.38908   0.43189
 Alpha virt. eigenvalues --    0.44263   0.44415   0.46043   0.49445   0.50127
 Alpha virt. eigenvalues --    0.51022   0.52735   0.54177   0.54488   0.55107
 Alpha virt. eigenvalues --    0.56909   0.57716   0.59256   0.63265   0.63596
 Alpha virt. eigenvalues --    0.65060   0.65812   0.69980   0.70197   0.72413
 Alpha virt. eigenvalues --    0.72866   0.73335   0.73386   0.73575   0.74285
 Alpha virt. eigenvalues --    0.75648   0.75703   0.76371   0.78014   0.78398
 Alpha virt. eigenvalues --    0.79046   0.79871   0.80219   0.80742   0.81181
 Alpha virt. eigenvalues --    0.81926   0.83100   0.83792   0.84632   0.86397
 Alpha virt. eigenvalues --    0.86580   0.87662   0.87841   0.90240   0.90393
 Alpha virt. eigenvalues --    0.91476   0.92162   0.92223   0.94651   0.98361
 Alpha virt. eigenvalues --    1.00131   1.01623   1.02538   1.03279   1.05539
 Alpha virt. eigenvalues --    1.06659   1.06981   1.10407   1.11247   1.12481
 Alpha virt. eigenvalues --    1.14805   1.16164   1.16555   1.19375   1.20699
 Alpha virt. eigenvalues --    1.23086   1.25721   1.27612   1.28729   1.29783
 Alpha virt. eigenvalues --    1.30061   1.35136   1.35919   1.37193   1.42275
 Alpha virt. eigenvalues --    1.47095   1.48527   1.53274   1.53687   1.62476
 Alpha virt. eigenvalues --    1.69151   1.69509   1.71949   1.83451   1.85693
 Alpha virt. eigenvalues --    1.86149   1.86194   1.86980   1.87141   1.98386
 Alpha virt. eigenvalues --    1.98863   1.99294   2.01753   2.07099   2.07654
 Alpha virt. eigenvalues --    2.10909   2.11131   2.14791   2.14860   2.21416
 Alpha virt. eigenvalues --    2.22240   2.22907   2.24101   2.25462   2.25916
 Alpha virt. eigenvalues --    2.35633   2.35710   2.43838   2.44052   2.51099
 Alpha virt. eigenvalues --    2.51194   2.53037   2.53912   2.54678   2.56019
 Alpha virt. eigenvalues --    2.64756   2.65595   2.68835   2.69353   2.70205
 Alpha virt. eigenvalues --    2.71159   2.72601   2.73272   2.74030   2.75353
 Alpha virt. eigenvalues --    2.85432   2.86709   3.13608   3.17100   3.23580
 Alpha virt. eigenvalues --    3.24673   3.38227   3.38491   3.53059   3.53874
 Alpha virt. eigenvalues --    3.81203   3.84109   3.87318   3.87363
          Condensed to atoms (all electrons):
 Mulliken charges:
               1
     1  C   -0.229266
     2  C   -0.192399
     3  C   -0.212371
     4  Cl  -0.078605
     5  N    0.279166
     6  O   -0.212358
     7  O   -0.254119
     8  H    0.164406
     9  H    0.140596
    10  H    0.157707
    11  H    0.149864
    12  H    0.138481
    13  H    0.148816
    14  C   -0.212118
    15  C   -0.192424
    16  C   -0.229454
    17  Cl  -0.078600
    18  N    0.279127
    19  O   -0.253951
    20  O   -0.212431
    21  H    0.149823
    22  H    0.148756
    23  H    0.138483
    24  H    0.164530
    25  H    0.157726
    26  H    0.140616
 Sum of Mulliken charges =   0.00000
 Mulliken charges with hydrogens summed into heavy atoms:
               1
     1  C    0.233443
     2  C   -0.192399
     3  C    0.224790
     4  Cl  -0.078605
     5  N    0.279166
     6  O   -0.212358
     7  O   -0.254119
    14  C    0.224944
    15  C   -0.192424
    16  C    0.233417
    17  Cl  -0.078600
    18  N    0.279127
    19  O   -0.253951
    20  O   -0.212431
 Electronic spatial extent (au):  <R**2>=           4096.0019
 Charge=              0.0000 electrons
 Dipole moment (field-independent basis, Debye):
    X=             -0.0015    Y=             -0.0022    Z=              0.0043  Tot=              0.0050
 Evaluate density.
 Using the total density.
 Monte-Carlo method of calculating molar volume:
 based on  0.001 e/bohr**3 density envelope.
 Number of points per bohr**3 =  100 CutOff= 1.00D-04
 Using the SCF density.
 There are      2260 points.  Will hold      2260 in memory.
 LenV=  1047964531 MDV=  1048576000.
 Box volume =11554.817 fraction occupied=0.150
 Integrated density= 1.2269682308268725D+02 error=-5.3031769173127543D+00
 Molar volume = 1738.335 bohr**3/mol (155.127 cm**3/mol)
 Recommended a0 for SCRF calculation =  4.84 angstrom (  9.15 bohr)
   1 Symmetry operations used in ECPInt.
 ECPInt:  NShTT=    6328 NPrTT=   26344 LenC2=    6035 LenP2D=   17687.
 LDataN:  DoStor=T MaxTD1= 5 Len=  102
 Calling FoFJK, ICntrl=      2127 FMM=F ISym2X=0 I1Cent= 0 IOpClX= 0 NMat=1 NMatS=1 NMatT=0.

 GradGradGradGradGradGradGradGradGradGradGradGradGradGradGradGradGradGrad
 FormGI is forming the generalized inverse of G from B-inverse, IUseBI=4.
 Internal  Forces:  Max     0.023042973 RMS     0.004160653
 Step number   1 out of a maximum of  156
 All quantities printed in internal units (Hartrees-Bohrs-Radians)
 Mixed Optimization -- RFO/linear search
 Second derivative matrix not updated -- first step.
 ITU=  0
     Eigenvalues ---    0.00484   0.00528   0.00745   0.00812   0.00915
     Eigenvalues ---    0.01032   0.01273   0.01847   0.01998   0.02097
     Eigenvalues ---    0.02559   0.02661   0.03661   0.03829   0.04104
     Eigenvalues ---    0.04163   0.04708   0.04966   0.05173   0.05241
     Eigenvalues ---    0.05918   0.05967   0.06031   0.06346   0.06665
     Eigenvalues ---    0.07062   0.08312   0.08317   0.09103   0.09162
     Eigenvalues ---    0.10619   0.10954   0.11050   0.11156   0.11157
     Eigenvalues ---    0.11692   0.11753   0.13272   0.13325   0.13769
     Eigenvalues ---    0.16957   0.17556   0.18021   0.18421   0.21078
     Eigenvalues ---    0.21541   0.22189   0.23676   0.25195   0.25202
     Eigenvalues ---    0.29656   0.29946   0.30431   0.30569   0.31143
     Eigenvalues ---    0.31795   0.32800   0.33053   0.34473   0.35023
     Eigenvalues ---    0.35149   0.35149   0.35153   0.35154   0.35284
     Eigenvalues ---    0.35284   0.35301   0.35301   0.93126   0.95187
     Eigenvalues ---    1.00494   1.01698
 Linear search not attempted -- first point.
 Iteration  1 RMS(Cart)=  0.03639527 RMS(Int)=  0.00045884
 Iteration  2 RMS(Cart)=  0.00048836 RMS(Int)=  0.00011587
 Iteration  3 RMS(Cart)=  0.00000016 RMS(Int)=  0.00011587
 Variable       Old X    -DE/DX   Delta X   Delta X   Delta X     New X
                                 (Linear)    (Quad)   (Total)
    R1        2.85643   0.00291   0.00000   0.00940   0.00940   2.86583
    R2        2.05720   0.00977   0.00000   0.02904   0.02902   2.08622
    R3        2.05190   0.01026   0.00000   0.02835   0.02835   2.08025
    R4        2.05434   0.00790   0.00000   0.02193   0.02193   2.07627
    R5        2.85277   0.00230   0.00000   0.00639   0.00643   2.85920
    R6        3.42398   0.00221   0.00000   0.00846   0.00846   3.43245
    R7        2.82718   0.02300   0.00000   0.06828   0.06828   2.89545
    R8        2.05427   0.00765   0.00000   0.02121   0.02121   2.07548
    R9        2.05216   0.01036   0.00000   0.02864   0.02864   2.08080
   R10        2.05554   0.01109   0.00000   0.02903   0.02905   2.08459
   R11        2.27168   0.00684   0.00000   0.00662   0.00658   2.27826
   R12        2.28426   0.00745   0.00000   0.00762   0.00761   2.29187
   R13        4.85802   0.00068   0.00000   0.00435   0.00436   4.86238
   R14        4.59822   0.00052   0.00000   0.03203   0.03202   4.63024
   R15        4.60258   0.00051   0.00000   0.03170   0.03170   4.63428
   R16        4.84870   0.00070   0.00000   0.00495   0.00495   4.85365
   R17        2.85272   0.00232   0.00000   0.00644   0.00648   2.85919
   R18        2.05426   0.00766   0.00000   0.02124   0.02124   2.07550
   R19        2.05554   0.01108   0.00000   0.02901   0.02903   2.08457
   R20        2.05217   0.01036   0.00000   0.02863   0.02863   2.08080
   R21        2.85646   0.00291   0.00000   0.00941   0.00941   2.86587
   R22        3.42416   0.00216   0.00000   0.00828   0.00828   3.43245
   R23        2.82692   0.02304   0.00000   0.06836   0.06836   2.89529
   R24        2.05721   0.00977   0.00000   0.02902   0.02900   2.08620
   R25        2.05434   0.00791   0.00000   0.02193   0.02193   2.07627
   R26        2.05189   0.01026   0.00000   0.02835   0.02835   2.08024
   R27        2.28423   0.00744   0.00000   0.00762   0.00760   2.29183
   R28        2.27178   0.00682   0.00000   0.00660   0.00656   2.27834
    A1        1.90121   0.00074   0.00000   0.00904   0.00908   1.91029
    A2        1.91916  -0.00192   0.00000  -0.02054  -0.02056   1.89860
    A3        1.92820   0.00021   0.00000   0.00525   0.00512   1.93332
    A4        1.91013   0.00006   0.00000  -0.00512  -0.00512   1.90501
    A5        1.89844   0.00042   0.00000   0.00987   0.00971   1.90815
    A6        1.90649   0.00052   0.00000   0.00174   0.00175   1.90824
    A7        2.00034  -0.00074   0.00000  -0.02020  -0.02032   1.98003
    A8        1.92541  -0.00132   0.00000  -0.01162  -0.01220   1.91321
    A9        1.90355   0.00064   0.00000   0.00591   0.00581   1.90937
   A10        1.91640  -0.00067   0.00000  -0.01082  -0.01135   1.90504
   A11        1.93435  -0.00093   0.00000   0.00111   0.00118   1.93553
   A12        1.77000   0.00351   0.00000   0.04313   0.04323   1.81323
   A13        1.93640   0.00043   0.00000   0.00705   0.00698   1.94339
   A14        1.91212  -0.00234   0.00000  -0.02155  -0.02161   1.89051
   A15        1.91928   0.00048   0.00000   0.00069   0.00082   1.92010
   A16        1.90228   0.00059   0.00000   0.00336   0.00338   1.90566
   A17        1.89468   0.00014   0.00000   0.00884   0.00872   1.90340
   A18        1.89854   0.00074   0.00000   0.00184   0.00172   1.90026
   A19        2.05573  -0.00031   0.00000  -0.00406  -0.00417   2.05157
   A20        2.05709  -0.00006   0.00000   0.00012   0.00017   2.05725
   A21        2.17015   0.00038   0.00000   0.00439   0.00422   2.17437
   A22        1.58637  -0.00013   0.00000   0.00192   0.00189   1.58825
   A23        2.56737  -0.00235   0.00000  -0.01295  -0.01293   2.55444
   A24        2.26930   0.00118   0.00000   0.00870   0.00878   2.27809
   A25        2.45338   0.00191   0.00000   0.00836   0.00827   2.46165
   A26        1.93642   0.00043   0.00000   0.00705   0.00698   1.94340
   A27        1.91915   0.00049   0.00000   0.00077   0.00090   1.92005
   A28        1.91215  -0.00235   0.00000  -0.02157  -0.02163   1.89052
   A29        1.89467   0.00014   0.00000   0.00882   0.00869   1.90337
   A30        1.90231   0.00059   0.00000   0.00335   0.00338   1.90569
   A31        1.89861   0.00073   0.00000   0.00181   0.00169   1.90029
   A32        2.00031  -0.00074   0.00000  -0.02013  -0.02024   1.98007
   A33        1.91642  -0.00067   0.00000  -0.01085  -0.01137   1.90505
   A34        1.93438  -0.00094   0.00000   0.00099   0.00107   1.93545
   A35        1.92534  -0.00132   0.00000  -0.01155  -0.01213   1.91321
   A36        1.90341   0.00065   0.00000   0.00598   0.00588   1.90929
   A37        1.77022   0.00350   0.00000   0.04303   0.04313   1.81335
   A38        1.90119   0.00073   0.00000   0.00896   0.00899   1.91019
   A39        1.92813   0.00021   0.00000   0.00529   0.00515   1.93328
   A40        1.91920  -0.00192   0.00000  -0.02053  -0.02055   1.89866
   A41        1.89850   0.00042   0.00000   0.00987   0.00970   1.90820
   A42        1.91012   0.00007   0.00000  -0.00507  -0.00507   1.90505
   A43        1.90649   0.00052   0.00000   0.00172   0.00174   1.90823
   A44        2.05724  -0.00011   0.00000  -0.00010  -0.00006   2.05718
   A45        2.05571  -0.00029   0.00000  -0.00400  -0.00411   2.05160
   A46        2.17003   0.00041   0.00000   0.00455   0.00438   2.17441
   A47        2.56441  -0.00236   0.00000  -0.01293  -0.01290   2.55150
   A48        1.58836  -0.00014   0.00000   0.00186   0.00183   1.59019
   A49        2.45303   0.00191   0.00000   0.00832   0.00823   2.46126
   A50        2.27042   0.00118   0.00000   0.00866   0.00875   2.27917
    D1        1.04836  -0.00024   0.00000  -0.00621  -0.00625   1.04211
    D2       -3.06124  -0.00277   0.00000  -0.04557  -0.04544  -3.10668
    D3       -1.13155   0.00103   0.00000   0.00257   0.00252  -1.12903
    D4       -1.04482   0.00039   0.00000   0.00691   0.00685  -1.03797
    D5        1.12877  -0.00214   0.00000  -0.03246  -0.03234   1.09642
    D6        3.05845   0.00166   0.00000   0.01569   0.01562   3.07408
    D7        3.13268   0.00086   0.00000   0.01470   0.01468  -3.13582
    D8       -0.97692  -0.00168   0.00000  -0.02467  -0.02452  -1.00143
    D9        0.95277   0.00213   0.00000   0.02348   0.02345   0.97622
   D10        0.43249   0.00053   0.00000  -0.00194  -0.00190   0.43059
   D11        2.53125  -0.00133   0.00000  -0.02457  -0.02454   2.50671
   D12       -1.67025  -0.00042   0.00000  -0.01960  -0.01967  -1.68991
   D13       -3.10303  -0.00131   0.00000  -0.02126  -0.02125  -3.12428
   D14        1.07905  -0.00079   0.00000  -0.01588  -0.01579   1.06326
   D15       -1.00673  -0.00054   0.00000  -0.00524  -0.00522  -1.01195
   D16        1.00181   0.00155   0.00000   0.01830   0.01818   1.01999
   D17       -1.09930   0.00208   0.00000   0.02368   0.02364  -1.07565
   D18        3.09811   0.00232   0.00000   0.03431   0.03421   3.13232
   D19       -0.93942  -0.00177   0.00000  -0.02794  -0.02795  -0.96737
   D20       -3.04053  -0.00125   0.00000  -0.02256  -0.02249  -3.06302
   D21        1.15688  -0.00101   0.00000  -0.01192  -0.01192   1.14496
   D22       -0.68358   0.00022   0.00000   0.01608   0.01597  -0.66761
   D23        2.47934  -0.00037   0.00000  -0.00636  -0.00641   2.47293
   D24       -2.90155   0.00137   0.00000   0.03699   0.03703  -2.86452
   D25        0.26137   0.00078   0.00000   0.01455   0.01464   0.27602
   D26        1.34791   0.00068   0.00000   0.02626   0.02628   1.37419
   D27       -1.77236   0.00009   0.00000   0.00382   0.00390  -1.76845
   D28       -1.45622  -0.00080   0.00000  -0.01253  -0.01256  -1.46878
   D29        0.66519   0.00011   0.00000   0.00216   0.00218   0.66737
   D30        2.73293   0.00132   0.00000   0.01226   0.01225   2.74518
   D31        2.57397  -0.00123   0.00000  -0.01239  -0.01250   2.56147
   D32       -0.59046  -0.00061   0.00000   0.01157   0.01147  -0.57899
   D33       -2.42587   0.00030   0.00000   0.01683   0.01685  -2.40902
   D34        0.73858  -0.00033   0.00000  -0.00709  -0.00714   0.73144
   D35       -1.39086  -0.00127   0.00000  -0.04183  -0.04193  -1.43279
   D36        0.92174   0.00010   0.00000  -0.01117  -0.01107   0.91067
   D37       -0.92924  -0.00009   0.00000   0.01148   0.01138  -0.91786
   D38        1.38921   0.00129   0.00000   0.04220   0.04230   1.43152
   D39        3.10366   0.00131   0.00000   0.02108   0.02107   3.12473
   D40       -1.00128  -0.00155   0.00000  -0.01835  -0.01824  -1.01952
   D41        0.94024   0.00176   0.00000   0.02770   0.02771   0.96795
   D42        1.00744   0.00054   0.00000   0.00504   0.00503   1.01247
   D43       -3.09750  -0.00232   0.00000  -0.03438  -0.03428  -3.13178
   D44       -1.15598   0.00099   0.00000   0.01166   0.01166  -1.14431
   D45       -1.07836   0.00079   0.00000   0.01568   0.01559  -1.06277
   D46        1.09989  -0.00207   0.00000  -0.02375  -0.02371   1.07617
   D47        3.04141   0.00124   0.00000   0.02230   0.02223   3.06364
   D48        1.45368   0.00081   0.00000   0.01278   0.01282   1.46650
   D49       -0.66766  -0.00011   0.00000  -0.00194  -0.00195  -0.66961
   D50       -2.73546  -0.00131   0.00000  -0.01200  -0.01199  -2.74745
   D51       -1.04811   0.00025   0.00000   0.00612   0.00616  -1.04195
   D52       -3.13244  -0.00085   0.00000  -0.01475  -0.01473   3.13601
   D53        1.04508  -0.00039   0.00000  -0.00697  -0.00692   1.03816
   D54        3.06154   0.00277   0.00000   0.04541   0.04528   3.10682
   D55        0.97720   0.00167   0.00000   0.02454   0.02438   1.00159
   D56       -1.12847   0.00214   0.00000   0.03231   0.03220  -1.09627
   D57        1.13170  -0.00103   0.00000  -0.00269  -0.00264   1.12906
   D58       -0.95263  -0.00213   0.00000  -0.02356  -0.02353  -0.97617
   D59       -3.05830  -0.00166   0.00000  -0.01578  -0.01572  -3.07402
   D60       -0.25924  -0.00078   0.00000  -0.01484  -0.01494  -0.27419
   D61        2.90344  -0.00137   0.00000  -0.03733  -0.03737   2.86607
   D62       -2.47709   0.00037   0.00000   0.00599   0.00604  -2.47104
   D63        0.68559  -0.00022   0.00000  -0.01649  -0.01638   0.66921
   D64        1.77464  -0.00010   0.00000  -0.00424  -0.00432   1.77032
   D65       -1.34586  -0.00069   0.00000  -0.02672  -0.02675  -1.37261
   D66       -0.43247  -0.00052   0.00000   0.00223   0.00220  -0.43028
   D67        1.67020   0.00043   0.00000   0.01989   0.01995   1.69015
   D68       -2.53127   0.00134   0.00000   0.02487   0.02484  -2.50642
   D69        2.43169  -0.00030   0.00000  -0.01716  -0.01717   2.41452
   D70       -0.73249   0.00032   0.00000   0.00681   0.00686  -0.72563
   D71       -2.57245   0.00123   0.00000   0.01223   0.01234  -2.56011
   D72        0.59172   0.00060   0.00000  -0.01177  -0.01167   0.58005
         Item               Value     Threshold  Converged?
 Maximum Force            0.023043     0.000015     NO 
 RMS     Force            0.004161     0.000010     NO 
 Maximum Displacement     0.136161     0.000060     NO 
 RMS     Displacement     0.036352     0.000040     NO 
 GradGradGradGradGradGradGradGradGradGradGradGradGradGradGradGradGradGrad

                    Distance matrix (angstroms):
                    1          2          3          4          5
     1  C    0.000000
     2  C    1.516532   0.000000
     3  C    2.532807   1.513021   0.000000
     4  Cl   2.729262   1.816373   2.718747   0.000000
     5  N    2.488189   1.532207   2.508134   2.642559   0.000000
     6  O    2.741033   2.347273   3.600165   3.145637   1.205602
     7  O    3.518136   2.357119   2.682341   3.380590   1.212804
     8  H    1.103981   2.152603   2.780995   3.713624   2.759112
     9  H    1.100819   2.141653   2.767479   2.922156   3.441540
    10  H    1.098715   2.165373   3.482121   2.901384   2.704316
    11  H    3.487083   2.169178   1.098296   2.906355   2.735329
    12  H    2.771057   2.132820   1.101112   2.891233   3.451382
    13  H    2.775033   2.156044   1.103118   3.709126   2.799452
    14  C    5.188934   4.939531   5.394310   6.325189   3.690271
    15  C    5.347825   4.924506   4.936792   6.454270   3.890007
    16  C    6.125519   5.345438   5.183151   6.642679   4.233246
    17  Cl   6.645745   6.454585   6.322523   8.103513   5.586296
    18  N    4.233449   3.889162   3.688058   5.585314   3.271394
    19  O    3.278897   3.306204   3.423192   5.075602   2.870083
    20  O    4.677791   4.153622   3.495732   5.794300   3.813784
    21  H    4.941631   5.022194   5.579846   6.495969   3.957160
    22  H    4.663020   4.260129   4.898354   5.454461   2.860491
    23  H    6.244559   5.955229   6.419145   7.236302   4.617597
    24  H    5.676528   4.707816   4.633983   5.805745   3.524537
    25  H    6.531107   5.703346   5.243905   7.035289   4.811244
    26  H    7.040704   6.288214   6.234512   7.502667   5.051950
                    6          7          8          9         10
     6  O    0.000000
     7  O    2.141067   0.000000
     8  H    3.003019   3.611448   0.000000
     9  H    3.783759   4.398968   1.796627   0.000000
    10  H    2.471899   3.886119   1.796915   1.794392   0.000000
    11  H    3.923416   2.498613   3.780980   3.775688   4.317716
    12  H    4.444568   3.756607   3.138902   2.549384   3.766926
    13  H    3.833905   2.819422   2.566354   3.110199   3.782373
    14  C    3.500055   3.422654   4.639989   6.239972   5.251610
    15  C    4.156199   3.305983   4.710848   6.289856   5.707432
    16  C    4.680430   3.277501   5.677453   7.039434   6.533155
    17  Cl   5.796822   5.075683   5.809522   7.505055   7.040247
    18  N    3.813802   2.871234   3.525241   5.051620   4.812287
    19  O    3.227259   2.953146   2.452354   4.127054   3.792046
    20  O    4.614658   3.229929   4.037723   5.321919   5.444573
    21  H    3.612097   3.987085   4.266561   5.965316   4.929422
    22  H    2.573059   2.659808   4.333773   5.746840   4.636862
    23  H    4.334544   4.256438   5.722325   7.309587   6.233158
    24  H    4.040038   2.450216   5.419593   6.592215   6.047925
    25  H    5.446111   3.790949   6.047027   7.340392   7.087301
    26  H    5.325734   4.125262   6.594365   8.001671   7.344084
                   11         12         13         14         15
    11  H    0.000000
    12  H    1.792647   0.000000
    13  H    1.792842   1.793121   0.000000
    14  C    5.577331   6.419960   4.898265   0.000000
    15  C    5.017256   5.952797   4.257604   1.513021   0.000000
    16  C    4.933317   6.238469   4.658034   2.532864   1.516556
    17  Cl   6.490922   7.233970   5.451858   2.718753   1.816372
    18  N    3.953917   4.615645   2.858416   2.507990   1.532119
    19  O    3.986444   4.257924   2.660932   2.681778   2.356976
    20  O    3.607833   4.329633   2.568439   3.600277   2.347253
    21  H    5.962822   6.516325   5.023417   1.098307   2.169195
    22  H    5.021360   5.943414   4.617576   1.103109   2.156004
    23  H    6.512538   7.466433   5.942631   1.101110   2.132823
    24  H    4.258153   5.715955   4.328921   2.780894   2.152542
    25  H    4.919392   6.224650   4.630100   3.482150   2.165372
    26  H    5.956913   7.303815   5.742163   2.767677   2.141709
                   16         17         18         19         20
    16  C    0.000000
    17  Cl   2.729273   0.000000
    18  N    2.488069   2.642616   0.000000
    19  O    3.517478   3.381622   1.212786   0.000000
    20  O    2.741473   3.144830   1.205646   2.141113   0.000000
    21  H    3.487151   2.906135   2.735455   2.498941   3.923456
    22  H    2.775279   3.709101   2.798956   2.817591   3.834159
    23  H    2.770898   2.891529   3.451273   3.756260   4.444616
    24  H    1.103972   3.713583   2.758921   3.610117   3.003971
    25  H    1.098717   2.901446   2.704144   3.885634   2.472076
    26  H    1.100816   2.922125   3.441447   4.398480   3.784017
                   21         22         23         24         25
    21  H    0.000000
    22  H    1.792821   0.000000
    23  H    1.792671   1.793135   0.000000
    24  H    3.781017   2.566456   3.138441   0.000000
    25  H    4.317744   3.782490   3.766866   1.796941   0.000000
    26  H    3.775769   3.110764   2.549365   1.796644   1.794385
                   26
    26  H    0.000000
 Framework group  C1[X(C6H12Cl2N2O4)]
 Deg. of freedom    72
                         Standard orientation:                         
 ---------------------------------------------------------------------
 Center     Atomic      Atomic             Coordinates (Angstroms)
 Number     Number       Type             X           Y           Z
 ---------------------------------------------------------------------
      1          6           0        2.504963   -0.597753   -1.659341
      2          6           0        2.430206   -0.360045   -0.163422
      3          6           0        2.076622   -1.601137    0.626453
      4         17           0        4.018006    0.292075    0.430583
      5          7           0        1.437537    0.771403    0.123100
      6          8           0        1.419183    1.703812   -0.640938
      7          8           0        0.725546    0.667317    1.099382
      8          1           0        1.527653   -0.959896   -2.023335
      9          1           0        3.270716   -1.363030   -1.858780
     10          1           0        2.769645    0.328187   -2.188257
     11          1           0        2.014699   -1.386521    1.701795
     12          1           0        2.858735   -2.356478    0.452646
     13          1           0        1.108764   -2.004059    0.283271
     14          6           0       -2.079355    1.602047   -0.624964
     15          6           0       -2.430403    0.359681    0.164037
     16          6           0       -2.502783    0.595463    1.660402
     17         17           0       -4.018609   -0.293241   -0.427997
     18          7           0       -1.437072   -0.770298   -0.125499
     19          8           0       -0.725512   -0.663281   -1.101757
     20          8           0       -1.417569   -1.704436    0.636465
     21          1           0       -2.019554    1.388888   -1.700727
     22          1           0       -1.111026    2.005120   -0.283320
     23          1           0       -2.861594    2.356634   -0.448486
     24          1           0       -1.525197    0.958222    2.023011
     25          1           0       -2.765493   -0.331444    2.188610
     26          1           0       -3.269027    1.359627    1.862193
 ---------------------------------------------------------------------
 Rotational constants (GHZ):           1.2532333           0.2650901           0.2571541
   228 basis functions,   422 primitive gaussians,   242 cartesian basis functions
    64 alpha electrons       64 beta electrons
       nuclear repulsion energy      1252.9419591762 Hartrees.
 NAtoms=   26 NActive=   26 NUniq=   26 SFac= 1.00D+00 NAtFMM=   60 NAOKFM=F Big=F
 Nuclear repulsion after empirical dispersion term =     1252.9226669896 Hartrees.
   1 Symmetry operations used in ECPInt.
 ECPInt:  NShTT=    6328 NPrTT=   26344 LenC2=    6031 LenP2D=   17597.
 LDataN:  DoStor=T MaxTD1= 4 Len=   56
 Initial guess from the checkpoint file:  "dimer.chk"
 B after Tr=    -0.000000    0.000000   -0.000000
         Rot=    0.999996    0.001783   -0.000728   -0.001932 Ang=   0.31 deg.
 ExpMin= 1.22D-01 ExpMax= 1.04D+04 ExpMxC= 1.57D+03 IAcc=3 IRadAn=         5 AccDes= 0.00D+00
 Harris functional with IExCor= 4639 and IRadAn=       5 diagonalized for initial guess.
 HarFok:  IExCor= 4639 AccDes= 0.00D+00 IRadAn=         5 IDoV= 1 UseB2=F ITyADJ=14
 ICtDFT=  3500011 ScaDFX=  1.000000  1.000000  1.000000  1.000000
 FoFCou: FMM=F IPFlag=           0 FMFlag=      100000 FMFlg1=           0
         NFxFlg=           0 DoJE=T BraDBF=F KetDBF=T FulRan=T
         wScrn=  0.000000 ICntrl=       500 IOpCl=  0 I1Cent=   200000004 NGrid=           0
         NMat0=    1 NMatS0=      1 NMatT0=    0 NMatD0=    1 NMtDS0=    0 NMtDT0=    0
 Petite list used in FoFCou.
     Accept linear search using points  3 and  4.
     Accept linear search using points  2 and  3.
     Accept linear search using points  1 and  2.
     Minimum is close to point  2 DX= -9.73D-03 DF= -2.88D-08 DXR=  9.82D-03 DFR=  9.65D-05 which will be used.
     Accept linear search using points  1 and  2.
     Minimum is close to point  2 DX=  8.56D-02 DF= -7.66D-07 DXR=  8.68D-02 DFR=  7.60D-03 which will be used.
     Minimum is close to point  2 DX=  2.17D-02 DF= -3.60D-08 DXR=  2.35D-02 DFR=  5.52D-04 which will be used.
     Minimum is close to point  2 DX=  2.77D-04 DF= -1.30D-11 DXR=  2.77D-04 DFR=  7.87D-08 which will be used.
 SCF Done:  E(RwB97XD) =  -1565.49503526     a.u. after    9 cycles
            Convg  =    0.1291D-08                    45 Fock formations.
              S**2 =  0.0000                  -V/T =  2.0045
   1 Symmetry operations used in ECPInt.
 ECPInt:  NShTT=    6328 NPrTT=   26344 LenC2=    6031 LenP2D=   17597.
 LDataN:  DoStor=T MaxTD1= 5 Len=  102
 Calling FoFJK, ICntrl=      2127 FMM=F ISym2X=0 I1Cent= 0 IOpClX= 0 NMat=1 NMatS=1 NMatT=0.

 GradGradGradGradGradGradGradGradGradGradGradGradGradGradGradGradGradGrad
 Using GEDIIS/GDIIS optimizer.
 FormGI is forming the generalized inverse of G from B-inverse, IUseBI=4.
 Internal  Forces:  Max     0.003091348 RMS     0.000848889
 Step number   2 out of a maximum of  156
 All quantities printed in internal units (Hartrees-Bohrs-Radians)
 Mixed Optimization -- En-DIIS/RFO-DIIS
 Trust test= 9.02D-01 RLast= 2.45D-01 DXMaxT set to 5.05D-01
 ITU=  1  0
 Use linear search instead of GDIIS.
     Eigenvalues ---    0.00481   0.00523   0.00740   0.00806   0.00905
     Eigenvalues ---    0.01028   0.01272   0.01857   0.02005   0.02112
     Eigenvalues ---    0.02595   0.02647   0.03667   0.03820   0.04147
     Eigenvalues ---    0.04158   0.04835   0.05020   0.05119   0.05300
     Eigenvalues ---    0.05981   0.06023   0.06364   0.06755   0.06962
     Eigenvalues ---    0.07111   0.08266   0.08305   0.08760   0.08813
     Eigenvalues ---    0.10716   0.10924   0.11020   0.11059   0.11120
     Eigenvalues ---    0.11710   0.11839   0.13284   0.13288   0.13714
     Eigenvalues ---    0.16933   0.17482   0.18036   0.18312   0.20390
     Eigenvalues ---    0.21550   0.21914   0.23767   0.25136   0.25199
     Eigenvalues ---    0.29639   0.29720   0.30468   0.30551   0.31152
     Eigenvalues ---    0.31809   0.32189   0.33054   0.34484   0.35059
     Eigenvalues ---    0.35149   0.35151   0.35153   0.35215   0.35284
     Eigenvalues ---    0.35293   0.35301   0.36113   0.93358   0.96251
     Eigenvalues ---    1.00518   1.02001
 Quartic linear search produced a step of -0.02232.
 Iteration  1 RMS(Cart)=  0.00972063 RMS(Int)=  0.00007779
 Iteration  2 RMS(Cart)=  0.00007981 RMS(Int)=  0.00004134
 Iteration  3 RMS(Cart)=  0.00000000 RMS(Int)=  0.00004134
 Variable       Old X    -DE/DX   Delta X   Delta X   Delta X     New X
                                 (Linear)    (Quad)   (Total)
    R1        2.86583  -0.00072  -0.00021  -0.00084  -0.00104   2.86479
    R2        2.08622  -0.00059  -0.00065   0.00146   0.00081   2.08703
    R3        2.08025   0.00001  -0.00063   0.00292   0.00229   2.08253
    R4        2.07627   0.00015  -0.00049   0.00266   0.00217   2.07844
    R5        2.85920   0.00028  -0.00014   0.00136   0.00122   2.86041
    R6        3.43245  -0.00309  -0.00019  -0.01108  -0.01127   3.42117
    R7        2.89545   0.00146  -0.00152   0.01129   0.00977   2.90522
    R8        2.07548   0.00021  -0.00047   0.00274   0.00227   2.07775
    R9        2.08080  -0.00006  -0.00064   0.00276   0.00212   2.08292
   R10        2.08459  -0.00039  -0.00065   0.00170   0.00106   2.08565
   R11        2.27826  -0.00154  -0.00015  -0.00074  -0.00089   2.27737
   R12        2.29187  -0.00191  -0.00017  -0.00119  -0.00137   2.29050
   R13        4.86238  -0.00025  -0.00010  -0.00830  -0.00838   4.85400
   R14        4.63024   0.00088  -0.00071   0.03569   0.03497   4.66521
   R15        4.63428   0.00087  -0.00071   0.03541   0.03469   4.66897
   R16        4.85365  -0.00024  -0.00011  -0.00775  -0.00785   4.84580
   R17        2.85919   0.00028  -0.00014   0.00138   0.00123   2.86043
   R18        2.07550   0.00020  -0.00047   0.00273   0.00225   2.07775
   R19        2.08457  -0.00039  -0.00065   0.00169   0.00105   2.08562
   R20        2.08080  -0.00006  -0.00064   0.00276   0.00212   2.08292
   R21        2.86587  -0.00073  -0.00021  -0.00086  -0.00106   2.86481
   R22        3.43245  -0.00309  -0.00018  -0.01112  -0.01131   3.42114
   R23        2.89529   0.00148  -0.00153   0.01138   0.00985   2.90514
   R24        2.08620  -0.00059  -0.00065   0.00147   0.00082   2.08703
   R25        2.07627   0.00016  -0.00049   0.00267   0.00218   2.07845
   R26        2.08024   0.00001  -0.00063   0.00292   0.00229   2.08253
   R27        2.29183  -0.00191  -0.00017  -0.00119  -0.00137   2.29047
   R28        2.27834  -0.00157  -0.00015  -0.00077  -0.00092   2.27742
    A1        1.91029  -0.00051  -0.00020  -0.00111  -0.00131   1.90897
    A2        1.89860  -0.00049   0.00046  -0.00669  -0.00623   1.89238
    A3        1.93332   0.00050  -0.00011   0.00382   0.00370   1.93702
    A4        1.90501   0.00048   0.00011   0.00138   0.00148   1.90649
    A5        1.90815   0.00006  -0.00022   0.00246   0.00225   1.91039
    A6        1.90824  -0.00003  -0.00004   0.00008   0.00004   1.90828
    A7        1.98003   0.00211   0.00045   0.01161   0.01196   1.99199
    A8        1.91321  -0.00027   0.00027   0.00349   0.00362   1.91684
    A9        1.90937  -0.00123  -0.00013  -0.01074  -0.01083   1.89854
   A10        1.90504   0.00026   0.00025   0.00856   0.00871   1.91375
   A11        1.93553  -0.00119  -0.00003  -0.01278  -0.01278   1.92275
   A12        1.81323   0.00014  -0.00096  -0.00104  -0.00195   1.81128
   A13        1.94339   0.00012  -0.00016   0.00165   0.00147   1.94486
   A14        1.89051  -0.00039   0.00048  -0.00518  -0.00469   1.88582
   A15        1.92010   0.00006  -0.00002  -0.00016  -0.00014   1.91996
   A16        1.90566   0.00006  -0.00008   0.00060   0.00053   1.90619
   A17        1.90340  -0.00003  -0.00019   0.00135   0.00113   1.90453
   A18        1.90026   0.00017  -0.00004   0.00173   0.00169   1.90195
   A19        2.05157  -0.00139   0.00009  -0.00473  -0.00464   2.04693
   A20        2.05725  -0.00141  -0.00000  -0.00671  -0.00676   2.05049
   A21        2.17437   0.00280  -0.00009   0.01146   0.01131   2.18567
   A22        1.58825  -0.00074  -0.00004  -0.00369  -0.00372   1.58453
   A23        2.55444  -0.00124   0.00029  -0.01110  -0.01085   2.54360
   A24        2.27809   0.00122  -0.00020   0.00537   0.00515   2.28324
   A25        2.46165   0.00102  -0.00018   0.00556   0.00531   2.46696
   A26        1.94340   0.00012  -0.00016   0.00165   0.00148   1.94488
   A27        1.92005   0.00006  -0.00002  -0.00014  -0.00012   1.91993
   A28        1.89052  -0.00038   0.00048  -0.00518  -0.00469   1.88583
   A29        1.90337  -0.00003  -0.00019   0.00135   0.00113   1.90450
   A30        1.90569   0.00006  -0.00008   0.00057   0.00050   1.90619
   A31        1.90029   0.00017  -0.00004   0.00173   0.00169   1.90199
   A32        1.98007   0.00212   0.00045   0.01162   0.01197   1.99204
   A33        1.90505   0.00026   0.00025   0.00856   0.00871   1.91376
   A34        1.93545  -0.00118  -0.00002  -0.01269  -0.01269   1.92276
   A35        1.91321  -0.00026   0.00027   0.00351   0.00364   1.91684
   A36        1.90929  -0.00125  -0.00013  -0.01087  -0.01095   1.89834
   A37        1.81335   0.00015  -0.00096  -0.00104  -0.00194   1.81141
   A38        1.91019  -0.00050  -0.00020  -0.00108  -0.00128   1.90890
   A39        1.93328   0.00049  -0.00012   0.00377   0.00365   1.93693
   A40        1.89866  -0.00049   0.00046  -0.00669  -0.00622   1.89243
   A41        1.90820   0.00006  -0.00022   0.00243   0.00221   1.91041
   A42        1.90505   0.00048   0.00011   0.00142   0.00152   1.90657
   A43        1.90823  -0.00003  -0.00004   0.00010   0.00007   1.90830
   A44        2.05718  -0.00138   0.00000  -0.00660  -0.00665   2.05053
   A45        2.05160  -0.00142   0.00009  -0.00482  -0.00472   2.04688
   A46        2.17441   0.00280  -0.00010   0.01144   0.01128   2.18568
   A47        2.55150  -0.00123   0.00029  -0.01100  -0.01075   2.54075
   A48        1.59019  -0.00075  -0.00004  -0.00375  -0.00379   1.58640
   A49        2.46126   0.00102  -0.00018   0.00552   0.00527   2.46654
   A50        2.27917   0.00122  -0.00020   0.00534   0.00511   2.28428
    D1        1.04211  -0.00079   0.00014  -0.00612  -0.00601   1.03610
    D2       -3.10668   0.00082   0.00101   0.01560   0.01662  -3.09006
    D3       -1.12903   0.00018  -0.00006   0.01043   0.01041  -1.11862
    D4       -1.03797  -0.00078  -0.00015  -0.00317  -0.00336  -1.04133
    D5        1.09642   0.00083   0.00072   0.01855   0.01927   1.11569
    D6        3.07408   0.00020  -0.00035   0.01338   0.01305   3.08713
    D7       -3.13582  -0.00073  -0.00033  -0.00135  -0.00171  -3.13753
    D8       -1.00143   0.00088   0.00055   0.02037   0.02092  -0.98051
    D9        0.97622   0.00024  -0.00052   0.01520   0.01471   0.99093
   D10        0.43059   0.00037   0.00004  -0.00301  -0.00299   0.42760
   D11        2.50671  -0.00024   0.00055  -0.01097  -0.01044   2.49627
   D12       -1.68991   0.00004   0.00044  -0.00858  -0.00815  -1.69806
   D13       -3.12428   0.00064   0.00047  -0.00065  -0.00013  -3.12441
   D14        1.06326   0.00074   0.00035   0.00093   0.00134   1.06460
   D15       -1.01195   0.00073   0.00012   0.00203   0.00217  -1.00978
   D16        1.01999  -0.00066  -0.00041  -0.01945  -0.01991   1.00009
   D17       -1.07565  -0.00057  -0.00053  -0.01786  -0.01843  -1.09409
   D18        3.13232  -0.00058  -0.00076  -0.01677  -0.01760   3.11472
   D19       -0.96737  -0.00033   0.00062  -0.01607  -0.01545  -0.98282
   D20       -3.06302  -0.00023   0.00050  -0.01448  -0.01398  -3.07700
   D21        1.14496  -0.00025   0.00027  -0.01339  -0.01315   1.13181
   D22       -0.66761   0.00048  -0.00036   0.00158   0.00132  -0.66629
   D23        2.47293   0.00087   0.00014   0.01639   0.01655   2.48948
   D24       -2.86452  -0.00049  -0.00083   0.00354   0.00268  -2.86184
   D25        0.27602  -0.00011  -0.00033   0.01835   0.01791   0.29393
   D26        1.37419  -0.00032  -0.00059   0.00016  -0.00041   1.37379
   D27       -1.76845   0.00007  -0.00009   0.01497   0.01482  -1.75363
   D28       -1.46878  -0.00022   0.00028  -0.01580  -0.01549  -1.48426
   D29        0.66737  -0.00006  -0.00005  -0.01297  -0.01301   0.65435
   D30        2.74518   0.00011  -0.00027  -0.01045  -0.01072   2.73446
   D31        2.56147  -0.00023   0.00028   0.01020   0.01051   2.57199
   D32       -0.57899  -0.00065  -0.00026  -0.00568  -0.00601  -0.58500
   D33       -2.40902  -0.00041  -0.00038  -0.00522  -0.00562  -2.41464
   D34        0.73144   0.00001   0.00016   0.01072   0.01094   0.74238
   D35       -1.43279  -0.00008   0.00094  -0.01542  -0.01456  -1.44735
   D36        0.91067  -0.00026   0.00025  -0.01898  -0.01870   0.89197
   D37       -0.91786   0.00026  -0.00025   0.01898   0.01869  -0.89916
   D38        1.43152   0.00008  -0.00094   0.01541   0.01454   1.44606
   D39        3.12473  -0.00065  -0.00047   0.00063   0.00011   3.12484
   D40       -1.01952   0.00066   0.00041   0.01945   0.01991  -0.99961
   D41        0.96795   0.00034  -0.00062   0.01613   0.01552   0.98347
   D42        1.01247  -0.00073  -0.00011  -0.00207  -0.00221   1.01025
   D43       -3.13178   0.00058   0.00077   0.01676   0.01759  -3.11419
   D44       -1.14431   0.00025  -0.00026   0.01343   0.01320  -1.13111
   D45       -1.06277  -0.00075  -0.00035  -0.00099  -0.00139  -1.06416
   D46        1.07617   0.00056   0.00053   0.01784   0.01841   1.09458
   D47        3.06364   0.00024  -0.00050   0.01451   0.01402   3.07766
   D48        1.46650   0.00022  -0.00029   0.01603   0.01572   1.48222
   D49       -0.66961   0.00005   0.00004   0.01319   0.01322  -0.65639
   D50       -2.74745  -0.00011   0.00027   0.01069   0.01096  -2.73650
   D51       -1.04195   0.00079  -0.00014   0.00590   0.00579  -1.03616
   D52        3.13601   0.00073   0.00033   0.00119   0.00155   3.13756
   D53        1.03816   0.00078   0.00015   0.00300   0.00320   1.04136
   D54        3.10682  -0.00083  -0.00101  -0.01585  -0.01687   3.08994
   D55        1.00159  -0.00088  -0.00054  -0.02056  -0.02111   0.98048
   D56       -1.09627  -0.00084  -0.00072  -0.01874  -0.01946  -1.11573
   D57        1.12906  -0.00018   0.00006  -0.01063  -0.01060   1.11846
   D58       -0.97617  -0.00024   0.00053  -0.01534  -0.01484  -0.99100
   D59       -3.07402  -0.00019   0.00035  -0.01352  -0.01319  -3.08721
   D60       -0.27419   0.00010   0.00033  -0.01879  -0.01834  -0.29253
   D61        2.86607   0.00049   0.00083  -0.00400  -0.00313   2.86294
   D62       -2.47104  -0.00087  -0.00013  -0.01681  -0.01697  -2.48801
   D63        0.66921  -0.00049   0.00037  -0.00202  -0.00175   0.66746
   D64        1.77032  -0.00007   0.00010  -0.01535  -0.01520   1.75512
   D65       -1.37261   0.00031   0.00060  -0.00056   0.00001  -1.37260
   D66       -0.43028  -0.00037  -0.00005   0.00346   0.00342  -0.42685
   D67        1.69015  -0.00004  -0.00045   0.00895   0.00851   1.69867
   D68       -2.50642   0.00024  -0.00055   0.01138   0.01083  -2.49559
   D69        2.41452   0.00039   0.00038   0.00485   0.00526   2.41978
   D70       -0.72563  -0.00002  -0.00015  -0.01106  -0.01128  -0.73691
   D71       -2.56011   0.00024  -0.00028  -0.01017  -0.01048  -2.57059
   D72        0.58005   0.00065   0.00026   0.00570   0.00603   0.58608
         Item               Value     Threshold  Converged?
 Maximum Force            0.003091     0.000015     NO 
 RMS     Force            0.000849     0.000010     NO 
 Maximum Displacement     0.034256     0.000060     NO 
 RMS     Displacement     0.009704     0.000040     NO 
 GradGradGradGradGradGradGradGradGradGradGradGradGradGradGradGradGradGrad

                    Distance matrix (angstroms):
                    1          2          3          4          5
     1  C    0.000000
     2  C    1.515980   0.000000
     3  C    2.542781   1.513665   0.000000
     4  Cl   2.727183   1.810407   2.722455   0.000000
     5  N    2.482386   1.537377   2.501824   2.639493   0.000000
     6  O    2.726729   2.348247   3.593295   3.139545   1.205133
     7  O    3.514342   2.356400   2.665960   3.365404   1.212080
     8  H    1.104409   2.151477   2.789829   3.709746   2.744161
     9  H    1.102029   2.137462   2.776414   2.927534   3.437540
    10  H    1.099864   2.168418   3.492016   2.894498   2.705169
    11  H    3.495767   2.171709   1.099498   2.905283   2.733419
    12  H    2.780633   2.130723   1.102234   2.904584   3.447957
    13  H    2.787149   2.156930   1.103680   3.710497   2.783574
    14  C    5.192889   4.949658   5.391209   6.320248   3.688271
    15  C    5.369321   4.948775   4.947122   6.463409   3.899654
    16  C    6.143387   5.367079   5.187339   6.650148   4.246277
    17  Cl   6.652900   6.463673   6.317871   8.100581   5.583002
    18  N    4.246385   3.898852   3.686263   5.582126   3.262650
    19  O    3.300231   3.325485   3.434132   5.083893   2.866349
    20  O    4.693706   4.162748   3.494855   5.792163   3.804909
    21  H    4.948535   5.034958   5.579985   6.495997   3.957326
    22  H    4.656076   4.261154   4.885599   5.441430   2.852225
    23  H    6.246824   5.963700   6.415576   7.227327   4.614043
    24  H    5.688981   4.724535   4.630346   5.809142   3.536914
    25  H    6.556253   5.732199   5.257055   7.052489   4.830905
    26  H    7.055431   6.307200   6.237409   7.505787   5.061852
                    6          7          8          9         10
     6  O    0.000000
     7  O    2.146331   0.000000
     8  H    2.977795   3.604015   0.000000
     9  H    3.773664   4.393154   1.798909   0.000000
    10  H    2.464126   3.888481   1.799632   1.796343   0.000000
    11  H    3.920667   2.483729   3.790244   3.783451   4.325241
    12  H    4.439979   3.742550   3.146999   2.558542   3.776801
    13  H    3.817716   2.796747   2.578751   3.122544   3.794727
    14  C    3.498879   3.433510   4.636386   6.242720   5.264229
    15  C    4.165215   3.325215   4.727483   6.308823   5.735886
    16  C    4.696295   3.298955   5.689879   7.054254   6.558148
    17  Cl   5.794484   5.083899   5.812627   7.508035   7.056773
    18  N    3.805019   2.867289   3.537494   5.061570   4.831657
    19  O    3.218568   2.954767   2.470712   4.145974   3.819178
    20  O    4.606015   3.220764   4.055700   5.335054   5.464716
    21  H    3.612224   3.999425   4.264601   5.970540   4.946999
    22  H    2.568624   2.664357   4.317937   5.739689   4.638965
    23  H    4.331417   4.266093   5.718365   7.311422   6.242522
    24  H    4.058058   2.468720   5.425630   6.601770   6.068074
    25  H    5.466379   3.818345   6.067168   7.361974   7.118425
    26  H    5.338625   4.144223   6.603872   8.014320   7.365385
                   11         12         13         14         15
    11  H    0.000000
    12  H    1.794876   0.000000
    13  H    1.795001   1.795574   0.000000
    14  C    5.577522   6.416372   4.885594   0.000000
    15  C    5.030359   5.961445   4.258817   1.513673   0.000000
    16  C    4.940618   6.240950   4.651191   2.542842   1.515994
    17  Cl   6.491457   7.225265   5.439127   2.722457   1.810388
    18  N    3.954405   4.612259   2.850333   2.501805   1.537333
    19  O    3.998973   4.267575   2.665521   2.665747   2.356378
    20  O    3.608332   4.326823   2.564288   3.593413   2.348196
    21  H    5.966376   6.515250   5.014207   1.099498   2.171730
    22  H    5.012046   5.931413   4.594470   1.103664   2.156906
    23  H    6.511541   7.462852   5.930722   1.102234   2.130734
    24  H    4.256234   5.711942   4.312876   2.789859   2.151432
    25  H    4.937770   6.234528   4.632509   3.492028   2.168373
    26  H    5.962422   7.305797   5.735086   2.776544   2.137512
                   16         17         18         19         20
    16  C    0.000000
    17  Cl   2.727185   0.000000
    18  N    2.482179   2.639575   0.000000
    19  O    3.513782   3.366327   1.212063   0.000000
    20  O    2.726809   3.138931   1.205161   2.146346   0.000000
    21  H    3.495827   2.905068   2.733721   2.484397   3.920872
    22  H    2.787395   3.710462   2.783197   2.795393   3.817880
    23  H    2.780505   2.904869   3.447950   3.742517   4.440004
    24  H    1.104406   3.709706   2.743779   3.602808   2.978095
    25  H    1.099870   2.894418   2.704886   3.887997   2.463948
    26  H    1.102027   2.927606   3.437403   4.392786   3.773658
                   21         22         23         24         25
    21  H    0.000000
    22  H    1.794967   0.000000
    23  H    1.794877   1.795586   0.000000
    24  H    3.790366   2.578995   3.146759   0.000000
    25  H    4.325233   3.794878   3.776712   1.799643   0.000000
    26  H    3.783479   3.122978   2.558480   1.798955   1.796356
                   26
    26  H    0.000000
 Framework group  C1[X(C6H12Cl2N2O4)]
 Deg. of freedom    72
                         Standard orientation:                         
 ---------------------------------------------------------------------
 Center     Atomic      Atomic             Coordinates (Angstroms)
 Number     Number       Type             X           Y           Z
 ---------------------------------------------------------------------
      1          6           0        2.515335   -0.558106   -1.673801
      2          6           0        2.441346   -0.363741   -0.172154
      3          6           0        2.073058   -1.614698    0.596384
      4         17           0        4.015816    0.286188    0.441206
      5          7           0        1.437649    0.760218    0.132538
      6          8           0        1.422125    1.704750   -0.615769
      7          8           0        0.736488    0.633405    1.113063
      8          1           0        1.535207   -0.903963   -2.047234
      9          1           0        3.276916   -1.325117   -1.888639
     10          1           0        2.789928    0.379364   -2.179221
     11          1           0        2.015101   -1.419911    1.676937
     12          1           0        2.849317   -2.373629    0.405683
     13          1           0        1.100224   -2.000504    0.245874
     14          6           0       -2.075557    1.615689   -0.594716
     15          6           0       -2.441553    0.363388    0.172744
     16          6           0       -2.513361    0.555624    1.674785
     17         17           0       -4.016360   -0.287156   -0.439041
     18          7           0       -1.437221   -0.759177   -0.134755
     19          8           0       -0.736494   -0.629791   -1.115233
     20          8           0       -1.420592   -1.705178    0.611715
     21          1           0       -2.019550    1.422505   -1.675660
     22          1           0       -1.102288    2.001571   -0.245548
     23          1           0       -2.851928    2.373849   -0.401424
     24          1           0       -1.532907    0.901760    2.047092
     25          1           0       -2.786328   -0.382834    2.179264
     26          1           0       -3.275278    1.321649    1.891930
 ---------------------------------------------------------------------
 Rotational constants (GHZ):           1.2561929           0.2646728           0.2571598
   228 basis functions,   422 primitive gaussians,   242 cartesian basis functions
    64 alpha electrons       64 beta electrons
       nuclear repulsion energy      1253.2140934523 Hartrees.
 NAtoms=   26 NActive=   26 NUniq=   26 SFac= 1.00D+00 NAtFMM=   60 NAOKFM=F Big=F
 Nuclear repulsion after empirical dispersion term =     1253.1948323377 Hartrees.
   1 Symmetry operations used in ECPInt.
 ECPInt:  NShTT=    6328 NPrTT=   26344 LenC2=    6031 LenP2D=   17591.
 LDataN:  DoStor=T MaxTD1= 4 Len=   56
 Initial guess from the checkpoint file:  "dimer.chk"
 B after Tr=     0.000000    0.000000    0.000000
         Rot=    0.999950   -0.010036    0.000287    0.000185 Ang=  -1.15 deg.
[...]
 2290,-0.00008687,-0.00021550,-0.00073025,-0.00017014,-0.00020618,-0.00
 037438,-0.00003865,-0.00019308,-0.00107481,-0.00165279,0.00149881,-0.0
 0235843,0.00002170,0.00062005,-0.00834076,0.00665301,0.04069311,-0.005
 89455,0.00585363,-0.00175119,-0.00022306,0.00056824,-0.00038565,-0.269
 07628,0.02734885,0.25173745,0.26671222,-0.00031451,0.00051108,0.000012
 39,0.00051329,-0.00109274,0.00034454,-0.00031513,0.00006621,0.00042649
 ,0.00014170,0.00036119,0.00000290,0.00003600,-0.00225970,-0.00066597,-
 0.00086177,0.00101561,-0.00063817,-0.00144507,0.00043632,-0.00030486,0
 .00019274,-0.00020638,-0.00015999,-0.00017407,-0.00001140,0.00005420,0
 .00015243,-0.00000212,-0.00002971,0.00022851,0.00001877,0.00002085,0.0
 0008327,0.00010959,-0.00004294,-0.00069373,-0.00009703,-0.00055864,0.0
 0382575,-0.00408873,-0.00054862,0.01631333,0.00732509,-0.02031839,0.00
 287859,-0.00289616,0.00010723,0.00415824,0.00025321,-0.00023639,0.0252
 3121,-0.12893383,0.01261348,-0.01286670,0.12239475,0.00015859,-0.00075
 080,-0.00060652,-0.00125236,0.00061391,-0.00186284,-0.00034653,0.00028
 411,0.00083564,0.00021576,-0.00010563,0.00057862,-0.00166149,0.0003766
 9,-0.00340364,0.00036043,-0.00121425,0.00204670,-0.00106449,-0.0003019
 0,0.00065550,-0.00058926,0.00030012,0.00098067,0.00045425,0.00008216,0
 .00016100,0.00010775,0.00005272,0.00022071,0.00037407,0.00006604,0.000
 18931,-0.00032681,-0.00012430,-0.00001300,0.00091228,-0.00006453,-0.00
 188601,-0.00127133,0.00377407,-0.00126857,0.02282861,-0.00112144,-0.01
 616278,0.00232544,-0.00275659,0.00020395,0.00282437,-0.00115478,0.0013
 9044,0.25903929,0.00912629,-0.46416849,-0.32456699,-0.06195589,0.56643
 354,0.00000640,-0.00023009,0.00013267,0.00036324,0.00119403,-0.0006460
 5,-0.00076617,0.00047660,0.00104344,-0.00058229,-0.00060508,0.00001733
 ,-0.00013156,0.00156157,-0.00067113,0.00045302,-0.00115699,0.00064318,
 -0.00020541,-0.00086227,0.00036063,0.00006256,-0.00002183,-0.00022032,
 -0.00000197,-0.00000656,-0.00007825,-0.00008020,-0.00000685,0.00006505
 ,0.00014387,-0.00003880,0.00006190,-0.00066281,-0.00025754,-0.00001241
 ,-0.00026148,-0.00103489,-0.00059015,-0.00461679,0.00293446,0.00280183
 ,0.01280440,0.02487581,-0.01267521,-0.00241649,0.00276236,0.00061055,0
 .00112930,0.00145676,-0.00051268,-0.11294331,0.04679017,0.00380033,0.0
 2415331,-0.04028038,0.04315979,0.08316755,0.00014940,0.00068321,0.0001
 9365,0.00094106,-0.00100448,0.00127492,-0.00010086,0.00064655,-0.00092
 604,0.00007668,0.00036262,-0.00033682,0.00081027,-0.00202955,0.0036314
 6,-0.00115710,0.00175162,-0.00208398,0.00063987,0.00101673,-0.00121504
 ,0.00050677,-0.00048297,-0.00045389,-0.00031554,-0.00004940,-0.0000347
 4,0.00002469,-0.00001136,-0.00014782,-0.00031817,-0.00007069,-0.000162
 42,0.00012038,0.00011082,-0.00009988,-0.00139267,-0.00093497,0.0012971
 0,0.00684080,-0.00484999,-0.00280789,0.00652998,-0.03632904,0.03225904
 ,0.00113964,-0.00059899,0.00197495,0.00392256,0.00068953,0.00012097,0.
 05154611,-0.45025826,0.26569740,-0.02805675,0.00960477,0.05638551,-0.0
 4219158,0.48547819,-0.00035113,-0.00067349,-0.00031695,-0.00109571,0.0
 0050087,-0.00137281,-0.00020391,0.00008380,0.00111735,0.00014055,-0.00
 006533,0.00044819,0.00001844,0.00195878,-0.00509193,0.00064310,-0.0020
 8328,0.00309531,-0.00186241,-0.00063872,0.00204662,-0.00067677,0.00047
 654,0.00063814,0.00031533,0.00006296,0.00012365,0.00003173,0.00002034,
 0.00015683,0.00070042,0.00009902,0.00024181,-0.00025353,-0.00010338,0.
 00010377,0.00071231,-0.00003074,-0.00223475,-0.00114687,0.00104068,0.0
 0122396,0.00061838,0.01473995,0.00248856,0.00276740,-0.00240681,-0.002
 93806,0.00140423,-0.00091733,0.00157819,0.00046057,0.26871410,-0.32887
 239,0.03340616,0.07734494,-0.08824614,-0.03564640,-0.35328395,0.411738
 16,-0.00000981,-0.00003364,-0.00001467,-0.00009061,-0.00002486,-0.0000
 3917,0.00000123,-0.00001172,0.00001033,0.00004359,0.00002059,0.0000398
 0,0.00047988,0.00034362,-0.00117391,0.00014490,-0.00031928,0.00070115,
 -0.00073349,0.00022947,0.00037287,-0.00001778,0.00008239,0.00000797,0.
 00002567,-0.00000371,0.00002953,-0.00004306,0.00000022,-0.00000257,-0.
 00000265,-0.00000317,0.00000606,0.00000772,0.00000282,-0.00000290,-0.0
 0001918,0.00002560,-0.00000819,-0.04828855,-0.00140080,-0.00365965,-0.
 00254692,0.00181548,0.01000399,-0.00017711,-0.00171687,0.00070207,0.00
 055472,0.00046646,0.00076412,0.00060176,0.00031393,-0.00150565,-0.0011
 4204,0.00101156,0.00017547,-0.00026473,-0.00043294,0.00066712,0.046236
 90,0.00000891,0.00002300,0.00001239,0.00007349,0.00002254,0.00002644,0
 .00000254,0.00001902,0.00000753,-0.00004218,-0.00002160,-0.00001265,0.
 00023549,0.00003265,-0.00017359,-0.00003857,-0.00007105,0.00009912,-0.
 00017032,0.00001905,0.00006623,0.00002648,-0.00001517,-0.00002243,-0.0
 0000951,-0.00000118,-0.00000318,-0.00000881,0.00000108,-0.00000769,-0.
 00000319,-0.00000420,0.00000197,-0.00001176,-0.00000221,0.00000002,0.0
 0003716,-0.00003185,0.00001221,-0.00188969,-0.05972130,-0.06016835,0.0
 0011218,0.00615180,0.02893074,-0.00127969,-0.00502695,0.00163958,0.001
 02538,0.00096194,0.00003396,-0.00087494,0.00053668,0.00158560,0.001565
 99,-0.00227376,-0.00071592,0.00019979,0.00103406,-0.00095256,0.0024000
 0,0.06257988,-0.00000266,-0.00001000,-0.00001727,-0.00006345,-0.000006
 71,0.00001048,-0.00000051,-0.00001733,-0.00000423,0.00002546,0.0000077
 3,0.00000938,0.00006535,0.00020348,-0.00045184,0.00006232,-0.00016265,
 0.00024201,-0.00020768,0.00002101,0.00018833,-0.00001371,0.00001526,0.
 00002740,0.00000922,-0.00000060,0.00000651,-0.00000253,0.00000412,0.00
 000573,0.00000607,0.00000198,-0.00000071,0.00000750,0.00000022,0.00000
 209,-0.00002521,0.00002050,-0.00001358,-0.00205727,-0.05361511,-0.3229
 0933,-0.00130770,-0.00402421,-0.01620191,0.00112152,0.00354450,-0.0003
 6958,-0.00064581,-0.00040178,0.00138297,0.00236482,0.00005095,-0.00285
 136,0.00014787,-0.00245649,0.00233867,-0.00045240,-0.00046605,0.001017
 07,0.00018042,0.05762825,0.34307734,0.00008752,-0.00006922,0.00003746,
 -0.00020113,0.00030147,0.00029445,0.00013920,-0.00008919,-0.00005645,0
 .00015545,-0.00007747,0.00000731,-0.00152692,0.00289705,-0.00222914,-0
 .00024481,-0.00138408,0.00070201,-0.00097367,-0.00070086,0.00094757,0.
 00001803,0.00000779,-0.00000746,0.00000316,-0.00003126,-0.00003272,-0.
 00003992,0.00001854,0.00005521,-0.00001919,0.00003738,-0.00002537,-0.0
 0001269,-0.00006048,0.00001398,0.00002892,-0.00000507,0.00001175,-0.28
 331140,-0.07297455,-0.07050326,-0.00757590,-0.00205294,-0.00191199,0.0
 0049404,0.00042717,-0.00046843,0.00085202,-0.00082378,0.00070106,0.000
 21403,0.00011699,0.00120181,0.00015939,0.00097168,-0.00035022,-0.00012
 600,0.00019807,-0.00024819,0.00340779,0.00160901,0.00153685,0.30057032
 ,-0.00012986,0.00013385,-0.00001424,0.00060766,-0.00005577,0.00033841,
 -0.00008757,0.00005661,0.00003126,-0.00006550,-0.00001155,-0.00002443,
 0.00267755,-0.00026006,-0.00093004,-0.00103584,-0.00093791,-0.00002771
 ,-0.00167737,-0.00008793,-0.00008127,0.00000424,-0.00004561,-0.0000324
 5,-0.00002379,0.00001632,0.00004567,0.00003356,-0.00001093,-0.00002431
 ,0.00002566,-0.00003193,0.00002057,-0.00001555,0.00003290,-0.00000945,
 -0.00000501,-0.00004780,-0.00000810,-0.06941238,-0.07194987,-0.0203701
 4,-0.02315840,-0.00810822,-0.00799804,0.00039736,0.00057127,-0.0009403
 2,-0.00376833,-0.00371632,0.00161581,-0.00131518,0.00015378,0.00093371
 ,0.00073636,-0.00032517,-0.00094485,0.00010244,0.00029603,-0.00037436,
 -0.00435048,-0.00198331,-0.00038305,0.07861288,0.07653943,0.00000563,0
 .00000717,0.00000324,0.00028350,0.00020096,-0.00007587,-0.00004553,0.0
 0005157,0.00002213,0.00003216,-0.00001392,-0.00003299,-0.00166349,-0.0
 0155756,0.00421266,-0.00058965,0.00130453,-0.00223978,0.00156708,-0.00
 056824,-0.00186311,0.00000207,-0.00004686,-0.00001412,-0.00001829,0.00
 000317,-0.00002407,0.00003370,-0.00000490,-0.00000602,-0.00000821,0.00
 001234,-0.00001366,0.00000996,0.00001402,-0.00001725,0.00001188,-0.000
 00815,0.00000981,-0.07181702,-0.02156057,-0.07264834,0.01587052,0.0027
 1598,0.00410895,0.00016926,-0.00038637,0.00026503,0.00220518,0.0030454
 5,0.00036884,-0.00062536,-0.00072877,0.00121785,0.00044253,0.00055211,
 -0.00015123,0.00008929,0.00006359,-0.00045617,-0.02777521,-0.00750387,
 -0.00398797,0.07491391,0.02086030,0.07092315,-0.00004462,0.00005342,-0
 .00000698,0.00024088,-0.00003794,0.00007246,-0.00004307,0.00003185,0.0
 0000929,-0.00005486,0.00001043,-0.00001473,0.00054544,-0.00044066,0.00
 031469,-0.00066189,0.00011976,-0.00025280,-0.00037923,0.00008408,-0.00
 032959,0.00000098,-0.00002602,-0.00001166,-0.00001173,0.00000830,0.000
 01471,0.00002163,-0.00000390,-0.00001474,0.00000773,-0.00001176,0.0000
 0751,-0.00000120,0.00001943,-0.00000756,-0.00001263,-0.00001554,0.0000
 0998,-0.16556420,0.13546282,0.03456251,0.00423446,-0.00866155,-0.00191
 897,0.00000649,-0.00022303,-0.00004453,0.00081520,-0.00053370,-0.00011
 483,-0.00120731,-0.00255692,0.00259317,0.00071315,0.00091301,-0.000587
 26,0.00092873,-0.00067347,-0.00025062,0.00097109,-0.00269388,-0.000785
 94,-0.01270311,0.02157333,0.00668629,0.17180977,-0.00002307,0.00001343
 ,-0.00002191,-0.00000134,-0.00006918,0.00001441,-0.00002415,-0.0000108
 0,-0.00001750,0.00002379,0.00003819,0.00000844,0.00007252,-0.00027424,
 0.00018660,-0.00025714,0.00011054,-0.00010312,-0.00004067,0.00010991,-
 0.00012535,-0.00002458,0.00000263,0.00003264,0.00000471,0.00000389,0.0
 0001315,0.00001388,0.00000078,-0.00000337,0.00000285,-0.00000221,0.000
 00024,0.00001943,0.00001443,-0.00000325,-0.00006024,0.00003286,0.00001
 413,0.13072050,-0.19783524,-0.03943430,0.01841479,-0.01980679,-0.00660
 101,0.00016012,0.00071066,-0.00131509,-0.00002840,0.00099820,-0.000074
 55,-0.00289085,-0.00165372,0.00218087,0.00043218,-0.00013289,0.0003492
 6,0.00135184,-0.00233384,0.00080665,0.00172409,-0.00269553,0.00043652,
 -0.00673846,0.00957797,0.00299781,-0.14228678,0.21267377,-0.00000473,-
 0.00000871,0.00000500,0.00003017,0.00002506,-0.00000299,0.00000251,0.0
 0001263,0.00001714,0.00000089,-0.00000839,0.00000449,0.00018477,0.0001
 1245,-0.00020978,-0.00001208,-0.00010004,0.00010392,-0.00019679,-0.000
 04259,-0.00001529,-0.00000326,0.00001914,-0.00001417,0.00000398,-0.000
 00223,0.00000557,-0.00001486,-0.00000099,0.00000162,-0.00000291,0.0000
 0001,0.00000208,-0.00000756,-0.00000325,-0.00000267,0.00001380,-0.0000
 0944,-0.00001728,0.03623807,-0.04170889,-0.05959478,-0.01263497,0.0133
 9830,0.00288691,-0.00034889,0.00008216,0.00009996,-0.00052368,-0.00065
 693,-0.00005426,0.00350538,0.00248796,-0.00380120,-0.00015112,-0.00154
 516,0.00136943,-0.00139197,0.00134185,0.00035061,0.01994169,-0.0220007
 5,-0.00121088,-0.00495377,0.00787603,0.00116377,-0.03987750,0.04022936
 ,0.05958374,0.00006297,-0.00005705,0.00002133,-0.00007363,0.00024681,-
 0.00005090,0.00005067,-0.00001540,-0.00000782,0.00010007,-0.00003403,-
 0.00000469,-0.00050284,-0.00072056,0.00149156,0.00006283,0.00050607,-0
 .00067602,-0.00162917,0.00018965,-0.00058771,0.00000239,0.00000544,-0.
 00000113,0.00000189,-0.00001469,-0.00003027,-0.00001608,0.00000900,0.0
 0001769,-0.00001782,0.00002648,-0.00001371,0.00000100,-0.00002454,-0.0
 0000328,0.00001793,0.00000427,0.00000203,0.00025050,-0.00010214,0.0004
 9315,0.00063009,0.00035244,0.00031429,-0.27855167,-0.06930026,-0.08002
 270,0.00193418,0.00045202,0.00062604,0.00081593,0.00084432,-0.00072409
 ,-0.00025554,-0.00018885,0.00014763,0.00014116,-0.00007646,0.00054506,
 0.00016347,0.00003224,0.00004202,0.00043717,-0.00002266,0.00028300,-0.
 00003117,-0.00006111,-0.00011857,0.29371440,-0.00002992,-0.00000406,0.
 00000467,0.00019671,0.00006018,0.00001588,-0.00004766,0.00002757,-0.00
 000992,-0.00004859,-0.00003616,0.00000107,0.00010289,0.00031993,-0.000
 65177,-0.00002185,-0.00048196,0.00047609,-0.00040645,-0.00020461,0.000
 29974,0.00000544,-0.00000573,-0.00002076,-0.00000329,0.00000553,0.0000
 0374,0.00000344,-0.00000446,0.00000199,0.00008248,-0.00001513,0.000015
 28,-0.00002604,0.00000260,0.00001917,0.00000775,-0.00004566,-0.0000469
 9,0.00022940,-0.00027696,0.00045755,-0.00426114,-0.00353611,-0.0023195
 8,-0.06823141,-0.07107479,-0.02295515,-0.00066920,0.00090203,-0.001371
 45,-0.00052611,0.00100679,-0.00121574,-0.00018264,-0.00028463,0.000276
 75,0.00046356,-0.00052835,0.00068389,-0.00002959,-0.00009841,-0.000069
 06,-0.00011181,0.00022713,0.00062264,0.00016480,-0.00002554,0.00007896
 ,0.07446783,0.06892106,-0.00011589,0.00011383,-0.00002574,0.00027843,-
 0.00020131,0.00019662,-0.00006840,0.00005057,0.00004625,-0.00010846,0.
 00003093,-0.00001650,0.00061286,0.00065313,-0.00158384,-0.00022032,-0.
 00045405,0.00063855,-0.00101729,-0.00015951,0.00098248,-0.00000114,-0.
 00002076,-0.00001390,-0.00001087,0.00001992,0.00004808,0.00002729,-0.0
 0001359,-0.00002680,0.00000799,-0.00002243,0.00002741,-0.00001168,0.00
 003262,-0.00001418,-0.00000744,-0.00003248,-0.00001414,-0.00014512,-0.
 00019361,0.00120461,-0.02924049,-0.00830044,-0.00933556,-0.07508888,-0
 .02235108,-0.07728821,-0.00262642,-0.00210581,-0.00570632,-0.00082355,
 0.00058467,0.00086446,0.00023659,0.00004162,-0.00029941,0.00000606,-0.
 00044678,0.00011920,0.00025138,-0.00011833,0.00026908,0.00035998,0.000
 55412,-0.00084236,-0.00000645,-0.00001924,-0.00006641,0.08593170,0.026
 88069,0.08292506,-0.00002125,0.00003719,-0.00002480,-0.00003566,-0.000
 11426,0.00005867,-0.00000236,-0.00000336,-0.00000097,0.00002579,0.0000
 4253,0.00000084,0.00009313,-0.00000673,-0.00014968,-0.00008014,0.00002
 443,0.00003205,-0.00032199,0.00015209,0.00010838,-0.00001611,0.0000034
 6,0.00002730,0.00000365,0.00000388,0.00001803,0.00001039,-0.00000058,-
 0.00000954,-0.00004306,-0.00000884,-0.00000254,0.00002163,0.00001388,-
 0.00001486,-0.00003972,0.00003355,0.00003384,0.00041382,0.00039383,0.0
 0010590,-0.00253994,0.00013012,-0.00105536,-0.07290975,-0.06897204,0.0
 3921133,0.00045404,0.00088868,-0.00049564,-0.00015649,-0.00242354,0.00
 220307,0.00058657,0.00055882,-0.00115762,-0.00065522,0.00146204,-0.000
 72613,0.00058654,-0.00012153,0.00008119,0.00025537,0.00019080,-0.00020
 681,0.00006584,-0.00023691,0.00001305,-0.00429068,-0.02199471,0.014981
 31,0.07105142,-0.00000424,0.00000757,0.00000475,0.00004423,0.00000970,
 0.00001253,-0.00000129,0.00000529,0.00001352,-0.00002332,-0.00001014,-
 0.00000656,0.00004376,0.00002936,-0.00007187,-0.00000689,-0.00001134,0
 .00002032,-0.00008683,-0.00000208,0.00005265,0.00000900,-0.00000448,-0
 .00001358,-0.00000290,0.00000131,0.00000003,-0.00000058,-0.00000204,-0
 .00000252,0.00000020,0.00000107,0.00000412,-0.00000389,0.00000078,-0.0
 0000099,0.00001842,-0.00001090,-0.00000493,0.00033377,-0.00003917,-0.0
 0113287,0.00158242,0.00608347,-0.00368713,-0.07011135,-0.24665855,0.11
 551480,0.00036602,0.00077020,-0.00020025,0.00044997,-0.00045753,0.0010
 1169,-0.00020920,0.00022113,0.00046312,0.00188369,-0.00235789,-0.00324
 582,0.00002510,0.00051456,-0.00026169,0.00005781,-0.00002488,-0.000095
 71,-0.00012582,0.00014143,-0.00016336,0.00043800,-0.00378005,0.0023369
 2,0.07331499,0.25960040,-0.00000018,0.00000848,0.00001083,0.00005273,0
 .00001199,0.00001453,0.00000687,0.00001648,0.00002058,-0.00003672,-0.0
 0001930,-0.00000601,0.00008406,0.00022304,-0.00032748,0.00006496,-0.00
 014775,0.00015676,-0.00021504,-0.00002986,0.00022083,0.00001773,0.0000
 0196,-0.00002680,-0.00000352,0.00000045,0.00000087,-0.00000954,-0.0000
 0252,-0.00000428,-0.00000260,-0.00000770,0.00000572,-0.00001474,-0.000
 00337,0.00000162,0.00005501,-0.00002429,-0.00000608,-0.00013156,-0.003
 08880,-0.00605068,0.00978533,0.02901142,-0.01614761,0.03705098,0.10904
 250,-0.11172008,0.00087008,0.00021052,0.00150064,-0.00054596,0.0030992
 6,-0.00192620,-0.00051494,-0.00047388,0.00156463,-0.00026016,-0.001717
 38,0.00154280,0.00058804,0.00168872,-0.00081620,-0.00003226,-0.0001328
 0,0.00010838,-0.00012847,-0.00019656,0.00019088,-0.00203009,-0.0104070
 4,0.00599652,-0.04124786,-0.12024330,0.12200161,-0.00002891,0.00001810
 ,-0.00000180,0.00011651,-0.00001763,0.00004548,-0.00001996,0.00001915,
 0.00000554,-0.00004196,-0.00000943,-0.00000249,0.00016500,0.00037387,-
 0.00064399,-0.00000203,-0.00031514,0.00031519,-0.00064134,-0.00017397,
 0.00045394,0.00000189,-0.00000329,-0.00001088,-0.00000328,0.00000463,0
 .00001072,0.00000365,-0.00000290,-0.00000351,0.00002570,-0.00000950,0.
 00000922,-0.00001174,0.00000470,0.00000399,0.00000314,-0.00002382,-0.0
 0001833,-0.00007614,-0.00003436,-0.00034520,-0.00234926,-0.00008622,-0
 .00138199,-0.16734358,0.13443543,0.03562209,0.00076852,-0.00074658,-0.
 00035158,0.00119840,-0.00079623,-0.00076956,0.00004658,-0.00006990,0.0
 0009064,0.00036089,-0.00019280,0.00003086,0.00011068,-0.00018461,-0.00
 008573,-0.00008769,0.00010611,0.00014361,0.00035363,-0.00026700,0.0003
 0837,-0.01301803,0.02086610,0.00679880,0.00754419,-0.00799107,-0.00340
 215,0.17292514,-0.00000910,0.00000281,-0.00001207,-0.00003056,-0.00003
 269,0.00000732,-0.00000607,-0.00000366,-0.00000680,0.00002184,0.000015
 92,0.00000692,-0.00002427,0.00004332,-0.00010196,-0.00000652,-0.000049
 33,0.00006295,-0.00014885,-0.00001142,0.00008222,-0.00001470,0.0000055
 4,0.00001990,0.00000463,0.00000082,0.00000682,0.00000387,0.00000131,0.
 00000045,-0.00000370,-0.00000119,-0.00000060,0.00000829,0.00000388,-0.
 00000223,-0.00003113,0.00001627,0.00000324,-0.00045866,-0.00016174,0.0
 0082640,0.00274430,-0.00407447,0.00050942,0.13342274,-0.19920420,-0.03
 886327,-0.00053375,0.00021554,0.00011435,-0.00032388,-0.00104393,0.001
 60178,0.00039519,0.00028682,-0.00093987,0.00063979,0.00016565,-0.00175
 674,-0.00013428,0.00005026,-0.00005979,-0.00013667,-0.00000804,0.00002
 329,-0.00015024,0.00041128,0.00058682,-0.00695681,0.00892980,0.0031403
 8,0.01663218,-0.01402722,-0.00682026,-0.14490363,0.20846866,-0.0000253
 9,0.00000158,-0.00003122,-0.00002658,-0.00007219,-0.00000685,-0.000028
 12,-0.00002839,-0.00000866,0.00001161,0.00003179,0.00001528,0.00004875
 ,-0.00002811,-0.00019315,-0.00007819,-0.00003473,0.00012372,-0.0002085
 8,0.00005425,0.00016068,-0.00003033,0.00000380,0.00004809,0.00001074,0
 .00000683,0.00001424,0.00001803,0.00000003,0.00000088,0.00002956,-0.00
 000317,0.00000653,0.00001469,0.00001314,0.00000557,-0.00003231,0.00004
 555,-0.00002386,-0.00009873,-0.00046683,0.00101804,0.02217744,-0.02582
 562,-0.00642425,0.03157882,-0.03533909,-0.05684757,0.00038070,0.000616
 16,0.00109243,-0.00233187,0.00156012,-0.00724830,0.00261574,-0.0015856
 4,-0.00090018,0.00036509,-0.00005775,0.00149898,-0.00026006,-0.0000534
 2,0.00025781,0.00003592,0.00001968,-0.00003087,0.00008203,0.00064518,-
 0.00079539,-0.00564455,0.00922934,0.00191504,-0.01178316,0.00969614,0.
 00369425,-0.03682124,0.04157132,0.06265878\\0.00000084,0.00000087,0.00
 000020,-0.00000049,-0.00000012,0.00000015,0.00000005,-0.00000092,-0.00
 000154,0.00000016,-0.00000078,0.00000156,0.00000008,-0.00000051,0.0000
 0132,0.00000075,0.00000042,0.00000166,-0.00000039,-0.00000082,0.000000
 70,0.00000035,0.00000197,-0.00000004,0.00000031,0.00000166,-0.00000048
 ,0.00000059,0.00000182,0.00000103,-0.00000080,-0.00000189,-0.00000075,
 -0.00000055,-0.00000058,-0.00000139,-0.00000047,-0.00000030,-0.0000009
 9,0.00000019,0.00000065,0.00000106,0.00000043,0.00000007,-0.00000015,-
 0.00000074,-0.00000097,-0.00000051,-0.00000013,0.00000076,-0.00000155,
 -0.00000024,-0.00000003,-0.00000132,0.00000013,0.00000170,-0.00000115,
 -0.00000003,-0.00000052,-0.00000197,0.00000080,0.00000188,0.00000076,0
 .00000011,0.00000067,0.00000189,0.00000055,0.00000058,0.00000138,-0.00
 000060,-0.00000216,0.00000067,-0.00000060,-0.00000181,-0.00000101,-0.0
 0000030,-0.00000165,0.00000048\\\@


 THE RARE EARTHS PERPLEX US IN OUR RESEARCHES,
 BAFFLE US IN OUR SPECULATIONS, AND HAUNT US IN OUR
 VERY DREAMS.  THEY STRETCH LIKE AN UNKNOWN BEFORE US,
 MOCKING, MYSTIFYING, AND MURMURING STRANGE REVELATIONS
 AND POSSIBILITIES.  -- SIR WILLIAM CROOKE, 1832-1919
 File lengths (MBytes):  RWF=    187 Int=      0 D2E=      0 Chk=      5 Scr=      1
 Normal termination of Gaussian 16 at Mon Apr  1 15:53:10 2024.
real 2941.11
user 10441.32
sys 68.52
