 Entering Gaussian System, Link 0=g16
 Input=gaussian_test.inp
 Output=gaussian_test.log
 Initial command:
 /sw/restricted/lms/sw/Gaussian/g16_B01/g16/l1.exe "/scratch/user/peterchao1/peterchao1/6269713_1663082913000000906876550/Gau-129726.inp" -scrdir="/scratch/user/peterchao1/peterchao1/6269713_1663082913000000906876550/"
 Entering Link 1 = /sw/restricted/lms/sw/Gaussian/g16_B01/g16/l1.exe PID=    129727.
  
 Copyright (c) 1988-2017, Gaussian, Inc.  All Rights Reserved.
  
 This is part of the Gaussian(R) 16 program.  It is based on
 the Gaussian(R) 09 system (copyright 2009, Gaussian, Inc.),
 the Gaussian(R) 03 system (copyright 2003, Gaussian, Inc.),
 the Gaussian(R) 98 system (copyright 1998, Gaussian, Inc.),
 the Gaussian(R) 94 system (copyright 1995, Gaussian, Inc.),
 the Gaussian 92(TM) system (copyright 1992, Gaussian, Inc.),
 the Gaussian 90(TM) system (copyright 1990, Gaussian, Inc.),
 the Gaussian 88(TM) system (copyright 1988, Gaussian, Inc.),
 the Gaussian 86(TM) system (copyright 1986, Carnegie Mellon
 University), and the Gaussian 82(TM) system (copyright 1983,
 Carnegie Mellon University). Gaussian is a federally registered
 trademark of Gaussian, Inc.
  
 This software contains proprietary and confidential information,
 including trade secrets, belonging to Gaussian, Inc.
  
 This software is provided under written license and may be
 used, copied, transmitted, or stored only in accord with that
 written license.
  
 The following legend is applicable only to US Government
 contracts under FAR:
  
                    RESTRICTED RIGHTS LEGEND
  
 Use, reproduction and disclosure by the US Government is
 subject to restrictions as set forth in subparagraphs (a)
 and (c) of the Commercial Computer Software - Restricted
 Rights clause in FAR 52.227-19.
  
 Gaussian, Inc.
 340 Quinnipiac St., Bldg. 40, Wallingford CT 06492
  
  
 ---------------------------------------------------------------
 Warning -- This program may not be used in any manner that
 competes with the business of Gaussian, Inc. or will provide
 assistance to any competitor of Gaussian, Inc.  The licensee
 of this program is prohibited from giving any competitor of
 Gaussian, Inc. access to this program.  By using this program,
 the user acknowledges that Gaussian, Inc. is engaged in the
 business of creating and licensing software in the field of
 computational chemistry and represents and warrants to the
 licensee that it is not a competitor of Gaussian, Inc. and that
 it will not use this program in any manner prohibited above.
 ---------------------------------------------------------------
  

 Cite this work as:
 Gaussian 16, Revision B.01,
 M. J. Frisch, G. W. Trucks, H. B. Schlegel, G. E. Scuseria, 
 M. A. Robb, J. R. Cheeseman, G. Scalmani, V. Barone, 
 G. A. Petersson, H. Nakatsuji, X. Li, M. Caricato, A. V. Marenich, 
 J. Bloino, B. G. Janesko, R. Gomperts, B. Mennucci, H. P. Hratchian, 
 J. V. Ortiz, A. F. Izmaylov, J. L. Sonnenberg, D. Williams-Young, 
 F. Ding, F. Lipparini, F. Egidi, J. Goings, B. Peng, A. Petrone, 
 T. Henderson, D. Ranasinghe, V. G. Zakrzewski, J. Gao, N. Rega, 
 G. Zheng, W. Liang, M. Hada, M. Ehara, K. Toyota, R. Fukuda, 
 J. Hasegawa, M. Ishida, T. Nakajima, Y. Honda, O. Kitao, H. Nakai, 
 T. Vreven, K. Throssell, J. A. Montgomery, Jr., J. E. Peralta, 
 F. Ogliaro, M. J. Bearpark, J. J. Heyd, E. N. Brothers, K. N. Kudin, 
 V. N. Staroverov, T. A. Keith, R. Kobayashi, J. Normand, 
 K. Raghavachari, A. P. Rendell, J. C. Burant, S. S. Iyengar, 
 J. Tomasi, M. Cossi, J. M. Millam, M. Klene, C. Adamo, R. Cammi, 
 J. W. Ochterski, R. L. Martin, K. Morokuma, O. Farkas, 
 J. B. Foresman, and D. J. Fox, Gaussian, Inc., Wallingford CT, 2016.
 
 ******************************************
 Gaussian 16:  ES64L-G16RevB.01 20-Dec-2017
                13-Sep-2022 
 ******************************************
 %nprocshared=4
 Will use up to    4 processors via shared memory.
 %mem=8000mb
 ----------------------------------------------------------------------
 #T wB97XD/def2svpp opt=(calcall,tight) freq int(grid=ultrafine) scf=(v
 erytight,qc)
 ----------------------------------------------------------------------
 -----
 dimer
 -----
 Symbolic Z-matrix:
 Charge =  0 Multiplicity = 1
 C                     1.80263   0.        0.00004 
 H                     1.45547   0.86275  -0.59078 
 H                     1.44015  -0.93114  -0.46428 
 H                     1.40708   0.07563   1.02552 
 H                     2.90434  -0.00729   0.02934 
 C                    -1.80289  -0.00002   0.00004 
 H                    -1.48193   0.90931   0.53282 
 H                    -1.40147  -0.88695   0.51599 
 H                    -1.41827   0.02678  -1.03207 
 H                    -2.9038   -0.049    -0.01698 
 
 Add virtual bond connecting atoms H7         and H2         Dist= 5.94D+00.
 Add virtual bond connecting atoms H7         and H4         Dist= 5.76D+00.
 Add virtual bond connecting atoms H8         and H3         Dist= 5.68D+00.
 Add virtual bond connecting atoms H8         and H4         Dist= 5.69D+00.
 Add virtual bond connecting atoms H9         and H2         Dist= 5.72D+00.

 GradGradGradGradGradGradGradGradGradGradGradGradGradGradGradGradGradGrad
 Initialization pass.
                           ----------------------------
                           !    Initial Parameters    !
                           ! (Angstroms and Degrees)  !
 --------------------------                            --------------------------
 ! Name  Definition              Value          Derivative Info.                !
 --------------------------------------------------------------------------------
 ! R1    R(1,2)                  1.1018         calculate D2E/DX2 analytically  !
 ! R2    R(1,3)                  1.1018         calculate D2E/DX2 analytically  !
 ! R3    R(1,4)                  1.1017         calculate D2E/DX2 analytically  !
 ! R4    R(1,5)                  1.1021         calculate D2E/DX2 analytically  !
 ! R5    R(2,7)                  3.1453         calculate D2E/DX2 analytically  !
 ! R6    R(2,9)                  3.0252         calculate D2E/DX2 analytically  !
 ! R7    R(3,8)                  3.0063         calculate D2E/DX2 analytically  !
 ! R8    R(4,7)                  3.047          calculate D2E/DX2 analytically  !
 ! R9    R(4,8)                  3.0123         calculate D2E/DX2 analytically  !
 ! R10   R(6,7)                  1.1017         calculate D2E/DX2 analytically  !
 ! R11   R(6,8)                  1.1018         calculate D2E/DX2 analytically  !
 ! R12   R(6,9)                  1.1018         calculate D2E/DX2 analytically  !
 ! R13   R(6,10)                 1.1021         calculate D2E/DX2 analytically  !
 ! A1    A(2,1,3)              109.3972         calculate D2E/DX2 analytically  !
 ! A2    A(2,1,4)              109.4054         calculate D2E/DX2 analytically  !
 ! A3    A(2,1,5)              109.5367         calculate D2E/DX2 analytically  !
 ! A4    A(3,1,4)              109.3988         calculate D2E/DX2 analytically  !
 ! A5    A(3,1,5)              109.5408         calculate D2E/DX2 analytically  !
 ! A6    A(4,1,5)              109.5482         calculate D2E/DX2 analytically  !
 ! A7    A(1,2,7)               96.563          calculate D2E/DX2 analytically  !
 ! A8    A(1,2,9)               99.274          calculate D2E/DX2 analytically  !
 ! A9    A(7,2,9)               33.805          calculate D2E/DX2 analytically  !
 ! A10   A(1,3,8)               99.2726         calculate D2E/DX2 analytically  !
 ! A11   A(1,4,7)              102.0454         calculate D2E/DX2 analytically  !
 ! A12   A(1,4,8)               98.9379         calculate D2E/DX2 analytically  !
 ! A13   A(7,4,8)               34.5196         calculate D2E/DX2 analytically  !
 ! A14   A(7,6,8)              109.3789         calculate D2E/DX2 analytically  !
 ! A15   A(7,6,9)              109.3441         calculate D2E/DX2 analytically  !
 ! A16   A(7,6,10)             109.5826         calculate D2E/DX2 analytically  !
 ! A17   A(8,6,9)              109.3331         calculate D2E/DX2 analytically  !
 ! A18   A(8,6,10)             109.5955         calculate D2E/DX2 analytically  !
 ! A19   A(9,6,10)             109.5923         calculate D2E/DX2 analytically  !
 ! A20   A(2,7,4)               33.7196         calculate D2E/DX2 analytically  !
 ! A21   A(2,7,6)               94.9971         calculate D2E/DX2 analytically  !
 ! A22   A(4,7,6)               97.3887         calculate D2E/DX2 analytically  !
 ! A23   A(3,8,4)               34.7714         calculate D2E/DX2 analytically  !
 ! A24   A(3,8,6)              101.7429         calculate D2E/DX2 analytically  !
 ! A25   A(4,8,6)               99.3036         calculate D2E/DX2 analytically  !
 ! A26   A(2,9,6)              101.6355         calculate D2E/DX2 analytically  !
 ! D1    D(3,1,2,7)             78.7914         calculate D2E/DX2 analytically  !
 ! D2    D(3,1,2,9)             44.7577         calculate D2E/DX2 analytically  !
 ! D3    D(4,1,2,7)            -41.0347         calculate D2E/DX2 analytically  !
 ! D4    D(4,1,2,9)            -75.0684         calculate D2E/DX2 analytically  !
 ! D5    D(5,1,2,7)           -161.1287         calculate D2E/DX2 analytically  !
 ! D6    D(5,1,2,9)            164.8376         calculate D2E/DX2 analytically  !
 ! D7    D(2,1,3,8)            -78.3484         calculate D2E/DX2 analytically  !
 ! D8    D(4,1,3,8)             41.4817         calculate D2E/DX2 analytically  !
 ! D9    D(5,1,3,8)            161.5742         calculate D2E/DX2 analytically  !
 ! D10   D(2,1,4,7)             43.5049         calculate D2E/DX2 analytically  !
 ! D11   D(2,1,4,8)             78.4924         calculate D2E/DX2 analytically  !
 ! D12   D(3,1,4,7)            -76.3202         calculate D2E/DX2 analytically  !
 ! D13   D(3,1,4,8)            -41.3327         calculate D2E/DX2 analytically  !
 ! D14   D(5,1,4,7)            163.5918         calculate D2E/DX2 analytically  !
 ! D15   D(5,1,4,8)           -161.4207         calculate D2E/DX2 analytically  !
 ! D16   D(1,2,7,4)             23.7861         calculate D2E/DX2 analytically  !
 ! D17   D(1,2,7,6)            -72.0411         calculate D2E/DX2 analytically  !
 ! D18   D(9,2,7,4)            120.6633         calculate D2E/DX2 analytically  !
 ! D19   D(9,2,7,6)             24.836          calculate D2E/DX2 analytically  !
 ! D20   D(1,2,9,6)             62.6643         calculate D2E/DX2 analytically  !
 ! D21   D(7,2,9,6)            -25.2885         calculate D2E/DX2 analytically  !
 ! D22   D(1,3,8,4)            -23.6202         calculate D2E/DX2 analytically  !
 ! D23   D(1,3,8,6)             65.8142         calculate D2E/DX2 analytically  !
 ! D24   D(1,4,7,2)            -24.1873         calculate D2E/DX2 analytically  !
 ! D25   D(1,4,7,6)             63.7455         calculate D2E/DX2 analytically  !
 ! D26   D(8,4,7,2)           -112.4729         calculate D2E/DX2 analytically  !
 ! D27   D(8,4,7,6)            -24.5402         calculate D2E/DX2 analytically  !
 ! D28   D(1,4,8,3)             23.599          calculate D2E/DX2 analytically  !
 ! D29   D(1,4,8,6)            -73.6199         calculate D2E/DX2 analytically  !
 ! D30   D(7,4,8,3)            121.8851         calculate D2E/DX2 analytically  !
 ! D31   D(7,4,8,6)             24.6662         calculate D2E/DX2 analytically  !
 ! D32   D(8,6,7,2)             76.8505         calculate D2E/DX2 analytically  !
 ! D33   D(8,6,7,4)             43.0099         calculate D2E/DX2 analytically  !
 ! D34   D(9,6,7,2)            -42.847          calculate D2E/DX2 analytically  !
 ! D35   D(9,6,7,4)            -76.6876         calculate D2E/DX2 analytically  !
 ! D36   D(10,6,7,2)          -162.9855         calculate D2E/DX2 analytically  !
 ! D37   D(10,6,7,4)           163.1739         calculate D2E/DX2 analytically  !
 ! D38   D(7,6,8,3)            -79.1985         calculate D2E/DX2 analytically  !
 ! D39   D(7,6,8,4)            -43.897          calculate D2E/DX2 analytically  !
 ! D40   D(9,6,8,3)             40.5059         calculate D2E/DX2 analytically  !
 ! D41   D(9,6,8,4)             75.8073         calculate D2E/DX2 analytically  !
 ! D42   D(10,6,8,3)           160.6455         calculate D2E/DX2 analytically  !
 ! D43   D(10,6,8,4)          -164.0531         calculate D2E/DX2 analytically  !
 ! D44   D(7,6,9,2)             45.9824         calculate D2E/DX2 analytically  !
 ! D45   D(8,6,9,2)            -73.7434         calculate D2E/DX2 analytically  !
 ! D46   D(10,6,9,2)           166.115          calculate D2E/DX2 analytically  !
 --------------------------------------------------------------------------------
 Number of steps in this run=     95 maximum allowed number of steps=    100.
 GradGradGradGradGradGradGradGradGradGradGradGradGradGradGradGradGradGrad

                    Distance matrix (angstroms):
                    1          2          3          4          5
     1  C    0.000000
     2  H    1.101776   0.000000
     3  H    1.101822   1.798408   0.000000
     4  H    1.101724   1.798419   1.798383   0.000000
     5  H    1.102127   1.800205   1.800289   1.800291   0.000000
     6  C    3.605524   3.422041   3.405864   3.370644   4.707334
     7  H    3.449494   3.145304   3.594438   3.046985   4.509212
     8  H    3.364393   3.528237   3.006271   3.012327   4.421612
     9  H    3.382335   3.025224   3.067668   3.495523   4.451155
    10  H    4.706717   4.490410   4.455126   4.436890   5.808478
                    6          7          8          9         10
     6  C    0.000000
     7  H    1.101701   0.000000
     8  H    1.101810   1.798134   0.000000
     9  H    1.101775   1.797718   1.797684   0.000000
    10  H    1.102128   1.800655   1.800887   1.800822   0.000000
 Framework group  C1[X(C2H8)]
 Deg. of freedom    24
                         Standard orientation:                         
 ---------------------------------------------------------------------
 Center     Atomic      Atomic             Coordinates (Angstroms)
 Number     Number       Type             X           Y           Z
 ---------------------------------------------------------------------
      1          6           0        1.802631   -0.000002   -0.000036
      2          1           0        1.455471   -0.862746    0.590779
      3          1           0        1.440149    0.931142    0.464280
      4          1           0        1.407078   -0.075630   -1.025518
      5          1           0        2.904344    0.007286   -0.029342
      6          6           0       -1.802893    0.000017   -0.000039
      7          1           0       -1.481926   -0.909308   -0.532818
      8          1           0       -1.401469    0.886946   -0.515985
      9          1           0       -1.418273   -0.026782    1.032074
     10          1           0       -2.903800    0.049003    0.016975
 ---------------------------------------------------------------------
 Rotational constants (GHZ):          77.5467677           4.5654388           4.5653957
    44 basis functions,    82 primitive gaussians,    46 cartesian basis functions
    10 alpha electrons       10 beta electrons
       nuclear repulsion energy        41.1118198166 Hartrees.
 NAtoms=   10 NActive=   10 NUniq=   10 SFac= 1.00D+00 NAtFMM=   60 NAOKFM=F Big=F
 Nuclear repulsion after empirical dispersion term =       41.1095696053 Hartrees.
   1 Symmetry operations used in ECPInt.
 ECPInt:  NShTT=     406 NPrTT=    1646 LenC2=     406 LenP2D=    1413.
 LDataN:  DoStor=T MaxTD1= 4 Len=   56
 ExpMin= 1.22D-01 ExpMax= 1.24D+03 ExpMxC= 1.86D+02 IAcc=3 IRadAn=         5 AccDes= 0.00D+00
 Harris functional with IExCor= 4639 and IRadAn=       5 diagonalized for initial guess.
 HarFok:  IExCor= 4639 AccDes= 0.00D+00 IRadAn=         5 IDoV= 1 UseB2=F ITyADJ=14
 ICtDFT=  3500011 ScaDFX=  1.000000  1.000000  1.000000  1.000000
 FoFCou: FMM=F IPFlag=           0 FMFlag=      100000 FMFlg1=           0
         NFxFlg=           0 DoJE=T BraDBF=F KetDBF=T FulRan=T
         wScrn=  0.000000 ICntrl=       500 IOpCl=  0 I1Cent=   200000004 NGrid=           0
         NMat0=    1 NMatS0=      1 NMatT0=    0 NMatD0=    1 NMtDS0=    0 NMtDT0=    0
 Petite list used in FoFCou.
     Accept linear search using points  1 and  2.
     Minimum is close to point  2 DX=  1.36D-04 DF= -2.42D-13 DXR=  1.36D-04 DFR=  1.75D-08 which will be used.
 SCF Done:  E(RwB97XD) =  -80.9277491864     a.u. after    6 cycles
            Convg  =    0.1991D-09                    26 Fock formations.
              S**2 =  0.0000                  -V/T =  2.0131
 DoSCS=F DFT=T ScalE2(SS,OS)=  1.000000  1.000000
 NROrb=     44 NOA=    10 NOB=    10 NVA=    34 NVB=    34
   1 Symmetry operations used in ECPInt.
 ECPInt:  NShTT=     406 NPrTT=    1646 LenC2=     406 LenP2D=    1413.
 LDataN:  DoStor=T MaxTD1= 5 Len=  102
 Symmetrizing basis deriv contribution to polar:
 IMax=3 JMax=2 DiffMx= 0.00D+00
 Calling FoFCou, ICntrl=  3107 FMM=F I1Cent=   0 AccDes= 0.00D+00.
 End of G2Drv F.D. properties file   721 does not exist.
 End of G2Drv F.D. properties file   722 does not exist.
 End of G2Drv F.D. properties file   788 does not exist.
          IDoAtm=1111111111
 End of Minotr F.D. properties file   721 does not exist.
 End of Minotr F.D. properties file   722 does not exist.
 End of Minotr F.D. properties file   788 does not exist.

 **********************************************************************

            Population analysis using the SCF Density.

 **********************************************************************

 Orbital symmetries:
       Occupied  (A) (A) (A) (A) (A) (A) (A) (A) (A) (A)
       Virtual   (A) (A) (A) (A) (A) (A) (A) (A) (A) (A) (A) (A)
                 (A) (A) (A) (A) (A) (A) (A) (A) (A) (A) (A) (A)
                 (A) (A) (A) (A) (A) (A) (A) (A) (A) (A)
 The electronic state is 1-A.
 Alpha  occ. eigenvalues --  -10.27408 -10.27403  -0.78143  -0.77572  -0.48098
 Alpha  occ. eigenvalues --   -0.47675  -0.47656  -0.47019  -0.46991  -0.46634
 Alpha virt. eigenvalues --    0.13543   0.19085   0.21087   0.21268   0.21766
 Alpha virt. eigenvalues --    0.23910   0.24360   0.24677   0.43224   0.50345
 Alpha virt. eigenvalues --    0.50505   0.52429   0.52591   0.67160   0.74412
 Alpha virt. eigenvalues --    0.79412   0.80490   0.80809   0.80933   0.81546
 Alpha virt. eigenvalues --    0.81710   0.82579   0.85398   0.98724   1.73548
 Alpha virt. eigenvalues --    1.73552   1.73586   1.73596   2.20928   2.21714
 Alpha virt. eigenvalues --    2.21829   2.22624   2.22738   2.28939
          Condensed to atoms (all electrons):
 Mulliken charges:
               1
     1  C   -0.535104
     2  H    0.133684
     3  H    0.133695
     4  H    0.134044
     5  H    0.133690
     6  C   -0.535171
     7  H    0.133436
     8  H    0.134017
     9  H    0.133900
    10  H    0.133810
 Sum of Mulliken charges =   0.00000
 Mulliken charges with hydrogens summed into heavy atoms:
               1
     1  C    0.000010
     6  C   -0.000010
 APT charges:
               1
     1  C   -0.078045
     2  H    0.021405
     3  H    0.021163
     4  H    0.019443
     5  H    0.017149
     6  C   -0.077935
     7  H    0.021511
     8  H    0.017654
     9  H    0.020371
    10  H    0.017284
 Sum of APT charges =   0.00000
 APT charges with hydrogens summed into heavy atoms:
               1
     1  C    0.001115
     6  C   -0.001115
 Electronic spatial extent (au):  <R**2>=            303.6992
 Charge=              0.0000 electrons
 Dipole moment (field-independent basis, Debye):
    X=              0.0011    Y=             -0.0006    Z=              0.0003  Tot=              0.0013
  Exact polarizability:  26.551  -0.016  23.801  -0.019   0.011  23.775
 Approx polarizability:  23.165  -0.015  22.566  -0.013  -0.000  22.563
   1 Symmetry operations used in ECPInt.
 ECPInt:  NShTT=     406 NPrTT=    1646 LenC2=     406 LenP2D=    1413.
 LDataN:  DoStor=T MaxTD1= 6 Len=  172
 Calling FoFJK, ICntrl=    100127 FMM=F ISym2X=0 I1Cent= 0 IOpClX= 0 NMat=1 NMatS=1 NMatT=0.
 FormGI is forming the generalized inverse of G from B-inverse, IUseBI=4.

 GradGradGradGradGradGradGradGradGradGradGradGradGradGradGradGradGradGrad
 Internal  Forces:  Max     0.000079377 RMS     0.000018647
 Step number   1 out of a maximum of   95
 All quantities printed in internal units (Hartrees-Bohrs-Radians)
 Mixed Optimization -- En-DIIS/RFO-DIIS
 Second derivative matrix not updated -- analytic derivatives used.
 ITU=  0
     Eigenvalues ---    0.00002   0.00005   0.00008   0.00037   0.00042
     Eigenvalues ---    0.00084   0.02591   0.02726   0.03163   0.03193
     Eigenvalues ---    0.03311   0.04466   0.05048   0.05211   0.05509
     Eigenvalues ---    0.06103   0.25790   0.27288   0.28338   0.29979
     Eigenvalues ---    0.30322   0.30896   0.34664   0.34679
 Linear search not attempted -- first point.
 Maximum step size (   0.300) exceeded in Quadratic search.
    -- Step size scaled by   0.863
 Iteration  1 RMS(Cart)=  0.02678942 RMS(Int)=  0.00558904
 Iteration  2 RMS(Cart)=  0.00362075 RMS(Int)=  0.00051823
 Iteration  3 RMS(Cart)=  0.00000858 RMS(Int)=  0.00051811
 Iteration  4 RMS(Cart)=  0.00000000 RMS(Int)=  0.00051811
 Variable       Old X    -DE/DX   Delta X   Delta X   Delta X     New X
                                 (Linear)    (Quad)   (Total)
    R1        2.08205   0.00003   0.00000   0.00006   0.00049   2.08255
    R2        2.08214  -0.00000   0.00000  -0.00001   0.00016   2.08230
    R3        2.08196   0.00004   0.00000   0.00017   0.00071   2.08267
    R4        2.08272  -0.00004   0.00000  -0.00015  -0.00015   2.08257
    R5        5.94376  -0.00001   0.00000  -0.26239  -0.26367   5.68009
    R6        5.71685  -0.00000   0.00000  -0.05453  -0.05396   5.66289
    R7        5.68103   0.00001   0.00000   0.02496   0.02523   5.70625
    R8        5.75797  -0.00001   0.00000  -0.03688  -0.03686   5.72111
    R9        5.69247   0.00002   0.00000   0.00119   0.00083   5.69330
   R10        2.08191   0.00007   0.00000   0.00020   0.00075   2.08266
   R11        2.08212  -0.00001   0.00000  -0.00001   0.00013   2.08225
   R12        2.08205   0.00003   0.00000   0.00008   0.00039   2.08244
   R13        2.08272  -0.00008   0.00000  -0.00016  -0.00016   2.08256
    A1        1.90934  -0.00001   0.00000  -0.00065  -0.00096   1.90839
    A2        1.90948  -0.00002   0.00000  -0.00077  -0.00022   1.90926
    A3        1.91178   0.00002   0.00000   0.00083   0.00070   1.91248
    A4        1.90937  -0.00002   0.00000  -0.00053  -0.00104   1.90833
    A5        1.91185   0.00002   0.00000   0.00061   0.00086   1.91271
    A6        1.91198   0.00001   0.00000   0.00051   0.00065   1.91263
    A7        1.68534   0.00002   0.00000   0.05685   0.05709   1.74243
    A8        1.73266   0.00001   0.00000   0.02084   0.01974   1.75240
    A9        0.59001   0.00002   0.00000   0.01890   0.01863   0.60864
   A10        1.73263   0.00002   0.00000  -0.02163  -0.02207   1.71056
   A11        1.78103   0.00001   0.00000  -0.05929  -0.05975   1.72128
   A12        1.72679   0.00001   0.00000  -0.00940  -0.00971   1.71708
   A13        0.60248   0.00001   0.00000   0.00201   0.00218   0.60466
   A14        1.90902  -0.00000   0.00000  -0.00036   0.00001   1.90903
   A15        1.90841   0.00001   0.00000   0.00025   0.00064   1.90905
   A16        1.91258  -0.00001   0.00000   0.00006  -0.00039   1.91219
   A17        1.90822   0.00002   0.00000   0.00033  -0.00073   1.90750
   A18        1.91280  -0.00001   0.00000  -0.00014   0.00016   1.91296
   A19        1.91275  -0.00001   0.00000  -0.00014   0.00031   1.91306
   A20        0.58852   0.00001   0.00000   0.01739   0.01694   0.60546
   A21        1.65801  -0.00002   0.00000   0.05411   0.05440   1.71241
   A22        1.69975  -0.00001   0.00000   0.02095   0.02018   1.71994
   A23        0.60688   0.00000   0.00000  -0.00152  -0.00153   0.60535
   A24        1.77575  -0.00001   0.00000  -0.03178  -0.03225   1.74350
   A25        1.73318  -0.00001   0.00000   0.00173   0.00115   1.73433
   A26        1.77387  -0.00001   0.00000  -0.05192  -0.05261   1.72126
    D1        1.37517  -0.00002   0.00000  -0.00972  -0.01007   1.36510
    D2        0.78117  -0.00004   0.00000  -0.03503  -0.03456   0.74660
    D3       -0.71619   0.00002   0.00000  -0.00821  -0.00809  -0.72428
    D4       -1.31019   0.00000   0.00000  -0.03352  -0.03258  -1.34277
    D5       -2.81223   0.00001   0.00000  -0.00887  -0.00918  -2.82140
    D6        2.87696  -0.00001   0.00000  -0.03418  -0.03367   2.84329
    D7       -1.36744   0.00003   0.00000   0.03737   0.03729  -1.33014
    D8        0.72399  -0.00002   0.00000   0.03571   0.03581   0.75980
    D9        2.82000   0.00000   0.00000   0.03638   0.03650   2.85650
   D10        0.75930  -0.00002   0.00000  -0.04508  -0.04434   0.71496
   D11        1.36995  -0.00001   0.00000  -0.04260  -0.04341   1.32654
   D12       -1.33204   0.00001   0.00000  -0.04350  -0.04241  -1.37445
   D13       -0.72139   0.00002   0.00000  -0.04101  -0.04147  -0.76286
   D14        2.85522  -0.00001   0.00000  -0.04423  -0.04322   2.81199
   D15       -2.81732   0.00000   0.00000  -0.04175  -0.04229  -2.85961
   D16        0.41515  -0.00000   0.00000  -0.00435  -0.00389   0.41126
   D17       -1.25736  -0.00000   0.00000   0.04003   0.04005  -1.21731
   D18        2.10597  -0.00000   0.00000  -0.05282  -0.05200   2.05397
   D19        0.43347  -0.00000   0.00000  -0.00843  -0.00807   0.42540
   D20        1.09370   0.00001   0.00000   0.09162   0.09129   1.18499
   D21       -0.44137  -0.00000   0.00000   0.01587   0.01532  -0.42604
   D22       -0.41225  -0.00000   0.00000  -0.01865  -0.01877  -0.43102
   D23        1.14867   0.00001   0.00000   0.02991   0.02945   1.17813
   D24       -0.42215   0.00000   0.00000   0.01307   0.01241  -0.40974
   D25        1.11257  -0.00001   0.00000   0.08274   0.08220   1.19477
   D26       -1.96302   0.00001   0.00000  -0.05730  -0.05743  -2.02045
   D27       -0.42831   0.00000   0.00000   0.01237   0.01236  -0.41595
   D28        0.41188  -0.00001   0.00000   0.01949   0.01949   0.43137
   D29       -1.28491   0.00001   0.00000   0.07766   0.07780  -1.20711
   D30        2.12730   0.00000   0.00000  -0.07169  -0.07178   2.05552
   D31        0.43051   0.00002   0.00000  -0.01352  -0.01347   0.41704
   D32        1.34129   0.00002   0.00000  -0.00014  -0.00069   1.34060
   D33        0.75066   0.00002   0.00000  -0.02247  -0.02214   0.72852
   D34       -0.74782  -0.00000   0.00000  -0.00048  -0.00020  -0.74802
   D35       -1.33845  -0.00001   0.00000  -0.02281  -0.02164  -1.36010
   D36       -2.84463   0.00000   0.00000  -0.00050  -0.00073  -2.84537
   D37        2.84792  -0.00000   0.00000  -0.02283  -0.02218   2.82574
   D38       -1.38227  -0.00001   0.00000   0.03290   0.03312  -1.34915
   D39       -0.76615  -0.00001   0.00000   0.03189   0.03121  -0.73494
   D40        0.70696   0.00001   0.00000   0.03318   0.03346   0.74042
   D41        1.32309   0.00001   0.00000   0.03217   0.03155   1.35464
   D42        2.80379   0.00000   0.00000   0.03313   0.03350   2.83729
   D43       -2.86327   0.00000   0.00000   0.03212   0.03158  -2.83168
   D44        0.80254   0.00000   0.00000  -0.05124  -0.05049   0.75206
   D45       -1.28706  -0.00001   0.00000  -0.05115  -0.05044  -1.33751
   D46        2.89925  -0.00000   0.00000  -0.05110  -0.05038   2.84888
         Item               Value     Threshold  Converged?
 Maximum Force            0.000079     0.000015     NO 
 RMS     Force            0.000019     0.000010     NO 
 Maximum Displacement     0.110304     0.000060     NO 
 RMS     Displacement     0.029519     0.000040     NO 
 GradGradGradGradGradGradGradGradGradGradGradGradGradGradGradGradGradGrad

                    Distance matrix (angstroms):
                    1          2          3          4          5
     1  C    0.000000
     2  H    1.102037   0.000000
     3  H    1.101907   1.798081   0.000000
     4  H    1.102102   1.798797   1.798100   0.000000
     5  H    1.102046   1.800798   1.800839   1.800948   0.000000
     6  C    3.573335   3.344312   3.387595   3.372210   4.675156
     7  H    3.373523   3.005775   3.537812   3.027480   4.430115
     8  H    3.355498   3.478971   3.019620   3.012765   4.422393
     9  H    3.374518   2.996670   3.049991   3.524113   4.434629
    10  H    4.675329   4.408657   4.447649   4.431916   5.777182
                    6          7          8          9         10
     6  C    0.000000
     7  H    1.102098   0.000000
     8  H    1.101881   1.798520   0.000000
     9  H    1.101981   1.798615   1.797448   0.000000
    10  H    1.102045   1.800666   1.800976   1.801122   0.000000
 Framework group  C1[X(C2H8)]
 Deg. of freedom    24
                         Standard orientation:                         
 ---------------------------------------------------------------------
 Center     Atomic      Atomic             Coordinates (Angstroms)
 Number     Number       Type             X           Y           Z
 ---------------------------------------------------------------------
      1          6           0        1.786648   -0.000066    0.000005
      2          1           0        1.395023   -0.370693    0.961125
      3          1           0        1.435851    1.031625   -0.163569
      4          1           0        1.421216   -0.643615   -0.816655
      5          1           0        2.888399   -0.017092    0.018963
      6          6           0       -1.786687   -0.000018    0.000009
      7          1           0       -1.422519   -1.029690    0.147578
      8          1           0       -1.405597    0.388814   -0.957969
      9          1           0       -1.423472    0.637662    0.822080
     10          1           0       -2.888665    0.003492   -0.011634
 ---------------------------------------------------------------------
 Rotational constants (GHZ):          77.5347035           4.6434853           4.6434413
    44 basis functions,    82 primitive gaussians,    46 cartesian basis functions
    10 alpha electrons       10 beta electrons
       nuclear repulsion energy        41.2359967427 Hartrees.
 NAtoms=   10 NActive=   10 NUniq=   10 SFac= 1.00D+00 NAtFMM=   60 NAOKFM=F Big=F
 Nuclear repulsion after empirical dispersion term =       41.2336850529 Hartrees.
   1 Symmetry operations used in ECPInt.
 ECPInt:  NShTT=     406 NPrTT=    1646 LenC2=     406 LenP2D=    1413.
 LDataN:  DoStor=T MaxTD1= 4 Len=   56
 Initial guess from the checkpoint file:  "/scratch/user/peterchao1/peterchao1/6269713_1663082913000000906876550/Gau-129727.chk"
 B after Tr=    -0.000000   -0.000000    0.000000
         Rot=    0.949399    0.314071    0.001091   -0.000503 Ang=  36.61 deg.
 ExpMin= 1.22D-01 ExpMax= 1.24D+03 ExpMxC= 1.86D+02 IAcc=3 IRadAn=         5 AccDes= 0.00D+00
 Harris functional with IExCor= 4639 and IRadAn=       5 diagonalized for initial guess.
 HarFok:  IExCor= 4639 AccDes= 0.00D+00 IRadAn=         5 IDoV= 1 UseB2=F ITyADJ=14
 ICtDFT=  3500011 ScaDFX=  1.000000  1.000000  1.000000  1.000000
 FoFCou: FMM=F IPFlag=           0 FMFlag=      100000 FMFlg1=           0
         NFxFlg=           0 DoJE=T BraDBF=F KetDBF=T FulRan=T
         wScrn=  0.000000 ICntrl=       500 IOpCl=  0 I1Cent=   200000004 NGrid=           0
         NMat0=    1 NMatS0=      1 NMatT0=    0 NMatD0=    1 NMtDS0=    0 NMtDT0=    0
 Petite list used in FoFCou.
     Accept linear search using points  2 and  3.
     Accept linear search using points  1 and  2.
     Minimum is close to point  2 DX= -3.93D-05 DF= -1.14D-13 DXR=  3.93D-05 DFR=  1.52D-09 which will be used.
 SCF Done:  E(RwB97XD) =  -80.9277503922     a.u. after    5 cycles
            Convg  =    0.6294D-09                    24 Fock formations.
              S**2 =  0.0000                  -V/T =  2.0131
 DoSCS=F DFT=T ScalE2(SS,OS)=  1.000000  1.000000
 NROrb=     44 NOA=    10 NOB=    10 NVA=    34 NVB=    34
   1 Symmetry operations used in ECPInt.
 ECPInt:  NShTT=     406 NPrTT=    1646 LenC2=     406 LenP2D=    1413.
 LDataN:  DoStor=T MaxTD1= 5 Len=  102
 Symmetrizing basis deriv contribution to polar:
 IMax=3 JMax=2 DiffMx= 0.00D+00
 Calling FoFCou, ICntrl=  3107 FMM=F I1Cent=   0 AccDes= 0.00D+00.
 End of G2Drv F.D. properties file   721 does not exist.
 End of G2Drv F.D. properties file   722 does not exist.
 End of G2Drv F.D. properties file   788 does not exist.
          IDoAtm=1111111111
 End of Minotr F.D. properties file   721 does not exist.
 End of Minotr F.D. properties file   722 does not exist.
 End of Minotr F.D. properties file   788 does not exist.
   1 Symmetry operations used in ECPInt.
 ECPInt:  NShTT=     406 NPrTT=    1646 LenC2=     406 LenP2D=    1413.
 LDataN:  DoStor=T MaxTD1= 6 Len=  172
 Calling FoFJK, ICntrl=    100127 FMM=F ISym2X=0 I1Cent= 0 IOpClX= 0 NMat=1 NMatS=1 NMatT=0.
 FormGI is forming the generalized inverse of G from B-inverse, IUseBI=4.

 GradGradGradGradGradGradGradGradGradGradGradGradGradGradGradGradGradGrad
 Using GEDIIS/GDIIS optimizer.
 Internal  Forces:  Max     0.000150770 RMS     0.000035521
 Step number   2 out of a maximum of   95
 All quantities printed in internal units (Hartrees-Bohrs-Radians)
 Mixed Optimization -- En-DIIS/RFO-DIIS
 Swapping is turned off.
 Second derivative matrix not updated -- analytic derivatives used.
 Trust test= 2.43D-01 RLast= 4.01D-01 DXMaxT set to 3.00D-01
 ITU=  0  0
     Eigenvalues ---    0.00002   0.00004   0.00007   0.00021   0.00033
     Eigenvalues ---    0.00065   0.02574   0.02725   0.03160   0.03216
     Eigenvalues ---    0.03351   0.04469   0.05004   0.05214   0.05495
     Eigenvalues ---    0.06105   0.25672   0.27270   0.28200   0.29936
     Eigenvalues ---    0.30309   0.30690   0.34681   0.34695
 En-DIIS/RFO-DIIS/Sim-DIIS IScMMF=       -3 using points:     2    1
 RFO step:  Lambda=-1.58722488D-05.
 RFO step:  ModMin= 1 Lambda=-1.58722488D-05 EMin= 1.71277086D-05
 Using NR instead of RFO step for point 1.
 RFO step:  ModMin= 1 Lambda=-1.58722488D-05 EMin= 1.71277086D-05
 Using NR instead of RFO step for point 2.
 DidBck=T Rises=F RFO-DIIS coefs:    0.46755    0.53245
 Iteration  1 RMS(Cart)=  0.01816387 RMS(Int)=  0.00033934
 Iteration  2 RMS(Cart)=  0.00023336 RMS(Int)=  0.00023207
 Iteration  3 RMS(Cart)=  0.00000005 RMS(Int)=  0.00023207
 Variable       Old X    -DE/DX   Delta X   Delta X   Delta X     New X
                                 (Linear)    (Quad)   (Total)
    R1        2.08255  -0.00013  -0.00026  -0.00016  -0.00060   2.08195
    R2        2.08230  -0.00005  -0.00009  -0.00010  -0.00009   2.08221
    R3        2.08267  -0.00015  -0.00038  -0.00017  -0.00081   2.08186
    R4        2.08257  -0.00001   0.00008  -0.00010  -0.00002   2.08255
    R5        5.68009  -0.00002   0.14039   0.00340   0.14423   5.82432
    R6        5.66289   0.00004   0.02873   0.04897   0.07753   5.74041
    R7        5.70625   0.00002  -0.01343  -0.01722  -0.03078   5.67547
    R8        5.72111  -0.00001   0.01963   0.04889   0.06871   5.78981
    R9        5.69330   0.00001  -0.00044   0.07145   0.07105   5.76435
   R10        2.08266  -0.00014  -0.00040  -0.00011  -0.00082   2.08184
   R11        2.08225  -0.00004  -0.00007  -0.00006  -0.00027   2.08198
   R12        2.08244  -0.00010  -0.00021  -0.00010  -0.00052   2.08192
   R13        2.08256  -0.00001   0.00008  -0.00013  -0.00005   2.08252
    A1        1.90839   0.00001   0.00051   0.00004   0.00096   1.90934
    A2        1.90926  -0.00002   0.00012  -0.00038  -0.00087   1.90839
    A3        1.91248   0.00001  -0.00037   0.00015  -0.00020   1.91228
    A4        1.90833   0.00001   0.00055   0.00013   0.00091   1.90924
    A5        1.91271  -0.00001  -0.00046   0.00012  -0.00055   1.91216
    A6        1.91263  -0.00001  -0.00035  -0.00006  -0.00025   1.91238
    A7        1.74243   0.00002  -0.03040   0.00245  -0.02812   1.71431
    A8        1.75240   0.00002  -0.01051  -0.00556  -0.01575   1.73664
    A9        0.60864  -0.00004  -0.00992  -0.00287  -0.01250   0.59613
   A10        1.71056  -0.00001   0.01175   0.02479   0.03687   1.74743
   A11        1.72128   0.00002   0.03181  -0.02087   0.01074   1.73202
   A12        1.71708   0.00002   0.00517  -0.02045  -0.01517   1.70191
   A13        0.60466  -0.00003  -0.00116  -0.00664  -0.00779   0.59687
   A14        1.90903  -0.00002  -0.00000  -0.00031  -0.00042   1.90861
   A15        1.90905  -0.00001  -0.00034   0.00011  -0.00050   1.90855
   A16        1.91219   0.00003   0.00021   0.00005   0.00048   1.91267
   A17        1.90750   0.00004   0.00039   0.00084   0.00165   1.90915
   A18        1.91296  -0.00001  -0.00008  -0.00028  -0.00049   1.91246
   A19        1.91306  -0.00002  -0.00017  -0.00041  -0.00072   1.91234
   A20        0.60546  -0.00004  -0.00902  -0.00309  -0.01183   0.59363
   A21        1.71241   0.00003  -0.02897   0.01364  -0.01548   1.69694
   A22        1.71994   0.00003  -0.01075   0.01132   0.00073   1.72067
   A23        0.60535  -0.00003   0.00081  -0.00293  -0.00232   0.60302
   A24        1.74350  -0.00000   0.01717  -0.00429   0.01296   1.75646
   A25        1.73433  -0.00001  -0.00061  -0.00025  -0.00061   1.73371
   A26        1.72126  -0.00001   0.02801  -0.00966   0.01856   1.73982
    D1        1.36510  -0.00002   0.00536  -0.03107  -0.02535   1.33975
    D2        0.74660   0.00002   0.01840  -0.02811  -0.01001   0.73660
    D3       -0.72428  -0.00003   0.00431  -0.03103  -0.02651  -0.75079
    D4       -1.34277   0.00001   0.01735  -0.02806  -0.01117  -1.35394
    D5       -2.82140  -0.00002   0.00489  -0.03080  -0.02555  -2.84695
    D6        2.84329   0.00002   0.01793  -0.02784  -0.01021   2.83308
    D7       -1.33014   0.00001  -0.01986   0.00954  -0.01037  -1.34052
    D8        0.75980   0.00000  -0.01907   0.00918  -0.01030   0.74950
    D9        2.85650  -0.00000  -0.01943   0.00925  -0.01039   2.84611
   D10        0.71496   0.00003   0.02361   0.02043   0.04398   0.75894
   D11        1.32654   0.00000   0.02311   0.01176   0.03516   1.36170
   D12       -1.37445   0.00002   0.02258   0.02053   0.04278  -1.33166
   D13       -0.76286  -0.00001   0.02208   0.01186   0.03396  -0.72890
   D14        2.81199   0.00003   0.02301   0.02034   0.04305   2.85504
   D15       -2.85961  -0.00000   0.02252   0.01167   0.03423  -2.82538
   D16        0.41126   0.00002   0.00207   0.01354   0.01535   0.42660
   D17       -1.21731   0.00001  -0.02132   0.01344  -0.00812  -1.22543
   D18        2.05397   0.00003   0.02769   0.00012   0.02762   2.08160
   D19        0.42540   0.00002   0.00429   0.00002   0.00416   0.42957
   D20        1.18499  -0.00002  -0.04861   0.01341  -0.03509   1.14990
   D21       -0.42604  -0.00001  -0.00816   0.00153  -0.00644  -0.43248
   D22       -0.43102   0.00002   0.00999  -0.00056   0.00940  -0.42162
   D23        1.17813   0.00001  -0.01568   0.00483  -0.01073   1.16740
   D24       -0.40974  -0.00002  -0.00661  -0.01193  -0.01813  -0.42786
   D25        1.19477  -0.00002  -0.04377  -0.00455  -0.04815   1.14662
   D26       -2.02045  -0.00003   0.03058  -0.00539   0.02545  -1.99500
   D27       -0.41595  -0.00003  -0.00658   0.00199  -0.00457  -0.42052
   D28        0.43137   0.00001  -0.01038  -0.00242  -0.01283   0.41854
   D29       -1.20711   0.00001  -0.04142   0.00496  -0.03643  -1.24354
   D30        2.05552   0.00001   0.03822  -0.01016   0.02797   2.08349
   D31        0.41704   0.00000   0.00717  -0.00278   0.00437   0.42141
   D32        1.34060  -0.00001   0.00037  -0.00342  -0.00285   1.33776
   D33        0.72852   0.00003   0.01179  -0.00147   0.01019   0.73871
   D34       -0.74802  -0.00004   0.00010  -0.00432  -0.00430  -0.75232
   D35       -1.36010   0.00000   0.01152  -0.00238   0.00873  -1.35137
   D36       -2.84537  -0.00002   0.00039  -0.00392  -0.00341  -2.84878
   D37        2.82574   0.00002   0.01181  -0.00198   0.00962   2.83536
   D38       -1.34915   0.00001  -0.01764   0.00984  -0.00766  -1.35681
   D39       -0.73494  -0.00002  -0.01662   0.00669  -0.00970  -0.74463
   D40        0.74042   0.00001  -0.01782   0.01030  -0.00753   0.73290
   D41        1.35464  -0.00002  -0.01680   0.00714  -0.00956   1.34507
   D42        2.83729  -0.00001  -0.01784   0.01014  -0.00769   2.82960
   D43       -2.83168  -0.00004  -0.01682   0.00699  -0.00973  -2.84141
   D44        0.75206   0.00002   0.02688  -0.00636   0.02021   0.77226
   D45       -1.33751   0.00003   0.02686  -0.00656   0.02002  -1.31748
   D46        2.84888   0.00004   0.02682  -0.00648   0.02005   2.86893
         Item               Value     Threshold  Converged?
 Maximum Force            0.000151     0.000015     NO 
 RMS     Force            0.000036     0.000010     NO 
 Maximum Displacement     0.075404     0.000060     NO 
 RMS     Displacement     0.018136     0.000040     NO 
 GradGradGradGradGradGradGradGradGradGradGradGradGradGradGradGradGradGrad

                    Distance matrix (angstroms):
                    1          2          3          4          5
     1  C    0.000000
     2  H    1.101722   0.000000
     3  H    1.101860   1.798395   0.000000
     4  H    1.101672   1.797636   1.798291   0.000000
     5  H    1.102037   1.800408   1.800445   1.800429   0.000000
     6  C    3.604053   3.401073   3.384593   3.407154   4.706026
     7  H    3.418250   3.082097   3.546195   3.063837   4.483258
     8  H    3.375957   3.521483   3.003331   3.050361   4.437166
     9  H    3.397995   3.037696   3.052978   3.548227   4.457867
    10  H    4.705864   4.467790   4.441474   4.469144   5.807779
                    6          7          8          9         10
     6  C    0.000000
     7  H    1.101663   0.000000
     8  H    1.101735   1.797779   0.000000
     9  H    1.101707   1.797717   1.798158   0.000000
    10  H    1.102020   1.800597   1.800523   1.800423   0.000000
 Framework group  C1[X(C2H8)]
 Deg. of freedom    24
                         Standard orientation:                         
 ---------------------------------------------------------------------
 Center     Atomic      Atomic             Coordinates (Angstroms)
 Number     Number       Type             X           Y           Z
 ---------------------------------------------------------------------
      1          6           0        1.801994    0.000048    0.000009
      2          1           0        1.436339   -0.738803    0.730890
      3          1           0        1.420774    0.998726    0.267232
      4          1           0        1.442102   -0.271968   -1.005061
      5          1           0        2.903947    0.011802    0.006882
      6          6           0       -1.802060    0.000026   -0.000007
      7          1           0       -1.452664   -0.997311   -0.311299
      8          1           0       -1.412787    0.757795   -0.698629
      9          1           0       -1.433510    0.215388    1.015645
     10          1           0       -2.903806    0.023929   -0.005675
 ---------------------------------------------------------------------
 Rotational constants (GHZ):          77.5573886           4.5690701           4.5690340
    44 basis functions,    82 primitive gaussians,    46 cartesian basis functions
    10 alpha electrons       10 beta electrons
       nuclear repulsion energy        41.1187917055 Hartrees.
 NAtoms=   10 NActive=   10 NUniq=   10 SFac= 1.00D+00 NAtFMM=   60 NAOKFM=F Big=F
 Nuclear repulsion after empirical dispersion term =       41.1165397750 Hartrees.
   1 Symmetry operations used in ECPInt.
 ECPInt:  NShTT=     406 NPrTT=    1646 LenC2=     406 LenP2D=    1413.
 LDataN:  DoStor=T MaxTD1= 4 Len=   56
 Initial guess from the checkpoint file:  "/scratch/user/peterchao1/peterchao1/6269713_1663082913000000906876550/Gau-129727.chk"
 B after Tr=     0.000000   -0.000000   -0.000000
         Rot=    0.976967   -0.213389   -0.000212   -0.000372 Ang= -24.64 deg.
 ExpMin= 1.22D-01 ExpMax= 1.24D+03 ExpMxC= 1.86D+02 IAcc=3 IRadAn=         5 AccDes= 0.00D+00
 Harris functional with IExCor= 4639 and IRadAn=       5 diagonalized for initial guess.
 HarFok:  IExCor= 4639 AccDes= 0.00D+00 IRadAn=         5 IDoV= 1 UseB2=F ITyADJ=14
 ICtDFT=  3500011 ScaDFX=  1.000000  1.000000  1.000000  1.000000
 FoFCou: FMM=F IPFlag=           0 FMFlag=      100000 FMFlg1=           0
         NFxFlg=           0 DoJE=T BraDBF=F KetDBF=T FulRan=T
         wScrn=  0.000000 ICntrl=       500 IOpCl=  0 I1Cent=   200000004 NGrid=           0
         NMat0=    1 NMatS0=      1 NMatT0=    0 NMatD0=    1 NMtDS0=    0 NMtDT0=    0
 Petite list used in FoFCou.
     Accept linear search using points  1 and  2.
     Minimum is close to point  2 DX= -1.61D-05 DF= -1.42D-14 DXR=  1.61D-05 DFR=  2.10D-10 which will be used.
 SCF Done:  E(RwB97XD) =  -80.9277509666     a.u. after    4 cycles
            Convg  =    0.2290D-08                    21 Fock formations.
              S**2 =  0.0000                  -V/T =  2.0131
 DoSCS=F DFT=T ScalE2(SS,OS)=  1.000000  1.000000
 NROrb=     44 NOA=    10 NOB=    10 NVA=    34 NVB=    34
   1 Symmetry operations used in ECPInt.
 ECPInt:  NShTT=     406 NPrTT=    1646 LenC2=     406 LenP2D=    1413.
 LDataN:  DoStor=T MaxTD1= 5 Len=  102
 Symmetrizing basis deriv contribution to polar:
 IMax=3 JMax=2 DiffMx= 0.00D+00
 Calling FoFCou, ICntrl=  3107 FMM=F I1Cent=   0 AccDes= 0.00D+00.
 End of G2Drv F.D. properties file   721 does not exist.
 End of G2Drv F.D. properties file   722 does not exist.
 End of G2Drv F.D. properties file   788 does not exist.
          IDoAtm=1111111111
 End of Minotr F.D. properties file   721 does not exist.
 End of Minotr F.D. properties file   722 does not exist.
 End of Minotr F.D. properties file   788 does not exist.
   1 Symmetry operations used in ECPInt.
 ECPInt:  NShTT=     406 NPrTT=    1646 LenC2=     406 LenP2D=    1413.
 LDataN:  DoStor=T MaxTD1= 6 Len=  172
 Calling FoFJK, ICntrl=    100127 FMM=F ISym2X=0 I1Cent= 0 IOpClX= 0 NMat=1 NMatS=1 NMatT=0.
 FormGI is forming the generalized inverse of G from B-inverse, IUseBI=4.

 GradGradGradGradGradGradGradGradGradGradGradGradGradGradGradGradGradGrad
 Using GEDIIS/GDIIS optimizer.
 Internal  Forces:  Max     0.000085776 RMS     0.000019889
 Step number   3 out of a maximum of   95
 All quantities printed in internal units (Hartrees-Bohrs-Radians)
 Mixed Optimization -- En-DIIS/RFO-DIIS
 Swapping is turned off.
 Second derivative matrix not updated -- analytic derivatives used.
 Trust test= 1.32D-01 RLast= 2.52D-01 DXMaxT set to 3.00D-01
 ITU=  0  0  0
     Eigenvalues ---   -0.00000  -0.00000   0.00004   0.00010   0.00019
     Eigenvalues ---    0.00056   0.02569   0.02725   0.03170   0.03213
     Eigenvalues ---    0.03318   0.04464   0.05034   0.05208   0.05492
     Eigenvalues ---    0.06091   0.25826   0.27362   0.28331   0.30039
     Eigenvalues ---    0.30283   0.30838   0.34682   0.34697
 Use linear search instead of GDIIS.
 Quintic linear search produced a step of -0.56881.
 Maximum step size (   0.300) exceeded in Quadratic search.
    -- Step size scaled by   0.343
 Iteration  1 RMS(Cart)=  0.03947785 RMS(Int)=  0.00200160
 Iteration  2 RMS(Cart)=  0.00158235 RMS(Int)=  0.00094753
 Iteration  3 RMS(Cart)=  0.00000241 RMS(Int)=  0.00094753
 Iteration  4 RMS(Cart)=  0.00000000 RMS(Int)=  0.00094753
 Variable       Old X    -DE/DX   Delta X   Delta X   Delta X     New X
                                 (Linear)    (Quad)   (Total)
    R1        2.08195   0.00005   0.00034  -0.00005   0.00036   2.08231
    R2        2.08221  -0.00003   0.00005  -0.00002   0.00061   2.08283
    R3        2.08186   0.00008   0.00046  -0.00013   0.00168   2.08353
    R4        2.08255  -0.00000   0.00001   0.00000   0.00001   2.08256
    R5        5.82432   0.00001  -0.08204  -0.09194  -0.17504   5.64928
    R6        5.74041  -0.00001  -0.04410   0.05419   0.01105   5.75146
    R7        5.67547  -0.00001   0.01751   0.17255   0.18999   5.86546
    R8        5.78981   0.00000  -0.03908  -0.14828  -0.18762   5.60219
    R9        5.76435  -0.00000  -0.04041  -0.07654  -0.11807   5.64627
   R10        2.08184   0.00009   0.00047  -0.00009   0.00128   2.08313
   R11        2.08198   0.00003   0.00016   0.00001   0.00083   2.08281
   R12        2.08192   0.00007   0.00029  -0.00004   0.00084   2.08276
   R13        2.08252   0.00000   0.00003   0.00002   0.00005   2.08256
    A1        1.90934  -0.00002  -0.00054   0.00008  -0.00221   1.90713
    A2        1.90839   0.00002   0.00049  -0.00015  -0.00015   1.90824
    A3        1.91228   0.00000   0.00011   0.00004   0.00100   1.91328
    A4        1.90924  -0.00001  -0.00052  -0.00021   0.00093   1.91017
    A5        1.91216   0.00001   0.00031  -0.00010   0.00041   1.91257
    A6        1.91238  -0.00000   0.00014   0.00033   0.00001   1.91239
    A7        1.71431  -0.00001   0.01599  -0.00669   0.00841   1.72273
    A8        1.73664  -0.00000   0.00896  -0.04434  -0.03649   1.70016
    A9        0.59613   0.00002   0.00711   0.00254   0.00908   0.60522
   A10        1.74743   0.00002  -0.02097  -0.05146  -0.07273   1.67470
   A11        1.73202  -0.00001  -0.00611   0.02229   0.01469   1.74671
   A12        1.70191  -0.00001   0.00863   0.07616   0.08540   1.78731
   A13        0.59687   0.00002   0.00443   0.01205   0.01725   0.61412
   A14        1.90861   0.00001   0.00024   0.00001   0.00095   1.90956
   A15        1.90855   0.00001   0.00029  -0.00019   0.00002   1.90857
   A16        1.91267  -0.00001  -0.00028   0.00024  -0.00048   1.91220
   A17        1.90915  -0.00001  -0.00094   0.00014  -0.00186   1.90729
   A18        1.91246   0.00000   0.00028  -0.00018   0.00017   1.91263
   A19        1.91234   0.00000   0.00041  -0.00001   0.00119   1.91353
   A20        0.59363   0.00002   0.00673   0.01250   0.02000   0.61363
   A21        1.69694  -0.00002   0.00880   0.05687   0.06607   1.76301
   A22        1.72067  -0.00002  -0.00042   0.01060   0.00871   1.72938
   A23        0.60302   0.00000   0.00132  -0.00420  -0.00432   0.59870
   A24        1.75646  -0.00001  -0.00737  -0.06707  -0.07458   1.68189
   A25        1.73371  -0.00000   0.00035  -0.02631  -0.02681   1.70690
   A26        1.73982  -0.00000  -0.01055  -0.01746  -0.02947   1.71035
    D1        1.33975   0.00001   0.01442   0.03868   0.05235   1.39210
    D2        0.73660  -0.00002   0.00569   0.03719   0.04446   0.78106
    D3       -0.75079   0.00002   0.01508   0.03897   0.05264  -0.69815
    D4       -1.35394  -0.00000   0.00636   0.03748   0.04476  -1.30918
    D5       -2.84695   0.00002   0.01453   0.03863   0.05211  -2.79485
    D6        2.83308  -0.00001   0.00581   0.03715   0.04422   2.87730
    D7       -1.34052  -0.00001   0.00590  -0.05157  -0.04429  -1.38481
    D8        0.74950  -0.00001   0.00586  -0.05183  -0.04525   0.70425
    D9        2.84611  -0.00001   0.00591  -0.05161  -0.04441   2.80170
   D10        0.75894  -0.00002  -0.02502  -0.02594  -0.05033   0.70861
   D11        1.36170  -0.00001  -0.02000  -0.00656  -0.02788   1.33382
   D12       -1.33166  -0.00000  -0.02434  -0.02582  -0.04810  -1.37976
   D13       -0.72890   0.00001  -0.01932  -0.00644  -0.02565  -0.75455
   D14        2.85504  -0.00001  -0.02449  -0.02578  -0.04918   2.80586
   D15       -2.82538   0.00000  -0.01947  -0.00640  -0.02673  -2.85212
   D16        0.42660  -0.00001  -0.00873  -0.01577  -0.02407   0.40253
   D17       -1.22543  -0.00001   0.00462   0.04916   0.05407  -1.17135
   D18        2.08160  -0.00001  -0.01571  -0.08488  -0.10021   1.98139
   D19        0.42957  -0.00001  -0.00237  -0.01995  -0.02206   0.40751
   D20        1.14990   0.00001   0.01996   0.07852   0.09741   1.24731
   D21       -0.43248   0.00001   0.00366   0.02482   0.02868  -0.40380
   D22       -0.42162  -0.00001  -0.00535   0.01628   0.01036  -0.41126
   D23        1.16740   0.00000   0.00610   0.06621   0.07097   1.23837
   D24       -0.42786   0.00002   0.01031   0.01371   0.02389  -0.40397
   D25        1.14662   0.00001   0.02739   0.10182   0.12931   1.27593
   D26       -1.99500   0.00002  -0.01448  -0.09161  -0.10665  -2.10165
   D27       -0.42052   0.00001   0.00260  -0.00350  -0.00123  -0.42175
   D28        0.41854  -0.00001   0.00730  -0.00757   0.00060   0.41914
   D29       -1.24354   0.00001   0.02072   0.07287   0.09407  -1.14947
   D30        2.08349  -0.00002  -0.01591  -0.07962  -0.09456   1.98893
   D31        0.42141   0.00000  -0.00249   0.00082  -0.00109   0.42032
   D32        1.33776   0.00001   0.00162   0.02852   0.02989   1.36764
   D33        0.73871  -0.00001  -0.00579   0.01117   0.00632   0.74503
   D34       -0.75232   0.00002   0.00245   0.02846   0.03156  -0.72076
   D35       -1.35137  -0.00000  -0.00497   0.01111   0.00800  -1.34337
   D36       -2.84878   0.00001   0.00194   0.02845   0.03038  -2.81840
   D37        2.83536  -0.00001  -0.00547   0.01110   0.00682   2.84218
   D38       -1.35681   0.00000   0.00436   0.01348   0.01904  -1.33777
   D39       -0.74463   0.00001   0.00552   0.00552   0.00980  -0.73483
   D40        0.73290   0.00001   0.00428   0.01333   0.01852   0.75142
   D41        1.34507   0.00002   0.00544   0.00538   0.00928   1.35436
   D42        2.82960   0.00001   0.00437   0.01329   0.01894   2.84854
   D43       -2.84141   0.00002   0.00553   0.00533   0.00970  -2.83171
   D44        0.77226  -0.00001  -0.01149  -0.06412  -0.07446   0.69781
   D45       -1.31748  -0.00002  -0.01139  -0.06410  -0.07451  -1.39199
   D46        2.86893  -0.00001  -0.01141  -0.06395  -0.07430   2.79463
         Item               Value     Threshold  Converged?
 Maximum Force            0.000086     0.000015     NO 
 RMS     Force            0.000020     0.000010     NO 
 Maximum Displacement     0.143475     0.000060     NO 
 RMS     Displacement     0.039671     0.000040     NO 
 GradGradGradGradGradGradGradGradGradGradGradGradGradGradGradGradGradGrad

                    Distance matrix (angstroms):
                    1          2          3          4          5
     1  C    0.000000
     2  H    1.101914   0.000000
     3  H    1.102184   1.797407   0.000000
     4  H    1.102559   1.798421   1.799869   0.000000
     5  H    1.102044   1.801207   1.800978   1.801166   0.000000
     6  C    3.574348   3.378035   3.406952   3.322030   4.675527
     7  H    3.338900   2.989470   3.521489   2.964552   4.391247
     8  H    3.399772   3.552585   3.103869   2.987879   4.457462
     9  H    3.367880   3.043543   3.030621   3.467726   4.439780
    10  H    4.675959   4.431640   4.474702   4.383904   5.776979
                    6          7          8          9         10
     6  C    0.000000
     7  H    1.102342   0.000000
     8  H    1.102175   1.799298   0.000000
     9  H    1.102150   1.798647   1.797695   0.000000
    10  H    1.102045   1.800870   1.801009   1.801562   0.000000
 Framework group  C1[X(C2H8)]
 Deg. of freedom    24
                         Standard orientation:                         
 ---------------------------------------------------------------------
 Center     Atomic      Atomic             Coordinates (Angstroms)
 Number     Number       Type             X           Y           Z
 ---------------------------------------------------------------------
      1          6           0        1.787167   -0.000080   -0.000067
      2          1           0        1.426414   -0.115499    1.034703
      3          1           0        1.453763    0.973376   -0.395078
      4          1           0        1.373679   -0.810169   -0.623299
      5          1           0        2.888078   -0.047559   -0.015663
      6          6           0       -1.787181   -0.000024    0.000010
      7          1           0       -1.389510   -0.927206    0.444250
      8          1           0       -1.446957    0.080562   -1.045238
      9          1           0       -1.416726    0.866753    0.571146
     10          1           0       -2.888657   -0.019635    0.029516
 ---------------------------------------------------------------------
 Rotational constants (GHZ):          77.5083896           4.6411701           4.6409606
    44 basis functions,    82 primitive gaussians,    46 cartesian basis functions
    10 alpha electrons       10 beta electrons
       nuclear repulsion energy        41.2287800626 Hartrees.
 NAtoms=   10 NActive=   10 NUniq=   10 SFac= 1.00D+00 NAtFMM=   60 NAOKFM=F Big=F
 Nuclear repulsion after empirical dispersion term =       41.2264681994 Hartrees.
   1 Symmetry operations used in ECPInt.
 ECPInt:  NShTT=     406 NPrTT=    1646 LenC2=     406 LenP2D=    1413.
 LDataN:  DoStor=T MaxTD1= 4 Len=   56
 Initial guess from the checkpoint file:  "/scratch/user/peterchao1/peterchao1/6269713_1663082913000000906876550/Gau-129727.chk"
 B after Tr=    -0.000000   -0.000000   -0.000000
         Rot=    0.937779    0.347229   -0.001391    0.000102 Ang=  40.64 deg.
 ExpMin= 1.22D-01 ExpMax= 1.24D+03 ExpMxC= 1.86D+02 IAcc=3 IRadAn=         5 AccDes= 0.00D+00
 Harris functional with IExCor= 4639 and IRadAn=       5 diagonalized for initial guess.
 HarFok:  IExCor= 4639 AccDes= 0.00D+00 IRadAn=         5 IDoV= 1 UseB2=F ITyADJ=14
 ICtDFT=  3500011 ScaDFX=  1.000000  1.000000  1.000000  1.000000
 FoFCou: FMM=F IPFlag=           0 FMFlag=      100000 FMFlg1=           0
         NFxFlg=           0 DoJE=T BraDBF=F KetDBF=T FulRan=T
         wScrn=  0.000000 ICntrl=       500 IOpCl=  0 I1Cent=   200000004 NGrid=           0
         NMat0=    1 NMatS0=      1 NMatT0=    0 NMatD0=    1 NMtDS0=    0 NMtDT0=    0
 Petite list used in FoFCou.
     Accept linear search using points  2 and  3.
     Accept linear search using points  1 and  2.
     Minimum is close to point  2 DX= -1.52D-03 DF= -2.04D-10 DXR=  1.27D-03 DFR=  2.24D-06 which will be used.
     Minimum is close to point  2 DX=  1.58D-04 DF= -1.35D-12 DXR=  1.58D-04 DFR=  2.51D-08 which will be used.
 SCF Done:  E(RwB97XD) =  -80.9277447765     a.u. after    6 cycles
            Convg  =    0.4549D-09                    26 Fock formations.
              S**2 =  0.0000                  -V/T =  2.0132
 DoSCS=F DFT=T ScalE2(SS,OS)=  1.000000  1.000000
 NROrb=     44 NOA=    10 NOB=    10 NVA=    34 NVB=    34
   1 Symmetry operations used in ECPInt.
 ECPInt:  NShTT=     406 NPrTT=    1646 LenC2=     406 LenP2D=    1413.
 LDataN:  DoStor=T MaxTD1= 5 Len=  102
 Symmetrizing basis deriv contribution to polar:
 IMax=3 JMax=2 DiffMx= 0.00D+00
 Calling FoFCou, ICntrl=  3107 FMM=F I1Cent=   0 AccDes= 0.00D+00.
 End of G2Drv F.D. properties file   721 does not exist.
 End of G2Drv F.D. properties file   722 does not exist.
 End of G2Drv F.D. properties file   788 does not exist.
          IDoAtm=1111111111
 End of Minotr F.D. properties file   721 does not exist.
 End of Minotr F.D. properties file   722 does not exist.
 End of Minotr F.D. properties file   788 does not exist.
   1 Symmetry operations used in ECPInt.
 ECPInt:  NShTT=     406 NPrTT=    1646 LenC2=     406 LenP2D=    1413.
 LDataN:  DoStor=T MaxTD1= 6 Len=  172
 Calling FoFJK, ICntrl=    100127 FMM=F ISym2X=0 I1Cent= 0 IOpClX= 0 NMat=1 NMatS=1 NMatT=0.
 FormGI is forming the generalized inverse of G from B-inverse, IUseBI=4.

 GradGradGradGradGradGradGradGradGradGradGradGradGradGradGradGradGradGrad
 Using GEDIIS/GDIIS optimizer.
 Internal  Forces:  Max     0.000391778 RMS     0.000075729
 Step number   4 out of a maximum of   95
 All quantities printed in internal units (Hartrees-Bohrs-Radians)
 Mixed Optimization -- En-DIIS/RFO-DIIS
 Second derivative matrix not updated -- analytic derivatives used.
 Trust test=-9.70D-01 RLast= 5.19D-01 DXMaxT set to 1.50D-01
 ITU= -1  0  0  0
 Use linear search instead of GDIIS.
     Eigenvalues ---   -0.00008   0.00002   0.00004   0.00008   0.00024
     Eigenvalues ---    0.00045   0.02563   0.02718   0.03097   0.03246
     Eigenvalues ---    0.03368   0.04472   0.04956   0.05361   0.05527
     Eigenvalues ---    0.06126   0.25353   0.27161   0.28397   0.29998
     Eigenvalues ---    0.30492   0.30648   0.34684   0.34698
 Quintic linear search produced a step of -0.67342.
 Maximum step size (   0.150) exceeded in Quadratic search.
    -- Step size not scaled.
 Iteration  1 RMS(Cart)=  0.03938407 RMS(Int)=  0.00440016
 Iteration  2 RMS(Cart)=  0.00272762 RMS(Int)=  0.00094324
 Iteration  3 RMS(Cart)=  0.00000702 RMS(Int)=  0.00094319
 Iteration  4 RMS(Cart)=  0.00000000 RMS(Int)=  0.00094319
 Variable       Old X    -DE/DX   Delta X   Delta X   Delta X     New X
                                 (Linear)    (Quad)   (Total)
    R1        2.08231  -0.00004  -0.00024  -0.00001  -0.00072   2.08160
    R2        2.08283  -0.00021  -0.00041  -0.00001  -0.00062   2.08221
    R3        2.08353  -0.00039  -0.00113   0.00000  -0.00245   2.08109
    R4        2.08256  -0.00002  -0.00001   0.00001  -0.00000   2.08256
    R5        5.64928  -0.00001   0.11788   0.12933   0.24703   5.89631
    R6        5.75146   0.00004  -0.00744  -0.15153  -0.16011   5.59136
    R7        5.86546  -0.00005  -0.12794   0.04493  -0.08244   5.78302
    R8        5.60219   0.00000   0.12635   0.07952   0.20630   5.80849
    R9        5.64627  -0.00001   0.07951  -0.02244   0.05742   5.70369
   R10        2.08313  -0.00029  -0.00087   0.00002   0.00092   2.08404
   R11        2.08281  -0.00017  -0.00056   0.00001  -0.00115   2.08166
   R12        2.08276  -0.00018  -0.00056  -0.00002   0.00010   2.08286
   R13        2.08256  -0.00002  -0.00003  -0.00000  -0.00003   2.08253
    A1        1.90713   0.00005   0.00149   0.00026   0.00299   1.91012
    A2        1.90824   0.00001   0.00010  -0.00023  -0.00065   1.90759
    A3        1.91328  -0.00003  -0.00067  -0.00001  -0.00108   1.91220
    A4        1.91017  -0.00005  -0.00062  -0.00004  -0.00154   1.90863
    A5        1.91257  -0.00000  -0.00028  -0.00011  -0.00037   1.91221
    A6        1.91239   0.00002  -0.00001   0.00014   0.00065   1.91304
    A7        1.72273  -0.00003  -0.00567  -0.00389  -0.00939   1.71333
    A8        1.70016  -0.00001   0.02457  -0.01534   0.01014   1.71030
    A9        0.60522  -0.00007  -0.00612   0.00261  -0.00598   0.59924
   A10        1.67470   0.00002   0.04898  -0.01329   0.03570   1.71040
   A11        1.74671   0.00005  -0.00989   0.02189   0.01204   1.75875
   A12        1.78731   0.00006  -0.05751   0.02163  -0.03579   1.75152
   A13        0.61412  -0.00008  -0.01161  -0.00291  -0.01515   0.59897
   A14        1.90956  -0.00003  -0.00064   0.00037  -0.00176   1.90780
   A15        1.90857  -0.00000  -0.00002  -0.00012   0.00281   1.91138
   A16        1.91220   0.00003   0.00032  -0.00045  -0.00055   1.91164
   A17        1.90729   0.00006   0.00125  -0.00047  -0.00050   1.90680
   A18        1.91263  -0.00001  -0.00011  -0.00002   0.00086   1.91349
   A19        1.91353  -0.00005  -0.00080   0.00069  -0.00086   1.91267
   A20        0.61363  -0.00006  -0.01347  -0.01193  -0.02523   0.58841
   A21        1.76301   0.00005  -0.04449  -0.06681  -0.11047   1.65253
   A22        1.72938   0.00004  -0.00587  -0.05957  -0.06559   1.66379
   A23        0.59870  -0.00010   0.00291  -0.00194   0.00157   0.60027
   A24        1.68189   0.00003   0.05022  -0.02517   0.02415   1.70604
   A25        1.70690   0.00001   0.01805  -0.00701   0.01031   1.71721
   A26        1.71035  -0.00001   0.01984   0.07806   0.09948   1.80983
    D1        1.39210  -0.00006  -0.03525   0.01123  -0.02516   1.36694
    D2        0.78106   0.00002  -0.02994   0.00987  -0.01955   0.76151
    D3       -0.69815  -0.00004  -0.03545   0.01127  -0.02469  -0.72284
    D4       -1.30918   0.00003  -0.03014   0.00991  -0.01908  -1.32827
    D5       -2.79485  -0.00005  -0.03509   0.01125  -0.02443  -2.81928
    D6        2.87730   0.00003  -0.02978   0.00989  -0.01882   2.85848
    D7       -1.38481   0.00004   0.02983  -0.01448   0.01536  -1.36945
    D8        0.70425   0.00006   0.03047  -0.01464   0.01544   0.71969
    D9        2.80170   0.00005   0.02991  -0.01456   0.01506   2.81677
   D10        0.70861   0.00005   0.03389  -0.00021   0.03456   0.74317
   D11        1.33382  -0.00002   0.01877  -0.00037   0.01892   1.35274
   D12       -1.37976   0.00000   0.03239  -0.00036   0.03223  -1.34753
   D13       -0.75455  -0.00007   0.01727  -0.00052   0.01660  -0.73795
   D14        2.80586   0.00003   0.03312  -0.00028   0.03323   2.83909
   D15       -2.85212  -0.00004   0.01800  -0.00044   0.01760  -2.83452
   D16        0.40253  -0.00002   0.01621  -0.00451   0.01229   0.41482
   D17       -1.17135  -0.00000  -0.03641   0.00701  -0.02972  -1.20108
   D18        1.98139   0.00000   0.06748  -0.02557   0.04319   2.02458
   D19        0.40751   0.00003   0.01486  -0.01405   0.00117   0.40868
   D20        1.24731  -0.00005  -0.06560   0.01894  -0.04788   1.19943
   D21       -0.40380  -0.00000  -0.01932   0.00366  -0.01635  -0.42014
   D22       -0.41126  -0.00002  -0.00698   0.00453  -0.00212  -0.41337
   D23        1.23837  -0.00004  -0.04779   0.02888  -0.01903   1.21934
   D24       -0.40397  -0.00005  -0.01609   0.00261  -0.01431  -0.41828
   D25        1.27593  -0.00001  -0.08708  -0.02943  -0.11545   1.16048
   D26       -2.10165  -0.00009   0.07182  -0.00412   0.06665  -2.03500
   D27       -0.42175  -0.00005   0.00083  -0.03617  -0.03449  -0.45623
   D28        0.41914   0.00006  -0.00040  -0.00190  -0.00260   0.41654
   D29       -1.14947   0.00004  -0.06335   0.03289  -0.03064  -1.18011
   D30        1.98893   0.00004   0.06368   0.00507   0.06768   2.05661
   D31        0.42032   0.00002   0.00073   0.03986   0.03964   0.45997
   D32        1.36764   0.00001  -0.02013   0.04803   0.02843   1.39607
   D33        0.74503   0.00007  -0.00426   0.06700   0.06042   0.80545
   D34       -0.72076  -0.00005  -0.02126   0.04845   0.02840  -0.69236
   D35       -1.34337   0.00001  -0.00539   0.06743   0.06039  -1.28298
   D36       -2.81840  -0.00000  -0.02046   0.04795   0.02807  -2.79033
   D37        2.84218   0.00005  -0.00459   0.06693   0.06005   2.90223
   D38       -1.33777   0.00003  -0.01282  -0.08586  -0.10037  -1.43814
   D39       -0.73483  -0.00007  -0.00660  -0.08980  -0.09695  -0.83178
   D40        0.75142   0.00005  -0.01247  -0.08607  -0.09830   0.65312
   D41        1.35436  -0.00005  -0.00625  -0.09001  -0.09487   1.25948
   D42        2.84854   0.00002  -0.01276  -0.08552  -0.09914   2.74940
   D43       -2.83171  -0.00008  -0.00653  -0.08947  -0.09571  -2.92742
   D44        0.69781   0.00003   0.05014   0.01513   0.06445   0.76226
   D45       -1.39199   0.00003   0.05017   0.01504   0.06520  -1.32679
   D46        2.79463   0.00003   0.05003   0.01493   0.06498   2.85961
         Item               Value     Threshold  Converged?
 Maximum Force            0.000392     0.000015     NO 
 RMS     Force            0.000076     0.000010     NO 
 Maximum Displacement     0.184316     0.000060     NO 
 RMS     Displacement     0.040601     0.000040     NO 
 GradGradGradGradGradGradGradGradGradGradGradGradGradGradGradGradGradGrad

                    Distance matrix (angstroms):
                    1          2          3          4          5
     1  C    0.000000
     2  H    1.101535   0.000000
     3  H    1.101857   1.798735   0.000000
     4  H    1.101264   1.796642   1.797566   0.000000
     5  H    1.102044   1.800213   1.800478   1.800521   0.000000
     6  C    3.586869   3.393187   3.389335   3.360582   4.688774
     7  H    3.453326   3.120191   3.601847   3.073719   4.512666
     8  H    3.393759   3.548544   3.060241   3.018263   4.452443
     9  H    3.297631   2.958818   2.964983   3.424264   4.364461
    10  H    4.686085   4.449022   4.431735   4.439245   5.788092
                    6          7          8          9         10
     6  C    0.000000
     7  H    1.102827   0.000000
     8  H    1.101567   1.798077   0.000000
     9  H    1.102202   1.800876   1.796925   0.000000
    10  H    1.102028   1.800900   1.801043   1.801041   0.000000
 Framework group  C1[X(C2H8)]
 Deg. of freedom    24
                         Standard orientation:                         
 ---------------------------------------------------------------------
 Center     Atomic      Atomic             Coordinates (Angstroms)
 Number     Number       Type             X           Y           Z
 ---------------------------------------------------------------------
      1          6           0        1.793387    0.000013    0.000029
      2          1           0        1.435809   -0.350570    0.981155
      3          1           0        1.432070    1.025803   -0.176874
      4          1           0        1.405144   -0.664635   -0.787558
      5          1           0        2.895249   -0.011090   -0.016621
      6          6           0       -1.793482    0.000097    0.000121
      7          1           0       -1.492907   -1.048559    0.161996
      8          1           0       -1.436436    0.333071   -0.987348
      9          1           0       -1.346525    0.636034    0.781569
     10          1           0       -2.891832    0.079287    0.042783
 ---------------------------------------------------------------------
 Rotational constants (GHZ):          77.5462960           4.6106627           4.6102380
    44 basis functions,    82 primitive gaussians,    46 cartesian basis functions
    10 alpha electrons       10 beta electrons
       nuclear repulsion energy        41.1854435262 Hartrees.
 NAtoms=   10 NActive=   10 NUniq=   10 SFac= 1.00D+00 NAtFMM=   60 NAOKFM=F Big=F
 Nuclear repulsion after empirical dispersion term =       41.1831559110 Hartrees.
   1 Symmetry operations used in ECPInt.
 ECPInt:  NShTT=     406 NPrTT=    1646 LenC2=     406 LenP2D=    1413.
 LDataN:  DoStor=T MaxTD1= 4 Len=   56
 Lowest energy guess from the checkpoint file:  "/scratch/user/peterchao1/peterchao1/6269713_1663082913000000906876550/Gau-129727.chk"
 B after Tr=    -0.000000    0.000000   -0.000000
         Rot=    0.973952    0.226742   -0.001947    0.001373 Ang=  26.21 deg.
 B after Tr=     0.000000    0.000000    0.000000
         Rot=    0.992149   -0.125051    0.000019    0.001573 Ang= -14.37 deg.
     Minimum is close to point  4 DX=  2.21D-02 DF= -3.08D-07 DXR=  1.81D-02 DFR=  3.28D-04 which will be used.
     Accept linear search using points  1 and  2.
     Minimum is close to point  2 DX= -2.15D-04 DF= -2.42D-12 DXR=  2.15D-04 DFR=  4.63D-08 which will be used.
 SCF Done:  E(RwB97XD) =  -80.9277429940     a.u. after    5 cycles
            Convg  =    0.1553D-08                    25 Fock formations.
              S**2 =  0.0000                  -V/T =  2.0131
 DoSCS=F DFT=T ScalE2(SS,OS)=  1.000000  1.000000
 NROrb=     44 NOA=    10 NOB=    10 NVA=    34 NVB=    34
   1 Symmetry operations used in ECPInt.
 ECPInt:  NShTT=     406 NPrTT=    1646 LenC2=     406 LenP2D=    1413.
 LDataN:  DoStor=T MaxTD1= 5 Len=  102
 Symmetrizing basis deriv contribution to polar:
 IMax=3 JMax=2 DiffMx= 0.00D+00
 Calling FoFCou, ICntrl=  3107 FMM=F I1Cent=   0 AccDes= 0.00D+00.
 End of G2Drv F.D. properties file   721 does not exist.
 End of G2Drv F.D. properties file   722 does not exist.
 End of G2Drv F.D. properties file   788 does not exist.
          IDoAtm=1111111111
 End of Minotr F.D. properties file   721 does not exist.
 End of Minotr F.D. properties file   722 does not exist.
 End of Minotr F.D. properties file   788 does not exist.
   1 Symmetry operations used in ECPInt.
 ECPInt:  NShTT=     406 NPrTT=    1646 LenC2=     406 LenP2D=    1413.
 LDataN:  DoStor=T MaxTD1= 6 Len=  172
 Calling FoFJK, ICntrl=    100127 FMM=F ISym2X=0 I1Cent= 0 IOpClX= 0 NMat=1 NMatS=1 NMatT=0.
 FormGI is forming the generalized inverse of G from B-inverse, IUseBI=4.

 GradGradGradGradGradGradGradGradGradGradGradGradGradGradGradGradGradGrad
 Using GEDIIS/GDIIS optimizer.
 Internal  Forces:  Max     0.000481557 RMS     0.000085027
 Step number   5 out of a maximum of   95
 All quantities printed in internal units (Hartrees-Bohrs-Radians)
 Mixed Optimization -- En-DIIS/RFO-DIIS
 Swapping is turned off.
 Second derivative matrix not updated -- analytic derivatives used.
 ITU=  0 -1  0  0  0
     Eigenvalues ---   -0.00021  -0.00006  -0.00001   0.00001   0.00010
     Eigenvalues ---    0.00029   0.02547   0.02725   0.03168   0.03220
     Eigenvalues ---    0.03286   0.04449   0.05038   0.05213   0.05517
     Eigenvalues ---    0.06079   0.25763   0.27331   0.28290   0.29857
     Eigenvalues ---    0.30310   0.30759   0.34683   0.34702
 Use linear search instead of GDIIS.
 Linear search step of   0.236 exceeds DXMaxT=   0.150 but not scaled.
 Quintic linear search produced a step of -0.56879.
 Maximum step size (   0.150) exceeded in Quadratic search.
    -- Step size not scaled.
 Iteration  1 RMS(Cart)=  0.03952357 RMS(Int)=  0.01286377
 Iteration  2 RMS(Cart)=  0.00859832 RMS(Int)=  0.00088401
 Iteration  3 RMS(Cart)=  0.00005694 RMS(Int)=  0.00088095
 Iteration  4 RMS(Cart)=  0.00000003 RMS(Int)=  0.00088095
 Variable       Old X    -DE/DX   Delta X   Delta X   Delta X     New X
                                 (Linear)    (Quad)   (Total)
    R1        2.08160   0.00018   0.00041  -0.00006  -0.00023   2.08136
    R2        2.08221  -0.00001   0.00035   0.00002   0.00025   2.08246
    R3        2.08109   0.00026   0.00139  -0.00003   0.00103   2.08212
    R4        2.08256  -0.00001   0.00000  -0.00005  -0.00005   2.08251
    R5        5.89631  -0.00001  -0.14051   0.04292  -0.09704   5.79926
    R6        5.59136  -0.00006   0.09107   0.25029   0.34023   5.93158
    R7        5.78302   0.00005   0.04689  -0.02992   0.01655   5.79957
    R8        5.80849   0.00003  -0.11734   0.00618  -0.11064   5.69784
    R9        5.70369  -0.00001  -0.03266  -0.00308  -0.03533   5.66836
   R10        2.08404  -0.00048  -0.00052  -0.00004  -0.00034   2.08370
   R11        2.08166   0.00014   0.00065  -0.00002   0.00056   2.08222
   R12        2.08286  -0.00025  -0.00006   0.00003   0.00120   2.08406
   R13        2.08253  -0.00000   0.00002   0.00005   0.00006   2.08259
    A1        1.91012  -0.00003  -0.00170  -0.00014  -0.00218   1.90794
    A2        1.90759   0.00002   0.00037   0.00030   0.00086   1.90845
    A3        1.91220   0.00001   0.00061  -0.00011   0.00052   1.91272
    A4        1.90863  -0.00002   0.00088   0.00014   0.00106   1.90969
    A5        1.91221   0.00003   0.00021   0.00001   0.00016   1.91237
    A6        1.91304  -0.00001  -0.00037  -0.00020  -0.00041   1.91262
    A7        1.71333  -0.00003   0.00534  -0.01367  -0.00804   1.70530
    A8        1.71030   0.00001  -0.00577  -0.00300  -0.00909   1.70121
    A9        0.59924  -0.00012   0.00340  -0.01250  -0.01078   0.58846
   A10        1.71040   0.00002  -0.02031   0.01173  -0.00857   1.70183
   A11        1.75875  -0.00008  -0.00685   0.00516  -0.00143   1.75732
   A12        1.75152  -0.00002   0.02035  -0.00197   0.01809   1.76961
   A13        0.59897  -0.00004   0.00862  -0.00023   0.00768   0.60664
   A14        1.90780   0.00005   0.00100  -0.00001  -0.00245   1.90536
   A15        1.91138  -0.00007  -0.00160   0.00080   0.00038   1.91176
   A16        1.91164   0.00003   0.00031  -0.00020   0.00131   1.91295
   A17        1.90680   0.00006   0.00028   0.00121   0.00354   1.91034
   A18        1.91349  -0.00007  -0.00049  -0.00031  -0.00039   1.91310
   A19        1.91267  -0.00000   0.00049  -0.00148  -0.00238   1.91029
   A20        0.58841   0.00007   0.01435  -0.00265   0.01120   0.59961
   A21        1.65253   0.00008   0.06283   0.03997   0.10206   1.75459
   A22        1.66379   0.00008   0.03731   0.03000   0.06652   1.73031
   A23        0.60027   0.00003  -0.00090   0.00191   0.00117   0.60144
   A24        1.70604  -0.00005  -0.01374   0.04884   0.03481   1.74085
   A25        1.71721  -0.00004  -0.00587   0.03552   0.02871   1.74593
   A26        1.80983   0.00008  -0.05658  -0.06833  -0.12296   1.68687
    D1        1.36694  -0.00007   0.01431  -0.00817   0.00593   1.37287
    D2        0.76151   0.00006   0.01112   0.00516   0.01756   0.77907
    D3       -0.72284  -0.00003   0.01404  -0.00843   0.00544  -0.71740
    D4       -1.32827   0.00009   0.01086   0.00490   0.01707  -1.31120
    D5       -2.81928  -0.00004   0.01389  -0.00830   0.00511  -2.81417
    D6        2.85848   0.00009   0.01071   0.00502   0.01673   2.87521
    D7       -1.36945  -0.00001  -0.00874  -0.01091  -0.01956  -1.38901
    D8        0.71969  -0.00001  -0.00878  -0.01055  -0.01919   0.70050
    D9        2.81677  -0.00002  -0.00857  -0.01070  -0.01895   2.79782
   D10        0.74317   0.00002  -0.01965   0.01720  -0.00249   0.74068
   D11        1.35274  -0.00003  -0.01076   0.01707   0.00627   1.35901
   D12       -1.34753   0.00006  -0.01833   0.01711  -0.00099  -1.34851
   D13       -0.73795   0.00001  -0.00944   0.01698   0.00777  -0.73018
   D14        2.83909   0.00004  -0.01890   0.01713  -0.00158   2.83751
   D15       -2.83452  -0.00001  -0.01001   0.01700   0.00717  -2.82734
   D16        0.41482   0.00002  -0.00699   0.00543  -0.00148   0.41335
   D17       -1.20108  -0.00000   0.01691   0.01124   0.02929  -1.17179
   D18        2.02458   0.00008  -0.02456   0.01898  -0.00679   2.01779
   D19        0.40868   0.00005  -0.00067   0.02479   0.02397   0.43265
   D20        1.19943  -0.00009   0.02723  -0.03740  -0.00939   1.19005
   D21       -0.42014  -0.00001   0.00930  -0.01665  -0.00773  -0.42787
   D22       -0.41337  -0.00003   0.00120   0.00629   0.00768  -0.40569
   D23        1.21934  -0.00003   0.01082  -0.00179   0.00803   1.22737
   D24       -0.41828  -0.00000   0.00814  -0.00679   0.00138  -0.41690
   D25        1.16048   0.00003   0.06567   0.02015   0.08622   1.24670
   D26       -2.03500  -0.00007  -0.03791   0.00426  -0.03338  -2.06838
   D27       -0.45623  -0.00004   0.01962   0.03120   0.05146  -0.40478
   D28        0.41654  -0.00003   0.00148  -0.00723  -0.00589   0.41064
   D29       -1.18011  -0.00000   0.01743  -0.04230  -0.02596  -1.20606
   D30        2.05661  -0.00014  -0.03850   0.00478  -0.03369   2.02292
   D31        0.45997  -0.00011  -0.02255  -0.03029  -0.05375   0.40622
   D32        1.39607   0.00004  -0.01617  -0.06768  -0.08398   1.31210
   D33        0.80545  -0.00003  -0.03437  -0.06707  -0.10171   0.70374
   D34       -0.69236  -0.00002  -0.01615  -0.06963  -0.08705  -0.77941
   D35       -1.28298  -0.00009  -0.03435  -0.06902  -0.10478  -1.38776
   D36       -2.79033   0.00001  -0.01596  -0.06819  -0.08516  -2.87550
   D37        2.90223  -0.00006  -0.03416  -0.06758  -0.10289   2.79934
   D38       -1.43814   0.00001   0.05709   0.06035   0.11693  -1.32122
   D39       -0.83178   0.00004   0.05514   0.06627   0.12135  -0.71043
   D40        0.65312  -0.00001   0.05591   0.06205   0.11805   0.77117
   D41        1.25948   0.00002   0.05396   0.06797   0.12247   1.38195
   D42        2.74940  -0.00002   0.05639   0.06079   0.11707   2.86647
   D43       -2.92742   0.00001   0.05444   0.06671   0.12149  -2.80593
   D44        0.76226   0.00005  -0.03666   0.02535  -0.01425   0.74801
   D45       -1.32679  -0.00001  -0.03708   0.02415  -0.01365  -1.34044
   D46        2.85961   0.00004  -0.03696   0.02469  -0.01388   2.84573
         Item               Value     Threshold  Converged?
 Maximum Force            0.000482     0.000015     NO 
 RMS     Force            0.000085     0.000010     NO 
 Maximum Displacement     0.242911     0.000060     NO 
 RMS     Displacement     0.045207     0.000040     NO 
 GradGradGradGradGradGradGradGradGradGradGradGradGradGradGradGradGradGrad

                    Distance matrix (angstroms):
                    1          2          3          4          5
     1  C    0.000000
[...]
    D8        0.73908   0.00000   0.00000   0.00014   0.00014   0.73921
    D9        2.83571   0.00000   0.00000   0.00014   0.00014   2.83584
   D10        0.75306  -0.00000   0.00000  -0.00006  -0.00006   0.75299
   D11        1.36035  -0.00000   0.00000  -0.00009  -0.00009   1.36026
   D12       -1.33683  -0.00000   0.00000  -0.00006  -0.00006  -1.33689
   D13       -0.72953  -0.00000   0.00000  -0.00009  -0.00009  -0.72962
   D14        2.84968   0.00000   0.00000  -0.00006  -0.00006   2.84961
   D15       -2.82621  -0.00000   0.00000  -0.00009  -0.00009  -2.82630
   D16        0.42683   0.00000   0.00000   0.00000   0.00000   0.42684
   D17       -1.19678  -0.00000   0.00000   0.00003   0.00003  -1.19676
   D18        2.04193  -0.00000   0.00000   0.00004   0.00004   2.04197
   D19        0.41832  -0.00000   0.00000   0.00006   0.00006   0.41838
   D20        1.20167   0.00000   0.00000  -0.00000  -0.00000   1.20166
   D21       -0.41682  -0.00000   0.00000  -0.00005  -0.00005  -0.41687
   D22       -0.41832   0.00000   0.00000  -0.00006  -0.00006  -0.41838
   D23        1.19679   0.00000   0.00000  -0.00003  -0.00003   1.19676
   D24       -0.42684  -0.00000   0.00000   0.00001   0.00001  -0.42682
   D25        1.19678  -0.00000   0.00000   0.00003   0.00003   1.19681
   D26       -2.04196   0.00000   0.00000   0.00004   0.00004  -2.04192
   D27       -0.41834   0.00000   0.00000   0.00005   0.00005  -0.41829
   D28        0.41682   0.00000   0.00000   0.00005   0.00005   0.41687
   D29       -1.20166  -0.00000   0.00000  -0.00000  -0.00000  -1.20166
   D30        2.03531   0.00000   0.00000   0.00001   0.00001   2.03532
   D31        0.41684   0.00000   0.00000  -0.00004  -0.00004   0.41680
   D32        1.35084  -0.00000   0.00000  -0.00014  -0.00014   1.35071
   D33        0.73914  -0.00000   0.00000  -0.00013  -0.00013   0.73901
   D34       -0.73908  -0.00000   0.00000  -0.00013  -0.00013  -0.73921
   D35       -1.35078   0.00000   0.00000  -0.00012  -0.00012  -1.35091
   D36       -2.83571  -0.00000   0.00000  -0.00014  -0.00014  -2.83585
   D37        2.83577   0.00000   0.00000  -0.00013  -0.00013   2.83565
   D38       -1.33685  -0.00000   0.00000   0.00004   0.00004  -1.33681
   D39       -0.72957  -0.00000   0.00000   0.00006   0.00006  -0.72950
   D40        0.75303   0.00000   0.00000   0.00005   0.00005   0.75308
   D41        1.36032   0.00000   0.00000   0.00006   0.00006   1.36038
   D42        2.84965  -0.00000   0.00000   0.00004   0.00004   2.84970
   D43       -2.82625  -0.00000   0.00000   0.00006   0.00006  -2.82619
   D44        0.72953   0.00000   0.00000   0.00009   0.00009   0.72962
   D45       -1.36035   0.00000   0.00000   0.00009   0.00009  -1.36026
   D46        2.82621   0.00000   0.00000   0.00009   0.00009   2.82630
         Item               Value     Threshold  Converged?
 Maximum Force            0.000000     0.000015     YES
 RMS     Force            0.000000     0.000010     YES
 Maximum Displacement     0.000185     0.000060     NO 
 RMS     Displacement     0.000056     0.000040     NO 
                           ----------------------------
                           ! Non-Optimized Parameters !
                           ! (Angstroms and Degrees)  !
 --------------------------                            --------------------------
 ! Name  Definition              Value          Derivative Info.                !
 --------------------------------------------------------------------------------
 ! R1    R(1,2)                  1.1018         -DE/DX =    0.0                 !
 ! R2    R(1,3)                  1.1018         -DE/DX =    0.0                 !
 ! R3    R(1,4)                  1.1018         -DE/DX =    0.0                 !
 ! R4    R(1,5)                  1.102          -DE/DX =    0.0                 !
 ! R5    R(2,7)                  3.0286         -DE/DX =    0.0                 !
 ! R6    R(2,9)                  3.0505         -DE/DX =    0.0                 !
 ! R7    R(3,8)                  3.0286         -DE/DX =    0.0                 !
 ! R8    R(4,7)                  3.0287         -DE/DX =    0.0                 !
 ! R9    R(4,8)                  3.0505         -DE/DX =    0.0                 !
 ! R10   R(6,7)                  1.1018         -DE/DX =    0.0                 !
 ! R11   R(6,8)                  1.1018         -DE/DX =    0.0                 !
 ! R12   R(6,9)                  1.1018         -DE/DX =    0.0                 !
 ! R13   R(6,10)                 1.102          -DE/DX =    0.0                 !
 ! A1    A(2,1,3)              109.3643         -DE/DX =    0.0                 !
 ! A2    A(2,1,4)              109.3681         -DE/DX =    0.0                 !
 ! A3    A(2,1,5)              109.5751         -DE/DX =    0.0                 !
 ! A4    A(3,1,4)              109.3644         -DE/DX =    0.0                 !
 ! A5    A(3,1,5)              109.5798         -DE/DX =    0.0                 !
 ! A6    A(4,1,5)              109.575          -DE/DX =    0.0                 !
 ! A7    A(1,2,7)               98.4846         -DE/DX =    0.0                 !
 ! A8    A(1,2,9)               98.4242         -DE/DX =    0.0                 !
 ! A9    A(7,2,9)               34.406          -DE/DX =    0.0                 !
 ! A10   A(1,3,8)               99.6383         -DE/DX =    0.0                 !
 ! A11   A(1,4,7)               98.4743         -DE/DX =    0.0                 !
 ! A12   A(1,4,8)               98.4147         -DE/DX =    0.0                 !
 ! A13   A(7,4,8)               34.405          -DE/DX =    0.0                 !
 ! A14   A(7,6,8)              109.3643         -DE/DX =    0.0                 !
 ! A15   A(7,6,9)              109.3644         -DE/DX =    0.0                 !
 ! A16   A(7,6,10)             109.5798         -DE/DX =    0.0                 !
 ! A17   A(8,6,9)              109.3681         -DE/DX =    0.0                 !
 ! A18   A(8,6,10)             109.5751         -DE/DX =    0.0                 !
 ! A19   A(9,6,10)             109.575          -DE/DX =    0.0                 !
 ! A20   A(2,7,4)               34.5371         -DE/DX =    0.0                 !
 ! A21   A(2,7,6)               99.6384         -DE/DX =    0.0                 !
 ! A22   A(4,7,6)               99.6377         -DE/DX =    0.0                 !
 ! A23   A(3,8,4)               34.406          -DE/DX =    0.0                 !
 ! A24   A(3,8,6)               98.4845         -DE/DX =    0.0                 !
 ! A25   A(4,8,6)               98.4244         -DE/DX =    0.0                 !
 ! A26   A(2,9,6)               98.4145         -DE/DX =    0.0                 !
 ! D1    D(3,1,2,7)             76.5934         -DE/DX =    0.0                 !
 ! D2    D(3,1,2,9)             41.7974         -DE/DX =    0.0                 !
 ! D3    D(4,1,2,7)            -43.1481         -DE/DX =    0.0                 !
 ! D4    D(4,1,2,9)            -77.9441         -DE/DX =    0.0                 !
 ! D5    D(5,1,2,7)           -163.2756         -DE/DX =    0.0                 !
 ! D6    D(5,1,2,9)            161.9284         -DE/DX =    0.0                 !
 ! D7    D(2,1,3,8)            -77.3899         -DE/DX =    0.0                 !
 ! D8    D(4,1,3,8)             42.3538         -DE/DX =    0.0                 !
 ! D9    D(5,1,3,8)            162.4819         -DE/DX =    0.0                 !
 ! D10   D(2,1,4,7)             43.1433         -DE/DX =    0.0                 !
 ! D11   D(2,1,4,8)             77.9373         -DE/DX =    0.0                 !
 ! D12   D(3,1,4,7)            -76.5981         -DE/DX =    0.0                 !
 ! D13   D(3,1,4,8)            -41.8041         -DE/DX =    0.0                 !
 ! D14   D(5,1,4,7)            163.2709         -DE/DX =    0.0                 !
 ! D15   D(5,1,4,8)           -161.9352         -DE/DX =    0.0                 !
 ! D16   D(1,2,7,4)             24.4559         -DE/DX =    0.0                 !
 ! D17   D(1,2,7,6)            -68.569          -DE/DX =    0.0                 !
 ! D18   D(9,2,7,4)            116.9962         -DE/DX =    0.0                 !
 ! D19   D(9,2,7,6)             23.9712         -DE/DX =    0.0                 !
 ! D20   D(1,2,9,6)             68.8503         -DE/DX =    0.0                 !
 ! D21   D(7,2,9,6)            -23.8848         -DE/DX =    0.0                 !
 ! D22   D(1,3,8,4)            -23.9712         -DE/DX =    0.0                 !
 ! D23   D(1,3,8,6)             68.5695         -DE/DX =    0.0                 !
 ! D24   D(1,4,7,2)            -24.4552         -DE/DX =    0.0                 !
 ! D25   D(1,4,7,6)             68.572          -DE/DX =    0.0                 !
 ! D26   D(8,4,7,2)           -116.9935         -DE/DX =    0.0                 !
 ! D27   D(8,4,7,6)            -23.9663         -DE/DX =    0.0                 !
 ! D28   D(1,4,8,3)             23.8848         -DE/DX =    0.0                 !
 ! D29   D(1,4,8,6)            -68.8499         -DE/DX =    0.0                 !
 ! D30   D(7,4,8,3)            116.6154         -DE/DX =    0.0                 !
 ! D31   D(7,4,8,6)             23.8807         -DE/DX =    0.0                 !
 ! D32   D(8,6,7,2)             77.3899         -DE/DX =    0.0                 !
 ! D33   D(8,6,7,4)             42.3424         -DE/DX =    0.0                 !
 ! D34   D(9,6,7,2)            -42.3539         -DE/DX =    0.0                 !
 ! D35   D(9,6,7,4)            -77.4013         -DE/DX =    0.0                 !
 ! D36   D(10,6,7,2)          -162.482          -DE/DX =    0.0                 !
 ! D37   D(10,6,7,4)           162.4706         -DE/DX =    0.0                 !
 ! D38   D(7,6,8,3)            -76.5934         -DE/DX =    0.0                 !
 ! D39   D(7,6,8,4)            -41.7974         -DE/DX =    0.0                 !
 ! D40   D(9,6,8,3)             43.1481         -DE/DX =    0.0                 !
 ! D41   D(9,6,8,4)             77.944          -DE/DX =    0.0                 !
 ! D42   D(10,6,8,3)           163.2756         -DE/DX =    0.0                 !
 ! D43   D(10,6,8,4)          -161.9285         -DE/DX =    0.0                 !
 ! D44   D(7,6,9,2)             41.8041         -DE/DX =    0.0                 !
 ! D45   D(8,6,9,2)            -77.9373         -DE/DX =    0.0                 !
 ! D46   D(10,6,9,2)           161.9351         -DE/DX =    0.0                 !
 --------------------------------------------------------------------------------
 GradGradGradGradGradGradGradGradGradGradGradGradGradGradGradGradGradGrad

 Dipole is zero, so no output in dipole orientation.

 ----------------------------------------------------------------------

 Electric dipole moment (input orientation):
 (Debye = 10**-18 statcoulomb cm , SI units = C m)
                  (au)            (Debye)         (10**-30 SI)
   Tot        0.000000D+00      0.000000D+00      0.000000D+00
   x          0.000000D+00      0.000000D+00      0.000000D+00
   y          0.000000D+00      0.000000D+00      0.000000D+00
   z          0.000000D+00      0.000000D+00      0.000000D+00

 Dipole polarizability, Alpha (input orientation).
 (esu units = cm**3 , SI units = C**2 m**2 J**-1)
 Alpha(0;0):
               (au)            (10**-24 esu)      (10**-40 SI)
   iso        0.247119D+02      0.366193D+01      0.407444D+01
   aniso      0.277058D+01      0.410558D+00      0.456807D+00
   xx         0.265589D+02      0.393563D+01      0.437897D+01
   yx         0.556442D-02      0.824563D-03      0.917450D-03
   yy         0.237845D+02      0.352450D+01      0.392154D+01
   zx         0.776749D-02      0.115102D-02      0.128069D-02
   zy        -0.579613D-02     -0.858898D-03     -0.955653D-03
   zz         0.237923D+02      0.352565D+01      0.392282D+01

 ----------------------------------------------------------------------
 1\1\GINC-C503\Freq\RwB97XD\def2SVPP\C2H8\PETERCHAO1\13-Sep-2022\0\\#T 
 Geom=AllCheck Guess=TCheck SCRF=Check GenChk RwB97XD/def2SVPP Freq\\di
 mer\\0,1\C,1.7957056778,0.0088520735,0.0078561793\H,1.430789945,0.8943
 197481,-0.5369217196\H,1.4208149666,-0.9029454888,-0.4841516949\H,1.42
 79829766,0.0413296939,1.0459917278\H,2.8977197286,0.0027484835,0.00652
 10606\C,-1.7954432743,-0.0088372701,-0.0079301779\H,-1.420552105,0.902
 9632644,0.4840718308\H,-1.4305273245,-0.8943016455,0.5368529341\H,-1.4
 27721267,-0.0413213528,-1.0460657696\H,-2.8974573239,-0.0027335062,-0.
 0065943706\\Version=ES64L-G16RevB.01\State=1-A\HF=-80.927753\RMSD=3.69
 7e-10\RMSF=6.483e-07\ZeroPoint=0.0910967\Thermal=0.0982709\Dipole=0.,0
 .,0.\DipoleDeriv=-0.0760987,-0.0006173,-0.0003288,0.0002412,-0.0782429
 ,-0.0001929,0.0001247,-0.0001946,-0.0779869,0.069271,0.0564291,-0.0345
 41,0.0622333,-0.0405364,0.0727198,-0.0381995,0.0726828,0.0326103,0.064
 8327,-0.0590097,-0.0318228,-0.0659508,-0.0477726,-0.0675951,-0.0355632
 ,-0.0675862,0.0409651,0.0688388,0.0022112,0.066543,0.0023493,0.0772596
 ,-0.0049808,0.0734097,-0.0049513,-0.0848209,-0.1268438,0.0009867,0.000
 1496,0.0011269,0.0892923,0.0000489,0.0002283,0.0000493,0.0892324,-0.07
 60987,-0.0006173,-0.0003288,0.0002412,-0.078243,-0.0001929,0.0001247,-
 0.0001946,-0.0779869,0.0648325,-0.0590099,-0.0318225,-0.0659511,-0.047
 7734,-0.0675944,-0.0355628,-0.0675856,0.040966,0.069271,0.0564289,-0.0
 345414,0.0622332,-0.0405355,0.0727203,-0.0381999,0.0726833,0.0326094,0
 .0688389,0.0022116,0.0665429,0.0023497,0.0772595,-0.0049818,0.0734096,
 -0.0049524,-0.0848209,-0.1268438,0.0009868,0.0001498,0.001127,0.089292
 3,0.0000488,0.0002285,0.0000493,0.0892324\Polar=26.5589149,0.0055644,2
 3.7845369,0.0077675,-0.0057961,23.7922835\Quadrupole=-0.024237,0.01219
 67,0.0120403,-0.0009059,-0.0005489,0.000116\PG=C01 [X(C2H8)]\NImag=0\\
 0.56678869,-0.00010682,0.56416635,-0.00005327,-0.00010606,0.56430266,-
 0.07856564,0.07484111,-0.04601412,0.07824313,0.07447283,-0.22876654,0.
 11153286,-0.08074028,0.23985331,-0.04578432,0.11150564,-0.11617625,0.0
 4961329,-0.12035922,0.11832274,-0.08067577,-0.07908918,-0.04267864,0.0
 0357449,0.00948663,0.00679078,0.08094376,-0.07869017,-0.23967238,-0.10
 364707,-0.00924768,-0.01643700,-0.01252671,0.08521684,0.25162429,-0.04
 246316,-0.10364697,-0.10351790,0.00749563,0.01391521,0.00867409,0.0459
 8644,0.11188631,0.10464623,-0.07904703,0.00279230,0.08840109,0.0034582
 3,-0.00186917,-0.01149771,0.00361213,0.00116655,-0.01184634,0.07877067
 ,0.00278202,-0.04779162,-0.00777984,-0.01069711,0.00310871,0.02383097,
 0.01095336,0.00169943,-0.02443307,-0.00303715,0.04452289,0.08796766,-0
 .00775262,-0.29667805,0.00479592,-0.00275646,-0.01079339,0.00422824,0.
 00195897,-0.00950184,-0.09535225,0.00838896,0.31314219,-0.32745268,0.0
 0156429,0.00034716,-0.00621578,-0.00153648,0.00096626,-0.00647253,0.00
 168145,0.00089702,-0.00629284,-0.00003089,-0.00184202,0.34664071,0.001
 54317,-0.04787865,0.00000007,0.02584764,0.00222814,-0.00239478,-0.0266
 5122,0.00277745,0.00222773,0.00091677,-0.00145846,0.00015948,-0.001677
 87,0.04428374,0.00033533,-0.00000006,-0.04787315,-0.01592942,-0.002272
 20,0.00001816,-0.01437023,0.00227808,-0.00024200,0.03032120,-0.0000133
 0,0.00378172,-0.00036770,0.00000955,0.04426473,0.00016234,-0.00000267,
 -0.00000089,-0.00013182,0.00020357,-0.00011049,-0.00054001,-0.00021381
 ,-0.00011643,-0.00013806,0.00002079,0.00023091,-0.00039999,-0.00000890
 ,-0.00000534,0.56678868,-0.00000267,-0.00014222,0.00001944,-0.00008088
 ,-0.00003229,0.00021618,0.00008637,-0.00005618,-0.00020073,-0.00001064
 ,0.00031593,-0.00002714,0.00000612,-0.00014241,-0.00000768,-0.00010682
 ,0.56416637,-0.00000088,0.00001945,-0.00016804,0.00003905,0.00020251,0
 .00019118,0.00004550,-0.00020129,0.00020821,-0.00008868,-0.00001293,-0
 .00015640,0.00000279,-0.00000771,-0.00013226,-0.00005327,-0.00010606,0
 .56430266,-0.00054003,0.00008637,0.00004550,-0.00029136,-0.00002242,0.
 00011273,0.00005118,-0.00003375,-0.00001795,-0.00029120,0.00008208,-0.
 00008149,0.00008929,-0.00002871,-0.00001538,-0.08067587,-0.07908954,-0
 .04267818,0.08094390,-0.00021381,-0.00005618,-0.00020129,0.00008548,0.
 00007885,-0.00013849,-0.00003375,-0.00001065,0.00001607,0.00016688,-0.
 00009839,0.00025023,-0.00013179,0.00009457,0.00012390,-0.07869052,-0.2
 3967364,-0.10364618,0.08521723,0.25162565,-0.00011643,-0.00020073,0.00
 020821,0.00014510,0.00013311,-0.00017129,-0.00001795,0.00001607,-0.000
 03192,-0.00000967,-0.00002171,0.00000544,-0.00007063,0.00012407,-0.000
 06904,-0.04246271,-0.10364608,-0.10351656,0.04598595,0.11188534,0.1046
 4479,-0.00013182,-0.00008088,0.00003905,0.00005897,0.00001673,-0.00001
 162,-0.00029134,0.00008548,0.00014510,-0.00022350,-0.00007720,-0.00011
 072,0.00009327,0.00005217,-0.00002312,-0.07856567,0.07484088,-0.046014
 58,0.00357451,-0.00924764,0.00749570,0.07824314,0.00020357,-0.00003229
 ,0.00020252,0.00001673,0.00000095,-0.00002932,-0.00002243,0.00007885,0
 .00013310,-0.00013357,-0.00012188,-0.00023590,0.00012216,0.00008776,-0
 .00013060,0.07447260,-0.22876519,0.11153351,0.00948668,-0.01643699,0.0
 1391535,-0.08074002,0.23985185,-0.00011049,0.00021617,0.00019118,-0.00
 001162,-0.00002932,-0.00002692,0.00011273,-0.00013849,-0.00017129,-0.0
 0000440,0.00002894,0.00001402,-0.00007452,-0.00013321,-0.00005234,-0.0
 4578479,0.11150629,-0.11617756,0.00679072,-0.01252655,0.00867408,0.049
 61380,-0.12035992,0.11832415,-0.00013805,-0.00001064,-0.00008868,-0.00
 022349,-0.00013357,-0.00000440,-0.00029121,0.00016688,-0.00000967,0.00
 005888,-0.00000049,0.00002089,0.00009272,0.00000852,0.00005589,-0.0790
 4691,0.00279284,0.08840093,0.00361212,0.00116648,-0.01184636,0.0034582
 3,-0.00186924,-0.01149771,0.07877055,0.00002079,0.00031593,-0.00001292
 ,-0.00007720,-0.00012189,0.00002894,0.00008208,-0.00009838,-0.00002171
 ,-0.00000049,-0.00004543,0.00000110,0.00000459,-0.00013116,0.00001088,
 0.00278256,-0.04779172,-0.00778139,0.01095337,0.00169929,-0.02443315,-
 0.01069706,0.00310884,0.02383089,-0.00303773,0.04452300,0.00023091,-0.
 00002715,-0.00015640,-0.00011072,-0.00023589,0.00001402,-0.00008149,0.
 00025023,0.00000545,0.00002089,0.00000110,0.00001926,0.00014286,0.0000
 1338,0.00016704,0.08796750,-0.00775417,-0.29667808,0.00422816,0.001958
 90,-0.00950169,0.00479598,-0.00275654,-0.01079351,-0.09535208,0.008390
 63,0.31314222,-0.00039999,0.00000612,0.00000279,0.00009327,0.00012216,
 -0.00007452,0.00008929,-0.00013179,-0.00007063,0.00009272,0.00000459,0
 .00014286,-0.00008215,-0.00000157,-0.00000122,-0.32745268,0.00156433,0
 .00034733,-0.00647254,0.00168145,0.00089701,-0.00621579,-0.00153648,0.
 00096627,-0.00629282,-0.00003090,-0.00184201,0.34664070,-0.00000890,-0
 .00014241,-0.00000771,0.00005217,0.00008776,-0.00013321,-0.00002871,0.
 00009457,0.00012407,0.00000852,-0.00013116,0.00001338,-0.00000157,0.00
 013903,0.00000142,0.00154322,-0.04787865,0.00000007,-0.02665131,0.0027
 7749,0.00222773,0.02584754,0.00222810,-0.00239481,0.00091696,-0.001458
 46,0.00015951,-0.00167792,0.04428374,-0.00000534,-0.00000768,-0.000132
 26,-0.00002312,-0.00013059,-0.00005234,-0.00001538,0.00012390,-0.00006
 904,0.00005588,0.00001088,0.00016704,-0.00000122,0.00000142,0.00013715
 ,0.00033550,-0.00000006,-0.04787315,-0.01437006,0.00227806,-0.00024202
 ,-0.01592958,-0.00227221,0.00001820,0.03032120,-0.00001327,0.00378170,
 -0.00036789,0.00000955,0.04426473\\-0.00000002,0.00000082,0.00000037,-
 0.00000016,0.00000083,0.00000022,0.00000048,0.00000084,0.00000047,-0.0
 0000057,0.00000052,0.00000057,0.00000001,0.00000145,0.00000076,0.00000
 002,-0.00000082,-0.00000037,-0.00000047,-0.00000084,-0.00000047,0.0000
 0016,-0.00000082,-0.00000022,0.00000057,-0.00000052,-0.00000057,-0.000
 00001,-0.00000145,-0.00000076\\\@


 I KNOW YOU BELIEVE YOU UNDERSTAND WHAT YOU THINK I SAID,
 BUT I AM NOT SURE YOU REALIZE THAT WHAT YOU HEARD IS NOT WHAT I MEANT.
 File lengths (MBytes):  RWF=      6 Int=      0 D2E=      0 Chk=      2 Scr=      1
 Normal termination of Gaussian 16 at Tue Sep 13 10:46:51 2022.
real 1096.47
user 4014.24
sys 82.95
