10
 energy: -7.787438127042 gnorm: 1.168559429074 xtb: 6.5.1 (b24c23e)
c           -0.99999981298325       -0.00000172267291        0.00000048891318
h           -1.07600282946525        0.33252040575732        1.04778127753708
h           -0.20191789484555        0.56520263528797       -0.50774837958528
h           -1.95916272150263        0.17803663193288       -0.51234757684448
h           -0.76291680612003       -1.07573956538242       -0.02769137123006
c            1.00000000146241       -0.00000166974143        0.00000051703630
h            0.92399598498048        0.33252045868827        1.04778130565967
h            1.79808191960011        0.56520268821892       -0.50774835146216
h            0.04083709294356        0.17803668486383       -0.51234754872136
h            1.23708300832617       -1.07573951245147       -0.02769134310693
10
 energy: -8.076739674930 gnorm: 0.373364291866 xtb: 6.5.1 (b24c23e)
c           -1.09752617501385       -0.00799107520355        0.00224671061137
h           -1.09779462370508        0.33321626928127        1.03997058125163
h           -0.29120269893296        0.66982466213602       -0.50493172215898
h           -2.01841850159106        0.17071863632480       -0.51049438879294
h           -0.78973144990573       -1.06296996195786       -0.03033207864905
c            1.11671162970871       -0.00202986292117        0.00384051624999
h            0.94377923975282        0.32836589948720        1.03848876190399
h            1.85070907884759        0.56829065332859       -0.50728734452341
h            0.11897733989957        0.08252396266499       -0.50918098822442
h            1.26449410333601       -1.07991214863933       -0.02233102947225
10
 energy: -8.159417840609 gnorm: 0.265337762649 xtb: 6.5.1 (b24c23e)
c           -1.18391848290722        0.01876283314097       -0.00569657945747
h           -1.16730263770879        0.32560439839822        1.03456377390736
h           -0.32829396006887        0.69186445319931       -0.49410023421217
h           -2.11357241789882        0.15215666067981       -0.50783330110921
h           -0.86554528401582       -1.02881711757534       -0.03366432999696
c            1.19598034856457       -0.02134445958750       -0.00079530688027
h            1.00885352480114        0.32203447841293        1.01781630569269
h            1.91856667477537        0.57959877710181       -0.50349544186022
h            0.16527185947982        0.04461292731606       -0.49363025724859
h            1.36995831737465       -1.08443591658530       -0.01317561063919
10
 energy: -8.233215744075 gnorm: 0.167200257037 xtb: 6.5.1 (b24c23e)
c           -1.26727619478982        0.05027508054173       -0.01379690110552
h           -1.21957011380035        0.32564957532480        1.03368374096205
h           -0.40513493648054        0.72880165788719       -0.49754957911673
h           -2.20585585501910        0.14264955960422       -0.49184559867937
h           -0.92551097727958       -0.99695302421767       -0.04413309950497
c            1.26961945725683       -0.04402545100564       -0.00138016781966
h            1.04788738931217        0.31032361876538        1.00582413742499
h            1.96846181422401        0.59169802284300       -0.49948155065335
h            0.26102415559248       -0.01582946326391       -0.48999437032006
h            1.47635320337991       -1.09255254197813       -0.00133759299143
10
 energy: -8.283384696980 gnorm: 0.107026416740 xtb: 6.5.1 (b24c23e)
c           -1.33444289649472        0.07589740884334       -0.01881735201743
h           -1.28807558305611        0.33148730837067        1.03070539582618
h           -0.51019229779783        0.75794213956875       -0.50413235573659
h           -2.29136323602395        0.15113249064562       -0.47227115356332
h           -1.00080345768771       -0.97048304385789       -0.06714304963063
c            1.32909186658232       -0.06271021798345       -0.00039525271773
h            1.11088483965455        0.29571334137712        1.00065337809484
h            2.01237291037239        0.59975927687322       -0.49604722014219
h            0.35814085147168       -0.08058779072513       -0.49269467209085
h            1.61438494537538       -1.09811387861130        0.02013130017369
10
 energy: -8.316105111451 gnorm: 0.057243272680 xtb: 6.5.1 (b24c23e)
c           -1.39296264711954        0.09704955389816       -0.02154032349778
h           -1.35793890547230        0.34027662529246        1.03140143395069
h           -0.64230403874752        0.77604110254365       -0.51603656063771
h           -2.36961221118607        0.18107914963499       -0.44902400427346
h           -1.06961690138458       -0.94418091657244       -0.10066487044672
c            1.38607662225232       -0.08075411504180        0.00362543175269
h            1.17170634762008        0.27997044447124        1.00378538889679
h            2.05576820432105        0.60177957320491       -0.49493658888873
h            0.45120535588569       -0.15606328987204       -0.50322833165266
h            1.76767611622689       -1.09516109305817        0.04660744299284
10
 energy: -8.332748659905 gnorm: 0.029636526775 xtb: 6.5.1 (b24c23e)
c           -1.44489169468606        0.11266744109246       -0.02443729262470
h           -1.42216148582552        0.34496008091252        1.03351543121654
h           -0.76671077198477        0.78400077895562       -0.53288102332986
h           -2.44165328107519        0.22125201543986       -0.42123371919681
h           -1.13950838539600       -0.92372552380654       -0.13803425348444
c            1.44507998160533       -0.09756404864693        0.01160439428060
h            1.22792346172515        0.26659175788235        1.00940649506904
h            2.09683419899567        0.60187227557525       -0.49497798460121
h            0.53077982182246       -0.22907253608839       -0.51984194406459
h            1.91430609721495       -1.08094520681525        0.07686891493138
10
 energy: -8.340269121106 gnorm: 0.031511431054 xtb: 6.5.1 (b24c23e)
c           -1.49397515528014        0.12456292509371       -0.02630698816081
h           -1.46961083533340        0.34558967927315        1.03558793673958
h           -0.86470590291649        0.79729612298341       -0.55280396551638
h           -2.51148653261767        0.24943411900604       -0.38789384891030
h           -1.20204864088427       -0.90831615129537       -0.17300243514082
c            1.50412154076692       -0.11411206734626        0.01976678745495
h            1.26472628289345        0.25650846703054        1.01040449630724
h            2.13581149078242        0.60054227460925       -0.49319028507699
h            0.60795303678255       -0.28745364040385       -0.53941414314172
h            2.02921265820266       -1.06401469444967        0.10684146364121
10
 energy: -8.344702715263 gnorm: 0.028789309121 xtb: 6.5.1 (b24c23e)
c           -1.54816158617491        0.13551628630204       -0.02606173080537
h           -1.49856589479960        0.34807327503974        1.03694195468659
h           -0.95140238049903        0.81890527877364       -0.57835929552591
h           -2.58287572656515        0.26495110999470       -0.34897927493347
h           -1.26080327220523       -0.89233693691928       -0.20408618878664
c            1.56297580035402       -0.13225181676532        0.02491182670538
h            1.28360065825156        0.24252036883634        1.00417875541342
h            2.17706993131544        0.60197562308781       -0.48216710111429
h            0.68686399212565       -0.33686557304168       -0.56420944177200
h            2.13129642059327       -1.05045058080704        0.13781951432825
10
 energy: -8.347715929367 gnorm: 0.017967341973 xtb: 6.5.1 (b24c23e)
c           -1.61230574536111        0.14856106658951       -0.02529601813991
h           -1.51770421193354        0.35782229918289        1.03391414800053
h           -1.04109308808662        0.84727750789002       -0.60656710396606
h           -2.65903390790136        0.26768940666920       -0.30807827735753
h           -1.31587071145733       -0.87085039329071       -0.22825841453819
c            1.62579062182983       -0.15185675885085        0.02839099240530
h            1.29635790040432        0.21753359039759        0.99372171660767
h            2.22303508953245        0.60833271280722       -0.46242995225344
h            0.77275977954271       -0.38559276835669       -0.59125553211249
h            2.22806221582667       -1.03887962853725        0.16584745955009
10
 energy: -8.349378340682 gnorm: 0.010011916673 xtb: 6.5.1 (b24c23e)
c           -1.67879157518149        0.16369917781292       -0.02659689432938
h           -1.53446161957035        0.37211428296819        1.02627378697557
h           -1.12738336061846        0.87523382871404       -0.62959025922741
h           -2.73344418496459        0.26520494722771       -0.27039469004746
h           -1.36401312321543       -0.84663664207869       -0.24762093364250
c            1.68569305507534       -0.17027682828595        0.03052741164131
h            1.31004185519683        0.18762787013729        0.98177660739447
h            2.26539036720177        0.61657269762696       -0.44128762544699
h            0.85521156395658       -0.43229216985046       -0.61350823189899
h            2.32175496451582       -1.03121012977106        0.19040984677735
10
 energy: -8.350196725080 gnorm: 0.009149120200 xtb: 6.5.1 (b24c23e)
c           -1.74115683049134        0.17915326198429       -0.02980121102696
h           -1.56215776971858        0.38690949595577        1.01510953895513
h           -1.20745543773941        0.90298861532251       -0.64279331084325
h           -2.80145070418971        0.25442593062738       -0.24031041317640
h           -1.40228182617954       -0.82186061583436       -0.26188964777916
c            1.74369108001148       -0.18385310842574        0.03356359701275
h            1.33461087631449        0.15882131661632        0.97359267151095
h            2.30559579499132        0.61995291745847       -0.42704599037565
h            0.93512495326514       -0.47417939159365       -0.62661538982577
h            2.39547780613216       -1.02232138761003        0.20617917374432
10
 energy: -8.350538965291 gnorm: 0.009697885558 xtb: 6.5.1 (b24c23e)
c           -1.80276190321571        0.19502716933310       -0.03408919540081
h           -1.58389511565051        0.39962068500562        1.00743405170827
h           -1.28677119687691        0.92328072223790       -0.65675904921991
h           -2.86903097155432        0.25785864471730       -0.20748756769339
h           -1.45182798692992       -0.79880521736355       -0.28215687884695
c            1.79966236064033       -0.19944549130250        0.03429146576216
h            1.35002520417341        0.13382090473164        0.96334470651917
h            2.34019742152111        0.62907131445290       -0.41343382442253
h            1.01169067659490       -0.52223337796535       -0.64033661935527
h            2.49270945369365       -1.01815831934611        0.22918192914521
10
 energy: -8.350782625229 gnorm: 0.006699751869 xtb: 6.5.1 (b24c23e)
c           -1.84199718119541        0.20436037647008       -0.03692773582968
h           -1.61945767951249        0.40496337844359        1.00081955689996
h           -1.33865173683967        0.94141485165642       -0.65551478306678
h           -2.90829966596343        0.24957750677367       -0.19646668489232
h           -1.47863283858407       -0.78379562669245       -0.29247542398864
c            1.83888589624924       -0.20443892102037        0.03680694478442
h            1.38438101364185        0.12020584251681        0.96011315616718
h            2.36550366905233        0.62631969602113       -0.41442476955969
h            1.06479436334815       -0.54815370081952       -0.64002168944078
h            2.53347210219952       -1.01041636884841        0.23808044712229
10
 energy: -8.350873352794 gnorm: 0.005688581519 xtb: 6.5.1 (b24c23e)
c           -1.87672519248187        0.21290760543683       -0.03935150639439
h           -1.64142209365519        0.41035316216202        0.99809078120709
h           -1.38883235134419        0.95547949315737       -0.66068835771227
h           -2.94851325990767        0.24716480325393       -0.18059868345264
h           -1.50856168947512       -0.77060956772367       -0.30284652364678
c            1.87617215125111       -0.21062954757529        0.03767907821295
h            1.39954121351704        0.10831842921357        0.95711444237667
h            2.39230768553128        0.62698673645853       -0.41073931364173
h            1.11671327158676       -0.57691856718823       -0.64528775424353
h            2.57931820737388       -1.00301551269412        0.24661685549061
10
 energy: -8.350952036932 gnorm: 0.003996832842 xtb: 6.5.1 (b24c23e)
c           -1.91622737814939        0.22056939543156       -0.04090711875346
h           -1.67486864896957        0.41171637133141        0.99668978785162
h           -1.44426304823599        0.97079891170430       -0.66052575027946
h           -2.98791804852381        0.25072003551603       -0.17015002780766
h           -1.54705348999481       -0.75887407824828       -0.31821591665470
c            1.91581097166851       -0.21794309957127        0.03854654718642
h            1.43026565600672        0.09857281366524        0.95168300429580
h            2.41676816264700        0.62712797932045       -0.41388215279228
h            1.17121228832521       -0.60761954690709       -0.64618012804260
h            2.63627147762215       -0.99503174774140        0.26293077319228
10
 energy: -8.350980452787 gnorm: 0.002715869407 xtb: 6.5.1 (b24c23e)
c           -1.93948076866989        0.22466157272641       -0.04118004044215
h           -1.69408890330411        0.41189271367544        0.99648646465659
h           -1.47889377997691        0.98157307494770       -0.66098869969088
h           -3.01354429810485        0.25241524157168       -0.16392782325708
h           -1.56965194976292       -0.75198286391708       -0.32654925303694
c            1.93986395832525       -0.22253307438939        0.03879414065188
h            1.44595524531195        0.09306064443794        0.94836072655102
h            2.43415305630692        0.62496458768956       -0.41539191326988
h            1.20561444305551       -0.62539057521459       -0.64750945279250
h            2.67007093921507       -0.98862428702674        0.27189486882590
10
 energy: -8.350991708598 gnorm: 0.001291040998 xtb: 6.5.1 (b24c23e)
c           -1.95748906879818        0.22747084956306       -0.04062619886736
h           -1.70852904806941        0.41256410224478        0.99647001629717
h           -1.50560783625412        0.98962677841483       -0.66098365701490
h           -3.03225301877204        0.25392744352565       -0.16111373848330
h           -1.58722406294364       -0.74662724805461       -0.33160915048148
c            1.95843540539505       -0.22685745524461        0.03938920999267
h            1.45794431442551        0.08812056315410        0.94596173592875
h            2.44693151997460        0.62455757377237       -0.41713867822723
h            1.23214437604643       -0.63936802910349       -0.64812107068339
h            2.69564536139183       -0.98337754377114        0.27776054973503
10
 energy: -8.350992849226 gnorm: 0.001494541819 xtb: 6.5.1 (b24c23e)
c           -1.96962321624978        0.22967226888640       -0.04038696758922
h           -1.71626000543992        0.41135454133977        0.99655184998151
h           -1.52278597383063        0.99544561222929       -0.66163307199052
h           -3.04609077324535        0.25445428727646       -0.15789460140462
h           -1.59663021239300       -0.74240001789176       -0.33747799226475
c            1.96981085074838       -0.22930210374474        0.04014650222997
h            1.46575617856687        0.08602661015017        0.94389062762925
h            2.45567792636979        0.62136859823279       -0.41782989637416
h            1.24833594464995       -0.64739766118558       -0.64915198991988
h            2.71180722321972       -0.97918510079186        0.28377455789840
10
 energy: -8.350995323623 gnorm: 0.000622367431 xtb: 6.5.1 (b24c23e)
c           -1.96908272075438        0.22980224883328       -0.04014216777007
h           -1.71618374209386        0.41236982011823        0.99579794697929
h           -1.52115376576226        0.99473887306844       -0.66118046439408
h           -3.04474755076909        0.25399573684876       -0.15843306522351
h           -1.59628165966252       -0.74194606417248       -0.33590027771788
c            1.96942392340824       -0.22974681526320        0.04013335514433
h            1.46459799541477        0.08488285775781        0.94396637944405
h            2.45444470292249        0.62249282043508       -0.41794025807297
h            1.24730590284852       -0.64711277057445       -0.64870838023023
h            2.71167485684412       -0.97943967255052        0.28239595003704
