 Entering Gaussian System, Link 0=g16
 Input=gaussian_test.inp
 Output=gaussian_test.log
 Initial command:
 /sw/restricted/lms/sw/Gaussian/g16_B01/g16/l1.exe "/scratch/user/peterchao1/peterchao1/7003904_1675700106000000508295874/Gau-99331.inp" -scrdir="/scratch/user/peterchao1/peterchao1/7003904_1675700106000000508295874/"
 Entering Link 1 = /sw/restricted/lms/sw/Gaussian/g16_B01/g16/l1.exe PID=     99332.
  
 Copyright (c) 1988-2017, Gaussian, Inc.  All Rights Reserved.
  
 This is part of the Gaussian(R) 16 program.  It is based on
 the Gaussian(R) 09 system (copyright 2009, Gaussian, Inc.),
 the Gaussian(R) 03 system (copyright 2003, Gaussian, Inc.),
 the Gaussian(R) 98 system (copyright 1998, Gaussian, Inc.),
 the Gaussian(R) 94 system (copyright 1995, Gaussian, Inc.),
 the Gaussian 92(TM) system (copyright 1992, Gaussian, Inc.),
 the Gaussian 90(TM) system (copyright 1990, Gaussian, Inc.),
 the Gaussian 88(TM) system (copyright 1988, Gaussian, Inc.),
 the Gaussian 86(TM) system (copyright 1986, Carnegie Mellon
 University), and the Gaussian 82(TM) system (copyright 1983,
 Carnegie Mellon University). Gaussian is a federally registered
 trademark of Gaussian, Inc.
  
 This software contains proprietary and confidential information,
 including trade secrets, belonging to Gaussian, Inc.
  
 This software is provided under written license and may be
 used, copied, transmitted, or stored only in accord with that
 written license.
  
 The following legend is applicable only to US Government
 contracts under FAR:
  
                    RESTRICTED RIGHTS LEGEND
  
 Use, reproduction and disclosure by the US Government is
 subject to restrictions as set forth in subparagraphs (a)
 and (c) of the Commercial Computer Software - Restricted
 Rights clause in FAR 52.227-19.
  
 Gaussian, Inc.
 340 Quinnipiac St., Bldg. 40, Wallingford CT 06492
  
  
 ---------------------------------------------------------------
 Warning -- This program may not be used in any manner that
 competes with the business of Gaussian, Inc. or will provide
 assistance to any competitor of Gaussian, Inc.  The licensee
 of this program is prohibited from giving any competitor of
 Gaussian, Inc. access to this program.  By using this program,
 the user acknowledges that Gaussian, Inc. is engaged in the
 business of creating and licensing software in the field of
 computational chemistry and represents and warrants to the
 licensee that it is not a competitor of Gaussian, Inc. and that
 it will not use this program in any manner prohibited above.
 ---------------------------------------------------------------
  

 Cite this work as:
 Gaussian 16, Revision B.01,
 M. J. Frisch, G. W. Trucks, H. B. Schlegel, G. E. Scuseria, 
 M. A. Robb, J. R. Cheeseman, G. Scalmani, V. Barone, 
 G. A. Petersson, H. Nakatsuji, X. Li, M. Caricato, A. V. Marenich, 
 J. Bloino, B. G. Janesko, R. Gomperts, B. Mennucci, H. P. Hratchian, 
 J. V. Ortiz, A. F. Izmaylov, J. L. Sonnenberg, D. Williams-Young, 
 F. Ding, F. Lipparini, F. Egidi, J. Goings, B. Peng, A. Petrone, 
 T. Henderson, D. Ranasinghe, V. G. Zakrzewski, J. Gao, N. Rega, 
 G. Zheng, W. Liang, M. Hada, M. Ehara, K. Toyota, R. Fukuda, 
 J. Hasegawa, M. Ishida, T. Nakajima, Y. Honda, O. Kitao, H. Nakai, 
 T. Vreven, K. Throssell, J. A. Montgomery, Jr., J. E. Peralta, 
 F. Ogliaro, M. J. Bearpark, J. J. Heyd, E. N. Brothers, K. N. Kudin, 
 V. N. Staroverov, T. A. Keith, R. Kobayashi, J. Normand, 
 K. Raghavachari, A. P. Rendell, J. C. Burant, S. S. Iyengar, 
 J. Tomasi, M. Cossi, J. M. Millam, M. Klene, C. Adamo, R. Cammi, 
 J. W. Ochterski, R. L. Martin, K. Morokuma, O. Farkas, 
 J. B. Foresman, and D. J. Fox, Gaussian, Inc., Wallingford CT, 2016.
 
 ******************************************
 Gaussian 16:  ES64L-G16RevB.01 20-Dec-2017
                 6-Feb-2023 
 ******************************************
 %nprocshared=4
 Will use up to    4 processors via shared memory.
 %mem=8000mb
 %chk=19.chk
 %nprocshared=4
 Will use up to    4 processors via shared memory.
 %mem=8000mb
 ----------------------------------------------------------------------
 #T wB97XD/def2svpp opt=tight freq int(grid=ultrafine) scf=(verytight,q
 c) Volume=tight
 ----------------------------------------------------------------------
 -------
 Monomer
 -------
 Symbolic Z-matrix:
 Charge =  0 Multiplicity = 1
 C                    -0.89556  -0.88818  -1.25258 
 C                    -0.89556  -0.01088   0. 
 C                    -2.13869   0.88517   0.00006 
 C                    -0.8951   -0.88772   1.25291 
 C                     0.3291    0.90817  -0.00039 
 Cl                    1.86553   0.00493  -0.00001 
 H                    -1.77228  -1.53098  -1.26121 
 H                    -0.00845  -1.51564  -1.27794 
 H                    -0.9096   -0.27422  -2.15065 
 H                    -3.03698   0.27321  -0.00023 
 H                    -2.15719   1.52105  -0.88223 
 H                    -2.15743   1.52054   0.8827 
 H                    -0.00863  -1.51611   1.27752 
 H                    -1.77251  -1.52956   1.26275 
 H                    -0.90748  -0.2734    2.15077 
 H                     0.3431    1.53716   0.89021 
 H                     0.3431    1.53645  -0.89149 
 

 GradGradGradGradGradGradGradGradGradGradGradGradGradGradGradGradGradGrad
 Initialization pass.
                           ----------------------------
                           !    Initial Parameters    !
                           ! (Angstroms and Degrees)  !
 --------------------------                            --------------------------
 ! Name  Definition              Value          Derivative Info.                !
 --------------------------------------------------------------------------------
 ! R1    R(1,2)                  1.5293         estimate D2E/DX2                !
 ! R2    R(1,7)                  1.0872         estimate D2E/DX2                !
 ! R3    R(1,8)                  1.0869         estimate D2E/DX2                !
 ! R4    R(1,9)                  1.088          estimate D2E/DX2                !
 ! R5    R(2,3)                  1.5324         estimate D2E/DX2                !
 ! R6    R(2,4)                  1.5293         estimate D2E/DX2                !
 ! R7    R(2,5)                  1.5312         estimate D2E/DX2                !
 ! R8    R(3,10)                 1.0869         estimate D2E/DX2                !
 ! R9    R(3,11)                 1.0877         estimate D2E/DX2                !
 ! R10   R(3,12)                 1.0877         estimate D2E/DX2                !
 ! R11   R(4,13)                 1.0869         estimate D2E/DX2                !
 ! R12   R(4,14)                 1.0872         estimate D2E/DX2                !
 ! R13   R(4,15)                 1.088          estimate D2E/DX2                !
 ! R14   R(5,6)                  1.7823         estimate D2E/DX2                !
 ! R15   R(5,16)                 1.0904         estimate D2E/DX2                !
 ! R16   R(5,17)                 1.0904         estimate D2E/DX2                !
 ! A1    A(2,1,7)              110.2242         estimate D2E/DX2                !
 ! A2    A(2,1,8)              110.5059         estimate D2E/DX2                !
 ! A3    A(2,1,9)              110.6327         estimate D2E/DX2                !
 ! A4    A(7,1,8)              108.4633         estimate D2E/DX2                !
 ! A5    A(7,1,9)              108.4633         estimate D2E/DX2                !
 ! A6    A(8,1,9)              108.4845         estimate D2E/DX2                !
 ! A7    A(1,2,3)              109.602          estimate D2E/DX2                !
 ! A8    A(1,2,4)              110.0065         estimate D2E/DX2                !
 ! A9    A(1,2,5)              110.1288         estimate D2E/DX2                !
 ! A10   A(3,2,4)              109.602          estimate D2E/DX2                !
 ! A11   A(3,2,5)              107.3294         estimate D2E/DX2                !
 ! A12   A(4,2,5)              110.1285         estimate D2E/DX2                !
 ! A13   A(2,3,10)             109.9508         estimate D2E/DX2                !
 ! A14   A(2,3,11)             110.8299         estimate D2E/DX2                !
 ! A15   A(2,3,12)             110.828          estimate D2E/DX2                !
 ! A16   A(10,3,11)            108.3536         estimate D2E/DX2                !
 ! A17   A(10,3,12)            108.3528         estimate D2E/DX2                !
 ! A18   A(11,3,12)            108.4477         estimate D2E/DX2                !
 ! A19   A(2,4,13)             110.5056         estimate D2E/DX2                !
 ! A20   A(2,4,14)             110.224          estimate D2E/DX2                !
 ! A21   A(2,4,15)             110.6327         estimate D2E/DX2                !
 ! A22   A(13,4,14)            108.4639         estimate D2E/DX2                !
 ! A23   A(13,4,15)            108.4846         estimate D2E/DX2                !
 ! A24   A(14,4,15)            108.4632         estimate D2E/DX2                !
 ! A25   A(2,5,6)              112.6628         estimate D2E/DX2                !
 ! A26   A(2,5,16)             110.873          estimate D2E/DX2                !
 ! A27   A(2,5,17)             110.8745         estimate D2E/DX2                !
 ! A28   A(6,5,16)             106.3257         estimate D2E/DX2                !
 ! A29   A(6,5,17)             106.3268         estimate D2E/DX2                !
 ! A30   A(16,5,17)            109.5688         estimate D2E/DX2                !
 ! D1    D(7,1,2,3)            -61.3037         estimate D2E/DX2                !
 ! D2    D(7,1,2,4)             59.2709         estimate D2E/DX2                !
 ! D3    D(7,1,2,5)           -179.1617         estimate D2E/DX2                !
 ! D4    D(8,1,2,3)            178.8204         estimate D2E/DX2                !
 ! D5    D(8,1,2,4)            -60.6051         estimate D2E/DX2                !
 ! D6    D(8,1,2,5)             60.9623         estimate D2E/DX2                !
 ! D7    D(9,1,2,3)             58.6536         estimate D2E/DX2                !
 ! D8    D(9,1,2,4)            179.2281         estimate D2E/DX2                !
 ! D9    D(9,1,2,5)            -59.2045         estimate D2E/DX2                !
 ! D10   D(1,2,3,10)            60.3782         estimate D2E/DX2                !
 ! D11   D(1,2,3,11)           -59.3915         estimate D2E/DX2                !
 ! D12   D(1,2,3,12)          -179.8542         estimate D2E/DX2                !
 ! D13   D(4,2,3,10)           -60.4417         estimate D2E/DX2                !
 ! D14   D(4,2,3,11)           179.7885         estimate D2E/DX2                !
 ! D15   D(4,2,3,12)            59.3259         estimate D2E/DX2                !
 ! D16   D(5,2,3,10)           179.9684         estimate D2E/DX2                !
 ! D17   D(5,2,3,11)            60.1987         estimate D2E/DX2                !
 ! D18   D(5,2,3,12)           -60.264          estimate D2E/DX2                !
 ! D19   D(1,2,4,13)            60.5303         estimate D2E/DX2                !
 ! D20   D(1,2,4,14)           -59.3461         estimate D2E/DX2                !
 ! D21   D(1,2,4,15)          -179.303          estimate D2E/DX2                !
 ! D22   D(3,2,4,13)          -178.8952         estimate D2E/DX2                !
 ! D23   D(3,2,4,14)            61.2285         estimate D2E/DX2                !
 ! D24   D(3,2,4,15)           -58.7285         estimate D2E/DX2                !
 ! D25   D(5,2,4,13)           -61.0373         estimate D2E/DX2                !
 ! D26   D(5,2,4,14)           179.0864         estimate D2E/DX2                !
 ! D27   D(5,2,4,15)            59.1294         estimate D2E/DX2                !
 ! D28   D(1,2,5,6)            -60.7644         estimate D2E/DX2                !
 ! D29   D(1,2,5,16)          -179.7921         estimate D2E/DX2                !
 ! D30   D(1,2,5,17)            58.2657         estimate D2E/DX2                !
 ! D31   D(3,2,5,6)            179.9829         estimate D2E/DX2                !
 ! D32   D(3,2,5,16)            60.9552         estimate D2E/DX2                !
 ! D33   D(3,2,5,17)           -60.987          estimate D2E/DX2                !
 ! D34   D(4,2,5,6)             60.7303         estimate D2E/DX2                !
 ! D35   D(4,2,5,16)           -58.2973         estimate D2E/DX2                !
 ! D36   D(4,2,5,17)           179.7604         estimate D2E/DX2                !
 --------------------------------------------------------------------------------
 Number of steps in this run=     92 maximum allowed number of steps=    102.
 GradGradGradGradGradGradGradGradGradGradGradGradGradGradGradGradGradGrad

                    Distance matrix (angstroms):
                    1          2          3          4          5
     1  C    0.000000
     2  C    1.529255   0.000000
     3  C    2.501858   1.532413   0.000000
     4  C    2.505484   1.529254   2.501858   0.000000
     5  C    2.508913   1.531155   2.467898   2.508908   0.000000
     6  Cl   3.160724   2.761137   4.099837   3.160330   1.782271
     7  H    1.087155   2.161015   2.750061   2.739342   3.457586
     8  H    1.086878   2.164351   3.454728   2.754204   2.760604
     9  H    1.087975   2.166765   2.735042   3.458441   2.748830
    10  H    2.739141   2.160178   1.086928   2.739658   3.425438
    11  H    2.744683   2.171827   1.087711   3.457430   2.708295
    12  H    3.457409   2.171797   1.087702   2.744125   2.708806
    13  H    2.753597   2.164349   3.454739   1.086881   2.761201
    14  H    2.739944   2.161014   2.749443   1.087158   3.457574
    15  H    3.458451   2.166766   2.735643   1.087978   2.748226
    16  H    3.465267   2.173282   2.716014   2.746761   1.090405
    17  H    2.746541   2.173301   2.716303   3.465275   1.090406
                    6          7          8          9         10
     6  Cl   0.000000
     7  H    4.145275   0.000000
     8  H    2.730755   1.763982   0.000000
     9  H    3.522010   1.764872   1.764882   0.000000
    10  H    4.909843   2.538622   3.742261   3.074045   0.000000
    11  H    4.388531   3.099460   3.741009   2.527526   1.763255
    12  H    4.388672   3.749191   4.301728   3.738915   1.763239
    13  H    2.730949   3.091245   2.555459   3.755845   3.742347
    14  H    4.145425   2.523958   3.093096   3.737892   2.538499
    15  H    3.520360   3.737774   3.755996   4.301427   3.075763
    16  H    2.336244   4.303123   3.760855   3.754623   3.716899
    17  H    2.336260   3.744411   3.096474   2.536390   3.716855
                   11         12         13         14         15
    11  H    0.000000
    12  H    1.764928   0.000000
    13  H    4.301757   3.740914   0.000000
    14  H    3.749021   3.097698   1.763993   0.000000
    15  H    3.739105   2.527567   1.764888   1.764875   0.000000
    16  H    3.064832   2.500587   3.097766   3.744243   2.535963
    17  H    2.500346   3.066040   3.761168   4.303133   3.754312
                   16         17
    16  H    0.000000
    17  H    1.781697   0.000000
 Framework group  C1[X(C5H11Cl)]
 Deg. of freedom    45
                         Standard orientation:                         
 ---------------------------------------------------------------------
 Center     Atomic      Atomic             Coordinates (Angstroms)
 Number     Number       Type             X           Y           Z
 ---------------------------------------------------------------------
      1          6           0       -0.767465   -0.887825   -1.252579
      2          6           0       -0.769586   -0.010520   -0.000001
      3          6           0       -2.014877    0.882532    0.000058
      4          6           0       -0.767011   -0.887354    1.252905
      5          6           0        0.452852    0.911480   -0.000390
      6         17           0        1.991460    0.011940   -0.000008
      7          1           0       -1.642639   -1.532729   -1.261207
      8          1           0        0.121154   -1.513137   -1.277944
      9          1           0       -0.782988   -0.273899   -2.150656
     10          1           0       -2.911680    0.268401   -0.000230
     11          1           0       -2.034901    1.518362   -0.882231
     12          1           0       -2.035139    1.517852    0.882697
     13          1           0        0.120972   -1.513606    1.277515
     14          1           0       -1.642870   -1.531315    1.262750
     15          1           0       -0.780877   -0.273073    2.150770
     16          1           0        0.465334    1.540499    0.890206
     17          1           0        0.465336    1.539788   -0.891490
 ---------------------------------------------------------------------
 Rotational constants (GHZ):           4.4376733           1.7408219           1.7374284
   110 basis functions,   206 primitive gaussians,   116 cartesian basis functions
    29 alpha electrons       29 beta electrons
       nuclear repulsion energy       316.4187782882 Hartrees.
 NAtoms=   17 NActive=   17 NUniq=   17 SFac= 1.00D+00 NAtFMM=   60 NAOKFM=F Big=F
 Nuclear repulsion after empirical dispersion term =      316.4078519593 Hartrees.
   1 Symmetry operations used in ECPInt.
 ECPInt:  NShTT=    1830 NPrTT=    7624 LenC2=    1825 LenP2D=    6235.
 LDataN:  DoStor=T MaxTD1= 4 Len=   56
 ExpMin= 1.22D-01 ExpMax= 1.04D+04 ExpMxC= 1.57D+03 IAcc=3 IRadAn=         5 AccDes= 0.00D+00
 Harris functional with IExCor= 4639 and IRadAn=       5 diagonalized for initial guess.
 HarFok:  IExCor= 4639 AccDes= 0.00D+00 IRadAn=         5 IDoV= 1 UseB2=F ITyADJ=14
 ICtDFT=  3500011 ScaDFX=  1.000000  1.000000  1.000000  1.000000
 FoFCou: FMM=F IPFlag=           0 FMFlag=      100000 FMFlg1=           0
         NFxFlg=           0 DoJE=T BraDBF=F KetDBF=T FulRan=T
         wScrn=  0.000000 ICntrl=       500 IOpCl=  0 I1Cent=   200000004 NGrid=           0
         NMat0=    1 NMatS0=      1 NMatT0=    0 NMatD0=    1 NMtDS0=    0 NMtDT0=    0
 Petite list used in FoFCou.
     Accept linear search using points  2 and  3.
     Accept linear search using points  1 and  2.
     Accept linear search using points  1 and  2.
     Minimum is close to point  2 DX= -4.78D-06 DF=  0.00D+00 DXR=  4.78D-06 DFR=  0.00D+00 which will be used.
 SCF Done:  E(RwB97XD) =  -657.000564819     a.u. after    7 cycles
            Convg  =    0.2545D-09                    32 Fock formations.
              S**2 =  0.0000                  -V/T =  2.0046

 **********************************************************************

            Population analysis using the SCF Density.

 **********************************************************************

 Orbital symmetries:
       Occupied  (A) (A) (A) (A) (A) (A) (A) (A) (A) (A) (A) (A)
                 (A) (A) (A) (A) (A) (A) (A) (A) (A) (A) (A) (A)
                 (A) (A) (A) (A) (A)
       Virtual   (A) (A) (A) (A) (A) (A) (A) (A) (A) (A) (A) (A)
                 (A) (A) (A) (A) (A) (A) (A) (A) (A) (A) (A) (A)
                 (A) (A) (A) (A) (A) (A) (A) (A) (A) (A) (A) (A)
                 (A) (A) (A) (A) (A) (A) (A) (A) (A) (A) (A) (A)
                 (A) (A) (A) (A) (A) (A) (A) (A) (A) (A) (A) (A)
                 (A) (A) (A) (A) (A) (A) (A) (A) (A) (A) (A) (A)
                 (A) (A) (A) (A) (A) (A) (A) (A) (A)
 The electronic state is 1-A.
 Alpha  occ. eigenvalues -- -101.65529 -10.34187 -10.31626 -10.28512 -10.27644
 Alpha  occ. eigenvalues --  -10.27643  -9.56341  -7.31709  -7.30759  -7.30735
 Alpha  occ. eigenvalues --   -0.96372  -0.90032  -0.78608  -0.78137  -0.75768
 Alpha  occ. eigenvalues --   -0.63057  -0.56362  -0.55820  -0.53991  -0.51201
 Alpha  occ. eigenvalues --   -0.49792  -0.46451  -0.46403  -0.45436  -0.43315
 Alpha  occ. eigenvalues --   -0.41462  -0.41145  -0.36772  -0.36678
 Alpha virt. eigenvalues --    0.11682   0.14444   0.17261   0.17688   0.19440
 Alpha virt. eigenvalues --    0.20398   0.20471   0.21799   0.22916   0.25671
 Alpha virt. eigenvalues --    0.26678   0.27284   0.27320   0.28930   0.30540
 Alpha virt. eigenvalues --    0.31193   0.46477   0.46594   0.49869   0.50573
 Alpha virt. eigenvalues --    0.51374   0.57959   0.61661   0.64151   0.67350
 Alpha virt. eigenvalues --    0.68128   0.72350   0.72405   0.76257   0.76418
 Alpha virt. eigenvalues --    0.76668   0.78165   0.78552   0.79454   0.79913
 Alpha virt. eigenvalues --    0.81478   0.81991   0.82881   0.83076   0.85206
 Alpha virt. eigenvalues --    0.85907   0.86163   0.87920   0.88971   0.90027
 Alpha virt. eigenvalues --    0.91575   0.91632   0.95421   1.01392   1.08349
 Alpha virt. eigenvalues --    1.16993   1.17798   1.23805   1.25043   1.28282
 Alpha virt. eigenvalues --    1.42455   1.49669   1.51147   1.79650   1.80114
 Alpha virt. eigenvalues --    1.82634   1.89729   1.90968   1.92149   2.11544
 Alpha virt. eigenvalues --    2.11972   2.12587   2.12682   2.13007   2.24350
 Alpha virt. eigenvalues --    2.25226   2.25813   2.26870   2.27170   2.29411
 Alpha virt. eigenvalues --    2.32539   2.62656   2.63490   2.76028   2.76552
 Alpha virt. eigenvalues --    2.77733
          Condensed to atoms (all electrons):
 Mulliken charges:
               1
     1  C   -0.252059
     2  C   -0.295645
     3  C   -0.251497
     4  C   -0.252054
     5  C   -0.113708
     6  Cl  -0.161930
     7  H    0.112521
     8  H    0.126348
     9  H    0.107875
    10  H    0.119969
    11  H    0.112431
    12  H    0.112432
    13  H    0.126358
    14  H    0.112516
    15  H    0.107884
    16  H    0.144282
    17  H    0.144279
 Sum of Mulliken charges =   0.00000
 Mulliken charges with hydrogens summed into heavy atoms:
               1
     1  C    0.094684
     2  C   -0.295645
     3  C    0.093335
     4  C    0.094704
     5  C    0.174852
     6  Cl  -0.161930
 Electronic spatial extent (au):  <R**2>=            829.4822
 Charge=              0.0000 electrons
 Dipole moment (field-independent basis, Debye):
    X=             -1.7151    Y=              0.7431    Z=             -0.0002  Tot=              1.8691
 Evaluate density.
 Using the total density.
 Monte-Carlo method of calculating molar volume:
 based on  0.001 e/bohr**3 density envelope.
 Number of points per bohr**3 =  100 CutOff= 1.00D-04
 Using the SCF density.
 There are      1864 points.  Will hold      1864 in memory.
 LenV=  1048339429 MDV=  1048576000.
 Box volume = 6483.427 fraction occupied=0.169
 Integrated density= 3.6357321667494652D+01 error=-2.1642678332505348D+01
 Molar volume = 1095.644 bohr**3/mol ( 97.774 cm**3/mol)
 Recommended a0 for SCRF calculation =  4.22 angstrom (  7.98 bohr)
   1 Symmetry operations used in ECPInt.
 ECPInt:  NShTT=    1830 NPrTT=    7624 LenC2=    1825 LenP2D=    6235.
 LDataN:  DoStor=T MaxTD1= 5 Len=  102
 Calling FoFJK, ICntrl=      2127 FMM=F ISym2X=0 I1Cent= 0 IOpClX= 0 NMat=1 NMatS=1 NMatT=0.

 GradGradGradGradGradGradGradGradGradGradGradGradGradGradGradGradGradGrad
 FormGI is forming the generalized inverse of G from B-inverse, IUseBI=4.
 Internal  Forces:  Max     0.011533814 RMS     0.004374435
 Step number   1 out of a maximum of   92
 All quantities printed in internal units (Hartrees-Bohrs-Radians)
 Mixed Optimization -- RFO/linear search
 Second derivative matrix not updated -- first step.
 ITU=  0
     Eigenvalues ---    0.00337   0.00354   0.00379   0.00379   0.04607
     Eigenvalues ---    0.04828   0.05100   0.05409   0.05536   0.05611
     Eigenvalues ---    0.05611   0.05641   0.05653   0.05653   0.05715
     Eigenvalues ---    0.14281   0.14592   0.16000   0.16000   0.16000
     Eigenvalues ---    0.16000   0.16000   0.16000   0.16000   0.16000
     Eigenvalues ---    0.16000   0.16000   0.16000   0.22305   0.27565
     Eigenvalues ---    0.29202   0.29317   0.29492   0.29492   0.34766
     Eigenvalues ---    0.34766   0.35047   0.35048   0.35079   0.35080
     Eigenvalues ---    0.35143   0.35144   0.35170   0.35176   0.35176
 Linear search not attempted -- first point.
 Iteration  1 RMS(Cart)=  0.03197577 RMS(Int)=  0.00054161
 Iteration  2 RMS(Cart)=  0.00062850 RMS(Int)=  0.00006965
 Iteration  3 RMS(Cart)=  0.00000041 RMS(Int)=  0.00006965
 Variable       Old X    -DE/DX   Delta X   Delta X   Delta X     New X
                                 (Linear)    (Quad)   (Total)
    R1        2.88987   0.00464   0.00000   0.01545   0.01545   2.90532
    R2        2.05443   0.01140   0.00000   0.03198   0.03198   2.08641
    R3        2.05390   0.01041   0.00000   0.02917   0.02917   2.08307
    R4        2.05597   0.01144   0.00000   0.03218   0.03218   2.08815
    R5        2.89584   0.00395   0.00000   0.01329   0.01329   2.90913
    R6        2.88987   0.00464   0.00000   0.01545   0.01545   2.90532
    R7        2.89346   0.00548   0.00000   0.01836   0.01836   2.91182
    R8        2.05400   0.01133   0.00000   0.03175   0.03175   2.08574
    R9        2.05548   0.01153   0.00000   0.03239   0.03239   2.08787
   R10        2.05546   0.01153   0.00000   0.03241   0.03241   2.08787
   R11        2.05391   0.01041   0.00000   0.02916   0.02916   2.08307
   R12        2.05443   0.01140   0.00000   0.03198   0.03198   2.08641
   R13        2.05598   0.01144   0.00000   0.03217   0.03217   2.08815
   R14        3.36800   0.00928   0.00000   0.03307   0.03307   3.40107
   R15        2.06057   0.00728   0.00000   0.02062   0.02062   2.08119
   R16        2.06057   0.00727   0.00000   0.02062   0.02062   2.08119
    A1        1.92378   0.00032   0.00000   0.00104   0.00104   1.92481
    A2        1.92869   0.00174   0.00000   0.01174   0.01170   1.94039
    A3        1.93091   0.00123   0.00000   0.00719   0.00716   1.93806
    A4        1.89304  -0.00099   0.00000  -0.00544  -0.00546   1.88759
    A5        1.89304  -0.00108   0.00000  -0.00881  -0.00881   1.88424
    A6        1.89341  -0.00134   0.00000  -0.00644  -0.00650   1.88691
    A7        1.91292   0.00006   0.00000  -0.00574  -0.00567   1.90725
    A8        1.91998  -0.00048   0.00000   0.00430   0.00412   1.92409
    A9        1.92211   0.00100   0.00000   0.01266   0.01249   1.93460
   A10        1.91292   0.00006   0.00000  -0.00575  -0.00568   1.90723
   A11        1.87325  -0.00167   0.00000  -0.01882  -0.01875   1.85450
   A12        1.92211   0.00100   0.00000   0.01269   0.01253   1.93463
   A13        1.91900   0.00081   0.00000   0.00391   0.00390   1.92290
   A14        1.93435   0.00136   0.00000   0.00872   0.00869   1.94303
   A15        1.93431   0.00136   0.00000   0.00875   0.00871   1.94302
   A16        1.89113  -0.00123   0.00000  -0.00845  -0.00846   1.88267
   A17        1.89111  -0.00123   0.00000  -0.00843  -0.00844   1.88267
   A18        1.89277  -0.00120   0.00000  -0.00537  -0.00543   1.88734
   A19        1.92869   0.00175   0.00000   0.01176   0.01172   1.94040
   A20        1.92377   0.00032   0.00000   0.00103   0.00102   1.92479
   A21        1.93091   0.00124   0.00000   0.00720   0.00717   1.93807
   A22        1.89305  -0.00099   0.00000  -0.00544  -0.00546   1.88759
   A23        1.89341  -0.00135   0.00000  -0.00646  -0.00652   1.88689
   A24        1.89304  -0.00108   0.00000  -0.00881  -0.00880   1.88424
   A25        1.96634   0.00900   0.00000   0.04457   0.04443   2.01077
   A26        1.93510  -0.00133   0.00000  -0.00884  -0.00905   1.92605
   A27        1.93512  -0.00133   0.00000  -0.00886  -0.00907   1.92605
   A28        1.85573  -0.00289   0.00000  -0.00381  -0.00393   1.85180
   A29        1.85575  -0.00289   0.00000  -0.00384  -0.00396   1.85179
   A30        1.91234  -0.00079   0.00000  -0.02000  -0.02027   1.89207
    D1       -1.06995  -0.00018   0.00000   0.00754   0.00753  -1.06242
    D2        1.03447  -0.00037   0.00000  -0.00050  -0.00049   1.03398
    D3       -3.12696   0.00122   0.00000   0.02642   0.02644  -3.10052
    D4        3.12100  -0.00027   0.00000   0.00613   0.00613   3.12713
    D5       -1.05776  -0.00046   0.00000  -0.00191  -0.00189  -1.05965
    D6        1.06399   0.00114   0.00000   0.02502   0.02504   1.08904
    D7        1.02370  -0.00053   0.00000   0.00185   0.00181   1.02551
    D8        3.12812  -0.00072   0.00000  -0.00619  -0.00621   3.12191
    D9       -1.03331   0.00087   0.00000   0.02073   0.02073  -1.01259
   D10        1.05380  -0.00026   0.00000  -0.00083  -0.00087   1.05293
   D11       -1.03658  -0.00011   0.00000   0.00161   0.00158  -1.03499
   D12       -3.13905  -0.00040   0.00000  -0.00324  -0.00329   3.14085
   D13       -1.05491   0.00026   0.00000   0.00107   0.00111  -1.05379
   D14        3.13790   0.00040   0.00000   0.00352   0.00357   3.14147
   D15        1.03543   0.00011   0.00000  -0.00133  -0.00130   1.03413
   D16        3.14104  -0.00000   0.00000   0.00010   0.00010   3.14114
   D17        1.05067   0.00015   0.00000   0.00255   0.00256   1.05323
   D18       -1.05180  -0.00015   0.00000  -0.00230  -0.00232  -1.05412
   D19        1.05645   0.00046   0.00000   0.00220   0.00218   1.05864
   D20       -1.03578   0.00037   0.00000   0.00079   0.00078  -1.03500
   D21       -3.12943   0.00072   0.00000   0.00648   0.00650  -3.12293
   D22       -3.12231   0.00027   0.00000  -0.00583  -0.00583  -3.12814
   D23        1.06864   0.00019   0.00000  -0.00724  -0.00723   1.06141
   D24       -1.02501   0.00054   0.00000  -0.00155  -0.00152  -1.02652
   D25       -1.06530  -0.00113   0.00000  -0.02471  -0.02473  -1.09003
   D26        3.12565  -0.00122   0.00000  -0.02611  -0.02613   3.09951
   D27        1.03200  -0.00087   0.00000  -0.02042  -0.02042   1.01159
   D28       -1.06054  -0.00035   0.00000  -0.01092  -0.01099  -1.07153
   D29       -3.13796  -0.00177   0.00000  -0.02974  -0.02977   3.11545
   D30        1.01693   0.00106   0.00000   0.00785   0.00774   1.02467
   D31        3.14129   0.00000   0.00000   0.00006   0.00007   3.14136
   D32        1.06387  -0.00141   0.00000  -0.01876  -0.01872   1.04515
   D33       -1.06442   0.00141   0.00000   0.01884   0.01879  -1.04563
   D34        1.05994   0.00036   0.00000   0.01104   0.01112   1.07106
   D35       -1.01748  -0.00106   0.00000  -0.00778  -0.00766  -1.02514
   D36        3.13741   0.00177   0.00000   0.02981   0.02985  -3.11593
         Item               Value     Threshold  Converged?
 Maximum Force            0.011534     0.000015     NO 
 RMS     Force            0.004374     0.000010     NO 
 Maximum Displacement     0.149192     0.000060     NO 
 RMS     Displacement     0.032264     0.000040     NO 
 GradGradGradGradGradGradGradGradGradGradGradGradGradGradGradGradGradGrad

                    Distance matrix (angstroms):
                    1          2          3          4          5
     1  C    0.000000
     2  C    1.537430   0.000000
     3  C    2.509247   1.539445   0.000000
     4  C    2.522505   1.537432   2.509237   0.000000
     5  C    2.534541   1.540871   2.464173   2.534568   0.000000
     6  Cl   3.259406   2.824139   4.140943   3.259146   1.799771
     7  H    1.104079   2.181645   2.759750   2.763729   3.495652
     8  H    1.102315   2.191618   3.482463   2.788471   2.815743
     9  H    1.105003   2.191971   2.754288   3.492979   2.779712
    10  H    2.753971   2.181760   1.103728   2.754369   3.443223
    11  H    2.763529   2.197223   1.104851   3.485578   2.714803
    12  H    3.485582   2.197217   1.104851   2.763105   2.715231
    13  H    2.788011   2.191627   3.482466   1.102313   2.816252
    14  H    2.764190   2.181635   2.759239   1.104080   3.495647
    15  H    3.492991   2.191978   2.754752   1.105003   2.779300
    16  H    3.493219   2.183507   2.695235   2.774301   1.101319
    17  H    2.774052   2.183508   2.695471   3.493245   1.101319
                    6          7          8          9         10
     6  Cl   0.000000
     7  H    4.271850   0.000000
     8  H    2.866042   1.786715   0.000000
     9  H    3.602817   1.786717   1.787024   0.000000
    10  H    4.986469   2.543278   3.774054   3.100263   0.000000
    11  H    4.426018   3.118128   3.780069   2.546879   1.785292
    12  H    4.426173   3.777983   4.352137   3.778137   1.785295
    13  H    2.866294   3.131495   2.600269   3.809388   3.774114
    14  H    4.271977   2.545280   3.132933   3.777788   2.543159
    15  H    3.601592   3.777714   3.809492   4.352781   3.101609
    16  H    2.356150   4.338145   3.826474   3.787091   3.716748
    17  H    2.356143   3.777893   3.161325   2.562306   3.716706
                   11         12         13         14         15
    11  H    0.000000
    12  H    1.789233   0.000000
    13  H    4.352148   3.780000   0.000000
    14  H    3.777810   3.116743   1.786719   0.000000
    15  H    3.778279   2.546929   1.787012   1.786718   0.000000
    16  H    3.053550   2.476123   3.162409   3.777807   2.562110
    17  H    2.475910   3.054554   3.826747   4.338134   3.786924
                   16         17
    16  H    0.000000
    17  H    1.786563   0.000000
 Framework group  C1[X(C5H11Cl)]
 Deg. of freedom    45
                         Standard orientation:                         
 ---------------------------------------------------------------------
 Center     Atomic      Atomic             Coordinates (Angstroms)
 Number     Number       Type             X           Y           Z
 ---------------------------------------------------------------------
      1          6           0       -0.826289   -0.892887   -1.261566
      2          6           0       -0.781423   -0.015307   -0.000007
      3          6           0       -1.991583    0.936222    0.000486
      4          6           0       -0.825992   -0.893785    1.260939
      5          6           0        0.471970    0.880957    0.000139
      6         17           0        2.042662    0.002262    0.000005
      7          1           0       -1.748314   -1.500120   -1.272808
      8          1           0        0.036486   -1.577839   -1.301046
      9          1           0       -0.815183   -0.273333   -2.176476
     10          1           0       -2.931167    0.357088   -0.000055
     11          1           0       -1.992841    1.585197   -0.893675
     12          1           0       -1.993090    1.583941    0.895557
     13          1           0        0.036237   -1.579489    1.299222
     14          1           0       -1.748523   -1.500246    1.272472
     15          1           0       -0.813622   -0.274928    2.176304
     16          1           0        0.482329    1.524902    0.893521
     17          1           0        0.482341    1.525179   -0.893043
 ---------------------------------------------------------------------
 Rotational constants (GHZ):           4.3494321           1.6814023           1.6760699
   110 basis functions,   206 primitive gaussians,   116 cartesian basis functions
    29 alpha electrons       29 beta electrons
       nuclear repulsion energy       312.3581653914 Hartrees.
 NAtoms=   17 NActive=   17 NUniq=   17 SFac= 1.00D+00 NAtFMM=   60 NAOKFM=F Big=F
 Nuclear repulsion after empirical dispersion term =      312.3471780504 Hartrees.
   1 Symmetry operations used in ECPInt.
 ECPInt:  NShTT=    1830 NPrTT=    7624 LenC2=    1823 LenP2D=    6205.
 LDataN:  DoStor=T MaxTD1= 4 Len=   56
 Initial guess from the checkpoint file:  "19.chk"
 B after Tr=    -0.000000    0.000000   -0.000000
         Rot=    0.999952   -0.000265    0.000013    0.009763 Ang=  -1.12 deg.
 ExpMin= 1.22D-01 ExpMax= 1.04D+04 ExpMxC= 1.57D+03 IAcc=3 IRadAn=         5 AccDes= 0.00D+00
 Harris functional with IExCor= 4639 and IRadAn=       5 diagonalized for initial guess.
 HarFok:  IExCor= 4639 AccDes= 0.00D+00 IRadAn=         5 IDoV= 1 UseB2=F ITyADJ=14
 ICtDFT=  3500011 ScaDFX=  1.000000  1.000000  1.000000  1.000000
 FoFCou: FMM=F IPFlag=           0 FMFlag=      100000 FMFlg1=           0
         NFxFlg=           0 DoJE=T BraDBF=F KetDBF=T FulRan=T
         wScrn=  0.000000 ICntrl=       500 IOpCl=  0 I1Cent=   200000004 NGrid=           0
         NMat0=    1 NMatS0=      1 NMatT0=    0 NMatD0=    1 NMtDS0=    0 NMtDT0=    0
 Petite list used in FoFCou.
     Accept linear search using points  3 and  4.
     Accept linear search using points  1 and  2.
     Accept linear search using points  1 and  2.
     Minimum is close to point  2 DX= -3.39D-04 DF= -9.78D-12 DXR=  3.39D-04 DFR=  1.15D-07 which will be used.
 SCF Done:  E(RwB97XD) =  -657.002808040     a.u. after    6 cycles
            Convg  =    0.3526D-08                    31 Fock formations.
              S**2 =  0.0000                  -V/T =  2.0051
   1 Symmetry operations used in ECPInt.
 ECPInt:  NShTT=    1830 NPrTT=    7624 LenC2=    1823 LenP2D=    6205.
 LDataN:  DoStor=T MaxTD1= 5 Len=  102
 Calling FoFJK, ICntrl=      2127 FMM=F ISym2X=0 I1Cent= 0 IOpClX= 0 NMat=1 NMatS=1 NMatT=0.

 GradGradGradGradGradGradGradGradGradGradGradGradGradGradGradGradGradGrad
 Using GEDIIS/GDIIS optimizer.
 FormGI is forming the generalized inverse of G from B-inverse, IUseBI=4.
 Internal  Forces:  Max     0.004123981 RMS     0.000806067
 Step number   2 out of a maximum of   92
 All quantities printed in internal units (Hartrees-Bohrs-Radians)
 Mixed Optimization -- En-DIIS/RFO-DIIS
 Trust test= 8.58D-01 RLast= 1.51D-01 DXMaxT set to 4.53D-01
 ITU=  1  0
 Use linear search instead of GDIIS.
     Eigenvalues ---    0.00337   0.00354   0.00379   0.00380   0.04569
     Eigenvalues ---    0.04889   0.05109   0.05235   0.05439   0.05512
     Eigenvalues ---    0.05516   0.05586   0.05612   0.05612   0.05944
     Eigenvalues ---    0.14191   0.14664   0.15841   0.16000   0.16000
     Eigenvalues ---    0.16000   0.16000   0.16000   0.16000   0.16000
     Eigenvalues ---    0.16000   0.16000   0.16017   0.23322   0.27401
     Eigenvalues ---    0.29040   0.29363   0.29492   0.29870   0.34766
     Eigenvalues ---    0.34794   0.35006   0.35048   0.35067   0.35079
     Eigenvalues ---    0.35123   0.35143   0.35166   0.35176   0.35954
 Quartic linear search produced a step of -0.09363.
 Iteration  1 RMS(Cart)=  0.01168303 RMS(Int)=  0.00007724
 Iteration  2 RMS(Cart)=  0.00007796 RMS(Int)=  0.00000852
 Iteration  3 RMS(Cart)=  0.00000000 RMS(Int)=  0.00000852
 Variable       Old X    -DE/DX   Delta X   Delta X   Delta X     New X
                                 (Linear)    (Quad)   (Total)
    R1        2.90532  -0.00215  -0.00145  -0.00460  -0.00605   2.89927
    R2        2.08641   0.00003  -0.00299   0.00425   0.00126   2.08766
    R3        2.08307   0.00039  -0.00273   0.00483   0.00210   2.08517
    R4        2.08815  -0.00006  -0.00301   0.00406   0.00105   2.08920
    R5        2.90913  -0.00052  -0.00124   0.00011  -0.00113   2.90800
    R6        2.90532  -0.00215  -0.00145  -0.00461  -0.00605   2.89927
    R7        2.91182  -0.00400  -0.00172  -0.00996  -0.01168   2.90015
    R8        2.08574   0.00010  -0.00297   0.00442   0.00144   2.08719
    R9        2.08787  -0.00001  -0.00303   0.00420   0.00117   2.08904
   R10        2.08787  -0.00001  -0.00303   0.00420   0.00117   2.08904
   R11        2.08307   0.00040  -0.00273   0.00483   0.00210   2.08517
   R12        2.08641   0.00003  -0.00299   0.00425   0.00126   2.08766
   R13        2.08815  -0.00006  -0.00301   0.00406   0.00105   2.08920
   R14        3.40107  -0.00065  -0.00310   0.00216  -0.00094   3.40014
   R15        2.08119  -0.00007  -0.00193   0.00252   0.00059   2.08178
   R16        2.08119  -0.00007  -0.00193   0.00252   0.00059   2.08178
    A1        1.92481   0.00018  -0.00010   0.00165   0.00155   1.92636
    A2        1.94039  -0.00015  -0.00110   0.00038  -0.00071   1.93968
    A3        1.93806   0.00011  -0.00067   0.00132   0.00065   1.93871
    A4        1.88759   0.00002   0.00051  -0.00022   0.00030   1.88788
    A5        1.88424  -0.00009   0.00082  -0.00109  -0.00027   1.88397
    A6        1.88691  -0.00008   0.00061  -0.00218  -0.00157   1.88534
    A7        1.90725   0.00030   0.00053   0.00587   0.00640   1.91365
    A8        1.92409  -0.00006  -0.00039  -0.00185  -0.00229   1.92181
    A9        1.93460  -0.00035  -0.00117  -0.00515  -0.00634   1.92827
   A10        1.90723   0.00030   0.00053   0.00587   0.00640   1.91364
   A11        1.85450   0.00018   0.00176   0.00087   0.00265   1.85715
   A12        1.93463  -0.00035  -0.00117  -0.00515  -0.00634   1.92829
   A13        1.92290   0.00018  -0.00036   0.00113   0.00077   1.92367
   A14        1.94303   0.00030  -0.00081   0.00299   0.00217   1.94521
   A15        1.94302   0.00030  -0.00082   0.00299   0.00217   1.94520
   A16        1.88267  -0.00029   0.00079  -0.00307  -0.00227   1.88040
   A17        1.88267  -0.00029   0.00079  -0.00306  -0.00227   1.88040
   A18        1.88734  -0.00024   0.00051  -0.00139  -0.00088   1.88646
   A19        1.94040  -0.00014  -0.00110   0.00039  -0.00071   1.93970
   A20        1.92479   0.00018  -0.00010   0.00165   0.00155   1.92634
   A21        1.93807   0.00011  -0.00067   0.00131   0.00065   1.93872
   A22        1.88759   0.00002   0.00051  -0.00022   0.00029   1.88789
   A23        1.88689  -0.00008   0.00061  -0.00219  -0.00157   1.88532
   A24        1.88424  -0.00009   0.00082  -0.00109  -0.00027   1.88397
   A25        2.01077  -0.00412  -0.00416  -0.01280  -0.01696   1.99381
   A26        1.92605   0.00089   0.00085   0.00382   0.00466   1.93071
   A27        1.92605   0.00089   0.00085   0.00381   0.00465   1.93070
   A28        1.85180   0.00130   0.00037   0.00155   0.00192   1.85372
   A29        1.85179   0.00130   0.00037   0.00155   0.00193   1.85372
   A30        1.89207  -0.00009   0.00190   0.00261   0.00449   1.89656
    D1       -1.06242  -0.00012  -0.00071  -0.00360  -0.00431  -1.06673
    D2        1.03398   0.00041   0.00005   0.00619   0.00623   1.04021
    D3       -3.10052  -0.00032  -0.00248  -0.00520  -0.00767  -3.10819
    D4        3.12713  -0.00017  -0.00057  -0.00466  -0.00524   3.12190
    D5       -1.05965   0.00035   0.00018   0.00513   0.00530  -1.05435
    D6        1.08904  -0.00037  -0.00234  -0.00626  -0.00860   1.08043
    D7        1.02551  -0.00004  -0.00017  -0.00304  -0.00321   1.02230
    D8        3.12191   0.00048   0.00058   0.00675   0.00733   3.12924
    D9       -1.01259  -0.00024  -0.00194  -0.00464  -0.00657  -1.01916
   D10        1.05293   0.00015   0.00008   0.00266   0.00275   1.05567
   D11       -1.03499   0.00020  -0.00015   0.00383   0.00369  -1.03131
   D12        3.14085   0.00010   0.00031   0.00150   0.00182  -3.14052
   D13       -1.05379  -0.00015  -0.00010  -0.00229  -0.00241  -1.05620
   D14        3.14147  -0.00009  -0.00033  -0.00113  -0.00147   3.14000
   D15        1.03413  -0.00020   0.00012  -0.00345  -0.00334   1.03079
   D16        3.14114   0.00000  -0.00001   0.00018   0.00017   3.14132
   D17        1.05323   0.00005  -0.00024   0.00135   0.00111   1.05434
   D18       -1.05412  -0.00005   0.00022  -0.00097  -0.00076  -1.05488
   D19        1.05864  -0.00035  -0.00020  -0.00468  -0.00488   1.05375
   D20       -1.03500  -0.00041  -0.00007  -0.00575  -0.00582  -1.04082
   D21       -3.12293  -0.00048  -0.00061  -0.00631  -0.00691  -3.12984
   D22       -3.12814   0.00017   0.00055   0.00510   0.00565  -3.12249
   D23        1.06141   0.00012   0.00068   0.00404   0.00472   1.06612
   D24       -1.02652   0.00004   0.00014   0.00348   0.00362  -1.02290
   D25       -1.09003   0.00037   0.00232   0.00670   0.00901  -1.08102
   D26        3.09951   0.00032   0.00245   0.00564   0.00808   3.10759
   D27        1.01159   0.00024   0.00191   0.00508   0.00698   1.01857
   D28       -1.07153   0.00028   0.00103   0.00485   0.00587  -1.06566
   D29        3.11545   0.00080   0.00279   0.00891   0.01170   3.12715
   D30        1.02467  -0.00023  -0.00072   0.00078   0.00005   1.02471
   D31        3.14136   0.00000  -0.00001   0.00007   0.00007   3.14143
   D32        1.04515   0.00052   0.00175   0.00414   0.00589   1.05105
   D33       -1.04563  -0.00051  -0.00176  -0.00399  -0.00576  -1.05139
   D34        1.07106  -0.00028  -0.00104  -0.00470  -0.00574   1.06532
   D35       -1.02514   0.00023   0.00072  -0.00064   0.00009  -1.02505
   D36       -3.11593  -0.00080  -0.00279  -0.00877  -0.01156  -3.12749
         Item               Value     Threshold  Converged?
 Maximum Force            0.004124     0.000015     NO 
 RMS     Force            0.000806     0.000010     NO 
 Maximum Displacement     0.064268     0.000060     NO 
 RMS     Displacement     0.011708     0.000040     NO 
 GradGradGradGradGradGradGradGradGradGradGradGradGradGradGradGradGradGrad

                    Distance matrix (angstroms):
                    1          2          3          4          5
     1  C    0.000000
     2  C    1.534228   0.000000
     3  C    2.511830   1.538848   0.000000
     4  C    2.515242   1.534229   2.511820   0.000000
     5  C    2.521286   1.534692   2.461195   2.521306   0.000000
     6  Cl   3.220585   2.803531   4.128920   3.220397   1.799275
     7  H    1.104744   2.180456   2.767279   2.760920   3.485202
     8  H    1.103424   2.189116   3.484529   2.778535   2.798015
     9  H    1.105557   2.190035   2.757548   3.487188   2.769810
    10  H    2.760830   2.182370   1.104492   2.761066   3.440172
    11  H    2.768627   2.198730   1.105470   3.487979   2.716322
    12  H    3.487983   2.198724   1.105470   2.768367   2.716577
    13  H    2.778272   2.189129   3.484533   1.103423   2.798328
    14  H    2.761191   2.180445   2.766967   1.104744   3.485200
    15  H    3.487192   2.190038   2.757815   1.105556   2.769568
    16  H    3.484440   2.181681   2.699512   2.764000   1.101629
    17  H    2.763820   2.181680   2.699678   3.484455   1.101629
                    6          7          8          9         10
     6  Cl   0.000000
     7  H    4.230300   0.000000
     8  H    2.812612   1.788344   0.000000
     9  H    3.574272   1.787528   1.787352   0.000000
    10  H    4.969324   2.555850   3.782055   3.106942   0.000000
    11  H    4.422854   3.126956   3.784640   2.552933   1.784930
    12  H    4.422923   3.785702   4.353114   3.781543   1.784936
    13  H    2.812726   3.126686   2.585033   3.799496   3.782095
    14  H    4.230355   2.545668   3.127532   3.777033   2.555773
    15  H    3.573491   3.776990   3.799544   4.348783   3.107740
    16  H    2.357469   4.333928   3.809755   3.781956   3.720905
    17  H    2.357465   3.771783   3.144130   2.553222   3.720895
                   11         12         13         14         15
    11  H    0.000000
    12  H    1.789663   0.000000
    13  H    4.353128   3.784595   0.000000
    14  H    3.785593   3.126121   1.788346   0.000000
    15  H    3.781619   2.552948   1.787340   1.787529   0.000000
    16  H    3.061999   2.484878   3.144825   3.771758   2.553138
    17  H    2.484781   3.062639   3.809914   4.333919   3.781868
                   16         17
    16  H    0.000000
    17  H    1.789957   0.000000
 Framework group  C1[X(C5H11Cl)]
 Deg. of freedom    45
                         Standard orientation:                         
 ---------------------------------------------------------------------
 Center     Atomic      Atomic             Coordinates (Angstroms)
 Number     Number       Type             X           Y           Z
 ---------------------------------------------------------------------
      1          6           0       -0.798900   -0.894209   -1.257766
      2          6           0       -0.778724   -0.015868   -0.000004
      3          6           0       -2.003706    0.915514    0.000262
      4          6           0       -0.798687   -0.894620    1.257476
      5          6           0        0.457393    0.893690    0.000021
      6         17           0        2.024689    0.009964    0.000005
      7          1           0       -1.706762   -1.523508   -1.272856
      8          1           0        0.081117   -1.558946   -1.292990
      9          1           0       -0.797610   -0.276167   -2.174433
     10          1           0       -2.934860    0.321498   -0.000025
     11          1           0       -2.018121    1.564797   -0.894326
     12          1           0       -2.018233    1.564124    0.895337
     13          1           0        0.081012   -1.559809    1.292043
     14          1           0       -1.706861   -1.523463    1.272812
     15          1           0       -0.796619   -0.276889    2.174350
     16          1           0        0.466486    1.535947    0.895013
     17          1           0        0.466493    1.535984   -0.894943
 ---------------------------------------------------------------------
 Rotational constants (GHZ):           4.3671289           1.7019558           1.6961100
   110 basis functions,   206 primitive gaussians,   116 cartesian basis functions
    29 alpha electrons       29 beta electrons
       nuclear repulsion energy       313.3650659318 Hartrees.
 NAtoms=   17 NActive=   17 NUniq=   17 SFac= 1.00D+00 NAtFMM=   60 NAOKFM=F Big=F
 Nuclear repulsion after empirical dispersion term =      313.3541022697 Hartrees.
   1 Symmetry operations used in ECPInt.
 ECPInt:  NShTT=    1830 NPrTT=    7624 LenC2=    1823 LenP2D=    6215.
 LDataN:  DoStor=T MaxTD1= 4 Len=   56
 Initial guess from the checkpoint file:  "19.chk"
 B after Tr=     0.000000   -0.000000   -0.000000
         Rot=    0.999988    0.000097    0.000010   -0.004961 Ang=   0.57 deg.
 ExpMin= 1.22D-01 ExpMax= 1.04D+04 ExpMxC= 1.57D+03 IAcc=3 IRadAn=         5 AccDes= 0.00D+00
 Harris functional with IExCor= 4639 and IRadAn=       5 diagonalized for initial guess.
 HarFok:  IExCor= 4639 AccDes= 0.00D+00 IRadAn=         5 IDoV= 1 UseB2=F ITyADJ=14
 ICtDFT=  3500011 ScaDFX=  1.000000  1.000000  1.000000  1.000000
 FoFCou: FMM=F IPFlag=           0 FMFlag=      100000 FMFlg1=           0
         NFxFlg=           0 DoJE=T BraDBF=F KetDBF=T FulRan=T
         wScrn=  0.000000 ICntrl=       500 IOpCl=  0 I1Cent=   200000004 NGrid=           0
         NMat0=    1 NMatS0=      1 NMatT0=    0 NMatD0=    1 NMtDS0=    0 NMtDT0=    0
 Petite list used in FoFCou.
     Minimum is close to point  4 DX=  9.56D-02 DF= -8.22D-07 DXR=  7.38D-02 DFR=  5.47D-03 which will be used.
     Minimum is close to point  2 DX=  1.95D-04 DF= -2.27D-12 DXR=  1.95D-04 DFR=  4.01D-08 which will be used.
 SCF Done:  E(RwB97XD) =  -657.002902313     a.u. after    4 cycles
            Convg  =    0.1733D-08                    26 Fock formations.
              S**2 =  0.0000                  -V/T =  2.0051
   1 Symmetry operations used in ECPInt.
 ECPInt:  NShTT=    1830 NPrTT=    7624 LenC2=    1823 LenP2D=    6215.
 LDataN:  DoStor=T MaxTD1= 5 Len=  102
 Calling FoFJK, ICntrl=      2127 FMM=F ISym2X=0 I1Cent= 0 IOpClX= 0 NMat=1 NMatS=1 NMatT=0.

 GradGradGradGradGradGradGradGradGradGradGradGradGradGradGradGradGradGrad
 Using GEDIIS/GDIIS optimizer.
 FormGI is forming the generalized inverse of G from B-inverse, IUseBI=4.
 Internal  Forces:  Max     0.000824164 RMS     0.000245692
 Step number   3 out of a maximum of   92
 All quantities printed in internal units (Hartrees-Bohrs-Radians)
 Mixed Optimization -- En-DIIS/RFO-DIIS
 Swapping is turned off.
 Trust test= 8.18D-01 RLast= 4.44D-02 DXMaxT set to 4.53D-01
 ITU=  1  1  0
     Eigenvalues ---    0.00337   0.00354   0.00379   0.00381   0.04825
     Eigenvalues ---    0.05141   0.05207   0.05215   0.05423   0.05515
     Eigenvalues ---    0.05520   0.05575   0.05598   0.05599   0.05879
     Eigenvalues ---    0.14196   0.14659   0.15401   0.15999   0.16000
     Eigenvalues ---    0.16000   0.16000   0.16000   0.16000   0.16000
     Eigenvalues ---    0.16000   0.16010   0.16078   0.24354   0.27053
     Eigenvalues ---    0.28925   0.29369   0.29492   0.33833   0.34766
     Eigenvalues ---    0.34791   0.35036   0.35048   0.35079   0.35099
     Eigenvalues ---    0.35127   0.35143   0.35175   0.35176   0.36065
 En-DIIS/RFO-DIIS/Sim-DIIS IScMMF=       -3 using points:     3    2
 RFO step:  Lambda=-2.33100389D-05.
 DidBck=T Rises=F RFO-DIIS coefs:    0.67994    0.32006
 Iteration  1 RMS(Cart)=  0.00383644 RMS(Int)=  0.00000822
 Iteration  2 RMS(Cart)=  0.00000924 RMS(Int)=  0.00000291
 Iteration  3 RMS(Cart)=  0.00000000 RMS(Int)=  0.00000291
 Variable       Old X    -DE/DX   Delta X   Delta X   Delta X     New X
                                 (Linear)    (Quad)   (Total)
    R1        2.89927  -0.00010   0.00194  -0.00261  -0.00068   2.89859
    R2        2.08766  -0.00034  -0.00040  -0.00051  -0.00091   2.08675
    R3        2.08517  -0.00053  -0.00067  -0.00061  -0.00128   2.08389
    R4        2.08920  -0.00032  -0.00033  -0.00055  -0.00089   2.08831
    R5        2.90800  -0.00069   0.00036  -0.00236  -0.00200   2.90600
    R6        2.89927  -0.00010   0.00194  -0.00262  -0.00068   2.89859
    R7        2.90015   0.00082   0.00374  -0.00224   0.00150   2.90164
    R8        2.08719  -0.00029  -0.00046  -0.00032  -0.00078   2.08640
    R9        2.08904  -0.00041  -0.00037  -0.00070  -0.00107   2.08796
   R10        2.08904  -0.00041  -0.00037  -0.00070  -0.00107   2.08796
   R11        2.08517  -0.00053  -0.00067  -0.00061  -0.00128   2.08389
   R12        2.08766  -0.00034  -0.00040  -0.00051  -0.00091   2.08675
   R13        2.08920  -0.00032  -0.00033  -0.00055  -0.00089   2.08831
   R14        3.40014   0.00049   0.00030   0.00083   0.00113   3.40126
   R15        2.08178  -0.00028  -0.00019  -0.00055  -0.00074   2.08104
   R16        2.08178  -0.00028  -0.00019  -0.00055  -0.00074   2.08104
    A1        1.92636   0.00016  -0.00050   0.00133   0.00083   1.92719
    A2        1.93968  -0.00000   0.00023  -0.00031  -0.00008   1.93960
    A3        1.93871   0.00013  -0.00021   0.00081   0.00060   1.93932
    A4        1.88788  -0.00008  -0.00009  -0.00022  -0.00031   1.88757
    A5        1.88397  -0.00016   0.00009  -0.00088  -0.00080   1.88317
    A6        1.88534  -0.00006   0.00050  -0.00081  -0.00031   1.88503
    A7        1.91365  -0.00015  -0.00205  -0.00037  -0.00242   1.91123
    A8        1.92181   0.00002   0.00073  -0.00017   0.00058   1.92238
    A9        1.92827   0.00017   0.00203   0.00040   0.00243   1.93070
   A10        1.91364  -0.00015  -0.00205  -0.00037  -0.00242   1.91122
   A11        1.85715  -0.00006  -0.00085   0.00012  -0.00073   1.85642
   A12        1.92829   0.00017   0.00203   0.00039   0.00243   1.93071
   A13        1.92367   0.00020  -0.00025   0.00129   0.00105   1.92472
   A14        1.94521  -0.00008  -0.00070   0.00034  -0.00036   1.94485
   A15        1.94520  -0.00008  -0.00070   0.00034  -0.00036   1.94484
   A16        1.88040  -0.00005   0.00073  -0.00099  -0.00026   1.88013
   A17        1.88040  -0.00005   0.00073  -0.00099  -0.00027   1.88014
   A18        1.88646   0.00007   0.00028  -0.00010   0.00019   1.88664
   A19        1.93970  -0.00000   0.00023  -0.00032  -0.00009   1.93961
   A20        1.92634   0.00016  -0.00050   0.00133   0.00084   1.92718
   A21        1.93872   0.00013  -0.00021   0.00081   0.00060   1.93932
   A22        1.88789  -0.00008  -0.00009  -0.00022  -0.00031   1.88758
   A23        1.88532  -0.00006   0.00050  -0.00081  -0.00031   1.88501
   A24        1.88397  -0.00016   0.00009  -0.00088  -0.00080   1.88317
   A25        1.99381   0.00080   0.00543  -0.00366   0.00177   1.99558
   A26        1.93071   0.00012  -0.00149   0.00251   0.00103   1.93174
   A27        1.93070   0.00012  -0.00149   0.00251   0.00103   1.93174
   A28        1.85372  -0.00046  -0.00062  -0.00094  -0.00155   1.85217
   A29        1.85372  -0.00046  -0.00062  -0.00093  -0.00155   1.85217
   A30        1.89656  -0.00020  -0.00144   0.00038  -0.00104   1.89552
    D1       -1.06673   0.00010   0.00138   0.00519   0.00657  -1.06016
    D2        1.04021  -0.00017  -0.00199   0.00439   0.00239   1.04260
    D3       -3.10819   0.00016   0.00246   0.00503   0.00748  -3.10071
    D4        3.12190   0.00009   0.00168   0.00479   0.00646   3.12836
    D5       -1.05435  -0.00018  -0.00170   0.00398   0.00229  -1.05206
    D6        1.08043   0.00016   0.00275   0.00463   0.00738   1.08781
    D7        1.02230   0.00009   0.00103   0.00548   0.00650   1.02881
    D8        3.12924  -0.00018  -0.00234   0.00468   0.00233   3.13157
    D9       -1.01916   0.00015   0.00210   0.00532   0.00742  -1.01174
   D10        1.05567  -0.00008  -0.00088  -0.00016  -0.00104   1.05464
   D11       -1.03131  -0.00009  -0.00118   0.00002  -0.00117  -1.03247
   D12       -3.14052  -0.00007  -0.00058  -0.00033  -0.00091  -3.14143
   D13       -1.05620   0.00008   0.00077   0.00052   0.00129  -1.05491
   D14        3.14000   0.00007   0.00047   0.00069   0.00116   3.14116
   D15        1.03079   0.00009   0.00107   0.00035   0.00142   1.03221
   D16        3.14132   0.00000  -0.00006   0.00019   0.00013   3.14145
   D17        1.05434  -0.00001  -0.00036   0.00036   0.00000   1.05434
   D18       -1.05488   0.00001   0.00024   0.00002   0.00026  -1.05462
   D19        1.05375   0.00018   0.00156  -0.00354  -0.00198   1.05178
   D20       -1.04082   0.00017   0.00186  -0.00394  -0.00208  -1.04290
   D21       -3.12984   0.00018   0.00221  -0.00423  -0.00202  -3.13186
   D22       -3.12249  -0.00009  -0.00181  -0.00434  -0.00615  -3.12864
   D23        1.06612  -0.00009  -0.00151  -0.00474  -0.00625   1.05987
   D24       -1.02290  -0.00009  -0.00116  -0.00504  -0.00619  -1.02910
   D25       -1.08102  -0.00016  -0.00288  -0.00419  -0.00707  -1.08809
   D26        3.10759  -0.00016  -0.00259  -0.00459  -0.00717   3.10042
   D27        1.01857  -0.00015  -0.00223  -0.00488  -0.00711   1.01145
   D28       -1.06566  -0.00013  -0.00188  -0.00007  -0.00194  -1.06760
   D29        3.12715  -0.00017  -0.00375   0.00183  -0.00192   3.12523
   D30        1.02471  -0.00008  -0.00002  -0.00196  -0.00197   1.02275
   D31        3.14143   0.00000  -0.00002   0.00009   0.00007   3.14150
   D32        1.05105  -0.00005  -0.00189   0.00199   0.00010   1.05115
   D33       -1.05139   0.00005   0.00184  -0.00180   0.00005  -1.05134
   D34        1.06532   0.00013   0.00184   0.00025   0.00209   1.06741
   D35       -1.02505   0.00008  -0.00003   0.00215   0.00211  -1.02294
   D36       -3.12749   0.00017   0.00370  -0.00164   0.00206  -3.12543
         Item               Value     Threshold  Converged?
 Maximum Force            0.000824     0.000015     NO 
 RMS     Force            0.000246     0.000010     NO 
 Maximum Displacement     0.014866     0.000060     NO 
 RMS     Displacement     0.003836     0.000040     NO 
 GradGradGradGradGradGradGradGradGradGradGradGradGradGradGradGradGradGrad

                    Distance matrix (angstroms):
                    1          2          3          4          5
     1  C    0.000000
     2  C    1.533870   0.000000
     3  C    2.508526   1.537791   0.000000
     4  C    2.515159   1.533869   2.508519   0.000000
     5  C    2.523769   1.535484   2.460308   2.523781   0.000000
     6  Cl   3.227654   2.806280   4.129498   3.227549   1.799872
     7  H    1.104263   2.180383   2.761045   2.762658   3.487029
     8  H    1.102748   2.188230   3.481130   2.777210   2.803914
     9  H    1.105088   2.189800   2.757230   3.486829   2.769637
    10  H    2.757258   2.181895   1.104078   2.757377   3.439718
    11  H    2.764759   2.197107   1.104902   3.484649   2.714486
    12  H    3.484651   2.197102   1.104901   2.764622   2.714615
    13  H    2.777085   2.188236   3.481129   1.102747   2.804066
    14  H    2.762786   2.180375   2.760891   1.104263   3.487028
    15  H    3.486832   2.189801   2.757357   1.105088   2.769525
    16  H    3.486312   2.182832   2.699522   2.766937   1.101239
    17  H    2.766834   2.182831   2.699616   3.486321   1.101238
                    6          7          8          9         10
     6  Cl   0.000000
     7  H    4.239329   0.000000
     8  H    2.825374   1.787204   0.000000
     9  H    3.575648   1.786242   1.786222   0.000000
    10  H    4.971172   2.548801   3.776781   3.107415   0.000000
    11  H    4.421989   3.118798   3.781847   2.552132   1.783965
    12  H    4.422017   3.779827   4.350025   3.780453   1.783969
    13  H    2.825412   3.127123   2.582937   3.797628   3.776803
    14  H    4.239343   2.549833   3.127527   3.778660   2.548769
    15  H    3.575249   3.778642   3.797650   4.348340   3.107810
    16  H    2.356486   4.335185   3.814699   3.781769   3.721007
    17  H    2.356484   3.772670   3.151365   2.554220   3.721008
                   11         12         13         14         15
    11  H    0.000000
    12  H    1.788862   0.000000
    13  H    4.350032   3.781812   0.000000
    14  H    3.779775   3.118380   1.787208   0.000000
    15  H    3.780486   2.552129   1.786213   1.786244   0.000000
    16  H    3.060884   2.484049   3.151719   3.772669   2.554201
    17  H    2.484010   3.061226   3.814769   4.335179   3.781738
                   16         17
    16  H    0.000000
    17  H    1.788653   0.000000
 Framework group  C1[X(C5H11Cl)]
 Deg. of freedom    45
                         Standard orientation:                         
 ---------------------------------------------------------------------
 Center     Atomic      Atomic             Coordinates (Angstroms)
 Number     Number       Type             X           Y           Z
 ---------------------------------------------------------------------
      1          6           0       -0.805023   -0.893134   -1.257655
      2          6           0       -0.778359   -0.015436   -0.000002
      3          6           0       -1.999849    0.918783    0.000142
      4          6           0       -0.804905   -0.893347    1.257504
      5          6           0        0.460313    0.891978    0.000005
      6         17           0        2.027827    0.007423    0.000003
      7          1           0       -1.718089   -1.513947   -1.274931
      8          1           0        0.068289   -1.565607   -1.291710
      9          1           0       -0.796695   -0.275793   -2.174192
     10          1           0       -2.932957    0.328617   -0.000002
     11          1           0       -2.012038    1.567533   -0.894164
     12          1           0       -2.012085    1.567185    0.894698
     13          1           0        0.068254   -1.566034    1.291226
     14          1           0       -1.718119   -1.513938    1.274902
     15          1           0       -0.796189   -0.276171    2.174148
     16          1           0        0.471748    1.534451    0.894334
     17          1           0        0.471752    1.534458   -0.894319
 ---------------------------------------------------------------------
 Rotational constants (GHZ):           4.3680482           1.6988999           1.6931794
   110 basis functions,   206 primitive gaussians,   116 cartesian basis functions
    29 alpha electrons       29 beta electrons
       nuclear repulsion energy       313.2686724907 Hartrees.
 NAtoms=   17 NActive=   17 NUniq=   17 SFac= 1.00D+00 NAtFMM=   60 NAOKFM=F Big=F
 Nuclear repulsion after empirical dispersion term =      313.2577033995 Hartrees.
   1 Symmetry operations used in ECPInt.
 ECPInt:  NShTT=    1830 NPrTT=    7624 LenC2=    1823 LenP2D=    6212.
 LDataN:  DoStor=T MaxTD1= 4 Len=   56
 Initial guess from the checkpoint file:  "19.chk"
 B after Tr=    -0.000000    0.000000   -0.000000
         Rot=    0.999999    0.000040    0.000009    0.001258 Ang=   0.14 deg.
     Accept linear search using points  1 and  2.
     Minimum is close to point  2 DX= -4.06D-05 DF=  0.00D+00 DXR=  4.06D-05 DFR=  0.00D+00 which will be used.
 SCF Done:  E(RwB97XD) =  -657.002912927     a.u. after    3 cycles
            Convg  =    0.8980D-10                    21 Fock formations.
              S**2 =  0.0000                  -V/T =  2.0050
   1 Symmetry operations used in ECPInt.
 ECPInt:  NShTT=    1830 NPrTT=    7624 LenC2=    1823 LenP2D=    6212.
 LDataN:  DoStor=T MaxTD1= 5 Len=  102
 Calling FoFJK, ICntrl=      2127 FMM=F ISym2X=0 I1Cent= 0 IOpClX= 0 NMat=1 NMatS=1 NMatT=0.

 GradGradGradGradGradGradGradGradGradGradGradGradGradGradGradGradGradGrad
 Using GEDIIS/GDIIS optimizer.
 FormGI is forming the generalized inverse of G from B-inverse, IUseBI=4.
 Internal  Forces:  Max     0.000259130 RMS     0.000043670
 Step number   4 out of a maximum of   92
 All quantities printed in internal units (Hartrees-Bohrs-Radians)
 Mixed Optimization -- En-DIIS/RFO-DIIS
 Swapping is turned off.
 Trust test= 9.10D-01 RLast= 2.61D-02 DXMaxT set to 4.53D-01
 ITU=  1  1  1  0
     Eigenvalues ---    0.00337   0.00354   0.00379   0.00387   0.04835
     Eigenvalues ---    0.05200   0.05214   0.05272   0.05432   0.05512
     Eigenvalues ---    0.05522   0.05570   0.05592   0.05594   0.05986
     Eigenvalues ---    0.14194   0.14444   0.14675   0.15994   0.16000
     Eigenvalues ---    0.16000   0.16000   0.16000   0.16000   0.16000
     Eigenvalues ---    0.16001   0.16017   0.16271   0.24566   0.26091
     Eigenvalues ---    0.29342   0.29492   0.29986   0.33859   0.34270
     Eigenvalues ---    0.34766   0.34811   0.35048   0.35069   0.35079
     Eigenvalues ---    0.35136   0.35143   0.35159   0.35176   0.36665
 En-DIIS/RFO-DIIS/Sim-DIIS IScMMF=       -3 using points:     4    3    2
 RFO step:  Lambda=-7.18808213D-07.
 DidBck=F Rises=F RFO-DIIS coefs:    0.93484    0.07794   -0.01278
 Iteration  1 RMS(Cart)=  0.00047942 RMS(Int)=  0.00000016
 Iteration  2 RMS(Cart)=  0.00000013 RMS(Int)=  0.00000013
 Variable       Old X    -DE/DX   Delta X   Delta X   Delta X     New X
                                 (Linear)    (Quad)   (Total)
    R1        2.89859   0.00002  -0.00003   0.00006   0.00003   2.89862
    R2        2.08675  -0.00005   0.00008  -0.00022  -0.00015   2.08661
    R3        2.08389  -0.00001   0.00011  -0.00017  -0.00006   2.08383
    R4        2.08831  -0.00002   0.00007  -0.00015  -0.00008   2.08823
    R5        2.90600   0.00015   0.00012   0.00027   0.00038   2.90639
    R6        2.89859   0.00002  -0.00003   0.00006   0.00003   2.89862
    R7        2.90164  -0.00013  -0.00025  -0.00008  -0.00033   2.90131
    R8        2.08640  -0.00004   0.00007  -0.00018  -0.00011   2.08629
    R9        2.08796  -0.00002   0.00008  -0.00016  -0.00007   2.08789
   R10        2.08796  -0.00002   0.00008  -0.00016  -0.00007   2.08789
   R11        2.08389  -0.00001   0.00011  -0.00017  -0.00006   2.08383
   R12        2.08675  -0.00005   0.00008  -0.00022  -0.00015   2.08661
   R13        2.08831  -0.00002   0.00007  -0.00015  -0.00008   2.08823
   R14        3.40126   0.00026  -0.00009   0.00112   0.00104   3.40230
   R15        2.08104  -0.00004   0.00006  -0.00020  -0.00014   2.08090
   R16        2.08104  -0.00004   0.00006  -0.00020  -0.00014   2.08090
    A1        1.92719  -0.00001  -0.00003   0.00005   0.00002   1.92721
    A2        1.93960   0.00004  -0.00000   0.00028   0.00027   1.93987
    A3        1.93932   0.00004  -0.00003   0.00031   0.00028   1.93960
    A4        1.88757  -0.00001   0.00002  -0.00007  -0.00005   1.88753
    A5        1.88317  -0.00002   0.00005  -0.00028  -0.00023   1.88294
    A6        1.88503  -0.00005   0.00000  -0.00032  -0.00032   1.88470
    A7        1.91123   0.00001   0.00024  -0.00004   0.00020   1.91143
    A8        1.92238   0.00001  -0.00007   0.00011   0.00004   1.92242
    A9        1.93070  -0.00002  -0.00024  -0.00004  -0.00028   1.93042
   A10        1.91122   0.00001   0.00024  -0.00004   0.00020   1.91142
   A11        1.85642   0.00002   0.00008   0.00004   0.00012   1.85655
   A12        1.93071  -0.00003  -0.00024  -0.00004  -0.00028   1.93043
   A13        1.92472   0.00004  -0.00006   0.00037   0.00032   1.92503
   A14        1.94485   0.00004   0.00005   0.00018   0.00023   1.94508
   A15        1.94484   0.00004   0.00005   0.00019   0.00024   1.94508
   A16        1.88013  -0.00004  -0.00001  -0.00029  -0.00030   1.87983
   A17        1.88014  -0.00004  -0.00001  -0.00029  -0.00030   1.87984
   A18        1.88664  -0.00004  -0.00002  -0.00021  -0.00023   1.88641
   A19        1.93961   0.00004  -0.00000   0.00027   0.00027   1.93988
   A20        1.92718  -0.00001  -0.00003   0.00006   0.00002   1.92720
   A21        1.93932   0.00004  -0.00003   0.00031   0.00028   1.93960
   A22        1.88758  -0.00001   0.00002  -0.00007  -0.00005   1.88753
   A23        1.88501  -0.00004   0.00000  -0.00032  -0.00032   1.88469
   A24        1.88317  -0.00002   0.00005  -0.00028  -0.00023   1.88294
   A25        1.99558  -0.00007  -0.00033   0.00011  -0.00022   1.99536
   A26        1.93174   0.00003  -0.00001   0.00026   0.00025   1.93199
   A27        1.93174   0.00003  -0.00001   0.00026   0.00025   1.93198
   A28        1.85217   0.00001   0.00013  -0.00030  -0.00018   1.85199
   A29        1.85217   0.00001   0.00013  -0.00030  -0.00018   1.85199
   A30        1.89552  -0.00001   0.00013  -0.00007   0.00006   1.89557
    D1       -1.06016  -0.00000  -0.00048   0.00011  -0.00038  -1.06054
    D2        1.04260   0.00002  -0.00008   0.00011   0.00003   1.04263
    D3       -3.10071  -0.00002  -0.00059   0.00010  -0.00049  -3.10119
    D4        3.12836  -0.00001  -0.00049  -0.00002  -0.00051   3.12785
    D5       -1.05206   0.00002  -0.00008  -0.00002  -0.00010  -1.05217
    D6        1.08781  -0.00002  -0.00059  -0.00003  -0.00062   1.08719
    D7        1.02881  -0.00001  -0.00046  -0.00001  -0.00047   1.02833
    D8        3.13157   0.00002  -0.00006  -0.00001  -0.00007   3.13150
    D9       -1.01174  -0.00002  -0.00057  -0.00002  -0.00058  -1.01232
   D10        1.05464   0.00001   0.00010   0.00013   0.00023   1.05487
   D11       -1.03247   0.00002   0.00012   0.00012   0.00025  -1.03223
   D12       -3.14143   0.00001   0.00008   0.00013   0.00021  -3.14122
   D13       -1.05491  -0.00001  -0.00011   0.00004  -0.00007  -1.05498
   D14        3.14116  -0.00001  -0.00009   0.00004  -0.00006   3.14111
   D15        1.03221  -0.00001  -0.00014   0.00004  -0.00009   1.03212
   D16        3.14145   0.00000  -0.00001   0.00009   0.00008   3.14153
   D17        1.05434   0.00000   0.00001   0.00008   0.00010   1.05443
   D18       -1.05462  -0.00000  -0.00003   0.00009   0.00006  -1.05456
   D19        1.05178  -0.00002   0.00007   0.00020   0.00027   1.05204
   D20       -1.04290  -0.00002   0.00006   0.00008   0.00014  -1.04276
   D21       -3.13186  -0.00002   0.00004   0.00019   0.00023  -3.13163
   D22       -3.12864   0.00001   0.00047   0.00020   0.00067  -3.12797
   D23        1.05987   0.00000   0.00047   0.00007   0.00054   1.06041
   D24       -1.02910   0.00001   0.00045   0.00019   0.00064  -1.02846
   D25       -1.08809   0.00002   0.00058   0.00020   0.00078  -1.08731
   D26        3.10042   0.00002   0.00057   0.00008   0.00065   3.10107
   D27        1.01145   0.00002   0.00055   0.00019   0.00075   1.01220
   D28       -1.06760   0.00001   0.00020   0.00003   0.00024  -1.06737
   D29        3.12523   0.00002   0.00027   0.00016   0.00043   3.12567
   D30        1.02275  -0.00000   0.00013  -0.00009   0.00003   1.02278
   D31        3.14150   0.00000  -0.00000   0.00008   0.00007   3.14157
   D32        1.05115   0.00001   0.00007   0.00020   0.00027   1.05142
   D33       -1.05134  -0.00001  -0.00008  -0.00005  -0.00013  -1.05147
   D34        1.06741  -0.00001  -0.00021   0.00012  -0.00009   1.06732
   D35       -1.02294   0.00000  -0.00014   0.00024   0.00011  -1.02283
   D36       -3.12543  -0.00002  -0.00028  -0.00001  -0.00029  -3.12572
         Item               Value     Threshold  Converged?
 Maximum Force            0.000259     0.000015     NO 
 RMS     Force            0.000044     0.000010     NO 
 Maximum Displacement     0.001965     0.000060     NO 
 RMS     Displacement     0.000479     0.000040     NO 
 GradGradGradGradGradGradGradGradGradGradGradGradGradGradGradGradGradGrad

                    Distance matrix (angstroms):
                    1          2          3          4          5
     1  C    0.000000
     2  C    1.533885   0.000000
     3  C    2.508883   1.537995   0.000000
     4  C    2.515222   1.533885   2.508879   0.000000
     5  C    2.523396   1.535310   2.460445   2.523404   0.000000
     6  Cl   3.227116   2.806416   4.130060   3.227098   1.800422
     7  H    1.104186   2.180351   2.761566   2.762724   3.486652
     8  H    1.102714   2.188415   3.481542   2.777551   2.803447
     9  H    1.105046   2.189985   2.757600   3.486969   2.769732
    10  H    2.758027   2.182261   1.104020   2.758076   3.439869
    11  H    2.765246   2.197426   1.104863   3.485006   2.714932
    12  H    3.485008   2.197424   1.104862   2.765186   2.714988
    13  H    2.777497   2.188418   3.481542   1.102714   2.803517
    14  H    2.762780   2.180347   2.761497   1.104186   3.486654
    15  H    3.486970   2.189986   2.757655   1.105046   2.769688
    16  H    3.486076   2.182804   2.699947   2.766622   1.101164
    17  H    2.766586   2.182803   2.699970   3.486081   1.101164
                    6          7          8          9         10
     6  Cl   0.000000
     7  H    4.238560   0.000000
     8  H    2.824371   1.787085   0.000000
     9  H    3.575697   1.785995   1.785951   0.000000
    10  H    4.971713   2.549918   3.777686   3.107945   0.000000
    11  H    4.422907   3.119389   3.782273   2.552749   1.783691
    12  H    4.422931   3.780344   4.350507   3.780832   1.783693
    13  H    2.824421   3.127522   2.583732   3.798070   3.777694
    14  H    4.238587   2.549903   3.127697   3.778684   2.549899
    15  H    3.575566   3.778676   3.798078   4.348653   3.108113
    16  H    2.356784   4.335045   3.814275   3.781963   3.721383
    17  H    2.356781   3.772525   3.150753   2.554478   3.721370
                   11         12         13         14         15
    11  H    0.000000
    12  H    1.788651   0.000000
    13  H    4.350511   3.782258   0.000000
    14  H    3.780319   3.119207   1.787087   0.000000
    15  H    3.780847   2.552747   1.785946   1.785995   0.000000
    16  H    3.061549   2.484839   3.150889   3.772519   2.554462
    17  H    2.484803   3.061672   3.814317   4.335041   3.781945
                   16         17
    16  H    0.000000
    17  H    1.788568   0.000000
 Framework group  C1[X(C5H11Cl)]
 Deg. of freedom    45
                         Standard orientation:                         
 ---------------------------------------------------------------------
 Center     Atomic      Atomic             Coordinates (Angstroms)
 Number     Number       Type             X           Y           Z
 ---------------------------------------------------------------------
      1          6           0       -0.804259   -0.893241   -1.257677
      2          6           0       -0.778493   -0.015522   -0.000001
      3          6           0       -2.000643    0.918168    0.000081
      4          6           0       -0.804240   -0.893427    1.257545
      5          6           0        0.459666    0.892297    0.000048
      6         17           0        2.027826    0.007767    0.000003
      7          1           0       -1.716670   -1.514877   -1.275026
      8          1           0        0.069635   -1.564888   -1.292018
      9          1           0       -0.796568   -0.276163   -2.174346
     10          1           0       -2.933574    0.327830   -0.000014
     11          1           0       -2.013412    1.566920   -0.894167
     12          1           0       -2.013453    1.566705    0.894484
     13          1           0        0.069585   -1.565170    1.291715
     14          1           0       -1.716717   -1.514967    1.274877
     15          1           0       -0.796404   -0.276489    2.174307
     16          1           0        0.471179    1.534659    0.894365
     17          1           0        0.471182    1.534749   -0.894203
 ---------------------------------------------------------------------
 Rotational constants (GHZ):           4.3679959           1.6988124           1.6931412
   110 basis functions,   206 primitive gaussians,   116 cartesian basis functions
    29 alpha electrons       29 beta electrons
       nuclear repulsion energy       313.2590767531 Hartrees.
 NAtoms=   17 NActive=   17 NUniq=   17 SFac= 1.00D+00 NAtFMM=   60 NAOKFM=F Big=F
 Nuclear repulsion after empirical dispersion term =      313.2481095287 Hartrees.
   1 Symmetry operations used in ECPInt.
 ECPInt:  NShTT=    1830 NPrTT=    7624 LenC2=    1823 LenP2D=    6211.
 LDataN:  DoStor=T MaxTD1= 4 Len=   56
 Initial guess from the checkpoint file:  "19.chk"
 B after Tr=     0.000000   -0.000000    0.000000
         Rot=    1.000000    0.000006    0.000009   -0.000178 Ang=   0.02 deg.
     Minimum is close to point  2 DX=  8.69D-06 DF=  0.00D+00 DXR=  8.69D-06 DFR=  0.00D+00 which will be used.
 SCF Done:  E(RwB97XD) =  -657.002913387     a.u. after    2 cycles
            Convg  =    0.2775D-07                    12 Fock formations.
              S**2 =  0.0000                  -V/T =  2.0050
   1 Symmetry operations used in ECPInt.
 ECPInt:  NShTT=    1830 NPrTT=    7624 LenC2=    1823 LenP2D=    6211.
 LDataN:  DoStor=T MaxTD1= 5 Len=  102
 Calling FoFJK, ICntrl=      2127 FMM=F ISym2X=0 I1Cent= 0 IOpClX= 0 NMat=1 NMatS=1 NMatT=0.

 GradGradGradGradGradGradGradGradGradGradGradGradGradGradGradGradGradGrad
 Using GEDIIS/GDIIS optimizer.
 FormGI is forming the generalized inverse of G from B-inverse, IUseBI=4.
 Internal  Forces:  Max     0.000072658 RMS     0.000010330
 Step number   5 out of a maximum of   92
 All quantities printed in internal units (Hartrees-Bohrs-Radians)
 Mixed Optimization -- En-DIIS/RFO-DIIS
 Swapping is turned off.
 Trust test= 1.28D+00 RLast= 2.85D-03 DXMaxT set to 4.53D-01
 ITU=  0  1  1  1  0
     Eigenvalues ---    0.00337   0.00354   0.00379   0.00385   0.04823
     Eigenvalues ---    0.05200   0.05203   0.05214   0.05418   0.05509
     Eigenvalues ---    0.05520   0.05567   0.05591   0.05597   0.05651
     Eigenvalues ---    0.13890   0.14197   0.14849   0.15957   0.16000
     Eigenvalues ---    0.16000   0.16000   0.16000   0.16000   0.16000
     Eigenvalues ---    0.16006   0.16044   0.17175   0.22445   0.24791
     Eigenvalues ---    0.29362   0.29492   0.31199   0.34389   0.34670
     Eigenvalues ---    0.34766   0.34808   0.35048   0.35078   0.35080
     Eigenvalues ---    0.35143   0.35143   0.35176   0.35204   0.36700
 En-DIIS/RFO-DIIS/Sim-DIIS IScMMF=       -3 using points:     5    4    3    2
 RFO step:  Lambda=-6.74304388D-08.
 DidBck=F Rises=F RFO-DIIS coefs:    1.27736   -0.27560   -0.00038   -0.00138
 Iteration  1 RMS(Cart)=  0.00012075 RMS(Int)=  0.00000003
 Iteration  2 RMS(Cart)=  0.00000002 RMS(Int)=  0.00000003
 Variable       Old X    -DE/DX   Delta X   Delta X   Delta X     New X
                                 (Linear)    (Quad)   (Total)
    R1        2.89862  -0.00001  -0.00000  -0.00003  -0.00004   2.89859
    R2        2.08661   0.00001  -0.00004   0.00006   0.00002   2.08662
    R3        2.08383   0.00001  -0.00002   0.00003   0.00002   2.08384
    R4        2.08823   0.00001  -0.00002   0.00004   0.00002   2.08825
    R5        2.90639  -0.00001   0.00010  -0.00013  -0.00002   2.90636
    R6        2.89862  -0.00001  -0.00000  -0.00004  -0.00004   2.89859
    R7        2.90131  -0.00003  -0.00010  -0.00002  -0.00013   2.90119
    R8        2.08629   0.00000  -0.00003   0.00004   0.00001   2.08630
    R9        2.08789   0.00001  -0.00002   0.00004   0.00002   2.08791
   R10        2.08789   0.00001  -0.00002   0.00004   0.00002   2.08791
   R11        2.08383   0.00001  -0.00002   0.00003   0.00002   2.08384
   R12        2.08661   0.00001  -0.00004   0.00006   0.00002   2.08662
   R13        2.08823   0.00001  -0.00002   0.00004   0.00002   2.08825
   R14        3.40230   0.00007   0.00029   0.00013   0.00042   3.40272
[...]
               (au)            (10**-24 esu)      (10**-40 SI)
   iso        0.623567D+02      0.924032D+01      0.102812D+02
   aniso      0.122344D+02      0.181295D+01      0.201717D+01
   xx         0.581018D+02      0.860979D+01      0.957969D+01
   yx         0.263708D+00      0.390775D-01      0.434796D-01
   yy         0.586765D+02      0.869496D+01      0.967445D+01
   zx        -0.575335D+00     -0.852558D-01     -0.948599D-01
   zy        -0.147785D+01     -0.218995D+00     -0.243665D+00
   zz         0.702920D+02      0.104162D+02      0.115896D+02

 ----------------------------------------------------------------------
 1\1\GINC-C008\Freq\RwB97XD\def2SVPP\C5H11Cl1\PETERCHAO1\06-Feb-2023\0\
 \#T Geom=AllCheck Guess=TCheck SCRF=Check GenChk RwB97XD/def2SVPP Freq
 \\Monomer\\0,1\C,-0.8975146507,-0.8987257356,-1.257436162\C,-0.8883482
 976,-0.0203729703,0.0000174423\C,-2.1281717383,0.8897279933,0.00008878
 27\C,-0.8970594562,-0.8983033433,1.2577695221\C,0.3320428486,0.9110615
 877,-0.0003605559\Cl,1.9170782849,0.0565542932,-0.0005103943\H,-1.7978
 230996,-1.5377907099,-1.2744221601\H,-0.0108427629,-1.5534246297,-1.29
 18087853\H,-0.9018868778,-0.2817960229,-2.1742388041\H,-3.049577417,0.
 2815459534,0.0003577959\H,-2.1535398354,1.537851374,-0.8943590804\H,-2
 .1532164063,1.5381523022,0.8943276883\H,-0.0103736928,-1.5529887171,1.
 2920437533\H,-1.7973598368,-1.5373651,1.2752940023\H,-0.9011042068,-0.
 2810655859,2.1743663532\H,0.3317003679,1.5536108549,0.8938850227\H,0.3
 31372869,1.5533139445,-0.8948192752\\Version=ES64L-G16RevB.01\State=1-
 A\HF=-657.0029134\RMSD=2.007e-10\RMSF=9.703e-07\ZeroPoint=0.1519222\Th
 ermal=0.1595514\Dipole=-0.7095918,0.2764308,0.0000845\DipoleDeriv=-0.0
 081241,0.0187545,0.0097102,0.0095957,-0.0126988,-0.0263862,0.0120509,-
 0.0230413,0.0141923,0.042787,0.012124,0.0000107,0.0930045,0.0673355,-0
 .0000101,-0.000003,0.0000048,0.1122888,-0.0396791,0.0192289,0.0000114,
 -0.068839,0.0365801,0.0000136,0.000026,-0.0000026,0.0404767,-0.0081325
 ,0.0187592,-0.0097084,0.0096008,-0.0126819,0.0263918,-0.012046,0.02304
 37,0.0141839,0.7106132,-0.172614,-0.000082,-0.227095,0.1904853,0.00002
 86,-0.0000726,0.0000182,0.1082834,-0.5969516,0.0946707,0.0000643,0.139
 8024,-0.2275174,-0.0000147,0.000057,-0.0000062,-0.1612581,-0.0742756,-
 0.1185735,-0.0216576,-0.0894801,0.0029935,-0.0282432,0.0207241,-0.0014
 522,0.0479623,-0.0177941,0.1069609,0.0265807,0.0837216,0.0180196,-0.02
 0035,-0.0097488,-0.0012593,0.0504011,0.0759488,-0.0043991,-0.0013123,0
 .0027671,-0.0175385,0.1163945,-0.0012589,0.0511294,-0.1011055,-0.10265
 79,-0.0420715,0.0000402,-0.0962926,-0.0067547,0.0000318,0.0000492,0.00
 00221,0.0795098,0.0549682,0.0021845,0.0258439,0.0377949,-0.0138732,0.0
 86152,-0.0182809,0.1163865,-0.0705727,0.0549654,0.0021338,-0.02589,0.0
 377699,-0.0139414,-0.0861848,0.0182228,-0.1164064,-0.070502,-0.0178,0.
 106953,-0.0265925,0.0837322,0.0180271,0.0200157,0.0097449,0.0012317,0.
 0504003,-0.0742746,-0.1185657,0.0217414,-0.0894769,0.0030029,0.0282907
 ,-0.0206502,0.0015099,0.0479518,0.0759498,-0.0044168,0.0012504,0.00272
 58,-0.0175949,-0.1164236,0.0011944,-0.051156,-0.1010502,-0.0377705,0.0
 394188,0.0107722,0.0353219,-0.006949,-0.0636015,-0.0052736,-0.1015133,
 -0.0305545,-0.0377725,0.0394522,-0.0107825,0.0353471,-0.0068942,0.0635
 804,0.0052645,0.101491,-0.0306074\Polar=69.8478266,-2.7260568,59.22331
 19,-0.0017287,0.0002995,57.9991068\Quadrupole=-1.8487203,1.332169,0.51
 65513,0.1141733,0.0004141,-0.000157\PG=C01 [X(C5H11Cl1)]\NImag=0\\0.59
 568828,-0.00251238,0.55842263,-0.00188964,-0.05000226,0.51822711,-0.08
 030676,-0.00018986,0.00096759,0.49417132,-0.00111111,-0.11785037,-0.05
 395977,0.00184125,0.52653817,-0.00048375,-0.05243780,-0.15777094,0.000
 00470,-0.00000082,0.52231120,-0.00222734,0.00428379,0.00360592,-0.1508
 0889,0.05351530,0.00000405,0.51739849,0.01908200,-0.01704010,-0.004824
 62,0.04938670,-0.11593649,-0.00000271,0.05328203,0.54947214,0.02417158
 ,-0.01924288,-0.00313071,0.00000473,-0.00000349,-0.07881120,0.00000410
 ,-0.00000275,0.59002782,0.00003026,0.00021392,0.00028355,-0.08030703,-
 0.00109147,0.00045611,-0.00223738,0.01907562,-0.02417834,0.59568934,0.
 00020870,0.01157542,-0.01420127,-0.00017120,-0.11781448,0.05242423,0.0
 0428955,-0.01703198,0.01924599,-0.00249377,0.55845605,-0.00029551,0.01
 418624,-0.03293569,-0.00099557,0.05394659,-0.15780632,-0.00360769,0.00
 482239,-0.00312877,0.00186249,0.04998986,0.51819211,-0.00249292,-0.005
 24906,-0.00567641,-0.13002450,-0.05896584,0.00001838,-0.03312146,-0.00
 736571,0.00000713,-0.00248180,-0.00524021,0.00567816,0.35568495,-0.019
 39429,-0.01634659,-0.00400654,-0.06028458,-0.12208745,0.00001746,0.012
 81991,0.00928135,-0.00000397,-0.01938444,-0.01633887,0.00401820,0.0385
 0282,0.49592401,-0.02489299,-0.01904790,-0.00241701,0.00001858,0.00001
 722,-0.08321655,0.00000377,-0.00000031,-0.00058674,0.02489948,0.019054
 47,-0.00243582,0.00004059,0.00001258,0.61257466,-0.00007705,0.00019566
 ,0.00064931,-0.03026842,0.01975729,0.00000215,-0.00508271,-0.00796359,
 0.00000231,-0.00007681,0.00019569,-0.00064931,-0.10522119,0.04696064,0
 .00000458,0.17373113,-0.00121318,-0.00087090,-0.00100005,-0.00316990,0
 .00523770,-0.00000037,-0.00092861,0.00075812,0.00000009,-0.00121237,-0
 .00087029,0.00100079,0.04518284,-0.06563938,-0.00000369,-0.07444557,0.
 07483757,-0.00142968,-0.00078350,-0.00000199,0.00000599,-0.00000458,-0
 .00045327,0.00000113,0.00000138,0.00027188,0.00143011,0.00078371,-0.00
 000289,0.00000491,-0.00000401,-0.03802686,-0.00001472,0.00000558,0.025
 88637,-0.22865185,-0.12658303,-0.00189113,-0.00041155,0.00134443,0.000
 94594,0.00085056,0.00091823,0.00034948,0.00012982,0.00018075,0.0003298
 2,0.00024849,0.00069826,-0.00008610,0.00017662,-0.00052552,-0.00040388
 ,0.24151259,-0.12531884,-0.13632661,-0.00038623,-0.01536051,-0.0116571
 8,0.00110286,-0.00116815,0.00031238,0.00070365,0.00029640,0.00047108,0
 .00116583,0.00155616,-0.00221346,-0.00404576,0.00013093,0.00060203,0.0
 0035612,0.13724891,0.14402718,-0.00002944,0.00089286,-0.04805267,-0.02
 271541,-0.01524171,-0.00032232,-0.00096718,0.00065655,0.00080164,-0.00
 109011,-0.00067633,0.00115934,0.00096097,-0.00291356,-0.00482812,0.000
 21308,0.00022284,0.00016101,0.00116296,0.00388506,0.05027486,-0.226073
 98,0.13072396,0.00563291,0.00137734,-0.00096160,0.00012277,0.00052358,
 -0.00019002,0.00052412,0.00017796,-0.00016723,-0.00019463,-0.00003528,
 -0.00029543,0.00030893,-0.00161929,-0.00168388,-0.00134141,-0.01679311
 ,0.01567793,0.00017181,0.23940859,0.12870957,-0.14352637,-0.00308989,0
 .01450271,-0.01112744,0.00106702,-0.00119539,-0.00195887,-0.00374816,-
 0.00043598,0.00048369,0.00108085,0.00223636,-0.00071237,0.00023246,-0.
 00119215,0.00064646,0.00025552,-0.01581017,0.01345112,0.00036582,-0.14
 063970,0.15128991,0.00415611,-0.00176753,-0.04933634,0.02267208,-0.014
 66322,0.00022390,-0.00093368,-0.00292428,-0.00459305,0.00103581,-0.000
 59006,0.00138670,0.00103717,0.00016550,0.00072060,-0.00112044,0.000041
 61,-0.00029424,0.00012421,-0.00004218,-0.00105278,-0.00531195,0.006555
 74,0.05106449,-0.04945997,0.00080743,-0.00104536,-0.00190410,0.0000924
 1,-0.00051726,0.00004241,-0.00049953,0.00083039,0.00017648,-0.00005824
 ,0.00001712,0.00030554,0.00060894,-0.00105992,-0.00019569,-0.00008221,
 0.00020480,0.00212756,-0.01364507,0.02227964,0.00239671,0.01336903,-0.
 02197225,0.04562978,0.00051930,-0.13540579,0.12560372,0.00013858,0.010
 75740,-0.01610713,-0.00035682,0.00113014,-0.00067696,-0.00004769,-0.00
 188717,-0.00286450,-0.00001240,0.00125463,-0.00062619,0.00027797,0.000
 02378,0.00006552,0.00236879,-0.00904695,0.01337940,-0.00256831,-0.0091
 6437,0.01393937,-0.00056539,0.14170903,-0.00089431,0.12325301,-0.22716
 908,0.00000791,0.01677447,-0.02115545,-0.00062888,0.00136017,0.0007211
 5,-0.00008473,-0.00505331,-0.00378107,0.00055599,0.00149503,0.00056893
 ,-0.00015249,-0.00016573,-0.00001631,-0.00005114,-0.00196681,0.0019347
 9,0.00004643,-0.00213057,0.00227469,0.00113550,-0.13222893,0.24643086,
 0.00086862,-0.00136711,-0.00060357,-0.02226020,-0.01535185,0.00000637,
 -0.23144093,-0.12552046,0.00005428,0.00086854,-0.00136707,0.00060372,-
 0.00195888,0.00420388,-0.00000040,-0.00210295,0.00000233,0.00000047,0.
 00027396,0.00081014,0.00055850,0.00033232,0.00008665,-0.00022662,-0.00
 003939,0.00007910,-0.00000804,0.25007288,0.00061426,0.00116783,0.00038
 584,0.01776112,0.01031394,-0.00000518,-0.12740987,-0.13256466,0.000037
 24,0.00061382,0.00116754,-0.00038644,0.00146853,-0.00226930,0.00000006
 ,0.00162239,0.00029944,-0.00000027,-0.00010233,-0.00022220,-0.00007225
 ,-0.00008448,0.00019761,0.00020954,-0.00011380,-0.00009714,-0.00005927
 ,0.13296608,0.14005648,0.00084113,0.00048685,0.00002662,0.00000079,0.0
 0000082,-0.00135768,0.00005458,0.00003689,-0.04827811,-0.00084164,-0.0
 0048674,0.00002701,0.00000006,-0.00000043,-0.00030736,0.00000019,0.000
 00002,0.00046060,0.00017698,-0.00044648,0.00009646,-0.00015959,0.00002
 790,-0.00009710,0.00008282,0.00010548,-0.00005641,-0.00005938,-0.00003
 993,0.04564511,0.00076188,-0.00072003,-0.00100222,0.00023569,0.0141892
 3,-0.02209301,-0.04863563,0.00098831,-0.00146984,-0.00452556,0.0026263
 9,0.00077085,0.00022878,0.00155427,-0.00158995,0.00072942,-0.00043573,
 0.00023649,-0.00004454,-0.00004553,0.00017082,-0.00002929,-0.00028199,
 -0.00005384,0.00007868,0.00005151,0.00056163,0.00218611,-0.01366315,0.
 02234411,0.05062368,-0.00066172,0.00038731,0.00124793,-0.00157590,-0.0
 1111118,0.01509524,0.00165850,-0.13847842,0.12440000,0.00410780,-0.002
 07545,-0.00109351,-0.00119141,0.00015724,-0.00007845,-0.00011456,0.000
 07854,-0.00028839,0.00001663,-0.00008699,0.00003849,-0.00006456,0.0003
 0074,-0.00024064,0.00042110,-0.00017285,-0.00085595,0.00211249,-0.0089
 6692,0.01360870,-0.00502803,0.14610161,0.00028316,-0.00088526,0.000911
 84,0.00006869,-0.00129772,-0.00037891,-0.00278910,0.12549411,-0.225343
 12,-0.00090261,0.00012654,0.00084652,0.00051916,0.00014894,0.00002553,
 -0.00006082,-0.00027822,0.00019977,-0.00008439,-0.00001733,-0.00004841
 ,-0.00010368,-0.00001041,0.00015188,0.00019339,0.00008558,0.00026019,-
 0.00008611,-0.00206694,0.00175775,0.00278763,-0.13701386,0.23790249,-0
 .00452551,0.00262609,-0.00076980,0.00024367,0.01419713,0.02208802,-0.0
 4863414,0.00094341,0.00140562,0.00076213,-0.00071937,0.00100252,0.0002
 2917,0.00155474,0.00158935,0.00072935,-0.00043571,-0.00023654,0.000164
 36,0.00023592,-0.00006720,0.00016425,0.00117652,0.00124314,-0.00009369
 ,-0.00018529,-0.00015473,0.00217805,-0.01366992,-0.02233966,-0.0010161
 9,-0.00007818,0.00011526,0.05062169,0.00410849,-0.00207513,0.00109301,
 -0.00158140,-0.01111581,-0.01509105,0.00161442,-0.13856251,-0.12442983
 ,-0.00066226,0.00038718,-0.00124752,-0.00119154,0.00015721,0.00007883,
 -0.00011443,0.00007873,0.00028847,0.00001333,0.00034147,0.00031756,0.0
 0012621,-0.00049323,-0.00128586,-0.00002668,0.00019142,-0.00014199,0.0
 0210759,-0.00897081,-0.01360586,-0.00007254,0.01321336,0.01567831,-0.0
 0497941,0.14619385,0.00090318,-0.00012651,0.00084615,-0.00006838,0.001
 29620,-0.00038223,0.00272464,-0.12552371,-0.22526071,-0.00028288,0.000
 88570,0.00091171,-0.00051882,-0.00014955,0.00002517,0.00006067,0.00027
 841,0.00019964,-0.00012931,0.00012460,-0.00000633,-0.00013401,-0.00030
 810,0.00012314,-0.00017806,0.00010802,0.00040067,0.00008524,0.00207549
 ,0.00176968,-0.00012101,-0.01568845,-0.01697574,-0.00271823,0.13704658
 ,0.23781244,0.00017764,-0.00016695,0.00019512,0.00136914,-0.00095634,-
 0.00012285,0.00052373,-0.00018914,-0.00052590,-0.22607783,0.13072246,-
 0.00561338,-0.00003572,-0.00029561,-0.00030856,-0.00161812,-0.00168321
 ,0.00134234,-0.00014117,0.00010940,-0.00003184,0.00024082,-0.00001361,
 -0.00032111,0.00013311,-0.00016175,-0.00002812,0.00033246,-0.00008450,
 0.00015946,0.00016385,0.00012671,0.00013395,-0.00002923,-0.00006444,0.
 00010377,0.23941245,-0.00043672,0.00048352,-0.00108039,0.01449474,-0.0
 1112284,-0.00106842,-0.00119372,-0.00195663,0.00374771,0.12870911,-0.1
 4352401,0.00307527,0.00223592,-0.00071248,-0.00023280,-0.00119171,0.00
 064644,-0.00025545,-0.00013278,-0.00000442,0.00005316,-0.00001340,0.00
 053016,0.00028015,-0.00020653,-0.00005759,-0.00007084,0.00008672,0.000
 19753,-0.00002803,0.00117622,-0.00049269,0.00030788,-0.00028197,0.0003
 0083,0.00001046,-0.14064022,0.15128462,-0.00103522,0.00059042,0.001387
 18,-0.02267740,0.01466727,0.00022756,0.00093224,0.00292345,-0.00459543
 ,-0.00413593,0.00175222,-0.04933449,-0.00103765,-0.00016493,0.00072124
 ,0.00112123,-0.00004136,-0.00029497,0.00000555,-0.00003332,-0.00005018
 ,0.00032076,-0.00028057,-0.00072490,0.00023638,-0.00011651,0.00028714,
 0.00022643,-0.00020961,-0.00009716,-0.00124355,0.00128602,0.00012300,0
 .00005400,0.00024061,0.00015174,0.00529170,-0.00653880,0.05106497,0.00
 013010,0.00018088,-0.00032951,-0.00040369,0.00134962,-0.00094635,0.000
 85078,0.00091787,-0.00034979,-0.22865046,-0.12658295,0.00199859,0.0002
 4819,0.00069933,0.00008403,0.00017668,-0.00052545,0.00040405,0.0002662
 4,0.00013163,0.00042625,-0.00014116,-0.00013280,-0.00000547,0.00019667
 ,0.00022539,0.00007421,0.00027369,-0.00010236,-0.00017701,0.00016443,0
 .00001326,0.00012924,-0.00004457,0.00001664,0.00008439,-0.01679323,-0.
 01581042,-0.00011325,0.24151098,0.00029634,0.00047093,-0.00116571,-0.0
 1535324,-0.01165245,-0.00109353,-0.00116808,0.00031193,-0.00070306,-0.
 12531893,-0.13632746,0.00046095,0.00155731,-0.00221112,0.00404429,0.00
 013073,0.00060183,-0.00035631,0.00013157,0.00054354,0.00023328,0.00010
 942,-0.00000443,0.00003327,0.00025375,-0.00000761,-0.00009461,0.000810
 11,-0.00022203,0.00044629,0.00023590,0.00034132,-0.00012480,-0.0000455
 8,-0.00008700,0.00001736,0.01567781,0.01345100,0.00003168,0.13724737,0
 .14402532,0.00109038,0.00067649,0.00115922,0.02272056,0.01524509,-0.00
 033492,0.00096755,-0.00065672,0.00080187,0.00013649,-0.00081769,-0.048
 05326,-0.00096334,0.00291244,-0.00483013,-0.00021312,-0.00022280,0.000
 16114,-0.00042663,-0.00023373,-0.00065459,0.00003184,-0.00005313,-0.00
 005018,-0.00021583,-0.00012962,0.00033111,-0.00055883,0.00007239,0.000
 09655,0.00006705,-0.00031768,-0.00000625,-0.00017080,-0.00003849,-0.00
 004837,-0.00017143,-0.00036501,-0.00105257,-0.00127783,-0.00396590,0.0
 5027842,0.00017650,-0.00005641,-0.00001854,-0.00190392,0.00008652,0.00
 051024,0.00004234,-0.00050030,-0.00082998,-0.04945929,0.00076377,0.000
 98168,0.00030571,0.00060877,0.00105980,-0.00019571,-0.00008222,-0.0002
 0470,0.00019672,0.00025386,0.00021580,0.00013304,-0.00020659,-0.000236
 25,0.00057243,0.00003615,0.00000833,-0.00003942,-0.00011381,-0.0000827
 9,-0.00009357,-0.00002657,0.00017825,0.00007841,0.00042134,-0.00019347
 ,0.00240456,0.01337720,0.02196775,0.00211961,-0.01365182,-0.02227509,0
 .04562899,-0.00004662,-0.00188451,0.00286388,0.00014433,0.01075715,0.0
 1609636,-0.00035637,0.00112991,0.00067696,0.00047472,-0.13548941,-0.12
 563474,-0.00001235,0.00125433,0.00062596,0.00027800,0.00002382,-0.0000
 6564,0.00022542,-0.00000753,0.00012965,-0.00016170,-0.00005753,0.00011
 668,0.00003648,0.00081936,0.00091241,0.00007906,-0.00009716,-0.0001055
 0,-0.00018528,0.00019143,-0.00010789,0.00005129,-0.00017259,-0.0000854
 5,-0.00257330,-0.00916830,-0.01393453,0.00236403,-0.00905083,-0.013376
 63,-0.00051857,0.14179790,0.00008333,0.00505270,-0.00378376,-0.0000148
 6,-0.01678521,-0.02115540,0.00062925,-0.00136013,0.00072146,0.00083071
 ,-0.12328415,-0.22708619,-0.00055589,-0.00149548,0.00056903,0.00015245
 ,0.00016575,-0.00001633,-0.00007424,0.00009463,0.00033098,0.00002823,0
 .00007103,0.00028715,-0.00000912,-0.00091323,-0.00158097,0.00000800,0.
 00005932,-0.00005637,0.00015497,0.00014206,0.00040054,-0.00056158,0.00
 085594,0.00026021,-0.00004562,0.00212961,0.00227079,0.00005027,0.00197
 541,0.00194661,-0.00106359,0.13226433,0.24634283,-0.00457153,-0.002892
 01,0.00108284,0.00059736,-0.01397063,-0.02049122,0.00097814,-0.0011828
 5,-0.00109184,0.00055341,0.00070517,-0.00080895,-0.04093993,-0.0043023
 3,-0.00057801,-0.01453967,0.02062275,0.01745605,0.00007499,-0.00114967
 ,-0.00129846,-0.00000367,-0.00008925,0.00005023,0.00000859,0.00022753,
 0.00020602,0.00022758,0.00014909,0.00014226,0.00000415,0.00006502,0.00
 005608,-0.00083186,0.00021962,0.00043842,-0.00005877,-0.00008316,0.000
 13718,0.00002026,0.00023648,-0.00003987,0.00002513,-0.00002656,0.00059
 364,0.05693114,-0.00370191,-0.00150001,0.00129586,-0.00029447,-0.01106
 698,-0.01739951,0.00115680,0.00056689,0.00017480,0.00085773,0.00031866
 ,-0.00122652,-0.00677950,-0.13979170,-0.12865964,0.00773464,-0.0082276
 1,-0.00787506,-0.00007248,-0.00057561,-0.00109057,0.00021106,0.0001764
 5,0.00018546,-0.00002389,0.00015431,-0.00014907,0.00013122,0.00000502,
 0.00034174,-0.00011147,-0.00001065,0.00013098,-0.00027815,0.00062367,0
 .00016989,-0.00001829,-0.00003152,0.00001356,0.00008004,0.00039222,0.0
 0018013,-0.00036744,-0.00020038,0.00087826,0.00218648,0.14605153,-0.00
 040538,0.00010059,0.00086181,0.00082301,0.00144249,0.00019754,0.000177
 85,0.00018017,0.00019111,0.00017289,0.00094555,0.00117860,-0.00148671,
 -0.12911599,-0.23923532,-0.00150368,0.00379771,0.00588098,-0.00002429,
 -0.00025300,0.00018929,0.00001218,0.00001750,-0.00003416,0.00012742,0.
 00010676,0.00035997,-0.00008510,0.00024010,0.00018509,0.00004548,-0.00
 012454,-0.00009651,-0.00043389,0.00011680,0.00026931,-0.00004528,0.000
 05304,-0.00004986,-0.00007619,0.00000773,0.00006699,0.00010985,-0.0002
 6909,0.00018932,0.00337194,0.13789673,0.24635207,0.00055363,0.00070510
 ,0.00080894,0.00060453,-0.01396434,0.02049571,0.00097846,-0.00118257,0
 .00109197,-0.00457178,-0.00289242,-0.00107990,-0.04093916,-0.00425490,
 0.00050680,-0.01454559,0.02061563,-0.01745541,0.00002030,0.00023649,0.
 00003980,-0.00005880,-0.00008322,-0.00013714,0.00002488,-0.00002666,-0
 .00059357,0.00022757,0.00014895,-0.00014233,-0.00083187,0.00021943,-0.
 00043810,0.00000412,0.00006505,-0.00005613,-0.00000369,-0.00008926,-0.
 00005021,0.00007546,-0.00114913,0.00129890,0.00000847,0.00022742,-0.00
 020596,0.00152468,-0.00071037,-0.00078008,0.05692878,0.00085811,0.0003
 1875,0.00122650,-0.00028836,-0.01106168,0.01740334,0.00115670,0.000566
 79,-0.00017534,-0.00370223,-0.00150048,-0.00129374,-0.00673193,-0.1397
 0606,0.12862887,0.00773808,-0.00822629,0.00787692,0.00007999,0.0003921
 6,-0.00018027,-0.00001828,-0.00003154,-0.00001356,-0.00036779,-0.00020
 059,-0.00087800,0.00013113,0.00000483,-0.00034173,-0.00027807,0.000623
 58,-0.00016992,-0.00011153,-0.00001065,-0.00013097,0.00021099,0.000176
 37,-0.00018560,-0.00007208,-0.00057516,0.00109086,-0.00002388,0.000154
 32,0.00014915,-0.00071568,0.01311569,-0.01514255,0.00213482,0.14595993
 ,-0.00017294,-0.00094552,0.00117827,-0.00082305,-0.00143363,0.00018502
 ,-0.00017853,-0.00017987,0.00019091,0.00040861,-0.00009874,0.00086253,
 0.00141632,0.12908431,-0.23932125,0.00150862,-0.00380058,0.00588546,0.
 00007618,-0.00000792,0.00006701,0.00004529,-0.00005302,-0.00004980,-0.
 00010966,0.00026922,0.00018978,0.00008504,-0.00024010,0.00018531,0.000
 43438,-0.00011700,0.00026941,-0.00004547,0.00012449,-0.00009647,-0.000
 01226,-0.00001754,-0.00003407,0.00002436,0.00025367,0.00018836,-0.0001
 2728,-0.00010678,0.00036008,0.00077370,0.01513297,-0.01650624,-0.00330
 329,-0.13786397,0.24644570\\-0.00000091,0.00000002,-0.00000010,-0.0000
 0004,-0.00000001,0.,0.00000097,0.00000126,-0.00000005,-0.00000091,-0.0
 0000007,0.00000012,0.00000077,-0.00000073,0.00000005,0.00000026,-0.000
 00288,-0.00000011,-0.00000158,0.00000089,0.,-0.00000154,-0.00000077,0.
 00000007,-0.00000026,0.00000005,0.00000002,0.00000029,0.00000214,0.,0.
 00000160,0.00000129,0.,0.00000158,0.00000129,0.00000002,-0.00000158,-0
 .00000086,0.,-0.00000155,0.00000088,0.,-0.00000030,0.00000006,0.000000
 01,0.00000156,-0.00000128,-0.00000002,0.00000165,-0.00000128,-0.000000
 02\\\@


 Happiness is a conscious choice, not an automatic response.
 -- Mildred Barthel
 File lengths (MBytes):  RWF=     32 Int=      0 D2E=      0 Chk=      2 Scr=      1
 Normal termination of Gaussian 16 at Mon Feb  6 10:19:46 2023.
real 276.36
user 1029.18
sys 10.17
