 Entering Gaussian System, Link 0=g16
 Input=gaussian_test.inp
 Output=gaussian_test.log
 Initial command:
 /sw/restricted/lms/sw/Gaussian/g16_B01/g16/l1.exe "/scratch/user/peterchao1/peterchao1/6097791_1659647563000000718699040/Gau-209701.inp" -scrdir="/scratch/user/peterchao1/peterchao1/6097791_1659647563000000718699040/"
 Entering Link 1 = /sw/restricted/lms/sw/Gaussian/g16_B01/g16/l1.exe PID=    209705.
  
 Copyright (c) 1988-2017, Gaussian, Inc.  All Rights Reserved.
  
 This is part of the Gaussian(R) 16 program.  It is based on
 the Gaussian(R) 09 system (copyright 2009, Gaussian, Inc.),
 the Gaussian(R) 03 system (copyright 2003, Gaussian, Inc.),
 the Gaussian(R) 98 system (copyright 1998, Gaussian, Inc.),
 the Gaussian(R) 94 system (copyright 1995, Gaussian, Inc.),
 the Gaussian 92(TM) system (copyright 1992, Gaussian, Inc.),
 the Gaussian 90(TM) system (copyright 1990, Gaussian, Inc.),
 the Gaussian 88(TM) system (copyright 1988, Gaussian, Inc.),
 the Gaussian 86(TM) system (copyright 1986, Carnegie Mellon
 University), and the Gaussian 82(TM) system (copyright 1983,
 Carnegie Mellon University). Gaussian is a federally registered
 trademark of Gaussian, Inc.
  
 This software contains proprietary and confidential information,
 including trade secrets, belonging to Gaussian, Inc.
  
 This software is provided under written license and may be
 used, copied, transmitted, or stored only in accord with that
 written license.
  
 The following legend is applicable only to US Government
 contracts under FAR:
  
                    RESTRICTED RIGHTS LEGEND
  
 Use, reproduction and disclosure by the US Government is
 subject to restrictions as set forth in subparagraphs (a)
 and (c) of the Commercial Computer Software - Restricted
 Rights clause in FAR 52.227-19.
  
 Gaussian, Inc.
 340 Quinnipiac St., Bldg. 40, Wallingford CT 06492
  
  
 ---------------------------------------------------------------
 Warning -- This program may not be used in any manner that
 competes with the business of Gaussian, Inc. or will provide
 assistance to any competitor of Gaussian, Inc.  The licensee
 of this program is prohibited from giving any competitor of
 Gaussian, Inc. access to this program.  By using this program,
 the user acknowledges that Gaussian, Inc. is engaged in the
 business of creating and licensing software in the field of
 computational chemistry and represents and warrants to the
 licensee that it is not a competitor of Gaussian, Inc. and that
 it will not use this program in any manner prohibited above.
 ---------------------------------------------------------------
  

 Cite this work as:
 Gaussian 16, Revision B.01,
 M. J. Frisch, G. W. Trucks, H. B. Schlegel, G. E. Scuseria, 
 M. A. Robb, J. R. Cheeseman, G. Scalmani, V. Barone, 
 G. A. Petersson, H. Nakatsuji, X. Li, M. Caricato, A. V. Marenich, 
 J. Bloino, B. G. Janesko, R. Gomperts, B. Mennucci, H. P. Hratchian, 
 J. V. Ortiz, A. F. Izmaylov, J. L. Sonnenberg, D. Williams-Young, 
 F. Ding, F. Lipparini, F. Egidi, J. Goings, B. Peng, A. Petrone, 
 T. Henderson, D. Ranasinghe, V. G. Zakrzewski, J. Gao, N. Rega, 
 G. Zheng, W. Liang, M. Hada, M. Ehara, K. Toyota, R. Fukuda, 
 J. Hasegawa, M. Ishida, T. Nakajima, Y. Honda, O. Kitao, H. Nakai, 
 T. Vreven, K. Throssell, J. A. Montgomery, Jr., J. E. Peralta, 
 F. Ogliaro, M. J. Bearpark, J. J. Heyd, E. N. Brothers, K. N. Kudin, 
 V. N. Staroverov, T. A. Keith, R. Kobayashi, J. Normand, 
 K. Raghavachari, A. P. Rendell, J. C. Burant, S. S. Iyengar, 
 J. Tomasi, M. Cossi, J. M. Millam, M. Klene, C. Adamo, R. Cammi, 
 J. W. Ochterski, R. L. Martin, K. Morokuma, O. Farkas, 
 J. B. Foresman, and D. J. Fox, Gaussian, Inc., Wallingford CT, 2016.
 
 ******************************************
 Gaussian 16:  ES64L-G16RevB.01 20-Dec-2017
                 4-Aug-2022 
 ******************************************
 %nprocshared=4
 Will use up to    4 processors via shared memory.
 %mem=8000mb
 ----------------------------------------------------------------------
 #T wB97XD/def2svpp opt=tight freq int(grid=ultrafine) scf=(verytight,q
 c)
 ----------------------------------------------------------------------
 --------------
 Comment gs min
 --------------
 Symbolic Z-matrix:
 Charge =  0 Multiplicity = 1
 O                     2.87968   1.09391   0.55551 
 C                     2.39784  -0.04856  -0.15206 
 C                     2.94268  -1.34938   0.47458 
 C                     2.49507  -1.47711   1.94812 
 O                     1.07566  -1.49362   2.06317 
 C                     2.39727  -2.54975  -0.33097 
 O                     2.62581  -2.41767  -1.73276 
 C                     4.48953  -1.35602   0.4389 
 O                     5.06309  -0.31926   1.22803 
 H                     2.46927   1.87102   0.13348 
 H                     2.72332   0.05657  -1.19351 
 H                     1.30399  -0.02181  -0.13435 
 H                     2.87948  -0.65998   2.57116 
 H                     2.86609  -2.40764   2.37552 
 H                     0.7861   -0.56982   2.17152 
 H                     1.31331  -2.64488  -0.20504 
 H                     2.84505  -3.49179   0.00594 
 H                     3.57129  -2.26685  -1.89376 
 H                     4.87053  -1.23739  -0.57951 
 H                     4.87897  -2.30566   0.82421 
 H                     4.534     0.49061   1.06139 
 

 GradGradGradGradGradGradGradGradGradGradGradGradGradGradGradGradGradGrad
 Initialization pass.
                           ----------------------------
                           !    Initial Parameters    !
                           ! (Angstroms and Degrees)  !
 --------------------------                            --------------------------
 ! Name  Definition              Value          Derivative Info.                !
 --------------------------------------------------------------------------------
 ! R1    R(1,2)                  1.4276         estimate D2E/DX2                !
 ! R2    R(1,10)                 0.9749         estimate D2E/DX2                !
 ! R3    R(2,3)                  1.5433         estimate D2E/DX2                !
 ! R4    R(2,11)                 1.0962         estimate D2E/DX2                !
 ! R5    R(2,12)                 1.0943         estimate D2E/DX2                !
 ! R6    R(3,4)                  1.5453         estimate D2E/DX2                !
 ! R7    R(3,6)                  1.5451         estimate D2E/DX2                !
 ! R8    R(3,8)                  1.5473         estimate D2E/DX2                !
 ! R9    R(4,5)                  1.4242         estimate D2E/DX2                !
 ! R10   R(4,13)                 1.0971         estimate D2E/DX2                !
 ! R11   R(4,14)                 1.0891         estimate D2E/DX2                !
 ! R12   R(5,15)                 0.9742         estimate D2E/DX2                !
 ! R13   R(6,7)                  1.4264         estimate D2E/DX2                !
 ! R14   R(6,16)                 1.0954         estimate D2E/DX2                !
 ! R15   R(6,17)                 1.0961         estimate D2E/DX2                !
 ! R16   R(7,18)                 0.9709         estimate D2E/DX2                !
 ! R17   R(8,9)                  1.4236         estimate D2E/DX2                !
 ! R18   R(8,19)                 1.0938         estimate D2E/DX2                !
 ! R19   R(8,20)                 1.0963         estimate D2E/DX2                !
 ! R20   R(9,21)                 0.9816         estimate D2E/DX2                !
 ! A1    A(2,1,10)             106.3356         estimate D2E/DX2                !
 ! A2    A(1,2,3)              110.7407         estimate D2E/DX2                !
 ! A3    A(1,2,11)             107.0929         estimate D2E/DX2                !
 ! A4    A(1,2,12)             108.0464         estimate D2E/DX2                !
 ! A5    A(3,2,11)             111.2101         estimate D2E/DX2                !
 ! A6    A(3,2,12)             111.5261         estimate D2E/DX2                !
 ! A7    A(11,2,12)            108.0487         estimate D2E/DX2                !
 ! A8    A(2,3,4)              110.7689         estimate D2E/DX2                !
 ! A9    A(2,3,6)              108.5738         estimate D2E/DX2                !
 ! A10   A(2,3,8)              110.3162         estimate D2E/DX2                !
 ! A11   A(4,3,6)              109.3104         estimate D2E/DX2                !
 ! A12   A(4,3,8)              108.1322         estimate D2E/DX2                !
 ! A13   A(6,3,8)              109.7273         estimate D2E/DX2                !
 ! A14   A(3,4,5)              111.5111         estimate D2E/DX2                !
 ! A15   A(3,4,13)             112.2385         estimate D2E/DX2                !
 ! A16   A(3,4,14)             110.2515         estimate D2E/DX2                !
 ! A17   A(5,4,13)             108.1782         estimate D2E/DX2                !
 ! A18   A(5,4,14)             107.3323         estimate D2E/DX2                !
 ! A19   A(13,4,14)            107.1052         estimate D2E/DX2                !
 ! A20   A(4,5,15)             107.112          estimate D2E/DX2                !
 ! A21   A(3,6,7)              112.5734         estimate D2E/DX2                !
 ! A22   A(3,6,16)             110.9067         estimate D2E/DX2                !
 ! A23   A(3,6,17)             111.2993         estimate D2E/DX2                !
 ! A24   A(7,6,16)             106.2343         estimate D2E/DX2                !
 ! A25   A(7,6,17)             108.4326         estimate D2E/DX2                !
 ! A26   A(16,6,17)            107.1144         estimate D2E/DX2                !
 ! A27   A(6,7,18)             109.4739         estimate D2E/DX2                !
 ! A28   A(3,8,9)              112.7606         estimate D2E/DX2                !
 ! A29   A(3,8,19)             111.6686         estimate D2E/DX2                !
 ! A30   A(3,8,20)             110.5323         estimate D2E/DX2                !
 ! A31   A(9,8,19)             107.2652         estimate D2E/DX2                !
 ! A32   A(9,8,20)             107.0312         estimate D2E/DX2                !
 ! A33   A(19,8,20)            107.3041         estimate D2E/DX2                !
 ! A34   A(8,9,21)             106.8332         estimate D2E/DX2                !
 ! D1    D(10,1,2,3)          -177.6391         estimate D2E/DX2                !
 ! D2    D(10,1,2,11)           60.9492         estimate D2E/DX2                !
 ! D3    D(10,1,2,12)          -55.2252         estimate D2E/DX2                !
 ! D4    D(1,2,3,4)             60.2215         estimate D2E/DX2                !
 ! D5    D(1,2,3,6)           -179.7429         estimate D2E/DX2                !
 ! D6    D(1,2,3,8)            -59.4698         estimate D2E/DX2                !
 ! D7    D(11,2,3,4)           179.174          estimate D2E/DX2                !
 ! D8    D(11,2,3,6)           -60.7904         estimate D2E/DX2                !
 ! D9    D(11,2,3,8)            59.4827         estimate D2E/DX2                !
 ! D10   D(12,2,3,4)           -60.1403         estimate D2E/DX2                !
 ! D11   D(12,2,3,6)            59.8953         estimate D2E/DX2                !
 ! D12   D(12,2,3,8)          -179.8316         estimate D2E/DX2                !
 ! D13   D(2,3,4,5)             59.6669         estimate D2E/DX2                !
 ! D14   D(2,3,4,13)           -61.8956         estimate D2E/DX2                !
 ! D15   D(2,3,4,14)           178.793          estimate D2E/DX2                !
 ! D16   D(6,3,4,5)            -59.9275         estimate D2E/DX2                !
 ! D17   D(6,3,4,13)           178.51           estimate D2E/DX2                !
 ! D18   D(6,3,4,14)            59.1986         estimate D2E/DX2                !
 ! D19   D(8,3,4,5)           -179.3405         estimate D2E/DX2                !
 ! D20   D(8,3,4,13)            59.0969         estimate D2E/DX2                !
 ! D21   D(8,3,4,14)           -60.2145         estimate D2E/DX2                !
 ! D22   D(2,3,6,7)             51.6747         estimate D2E/DX2                !
 ! D23   D(2,3,6,16)           -67.2004         estimate D2E/DX2                !
 ! D24   D(2,3,6,17)           173.6531         estimate D2E/DX2                !
 ! D25   D(4,3,6,7)            172.6139         estimate D2E/DX2                !
 ! D26   D(4,3,6,16)            53.7388         estimate D2E/DX2                !
 ! D27   D(4,3,6,17)           -65.4077         estimate D2E/DX2                !
 ! D28   D(8,3,6,7)            -68.9633         estimate D2E/DX2                !
 ! D29   D(8,3,6,16)           172.1616         estimate D2E/DX2                !
 ! D30   D(8,3,6,17)            53.0151         estimate D2E/DX2                !
 ! D31   D(2,3,8,9)             63.8688         estimate D2E/DX2                !
 ! D32   D(2,3,8,19)           -56.9968         estimate D2E/DX2                !
 ! D33   D(2,3,8,20)          -176.3752         estimate D2E/DX2                !
 ! D34   D(4,3,8,9)            -57.4046         estimate D2E/DX2                !
 ! D35   D(4,3,8,19)          -178.2702         estimate D2E/DX2                !
 ! D36   D(4,3,8,20)            62.3514         estimate D2E/DX2                !
 ! D37   D(6,3,8,9)           -176.5541         estimate D2E/DX2                !
 ! D38   D(6,3,8,19)            62.5803         estimate D2E/DX2                !
 ! D39   D(6,3,8,20)           -56.7981         estimate D2E/DX2                !
 ! D40   D(3,4,5,15)           -90.3789         estimate D2E/DX2                !
 ! D41   D(13,4,5,15)           33.51           estimate D2E/DX2                !
 ! D42   D(14,4,5,15)          148.7734         estimate D2E/DX2                !
 ! D43   D(3,6,7,18)            54.4655         estimate D2E/DX2                !
 ! D44   D(16,6,7,18)          176.0362         estimate D2E/DX2                !
 ! D45   D(17,6,7,18)          -69.1215         estimate D2E/DX2                !
 ! D46   D(3,8,9,21)           -42.5219         estimate D2E/DX2                !
 ! D47   D(19,8,9,21)           80.8251         estimate D2E/DX2                !
 ! D48   D(20,8,9,21)         -164.2791         estimate D2E/DX2                !
 --------------------------------------------------------------------------------
 Number of steps in this run=    112 maximum allowed number of steps=    126.
 GradGradGradGradGradGradGradGradGradGradGradGradGradGradGradGradGradGrad

                    Distance matrix (angstroms):
                    1          2          3          4          5
     1  O    0.000000
     2  C    1.427607   0.000000
     3  C    2.445442   1.543263   0.000000
     4  C    2.949141   2.541843   1.545312   0.000000
     5  O    3.496118   2.956958   2.455644   1.424161   0.000000
     6  C    3.780850   2.507581   1.545080   2.520788   2.931547
     7  O    4.199027   2.857143   2.472650   3.801398   4.203084
     8  C    2.933832   2.536504   1.547276   2.504052   3.783080
     9  O    2.686375   3.013550   2.474868   2.907554   4.239832
    10  H    0.974908   1.942015   3.272834   3.808354   4.121487
    11  H    2.039508   1.096179   2.192564   3.503443   3.965329
    12  H    2.050253   1.094320   2.195118   2.805931   2.654704
    13  H    2.671886   2.832267   2.207921   1.097110   2.051043
    14  H    3.946324   3.489008   2.177006   1.089134   2.034363
    15  H    3.124510   2.875490   2.852745   1.947732   0.974162
    16  H    4.124379   2.814230   2.189760   2.719622   2.554732
    17  H    4.618644   3.475744   2.195239   2.820192   3.369810
    18  H    4.215680   3.054720   2.616474   4.067183   4.741661
    19  H    3.269054   2.776729   2.200058   3.476951   4.631463
    20  H    3.953029   3.493367   2.187677   2.762725   4.081617
    21  H    1.832119   2.515223   2.502441   2.969082   4.111064
                    6          7          8          9         10
     6  C    0.000000
     7  O    1.426426   0.000000
     8  C    2.528882   3.052320   0.000000
     9  O    3.809483   4.371491   1.423576   0.000000
    10  H    4.445684   4.679767   3.819492   3.566969   0.000000
    11  H    2.764632   2.534199   2.789206   3.388160   2.262227
    12  H    2.761232   3.168954   3.500914   4.009412   2.238843
    13  H    3.496586   4.655916   2.761026   2.586163   3.537869
    14  H    2.750468   4.115313   2.737144   3.241122   4.846766
    15  H    3.574695   4.694942   4.163589   4.386980   3.597828
    16  H    1.095389   2.026872   3.487720   4.639294   4.673777
    17  H    1.096109   2.055451   2.730070   4.059329   5.377472
    18  H    1.975011   0.970876   2.667223   3.970409   4.737733
    19  H    2.810885   2.786003   1.093798   2.036478   3.992069
    20  H    2.748246   3.409893   1.096332   2.035376   4.871182
    21  H    3.968384   4.461676   1.949234   0.981629   2.651350
                   11         12         13         14         15
    11  H    0.000000
    12  H    1.772699   0.000000
    13  H    3.835436   3.195186   0.000000
    14  H    4.339434   3.798919   1.758627   0.000000
    15  H    3.933016   2.426018   2.133092   2.783084   0.000000
    16  H    3.203597   2.624039   3.754997   3.021043   3.198728
    17  H    3.747580   3.799383   3.821085   2.605904   4.179345
    18  H    2.570542   3.643676   4.795429   4.329420   5.211880
    19  H    2.581054   3.794207   3.771525   3.757588   4.969546
    20  H    3.781290   4.349171   3.123789   2.543354   4.645425
    21  H    2.924299   3.482145   2.518075   3.592870   4.050143
                   16         17         18         19         20
    16  H    0.000000
    17  H    1.762951   0.000000
    18  H    2.844847   2.374187   0.000000
    19  H    3.843835   3.086688   2.115435   0.000000
    20  H    3.726709   2.492649   3.016437   1.764002   0.000000
    21  H    4.669902   4.452644   4.154914   2.406614   2.827434
                   21
    21  H    0.000000
 Framework group  C1[X(C5H12O4)]
 Deg. of freedom    57
                         Standard orientation:                         
 ---------------------------------------------------------------------
 Center     Atomic      Atomic             Coordinates (Angstroms)
 Number     Number       Type             X           Y           Z
 ---------------------------------------------------------------------
      1          8           0       -1.647500   -0.125971    1.395060
      2          6           0       -0.226194   -0.036776    1.295080
      3          6           0        0.216274    0.003410   -0.182847
      4          6           0       -0.390446    1.228451   -0.903371
      5          8           0        0.013385    2.448340   -0.289346
      6          6           0        1.757942    0.093072   -0.232762
      7          8           0        2.390763   -0.913193    0.555692
      8          6           0       -0.256852   -1.271979   -0.920137
      9          8           0       -1.675107   -1.378744   -0.981157
     10          1           0       -1.857049   -0.108552    2.347022
     11          1           0        0.188503   -0.911381    1.809570
     12          1           0        0.096112    0.858723    1.835208
     13          1           0       -1.487069    1.199828   -0.919134
     14          1           0       -0.055901    1.260364   -1.939360
     15          1           0       -0.650336    2.659940    0.391603
     16          1           0        2.106514    1.054294    0.160210
     17          1           0        2.128418    0.011565   -1.261139
     18          1           0        2.065107   -1.787430    0.286882
     19          1           0        0.116550   -2.179611   -0.437262
     20          1           0        0.110323   -1.277515   -1.953140
     21          1           0       -2.017850   -1.120751   -0.098230
 ---------------------------------------------------------------------
 Rotational constants (GHZ):           1.5906944           1.3992181           1.1338205
   150 basis functions,   273 primitive gaussians,   159 cartesian basis functions
    37 alpha electrons       37 beta electrons
       nuclear repulsion energy       527.7116466756 Hartrees.
 NAtoms=   21 NActive=   21 NUniq=   21 SFac= 1.00D+00 NAtFMM=   60 NAOKFM=F Big=F
 Nuclear repulsion after empirical dispersion term =      527.6966020116 Hartrees.
   1 Symmetry operations used in ECPInt.
 ECPInt:  NShTT=    3081 NPrTT=   12399 LenC2=    3048 LenP2D=    9692.
 LDataN:  DoStor=T MaxTD1= 4 Len=   56
 ExpMin= 1.22D-01 ExpMax= 2.27D+03 ExpMxC= 3.41D+02 IAcc=3 IRadAn=         5 AccDes= 0.00D+00
 Harris functional with IExCor= 4639 and IRadAn=       5 diagonalized for initial guess.
 HarFok:  IExCor= 4639 AccDes= 0.00D+00 IRadAn=         5 IDoV= 1 UseB2=F ITyADJ=14
 ICtDFT=  3500011 ScaDFX=  1.000000  1.000000  1.000000  1.000000
 FoFCou: FMM=F IPFlag=           0 FMFlag=      100000 FMFlg1=           0
         NFxFlg=           0 DoJE=T BraDBF=F KetDBF=T FulRan=T
         wScrn=  0.000000 ICntrl=       500 IOpCl=  0 I1Cent=   200000004 NGrid=           0
         NMat0=    1 NMatS0=      1 NMatT0=    0 NMatD0=    1 NMtDS0=    0 NMtDT0=    0
 Petite list used in FoFCou.
     Minimum is close to point  3 DX= -4.90D-03 DF= -4.80D-06 DXR=  8.23D-03 DFR=  6.71D-05 which will be used.
     Accept linear search using points  2 and  3.
     Accept linear search using points  1 and  2.
     Accept linear search using points  2 and  3.
     Accept linear search using points  1 and  2.
     Minimum is close to point  2 DX= -6.52D-05 DF=  0.00D+00 DXR=  6.52D-05 DFR=  0.00D+00 which will be used.
 SCF Done:  E(RwB97XD) =  -498.049570240     a.u. after    7 cycles
            Convg  =    0.8409D-06                    26 Fock formations.
              S**2 =  0.0000                  -V/T =  2.0082

 **********************************************************************

            Population analysis using the SCF Density.

 **********************************************************************

 Orbital symmetries:
       Occupied  (A) (A) (A) (A) (A) (A) (A) (A) (A) (A) (A) (A)
                 (A) (A) (A) (A) (A) (A) (A) (A) (A) (A) (A) (A)
                 (A) (A) (A) (A) (A) (A) (A) (A) (A) (A) (A) (A)
                 (A)
       Virtual   (A) (A) (A) (A) (A) (A) (A) (A) (A) (A) (A) (A)
                 (A) (A) (A) (A) (A) (A) (A) (A) (A) (A) (A) (A)
                 (A) (A) (A) (A) (A) (A) (A) (A) (A) (A) (A) (A)
                 (A) (A) (A) (A) (A) (A) (A) (A) (A) (A) (A) (A)
                 (A) (A) (A) (A) (A) (A) (A) (A) (A) (A) (A) (A)
                 (A) (A) (A) (A) (A) (A) (A) (A) (A) (A) (A) (A)
                 (A) (A) (A) (A) (A) (A) (A) (A) (A) (A) (A) (A)
                 (A) (A) (A) (A) (A) (A) (A) (A) (A) (A) (A) (A)
                 (A) (A) (A) (A) (A) (A) (A) (A) (A) (A) (A) (A)
                 (A) (A) (A) (A) (A)
 The electronic state is 1-A.
 Alpha  occ. eigenvalues --  -19.28289 -19.25358 -19.25263 -19.22935 -10.35240
 Alpha  occ. eigenvalues --  -10.33958 -10.33926 -10.33732 -10.31584  -1.14134
 Alpha  occ. eigenvalues --   -1.11241  -1.10842  -1.08907  -0.90175  -0.78220
 Alpha  occ. eigenvalues --   -0.76558  -0.76245  -0.66370  -0.63574  -0.61119
 Alpha  occ. eigenvalues --   -0.59569  -0.58760  -0.55339  -0.53506  -0.52146
 Alpha  occ. eigenvalues --   -0.51900  -0.50322  -0.49109  -0.47123  -0.45088
 Alpha  occ. eigenvalues --   -0.43260  -0.40914  -0.39610  -0.37657  -0.36309
 Alpha  occ. eigenvalues --   -0.35358  -0.33781
 Alpha virt. eigenvalues --    0.10303   0.12358   0.14201   0.16154   0.17786
 Alpha virt. eigenvalues --    0.19234   0.20156   0.22238   0.22859   0.24346
 Alpha virt. eigenvalues --    0.24518   0.24860   0.26598   0.28707   0.29709
 Alpha virt. eigenvalues --    0.30606   0.32079   0.32952   0.35173   0.36052
 Alpha virt. eigenvalues --    0.52140   0.53791   0.56735   0.57144   0.58140
 Alpha virt. eigenvalues --    0.59830   0.61469   0.63752   0.66057   0.66951
 Alpha virt. eigenvalues --    0.68098   0.70357   0.72532   0.73118   0.74584
 Alpha virt. eigenvalues --    0.75879   0.76306   0.77488   0.78524   0.79840
 Alpha virt. eigenvalues --    0.80591   0.80960   0.81685   0.82272   0.83810
 Alpha virt. eigenvalues --    0.84350   0.88238   0.95829   1.03303   1.05873
 Alpha virt. eigenvalues --    1.10626   1.11639   1.12886   1.14736   1.16772
 Alpha virt. eigenvalues --    1.18630   1.20825   1.23749   1.25422   1.27516
 Alpha virt. eigenvalues --    1.31123   1.32629   1.40997   1.47649   1.52972
 Alpha virt. eigenvalues --    1.56179   1.61043   1.64373   1.68701   1.69917
 Alpha virt. eigenvalues --    1.74647   1.81407   1.83936   1.87914   1.89467
 Alpha virt. eigenvalues --    1.90202   2.03257   2.04903   2.05611   2.06732
 Alpha virt. eigenvalues --    2.07503   2.14850   2.16377   2.19197   2.20487
 Alpha virt. eigenvalues --    2.24154   2.25969   2.27257   2.49616   2.52534
 Alpha virt. eigenvalues --    2.65434   2.66779   2.68540   2.71100   2.73058
 Alpha virt. eigenvalues --    2.73778   2.75909   2.90477   2.91434   2.93304
 Alpha virt. eigenvalues --    2.94917   2.95742   3.00065   3.04040   3.07700
 Alpha virt. eigenvalues --    3.08993   3.09424   3.12213   3.14811   3.43640
 Alpha virt. eigenvalues --    3.43774   3.47661   3.49840
          Condensed to atoms (all electrons):
 Mulliken charges:
               1
     1  O   -0.516606
     2  C    0.045127
     3  C   -0.382612
     4  C    0.070239
     5  O   -0.500301
     6  C    0.089461
     7  O   -0.502559
     8  C    0.087243
     9  O   -0.522255
    10  H    0.334482
    11  H    0.101909
    12  H    0.100539
    13  H    0.118846
    14  H    0.104866
    15  H    0.323208
    16  H    0.126917
    17  H    0.097580
    18  H    0.317399
    19  H    0.071153
    20  H    0.104122
    21  H    0.331243
 Sum of Mulliken charges =   0.00000
 Mulliken charges with hydrogens summed into heavy atoms:
               1
     1  O   -0.182125
     2  C    0.247575
     3  C   -0.382612
     4  C    0.293951
     5  O   -0.177093
     6  C    0.313958
     7  O   -0.185160
     8  C    0.262517
     9  O   -0.191012
 Electronic spatial extent (au):  <R**2>=           1252.4157
 Charge=              0.0000 electrons
 Dipole moment (field-independent basis, Debye):
    X=             -0.8670    Y=             -0.1332    Z=              2.5397  Tot=              2.6869
   1 Symmetry operations used in ECPInt.
 ECPInt:  NShTT=    3081 NPrTT=   12399 LenC2=    3048 LenP2D=    9692.
 LDataN:  DoStor=T MaxTD1= 5 Len=  102
 Calling FoFJK, ICntrl=      2127 FMM=F ISym2X=0 I1Cent= 0 IOpClX= 0 NMat=1 NMatS=1 NMatT=0.

 GradGradGradGradGradGradGradGradGradGradGradGradGradGradGradGradGradGrad
 FormGI is forming the generalized inverse of G from B-inverse, IUseBI=4.
 Internal  Forces:  Max     0.011943049 RMS     0.004329793
 Step number   1 out of a maximum of  112
 All quantities printed in internal units (Hartrees-Bohrs-Radians)
 Mixed Optimization -- RFO/linear search
 Second derivative matrix not updated -- first step.
 ITU=  0
     Eigenvalues ---    0.00230   0.00230   0.00230   0.00230   0.01327
     Eigenvalues ---    0.01342   0.01372   0.01380   0.04597   0.04669
     Eigenvalues ---    0.04670   0.04718   0.04770   0.04885   0.04898
     Eigenvalues ---    0.05485   0.05500   0.05511   0.05528   0.11639
     Eigenvalues ---    0.11716   0.11820   0.11853   0.13843   0.13919
     Eigenvalues ---    0.13987   0.14000   0.14170   0.14596   0.16000
     Eigenvalues ---    0.16000   0.16000   0.16000   0.21984   0.22002
     Eigenvalues ---    0.22005   0.22012   0.27884   0.28053   0.28074
     Eigenvalues ---    0.28232   0.34004   0.34091   0.34108   0.34116
     Eigenvalues ---    0.34197   0.34318   0.34377   0.34913   0.41335
     Eigenvalues ---    0.41507   0.41840   0.41926   0.51070   0.52387
     Eigenvalues ---    0.52536   0.53198
 Linear search not attempted -- first point.
 Iteration  1 RMS(Cart)=  0.05484533 RMS(Int)=  0.00212304
 Iteration  2 RMS(Cart)=  0.00231042 RMS(Int)=  0.00057638
 Iteration  3 RMS(Cart)=  0.00000472 RMS(Int)=  0.00057637
 Iteration  4 RMS(Cart)=  0.00000000 RMS(Int)=  0.00057637
 Variable       Old X    -DE/DX   Delta X   Delta X   Delta X     New X
                                 (Linear)    (Quad)   (Total)
    R1        2.69779   0.00299   0.00000   0.00705   0.00705   2.70484
    R2        1.84231  -0.00873   0.00000  -0.01634  -0.01634   1.82597
    R3        2.91634  -0.00937   0.00000  -0.03203  -0.03203   2.88431
    R4        2.07148   0.00536   0.00000   0.01525   0.01525   2.08673
    R5        2.06797   0.00785   0.00000   0.02221   0.02221   2.09017
    R6        2.92022  -0.00516   0.00000  -0.01773  -0.01773   2.90248
    R7        2.91978  -0.00514   0.00000  -0.01766  -0.01766   2.90212
    R8        2.92393  -0.00242   0.00000  -0.00837  -0.00837   2.91555
    R9        2.69127  -0.00428   0.00000  -0.00997  -0.00997   2.68130
   R10        2.07324   0.00302   0.00000   0.00862   0.00862   2.08185
   R11        2.05816   0.00960   0.00000   0.02671   0.02671   2.08488
   R12        1.84090  -0.00884   0.00000  -0.01650  -0.01650   1.82440
   R13        2.69555  -0.00862   0.00000  -0.02027  -0.02027   2.67529
   R14        2.06999   0.00281   0.00000   0.00797   0.00797   2.07796
   R15        2.07135   0.00831   0.00000   0.02365   0.02365   2.09500
   R16        1.83469  -0.00502   0.00000  -0.00925  -0.00925   1.82544
   R17        2.69017  -0.01175   0.00000  -0.02736  -0.02736   2.66281
   R18        2.06698   0.01194   0.00000   0.03373   0.03373   2.10071
   R19        2.07177   0.00501   0.00000   0.01426   0.01426   2.08603
   R20        1.85501  -0.00786   0.00000  -0.01508  -0.01508   1.83993
    A1        1.85591   0.00920   0.00000   0.05403   0.05403   1.90993
    A2        1.93279  -0.00650   0.00000  -0.02242  -0.02213   1.91066
    A3        1.86912   0.00878   0.00000   0.07760   0.07726   1.94639
    A4        1.88577   0.00578   0.00000   0.03767   0.03664   1.92241
    A5        1.94098  -0.00436   0.00000  -0.03644  -0.03678   1.90420
    A6        1.94650  -0.00386   0.00000  -0.04585  -0.04643   1.90007
    A7        1.88581   0.00110   0.00000  -0.00333  -0.00649   1.87931
    A8        1.93328  -0.00047   0.00000  -0.00662  -0.00691   1.92637
    A9        1.89497  -0.00128   0.00000  -0.01538  -0.01553   1.87944
   A10        1.92538   0.00164   0.00000   0.02011   0.02016   1.94554
   A11        1.90783  -0.00008   0.00000  -0.01012  -0.01026   1.89757
   A12        1.88726   0.00000   0.00000   0.00725   0.00727   1.89453
   A13        1.91510   0.00020   0.00000   0.00474   0.00485   1.91996
   A14        1.94624   0.00360   0.00000   0.01997   0.02013   1.96637
   A15        1.95893  -0.00731   0.00000  -0.04513  -0.04595   1.91298
   A16        1.92425  -0.00205   0.00000  -0.02537  -0.02586   1.89839
   A17        1.88807   0.00524   0.00000   0.05816   0.05854   1.94661
   A18        1.87330  -0.00140   0.00000  -0.00800  -0.00781   1.86550
   A19        1.86934   0.00220   0.00000   0.00234   0.00102   1.87036
   A20        1.86946   0.00394   0.00000   0.02313   0.02313   1.89258
   A21        1.96478   0.00629   0.00000   0.03085   0.03096   1.99573
   A22        1.93569  -0.00373   0.00000  -0.03470  -0.03508   1.90061
   A23        1.94254  -0.00641   0.00000  -0.03597  -0.03693   1.90561
   A24        1.85414  -0.00186   0.00000  -0.01070  -0.01029   1.84385
   A25        1.89251   0.00311   0.00000   0.04553   0.04576   1.93826
   A26        1.86950   0.00279   0.00000   0.00660   0.00544   1.87494
   A27        1.91068  -0.00265   0.00000  -0.01554  -0.01554   1.89514
   A28        1.96804   0.00600   0.00000   0.03109   0.03095   1.99900
   A29        1.94898  -0.00619   0.00000  -0.03101  -0.03237   1.91661
   A30        1.92915  -0.00290   0.00000  -0.03325  -0.03362   1.89553
   A31        1.87213   0.00412   0.00000   0.05881   0.05885   1.93098
   A32        1.86805  -0.00283   0.00000  -0.02214  -0.02169   1.84636
   A33        1.87281   0.00194   0.00000  -0.00240  -0.00336   1.86945
   A34        1.86459   0.00087   0.00000   0.00509   0.00509   1.86968
    D1       -3.10039  -0.00037   0.00000  -0.02347  -0.02334  -3.12373
    D2        1.06376   0.00326   0.00000  -0.01468  -0.01326   1.05051
    D3       -0.96386  -0.00544   0.00000  -0.06964  -0.07119  -1.03505
    D4        1.05106  -0.00115   0.00000  -0.05211  -0.05195   0.99912
    D5       -3.13711  -0.00235   0.00000  -0.07830  -0.07803   3.06805
    D6       -1.03794  -0.00191   0.00000  -0.06992  -0.06975  -1.10769
    D7        3.12718   0.00278   0.00000   0.00689   0.00631   3.13349
    D8       -1.06099   0.00158   0.00000  -0.01930  -0.01977  -1.08076
    D9        1.03817   0.00202   0.00000  -0.01092  -0.01149   1.02668
   D10       -1.04965  -0.00147   0.00000  -0.05388  -0.05359  -1.10323
   D11        1.04537  -0.00267   0.00000  -0.08007  -0.07967   0.96570
   D12       -3.13865  -0.00223   0.00000  -0.07170  -0.07139   3.07314
   D13        1.04138  -0.00002   0.00000  -0.03026  -0.03039   1.01100
   D14       -1.08028  -0.00419   0.00000  -0.08777  -0.08719  -1.16747
   D15        3.12053  -0.00080   0.00000  -0.04412  -0.04451   3.07602
   D16       -1.04593   0.00190   0.00000  -0.00074  -0.00089  -1.04683
   D17        3.11559  -0.00226   0.00000  -0.05825  -0.05770   3.05789
   D18        1.03321   0.00112   0.00000  -0.01460  -0.01501   1.01820
   D19       -3.13008   0.00171   0.00000  -0.00491  -0.00507  -3.13516
   D20        1.03144  -0.00245   0.00000  -0.06242  -0.06187   0.96956
   D21       -1.05094   0.00093   0.00000  -0.01876  -0.01919  -1.07013
   D22        0.90189  -0.00044   0.00000   0.00378   0.00381   0.90571
   D23       -1.17287   0.00028   0.00000   0.02063   0.02103  -1.15184
   D24        3.03082   0.00343   0.00000   0.05877   0.05821   3.08903
   D25        3.01268  -0.00185   0.00000  -0.01976  -0.01964   2.99304
   D26        0.93792  -0.00112   0.00000  -0.00291  -0.00243   0.93549
   D27       -1.14158   0.00202   0.00000   0.03523   0.03476  -1.10682
   D28       -1.20364  -0.00178   0.00000  -0.01417  -0.01409  -1.21773
   D29        3.00479  -0.00105   0.00000   0.00268   0.00313   3.00791
   D30        0.92529   0.00209   0.00000   0.04082   0.04031   0.96560
   D31        1.11472   0.00291   0.00000   0.06924   0.06917   1.18389
   D32       -0.99478  -0.00223   0.00000  -0.00678  -0.00627  -1.00105
   D33       -3.07833   0.00130   0.00000   0.03868   0.03827  -3.04006
   D34       -1.00190   0.00249   0.00000   0.06056   0.06043  -0.94146
   D35       -3.11140  -0.00265   0.00000  -0.01546  -0.01500  -3.12640
   D36        1.08824   0.00088   0.00000   0.03000   0.02953   1.11777
   D37       -3.08145   0.00248   0.00000   0.06575   0.06571  -3.01574
   D38        1.09223  -0.00266   0.00000  -0.01026  -0.00973   1.08250
   D39       -0.99131   0.00087   0.00000   0.03519   0.03481  -0.95651
   D40       -1.57741   0.00080   0.00000  -0.00074  -0.00126  -1.57867
   D41        0.58486  -0.00240   0.00000  -0.00405  -0.00357   0.58129
   D42        2.59659   0.00206   0.00000   0.02368   0.02372   2.62031
   D43        0.95060   0.00127   0.00000   0.06075   0.06134   1.01195
   D44        3.07241  -0.00082   0.00000   0.02912   0.02918   3.10159
   D45       -1.20640   0.00295   0.00000   0.05301   0.05236  -1.15404
   D46       -0.74215  -0.00061   0.00000  -0.03400  -0.03492  -0.77706
   D47        1.41066  -0.00163   0.00000  -0.01146  -0.01035   1.40031
   D48       -2.86721   0.00123   0.00000   0.00339   0.00320  -2.86401
         Item               Value     Threshold  Converged?
 Maximum Force            0.011943     0.000015     NO 
 RMS     Force            0.004330     0.000010     NO 
 Maximum Displacement     0.198838     0.000060     NO 
 RMS     Displacement     0.055322     0.000040     NO 
 GradGradGradGradGradGradGradGradGradGradGradGradGradGradGradGradGradGrad

                    Distance matrix (angstroms):
                    1          2          3          4          5
     1  O    0.000000
     2  C    1.431340   0.000000
     3  C    2.415560   1.526311   0.000000
     4  C    2.869495   2.514151   1.535929   0.000000
     5  O    3.390306   2.933448   2.460045   1.418883   0.000000
     6  C    3.741786   2.472279   1.535734   2.496362   2.925409
     7  O    4.221174   2.852234   2.480993   3.783548   4.188882
     8  C    2.957538   2.536514   1.542845   2.499422   3.782422
     9  O    2.802884   3.082961   2.484227   2.900433   4.241695
    10  H    0.966262   1.975500   3.261596   3.745914   4.044694
    11  H    2.104203   1.104249   2.156884   3.469098   3.946991
    12  H    2.088697   1.106072   2.155181   2.767697   2.613261
    13  H    2.586351   2.810232   2.169860   1.101670   2.091490
    14  H    3.892500   3.462482   2.160272   1.103270   2.034648
    15  H    3.028055   2.876253   2.869176   1.952367   0.965429
    16  H    4.023996   2.741254   2.159037   2.662675   2.510300
    17  H    4.568832   3.440779   2.169429   2.752407   3.319414
    18  H    4.309814   3.097230   2.644124   4.069084   4.744313
    19  H    3.324036   2.766008   2.186058   3.472639   4.625863
    20  H    3.971160   3.476987   2.164648   2.750103   4.063301
    21  H    1.995473   2.633069   2.536217   2.969327   4.133043
                    6          7          8          9         10
     6  C    0.000000
     7  O    1.415701   0.000000
     8  C    2.521910   3.078939   0.000000
     9  O    3.799510   4.412686   1.409100   0.000000
    10  H    4.438471   4.735452   3.831967   3.652773   0.000000
    11  H    2.708272   2.507085   2.759260   3.442943   2.368806
    12  H    2.649295   3.069757   3.485902   4.090270   2.344221
    13  H    3.457428   4.625844   2.691068   2.511806   3.464503
    14  H    2.700834   4.068288   2.726984   3.213788   4.803731
    15  H    3.572342   4.692267   4.176413   4.422046   3.526618
    16  H    1.099607   2.013191   3.468211   4.614153   4.614002
    17  H    1.108624   2.088286   2.713908   4.005526   5.358517
    18  H    1.951654   0.965979   2.718283   4.044062   4.858324
    19  H    2.781807   2.787384   1.111646   2.079777   4.033182
    20  H    2.700945   3.388850   1.103879   2.012601   4.881342
    21  H    3.995011   4.545894   1.934298   0.973649   2.769034
                   11         12         13         14         15
    11  H    0.000000
    12  H    1.784516   0.000000
    13  H    3.798822   3.221559   0.000000
    14  H    4.293763   3.743771   1.774325   0.000000
    15  H    3.944859   2.441641   2.202480   2.794804   0.000000
    16  H    3.132759   2.452905   3.703627   2.953034   3.148980
    17  H    3.705579   3.687403   3.730722   2.489578   4.135063
    18  H    2.588562   3.601944   4.780014   4.291235   5.237366
    19  H    2.525151   3.758859   3.717456   3.747265   4.979514
    20  H    3.732347   4.297184   3.060502   2.513720   4.643151
    21  H    3.037582   3.633982   2.442758   3.576669   4.106279
                   16         17         18         19         20
    16  H    0.000000
    17  H    1.779979   0.000000
    18  H    2.824488   2.375703   0.000000
    19  H    3.808249   3.077430   2.148764   0.000000
    20  H    3.676489   2.421348   3.004289   1.782256   0.000000
    21  H    4.679321   4.433853   4.273998   2.444914   2.807105
                   21
    21  H    0.000000
 Framework group  C1[X(C5H12O4)]
 Deg. of freedom    57
                         Standard orientation:                         
 ---------------------------------------------------------------------
 Center     Atomic      Atomic             Coordinates (Angstroms)
 Number     Number       Type             X           Y           Z
 ---------------------------------------------------------------------
      1          8           0       -1.596856   -0.004679    1.443154
      2          6           0       -0.173148    0.051434    1.306620
      3          6           0        0.199611   -0.024045   -0.171547
      4          6           0       -0.479234    1.110804   -0.952805
      5          8           0       -0.139492    2.395821   -0.456284
      6          6           0        1.722156    0.146266   -0.277992
      7          8           0        2.466410   -0.724284    0.554137
      8          6           0       -0.225614   -1.370586   -0.793144
      9          8           0       -1.619054   -1.555571   -0.891455
     10          1           0       -1.832905    0.059365    2.377949
     11          1           0        0.318480   -0.777223    1.846061
     12          1           0        0.212551    1.000011    1.724751
     13          1           0       -1.569796    0.954858   -0.958464
     14          1           0       -0.139413    1.072428   -2.001735
     15          1           0       -0.784378    2.642766    0.218397
     16          1           0        1.989962    1.163547    0.042249
     17          1           0        2.027228    0.040964   -1.338600
     18          1           0        2.234680   -1.635363    0.331985
     19          1           0        0.242320   -2.208831   -0.232662
     20          1           0        0.157329   -1.417621   -1.827403
     21          1           0       -2.006753   -1.268443   -0.045737
 ---------------------------------------------------------------------
 Rotational constants (GHZ):           1.5967275           1.3988647           1.1379441
   150 basis functions,   273 primitive gaussians,   159 cartesian basis functions
    37 alpha electrons       37 beta electrons
       nuclear repulsion energy       528.7326249102 Hartrees.
 NAtoms=   21 NActive=   21 NUniq=   21 SFac= 1.00D+00 NAtFMM=   60 NAOKFM=F Big=F
 Nuclear repulsion after empirical dispersion term =      528.7174335142 Hartrees.
   1 Symmetry operations used in ECPInt.
 ECPInt:  NShTT=    3081 NPrTT=   12399 LenC2=    3050 LenP2D=    9705.
 LDataN:  DoStor=T MaxTD1= 4 Len=   56
 Initial guess from the checkpoint file:  "/scratch/user/peterchao1/peterchao1/6097791_1659647563000000718699040/Gau-209705.chk"
 B after Tr=     0.000000    0.000000    0.000000
         Rot=    0.998779    0.040221   -0.012365   -0.025890 Ang=   5.66 deg.
 ExpMin= 1.22D-01 ExpMax= 2.27D+03 ExpMxC= 3.41D+02 IAcc=3 IRadAn=         5 AccDes= 0.00D+00
 Harris functional with IExCor= 4639 and IRadAn=       5 diagonalized for initial guess.
 HarFok:  IExCor= 4639 AccDes= 0.00D+00 IRadAn=         5 IDoV= 1 UseB2=F ITyADJ=14
 ICtDFT=  3500011 ScaDFX=  1.000000  1.000000  1.000000  1.000000
 FoFCou: FMM=F IPFlag=           0 FMFlag=      100000 FMFlg1=           0
         NFxFlg=           0 DoJE=T BraDBF=F KetDBF=T FulRan=T
         wScrn=  0.000000 ICntrl=       500 IOpCl=  0 I1Cent=   200000004 NGrid=           0
         NMat0=    1 NMatS0=      1 NMatT0=    0 NMatD0=    1 NMtDS0=    0 NMtDT0=    0
 Petite list used in FoFCou.
     Accept linear search using points  3 and  4.
     Minimum is close to point  4 DX= -7.22D-02 DF= -5.48D-06 DXR=  6.40D-02 DFR=  1.06D-03 which will be used.
     Minimum is close to point  2 DX=  3.29D-03 DF= -4.94D-09 DXR=  3.28D-03 DFR=  1.07D-05 which will be used.
     Accept linear search using points  1 and  2.
     Accept linear search using points  1 and  2.
     Minimum is close to point  2 DX=  2.83D-05 DF= -1.14D-13 DXR=  2.83D-05 DFR=  1.98D-09 which will be used.
 SCF Done:  E(RwB97XD) =  -498.054441734     a.u. after    9 cycles
            Convg  =    0.6120D-09                    38 Fock formations.
              S**2 =  0.0000                  -V/T =  2.0082
   1 Symmetry operations used in ECPInt.
 ECPInt:  NShTT=    3081 NPrTT=   12399 LenC2=    3050 LenP2D=    9705.
 LDataN:  DoStor=T MaxTD1= 5 Len=  102
 Calling FoFJK, ICntrl=      2127 FMM=F ISym2X=0 I1Cent= 0 IOpClX= 0 NMat=1 NMatS=1 NMatT=0.

 GradGradGradGradGradGradGradGradGradGradGradGradGradGradGradGradGradGrad
 Using GEDIIS/GDIIS optimizer.
 FormGI is forming the generalized inverse of G from B-inverse, IUseBI=4.
 Internal  Forces:  Max     0.007612950 RMS     0.001724870
 Step number   2 out of a maximum of  112
 All quantities printed in internal units (Hartrees-Bohrs-Radians)
 Mixed Optimization -- RFO/linear search
 Trust test= 8.41D-01 RLast= 3.59D-01 DXMaxT set to 5.05D-01
 ITU=  1  0
 Use linear search instead of GDIIS.
     Eigenvalues ---    0.00226   0.00230   0.00230   0.00252   0.01301
     Eigenvalues ---    0.01333   0.01372   0.01381   0.04434   0.04493
     Eigenvalues ---    0.04622   0.04729   0.04878   0.05010   0.05361
     Eigenvalues ---    0.05747   0.05787   0.05834   0.06129   0.11078
     Eigenvalues ---    0.11429   0.11750   0.11860   0.13731   0.13757
     Eigenvalues ---    0.14054   0.14105   0.14353   0.14909   0.15926
     Eigenvalues ---    0.16000   0.16000   0.16405   0.21112   0.22030
     Eigenvalues ---    0.22057   0.22992   0.27653   0.28063   0.28120
     Eigenvalues ---    0.28950   0.32649   0.34011   0.34097   0.34112
     Eigenvalues ---    0.34184   0.34229   0.34338   0.34810   0.40459
     Eigenvalues ---    0.41618   0.41783   0.43158   0.51006   0.52299
     Eigenvalues ---    0.52549   0.53258
 Quartic linear search produced a step of -0.04479.
 Iteration  1 RMS(Cart)=  0.07157072 RMS(Int)=  0.00219809
 Iteration  2 RMS(Cart)=  0.00286424 RMS(Int)=  0.00007211
 Iteration  3 RMS(Cart)=  0.00000510 RMS(Int)=  0.00007207
 Iteration  4 RMS(Cart)=  0.00000000 RMS(Int)=  0.00007207
 Variable       Old X    -DE/DX   Delta X   Delta X   Delta X     New X
                                 (Linear)    (Quad)   (Total)
    R1        2.70484  -0.00761  -0.00032  -0.01541  -0.01573   2.68911
    R2        1.82597  -0.00076   0.00073  -0.00593  -0.00520   1.82077
    R3        2.88431   0.00112   0.00143  -0.00518  -0.00374   2.88057
    R4        2.08673   0.00032  -0.00068   0.00513   0.00445   2.09118
    R5        2.09017   0.00050  -0.00099   0.00756   0.00656   2.09673
    R6        2.90248   0.00229   0.00079   0.00275   0.00354   2.90602
    R7        2.90212   0.00229   0.00079   0.00274   0.00353   2.90565
    R8        2.91555  -0.00262   0.00038  -0.01116  -0.01079   2.90477
    R9        2.68130  -0.00673   0.00045  -0.01796  -0.01751   2.66379
   R10        2.08185  -0.00007  -0.00039   0.00222   0.00183   2.08369
   R11        2.08488   0.00074  -0.00120   0.00945   0.00826   2.09313
   R12        1.82440  -0.00019   0.00074  -0.00494  -0.00420   1.82020
   R13        2.67529  -0.00403   0.00091  -0.01480  -0.01390   2.66139
   R14        2.07796   0.00040  -0.00036   0.00333   0.00297   2.08093
   R15        2.09500   0.00095  -0.00106   0.00923   0.00817   2.10316
   R16        1.82544   0.00040   0.00041  -0.00186  -0.00145   1.82399
   R17        2.66281  -0.00641   0.00123  -0.02205  -0.02083   2.64198
   R18        2.10071   0.00105  -0.00151   0.01229   0.01078   2.11149
   R19        2.08603   0.00073  -0.00064   0.00599   0.00535   2.09138
   R20        1.83993  -0.00071   0.00068  -0.00551  -0.00483   1.83510
    A1        1.90993  -0.00085  -0.00242   0.01003   0.00761   1.91754
    A2        1.91066  -0.00347   0.00099  -0.02256  -0.02162   1.88904
    A3        1.94639  -0.00076  -0.00346   0.00235  -0.00126   1.94512
    A4        1.92241   0.00168  -0.00164   0.02404   0.02248   1.94488
    A5        1.90420   0.00196   0.00165  -0.00369  -0.00213   1.90208
    A6        1.90007   0.00143   0.00208   0.00098   0.00318   1.90324
    A7        1.87931  -0.00071   0.00029  -0.00089  -0.00049   1.87883
    A8        1.92637   0.00057   0.00031  -0.00130  -0.00110   1.92528
    A9        1.87944   0.00180   0.00070   0.01399   0.01477   1.89421
   A10        1.94554  -0.00286  -0.00090  -0.02248  -0.02344   1.92209
   A11        1.89757  -0.00130   0.00046  -0.00158  -0.00114   1.89642
   A12        1.89453   0.00083  -0.00033   0.00058   0.00014   1.89467
   A13        1.91996   0.00099  -0.00022   0.01132   0.01119   1.93114
   A14        1.96637   0.00097  -0.00090   0.00959   0.00869   1.97505
   A15        1.91298  -0.00038   0.00206  -0.01701  -0.01493   1.89805
   A16        1.89839   0.00029   0.00116  -0.00169  -0.00055   1.89785
   A17        1.94661  -0.00071  -0.00262   0.00819   0.00558   1.95219
   A18        1.86550  -0.00020   0.00035   0.00088   0.00121   1.86671
   A19        1.87036   0.00003  -0.00005  -0.00007  -0.00010   1.87026
   A20        1.89258  -0.00016  -0.00104   0.00551   0.00447   1.89705
   A21        1.99573   0.00109  -0.00139   0.01428   0.01291   2.00865
   A22        1.90061  -0.00098   0.00157  -0.01470  -0.01319   1.88742
   A23        1.90561  -0.00022   0.00165  -0.01337  -0.01176   1.89385
   A24        1.84385   0.00062   0.00046   0.00624   0.00673   1.85058
   A25        1.93826  -0.00057  -0.00205   0.00904   0.00702   1.94528
   A26        1.87494   0.00000  -0.00024  -0.00230  -0.00266   1.87227
   A27        1.89514   0.00178   0.00070   0.00610   0.00679   1.90193
   A28        1.99900  -0.00438  -0.00139  -0.01138  -0.01291   1.98609
   A29        1.91661  -0.00004   0.00145  -0.02229  -0.02091   1.89570
   A30        1.89553   0.00146   0.00151   0.00716   0.00874   1.90427
   A31        1.93098   0.00104  -0.00264   0.00588   0.00288   1.93386
   A32        1.84636   0.00266   0.00097   0.02198   0.02294   1.86930
   A33        1.86945  -0.00040   0.00015   0.00135   0.00153   1.87099
   A34        1.86968  -0.00017  -0.00023   0.00044   0.00021   1.86989
    D1       -3.12373  -0.00098   0.00105  -0.05591  -0.05477   3.10468
    D2        1.05051  -0.00062   0.00059  -0.03769  -0.03716   1.01334
    D3       -1.03505  -0.00036   0.00319  -0.05397  -0.05082  -1.08587
    D4        0.99912   0.00102   0.00233   0.03587   0.03818   1.03730
    D5        3.06805   0.00085   0.00350   0.04157   0.04506   3.11311
    D6       -1.10769   0.00150   0.00312   0.05098   0.05399  -1.05371
    D7        3.13349  -0.00087  -0.00028   0.02215   0.02196  -3.12774
    D8       -1.08076  -0.00104   0.00089   0.02785   0.02884  -1.05193
    D9        1.02668  -0.00039   0.00051   0.03726   0.03777   1.06445
   D10       -1.10323   0.00019   0.00240   0.01956   0.02197  -1.08126
   D11        0.96570   0.00002   0.00357   0.02526   0.02885   0.99455
   D12        3.07314   0.00067   0.00320   0.03467   0.03778   3.11092
   D13        1.01100   0.00063   0.00136  -0.09272  -0.09134   0.91966
   D14       -1.16747   0.00114   0.00391  -0.09747  -0.09354  -1.26100
   D15        3.07602   0.00116   0.00199  -0.08687  -0.08484   2.99118
   D16       -1.04683  -0.00111   0.00004  -0.10801  -0.10797  -1.15480
   D17        3.05789  -0.00059   0.00258  -0.11276  -0.11017   2.94772
   D18        1.01820  -0.00058   0.00067  -0.10216  -0.10147   0.91672
   D19       -3.13516  -0.00203   0.00023  -0.12106  -0.12088   3.02715
   D20        0.96956  -0.00151   0.00277  -0.12581  -0.12307   0.84649
   D21       -1.07013  -0.00150   0.00086  -0.11521  -0.11438  -1.18451
   D22        0.90571  -0.00051  -0.00017   0.01852   0.01839   0.92410
   D23       -1.15184  -0.00129  -0.00094   0.01187   0.01103  -1.14081
   D24        3.08903  -0.00062  -0.00261   0.03045   0.02785   3.11688
   D25        2.99304   0.00047   0.00088   0.02407   0.02494   3.01798
   D26        0.93549  -0.00031   0.00011   0.01742   0.01759   0.95308
   D27       -1.10682   0.00036  -0.00156   0.03600   0.03440  -1.07242
   D28       -1.21773   0.00128   0.00063   0.03046   0.03102  -1.18670
   D29        3.00791   0.00049  -0.00014   0.02381   0.02367   3.03158
   D30        0.96560   0.00116  -0.00181   0.04239   0.04049   1.00608
   D31        1.18389  -0.00212  -0.00310  -0.09211  -0.09505   1.08885
   D32       -1.00105  -0.00015   0.00028  -0.07319  -0.07298  -1.07403
   D33       -3.04006  -0.00048  -0.00171  -0.06644  -0.06807  -3.10813
   D34       -0.94146  -0.00156  -0.00271  -0.07652  -0.07915  -1.02061
   D35       -3.12640   0.00042   0.00067  -0.05760  -0.05708   3.09970
   D36        1.11777   0.00009  -0.00132  -0.05086  -0.05217   1.06560
   D37       -3.01574  -0.00106  -0.00294  -0.08155  -0.08443  -3.10017
   D38        1.08250   0.00092   0.00044  -0.06264  -0.06236   1.02014
   D39       -0.95651   0.00059  -0.00156  -0.05589  -0.05745  -1.01396
   D40       -1.57867   0.00058   0.00006   0.01851   0.01858  -1.56008
   D41        0.58129   0.00026   0.00016   0.00955   0.00970   0.59099
   D42        2.62031  -0.00021  -0.00106   0.01441   0.01334   2.63365
   D43        1.01195   0.00113  -0.00275   0.07745   0.07468   1.08663
   D44        3.10159   0.00097  -0.00131   0.07174   0.07046  -3.11114
   D45       -1.15404   0.00104  -0.00235   0.07708   0.07473  -1.07931
   D46       -0.77706   0.00119   0.00156   0.01095   0.01256  -0.76450
   D47        1.40031  -0.00141   0.00046  -0.02305  -0.02272   1.37759
   D48       -2.86401   0.00010  -0.00014  -0.00638  -0.00643  -2.87044
         Item               Value     Threshold  Converged?
 Maximum Force            0.007613     0.000015     NO 
 RMS     Force            0.001725     0.000010     NO 
 Maximum Displacement     0.208161     0.000060     NO 
 RMS     Displacement     0.071367     0.000040     NO 
 GradGradGradGradGradGradGradGradGradGradGradGradGradGradGradGradGradGrad

                    Distance matrix (angstroms):
                    1          2          3          4          5
     1  O    0.000000
     2  C    1.423017   0.000000
     3  C    2.388730   1.524332   0.000000
     4  C    2.861988   2.513110   1.537802   0.000000
     5  O    3.324030   2.889449   2.461122   1.409616   0.000000
     6  C    3.732885   2.485471   1.537604   2.498380   2.992279
     7  O    4.230760   2.890374   2.486757   3.786496   4.248498
     8  C    2.867727   2.509778   1.537137   2.496429   3.770847
     9  O    2.615395   2.980299   2.459979   2.919386   4.196214
    10  H    0.963511   1.971096   3.240481   3.749095   3.996721
    11  H    2.097886   1.106602   2.155331   3.469849   3.912812
    12  H    2.100000   1.109544   2.158384   2.759503   2.562002
    13  H    2.623411   2.843699   2.161196   1.102641   2.088035
    14  H    3.902816   3.461020   2.164737   1.107638   2.030884
    15  H    2.948389   2.835227   2.863744   1.945536   0.963208
    16  H    4.022570   2.741489   2.152017   2.660847   2.590546
    17  H    4.543533   3.448884   2.165500   2.728492   3.380829
    18  H    4.369932   3.194785   2.688000   4.094420   4.814413
    19  H    3.270109   2.752021   2.169744   3.465685   4.610098
    20  H    3.876510   3.465437   2.168245   2.729384   4.074604
    21  H    1.789889   2.497866   2.503105   3.005897   4.069388
                    6          7          8          9         10
     6  C    0.000000
     7  O    1.408347   0.000000
     8  C    2.528587   3.079900   0.000000
     9  O    3.791067   4.379688   1.398077   0.000000
    10  H    4.444453   4.760300   3.730077   3.428139   0.000000
    11  H    2.708898   2.536880   2.745302   3.344968   2.353473
    12  H    2.683325   3.138593   3.470307   3.996836   2.379755
    13  H    3.446982   4.621222   2.620781   2.469208   3.512987
    14  H    2.655892   4.024345   2.783847   3.353381   4.818595
    15  H    3.647061   4.768859   4.123408   4.302599   3.471842
    16  H    1.101178   2.013095   3.467650   4.594336   4.637018
    17  H    1.112946   2.090164   2.734420   4.032316   5.348141
    18  H    1.949095   0.965212   2.756623   4.057539   4.928823
    19  H    2.744281   2.741187   1.117350   2.076693   3.959526
    20  H    2.744925   3.427956   1.106709   2.022248   4.779983
    21  H    3.956409   4.477084   1.922946   0.971091   2.514934
                   11         12         13         14         15
    11  H    0.000000
    12  H    1.788902   0.000000
    13  H    3.826236   3.265383   0.000000
    14  H    4.293285   3.715718   1.778559   0.000000
    15  H    3.912033   2.420406   2.204680   2.794866   0.000000
    16  H    3.115196   2.472814   3.714394   2.884358   3.258989
    17  H    3.716076   3.710723   3.670074   2.412514   4.192776
    18  H    2.699918   3.716067   4.790210   4.270416   5.320966
    19  H    2.517660   3.750968   3.675065   3.773041   4.936710
    20  H    3.741507   4.302452   2.925855   2.555531   4.604981
    21  H    2.894547   3.503400   2.492972   3.714997   3.975014
                   16         17         18         19         20
    16  H    0.000000
    17  H    1.782988   0.000000
    18  H    2.826681   2.355296   0.000000
    19  H    3.768381   3.057469   2.148862   0.000000
    20  H    3.715506   2.481277   3.049839   1.790139   0.000000
    21  H    4.625105   4.431571   4.267980   2.431176   2.812524
                   21
    21  H    0.000000
 Framework group  C1[X(C5H12O4)]
 Deg. of freedom    57
                         Standard orientation:                         
 ---------------------------------------------------------------------
 Center     Atomic      Atomic             Coordinates (Angstroms)
 Number     Number       Type             X           Y           Z
 ---------------------------------------------------------------------
      1          8           0       -1.622903   -0.197068    1.326953
      2          6           0       -0.214114   -0.001038    1.283789
      3          6           0        0.221630    0.008216   -0.176906
      4          6           0       -0.493544    1.135530   -0.940139
      5          8           0       -0.357209    2.395799   -0.323574
      6          6           0        1.737315    0.260730   -0.233106
      7          8           0        2.516870   -0.606718    0.556368
      8          6           0       -0.129539   -1.332274   -0.842156
      9          8           0       -1.500601   -1.603875   -0.874462
     10          1           0       -1.919620   -0.239959    2.242635
     11          1           0        0.323383   -0.809672    1.814615
     12          1           0        0.075983    0.961014    1.754307
     13          1           0       -1.551853    0.856686   -1.074472
     14          1           0       -0.047178    1.220177   -1.950315
     15          1           0       -1.080514    2.513522    0.301518
     16          1           0        1.930249    1.275385    0.148793
     17          1           0        2.059409    0.241744   -1.298255
     18          1           0        2.400268   -1.510509    0.238249
     19          1           0        0.424203   -2.147585   -0.315745
     20          1           0        0.224646   -1.320154   -1.890589
     21          1           0       -1.858722   -1.372743   -0.001911
 ---------------------------------------------------------------------
 Rotational constants (GHZ):           1.6394569           1.4189182           1.1313098
   150 basis functions,   273 primitive gaussians,   159 cartesian basis functions
    37 alpha electrons       37 beta electrons
       nuclear repulsion energy       531.3719704307 Hartrees.
 NAtoms=   21 NActive=   21 NUniq=   21 SFac= 1.00D+00 NAtFMM=   60 NAOKFM=F Big=F
 Nuclear repulsion after empirical dispersion term =      531.3568035259 Hartrees.
   1 Symmetry operations used in ECPInt.
 ECPInt:  NShTT=    3081 NPrTT=   12399 LenC2=    3048 LenP2D=    9718.
 LDataN:  DoStor=T MaxTD1= 4 Len=   56
 Initial guess from the checkpoint file:  "/scratch/user/peterchao1/peterchao1/6097791_1659647563000000718699040/Gau-209705.chk"
 B after Tr=    -0.000000   -0.000000    0.000000
         Rot=    0.999138   -0.020585    0.009239   -0.034855 Ang=  -4.76 deg.
 ExpMin= 1.22D-01 ExpMax= 2.27D+03 ExpMxC= 3.41D+02 IAcc=3 IRadAn=         5 AccDes= 0.00D+00
 Harris functional with IExCor= 4639 and IRadAn=       5 diagonalized for initial guess.
 HarFok:  IExCor= 4639 AccDes= 0.00D+00 IRadAn=         5 IDoV= 1 UseB2=F ITyADJ=14
 ICtDFT=  3500011 ScaDFX=  1.000000  1.000000  1.000000  1.000000
 FoFCou: FMM=F IPFlag=           0 FMFlag=      100000 FMFlg1=           0
         NFxFlg=           0 DoJE=T BraDBF=F KetDBF=T FulRan=T
         wScrn=  0.000000 ICntrl=       500 IOpCl=  0 I1Cent=   200000004 NGrid=           0
         NMat0=    1 NMatS0=      1 NMatT0=    0 NMatD0=    1 NMtDS0=    0 NMtDT0=    0
 Petite list used in FoFCou.
     Minimum is close to point  4 DX=  6.47D-02 DF= -2.21D-05 DXR=  5.11D-02 DFR=  2.62D-03 which will be used.
     Accept linear search using points  2 and  3.
     Accept linear search using points  1 and  2.
     Accept linear search using points  1 and  2.
     Minimum is close to point  2 DX=  9.49D-02 DF= -1.43D-06 DXR=  9.54D-02 DFR=  9.18D-03 which will be used.
     Minimum is close to point  2 DX=  7.97D-02 DF= -5.19D-07 DXR=  8.13D-02 DFR=  6.66D-03 which will be used.
     Minimum is close to point  2 DX=  1.31D-04 DF= -1.48D-12 DXR=  1.31D-04 DFR=  1.73D-08 which will be used.
 SCF Done:  E(RwB97XD) =  -498.054766281     a.u. after    9 cycles
            Convg  =    0.2574D-08                    38 Fock formations.
              S**2 =  0.0000                  -V/T =  2.0080
   1 Symmetry operations used in ECPInt.
 ECPInt:  NShTT=    3081 NPrTT=   12399 LenC2=    3048 LenP2D=    9718.
 LDataN:  DoStor=T MaxTD1= 5 Len=  102
 Calling FoFJK, ICntrl=      2127 FMM=F ISym2X=0 I1Cent= 0 IOpClX= 0 NMat=1 NMatS=1 NMatT=0.

 GradGradGradGradGradGradGradGradGradGradGradGradGradGradGradGradGradGrad
 Using GEDIIS/GDIIS optimizer.
 FormGI is forming the generalized inverse of G from B-inverse, IUseBI=4.
 Internal  Forces:  Max     0.014053700 RMS     0.002665491
 Step number   3 out of a maximum of  112
 All quantities printed in internal units (Hartrees-Bohrs-Radians)
 Mixed Optimization -- RFO/linear search
 Trust test= 2.26D-01 RLast= 4.42D-01 DXMaxT set to 5.05D-01
 ITU=  0  1  0
 Use linear search instead of GDIIS.
     Eigenvalues ---    0.00195   0.00230   0.00232   0.00408   0.01106
     Eigenvalues ---    0.01332   0.01371   0.01396   0.04472   0.04598
     Eigenvalues ---    0.04629   0.04691   0.04893   0.05101   0.05578
     Eigenvalues ---    0.05820   0.05874   0.05903   0.06799   0.11148
     Eigenvalues ---    0.11587   0.11712   0.11796   0.13619   0.13816
     Eigenvalues ---    0.14034   0.14155   0.14286   0.15429   0.15897
     Eigenvalues ---    0.16000   0.16033   0.16220   0.21464   0.22067
     Eigenvalues ---    0.22178   0.26655   0.27802   0.28069   0.28086
     Eigenvalues ---    0.31641   0.33999   0.34096   0.34110   0.34176
     Eigenvalues ---    0.34225   0.34320   0.34787   0.36993   0.40864
     Eigenvalues ---    0.41617   0.41899   0.44455   0.51034   0.52491
     Eigenvalues ---    0.52738   0.53209
 Quartic linear search produced a step of -0.40840.
 Iteration  1 RMS(Cart)=  0.07302237 RMS(Int)=  0.00242199
 Iteration  2 RMS(Cart)=  0.00292361 RMS(Int)=  0.00005943
 Iteration  3 RMS(Cart)=  0.00000429 RMS(Int)=  0.00005938
 Iteration  4 RMS(Cart)=  0.00000000 RMS(Int)=  0.00005938
 Variable       Old X    -DE/DX   Delta X   Delta X   Delta X     New X
                                 (Linear)    (Quad)   (Total)
    R1        2.68911  -0.00127   0.00642  -0.02064  -0.01422   2.67489
    R2        1.82077   0.00254   0.00212  -0.00004   0.00209   1.82286
    R3        2.88057   0.00850   0.00153   0.01800   0.01953   2.90010
    R4        2.09118  -0.00079  -0.00182   0.00076  -0.00105   2.09012
    R5        2.09673  -0.00187  -0.00268   0.00011  -0.00257   2.09416
    R6        2.90602   0.00204  -0.00145   0.01129   0.00984   2.91587
    R7        2.90565   0.00080  -0.00144   0.00893   0.00749   2.91314
    R8        2.90477   0.00715   0.00441   0.00310   0.00751   2.91228
    R9        2.66379  -0.00159   0.00715  -0.01968  -0.01253   2.65126
   R10        2.08369  -0.00006  -0.00075   0.00027  -0.00048   2.08321
   R11        2.09313  -0.00180  -0.00337   0.00129  -0.00208   2.09105
   R12        1.82020   0.00198   0.00171   0.00054   0.00225   1.82245
   R13        2.66139  -0.00119   0.00568  -0.01312  -0.00744   2.65395
   R14        2.08093   0.00007  -0.00121   0.00187   0.00066   2.08158
   R15        2.10316  -0.00148  -0.00334   0.00222  -0.00111   2.10205
   R16        1.82399   0.00094   0.00059   0.00113   0.00172   1.82571
   R17        2.64198  -0.00050   0.00851  -0.01861  -0.01010   2.63188
   R18        2.11149  -0.00149  -0.00440   0.00317  -0.00123   2.11026
   R19        2.09138  -0.00067  -0.00218   0.00216  -0.00002   2.09135
   R20        1.83510   0.00122   0.00197  -0.00119   0.00078   1.83588
    A1        1.91754  -0.00088  -0.00311  -0.00487  -0.00798   1.90956
    A2        1.88904   0.01405   0.00883   0.01611   0.02493   1.91398
    A3        1.94512  -0.00422   0.00052  -0.02017  -0.01979   1.92533
    A4        1.94488  -0.00670  -0.00918  -0.00641  -0.01580   1.92909
    A5        1.90208  -0.00202   0.00087   0.00800   0.00898   1.91105
    A6        1.90324  -0.00226  -0.00130   0.00752   0.00622   1.90947
    A7        1.87883   0.00103   0.00020  -0.00437  -0.00437   1.87446
    A8        1.92528  -0.00030   0.00045   0.00592   0.00636   1.93164
    A9        1.89421  -0.00308  -0.00603   0.00111  -0.00491   1.88930
   A10        1.92209   0.00506   0.00957   0.00009   0.00965   1.93174
   A11        1.89642   0.00163   0.00047  -0.00551  -0.00502   1.89140
   A12        1.89467  -0.00113  -0.00006   0.00206   0.00196   1.89663
   A13        1.93114  -0.00221  -0.00457  -0.00373  -0.00832   1.92283
   A14        1.97505   0.00021  -0.00355   0.00643   0.00287   1.97792
   A15        1.89805   0.00060   0.00610  -0.00525   0.00085   1.89890
   A16        1.89785   0.00007   0.00022   0.00512   0.00534   1.90319
   A17        1.95219  -0.00061  -0.00228  -0.00750  -0.00979   1.94239
   A18        1.86671  -0.00012  -0.00049   0.00239   0.00188   1.86859
   A19        1.87026  -0.00017   0.00004  -0.00101  -0.00096   1.86929
   A20        1.89705  -0.00061  -0.00183  -0.00150  -0.00332   1.89373
   A21        2.00865  -0.00122  -0.00527   0.00554   0.00025   2.00889
   A22        1.88742   0.00078   0.00539  -0.00433   0.00108   1.88849
   A23        1.89385   0.00091   0.00480  -0.00347   0.00136   1.89521
   A24        1.85058   0.00029  -0.00275   0.01083   0.00805   1.85863
   A25        1.94528  -0.00021  -0.00287  -0.00361  -0.00649   1.93879
   A26        1.87227  -0.00051   0.00109  -0.00549  -0.00433   1.86794
   A27        1.90193   0.00076  -0.00277   0.01315   0.01037   1.91230
   A28        1.98609   0.00923   0.00527   0.00407   0.00937   1.99546
   A29        1.89570  -0.00204   0.00854  -0.01687  -0.00826   1.88744
   A30        1.90427  -0.00179  -0.00357   0.00805   0.00439   1.90866
   A31        1.93386  -0.00188  -0.00118  -0.00269  -0.00369   1.93017
   A32        1.86930  -0.00425  -0.00937   0.01353   0.00409   1.87338
   A33        1.87099   0.00025  -0.00063  -0.00598  -0.00660   1.86439
   A34        1.86989   0.00125  -0.00009   0.00337   0.00328   1.87317
    D1        3.10468   0.00038   0.02237  -0.05884  -0.03654   3.06814
    D2        1.01334  -0.00359   0.01518  -0.06685  -0.05138   0.96197
    D3       -1.08587   0.00256   0.02075  -0.04310  -0.02258  -1.10844
    D4        1.03730  -0.00123  -0.01559  -0.03725  -0.05283   0.98447
    D5        3.11311  -0.00129  -0.01840  -0.03980  -0.05821   3.05490
    D6       -1.05371  -0.00285  -0.02205  -0.04362  -0.06565  -1.11936
    D7       -3.12774   0.00093  -0.00897  -0.04724  -0.05617   3.09928
    D8       -1.05193   0.00087  -0.01178  -0.04979  -0.06155  -1.11348
    D9        1.06445  -0.00069  -0.01542  -0.05361  -0.06900   0.99545
   D10       -1.08126  -0.00025  -0.00897  -0.04371  -0.05271  -1.13397
   D11        0.99455  -0.00031  -0.01178  -0.04626  -0.05810   0.93645
   D12        3.11092  -0.00187  -0.01543  -0.05008  -0.06554   3.04538
   D13        0.91966  -0.00300   0.03730  -0.15537  -0.11808   0.80158
   D14       -1.26100  -0.00281   0.03820  -0.14621  -0.10803  -1.36903
   D15        2.99118  -0.00297   0.03465  -0.14493  -0.11029   2.88090
   D16       -1.15480  -0.00006   0.04410  -0.15686  -0.11277  -1.26756
   D17        2.94772   0.00012   0.04499  -0.14770  -0.10271   2.84501
   D18        0.91672  -0.00004   0.04144  -0.14642  -0.10497   0.81175
   D19        3.02715   0.00232   0.04937  -0.15034  -0.10096   2.92619
   D20        0.84649   0.00250   0.05026  -0.14118  -0.09091   0.75558
   D21       -1.18451   0.00234   0.04671  -0.13990  -0.09317  -1.27768
   D22        0.92410   0.00147  -0.00751   0.02091   0.01339   0.93749
   D23       -1.14081   0.00131  -0.00451   0.00678   0.00224  -1.13857
   D24        3.11688   0.00102  -0.01137   0.01741   0.00605   3.12293
   D25        3.01798   0.00026  -0.01019   0.02549   0.01530   3.03328
   D26        0.95308   0.00010  -0.00718   0.01136   0.00414   0.95722
   D27       -1.07242  -0.00019  -0.01405   0.02198   0.00795  -1.06446
   D28       -1.18670  -0.00143  -0.01267   0.02238   0.00974  -1.17697
   D29        3.03158  -0.00159  -0.00967   0.00825  -0.00142   3.03016
   D30        1.00608  -0.00188  -0.01653   0.01888   0.00239   1.00847
   D31        1.08885   0.00343   0.03882   0.03234   0.07109   1.15994
   D32       -1.07403   0.00094   0.02981   0.04576   0.07561  -0.99842
   D33       -3.10813   0.00275   0.02780   0.05784   0.08564  -3.02249
   D34       -1.02061   0.00143   0.03232   0.02373   0.05600  -0.96461
   D35        3.09970  -0.00106   0.02331   0.03715   0.06052  -3.12297
   D36        1.06560   0.00075   0.02131   0.04923   0.07055   1.13615
   D37       -3.10017   0.00145   0.03448   0.03140   0.06582  -3.03435
   D38        1.02014  -0.00104   0.02547   0.04482   0.07034   1.09048
   D39       -1.01396   0.00077   0.02346   0.05690   0.08038  -0.93358
   D40       -1.56008   0.00008  -0.00759   0.02823   0.02064  -1.53944
   D41        0.59099   0.00057  -0.00396   0.02033   0.01636   0.60736
   D42        2.63365  -0.00005  -0.00545   0.01645   0.01101   2.64466
   D43        1.08663   0.00057  -0.03050   0.09709   0.06658   1.15321
   D44       -3.11114   0.00102  -0.02878   0.10254   0.07376  -3.03737
   D45       -1.07931   0.00047  -0.03052   0.10042   0.06991  -1.00940
   D46       -0.76450  -0.00002  -0.00513   0.03371   0.02859  -0.73591
   D47        1.37759   0.00263   0.00928   0.01241   0.02173   1.39932
   D48       -2.87044  -0.00054   0.00263   0.01166   0.01424  -2.85620
         Item               Value     Threshold  Converged?
 Maximum Force            0.014054     0.000015     NO 
 RMS     Force            0.002665     0.000010     NO 
 Maximum Displacement     0.248642     0.000060     NO 
 RMS     Displacement     0.072835     0.000040     NO 
 GradGradGradGradGradGradGradGradGradGradGradGradGradGradGradGradGradGrad

                    Distance matrix (angstroms):
                    1          2          3          4          5
     1  O    0.000000
     2  C    1.415493   0.000000
     3  C    2.412616   1.534666   0.000000
     4  C    2.874578   2.531439   1.543010   0.000000
     5  O    3.191378   2.849495   2.462445   1.402984   0.000000
     6  C    3.745258   2.492646   1.541566   2.501306   3.058336
     7  O    4.251702   2.898474   2.487093   3.787884   4.303511
     8  C    2.950904   2.529966   1.541111   2.505649   3.766183
     9  O    2.775013   3.045594   2.466450   2.905110   4.143080
    10  H    0.964615   1.960001   3.257654   3.777476   3.887698
    11  H    2.077008   1.106044   2.170596   3.489173   3.903241
    12  H    2.081309   1.108184   2.171021   2.809041   2.576138
    13  H    2.724453   2.916182   2.166197   1.102385   2.075280
    14  H    3.942613   3.469918   2.172457   1.106536   2.025781
    15  H    2.764117   2.798934   2.853984   1.938352   0.964400
    16  H    4.009168   2.746003   2.156542   2.664733   2.679868
    17  H    4.566473   3.457948   2.169550   2.726597   3.464201
    18  H    4.469093   3.259744   2.724019   4.118691   4.880749
    19  H    3.298974   2.728722   2.166515   3.470232   4.599161
    20  H    3.976130   3.482941   2.174971   2.776813   4.127326
    21  H    1.954222   2.578035   2.503962   2.951280   3.956294
                    6          7          8          9         10
     6  C    0.000000
     7  O    1.404408   0.000000
     8  C    2.527798   3.069234   0.000000
     9  O    3.789415   4.388055   1.392731   0.000000
    10  H    4.444605   4.759692   3.791831   3.583205   0.000000
    11  H    2.752809   2.592269   2.742783   3.379426   2.306233
    12  H    2.667032   3.105657   3.487082   4.069137   2.361494
    13  H    3.439978   4.618227   2.592730   2.420206   3.642887
    14  H    2.615281   3.987676   2.844418   3.392682   4.861239
    15  H    3.718112   4.833716   4.077115   4.201867   3.331885
    16  H    1.101526   2.015944   3.469637   4.598187   4.619126
    17  H    1.112358   2.081754   2.733271   4.007750   5.358926
    18  H    1.953095   0.966123   2.779045   4.104177   5.005560
    19  H    2.767515   2.754981   1.116699   2.068976   3.954166
    20  H    2.708763   3.354070   1.106697   2.020663   4.857005
    21  H    3.971562   4.527321   1.920774   0.971506   2.689094
                   11         12         13         14         15
    11  H    0.000000
    12  H    1.784496   0.000000
    13  H    3.869689   3.392978   0.000000
    14  H    4.310780   3.717406   1.776834   0.000000
    15  H    3.893632   2.498474   2.190409   2.791454   0.000000
    16  H    3.166691   2.457297   3.728430   2.811449   3.380989
    17  H    3.755024   3.701491   3.629978   2.373164   4.266156
    18  H    2.805763   3.733058   4.803695   4.262794   5.389943
    19  H    2.470146   3.717464   3.642382   3.834963   4.874755
    20  H    3.724733   4.315887   2.925023   2.667459   4.616783
    21  H    2.962791   3.591139   2.413202   3.706727   3.809609
                   16         17         18         19         20
    16  H    0.000000
    17  H    1.779949   0.000000
    18  H    2.832167   2.329999   0.000000
    19  H    3.784577   3.101722   2.216768   0.000000
    20  H    3.692984   2.443255   2.973633   1.785242   0.000000
    21  H    4.640418   4.419228   4.371893   2.434483   2.811374
                   21
    21  H    0.000000
 Framework group  C1[X(C5H12O4)]
 Deg. of freedom    57
                         Standard orientation:                         
 ---------------------------------------------------------------------
 Center     Atomic      Atomic             Coordinates (Angstroms)
 Number     Number       Type             X           Y           Z
 ---------------------------------------------------------------------
      1          8           0       -1.584925   -0.246151    1.393959
      2          6           0       -0.207718    0.065513    1.295031
      3          6           0        0.227380    0.021239   -0.175999
      4          6           0       -0.634621    0.976147   -1.028046
      5          8           0       -0.802814    2.241493   -0.445830
      6          6           0        1.694758    0.486254   -0.259589
      7          8           0        2.587197   -0.204599    0.576257
      8          6           0        0.089065   -1.405575   -0.741767
      9          8           0       -1.223607   -1.861936   -0.833008
     10          1           0       -1.839439   -0.282266    2.323691
     11          1           0        0.392368   -0.656843    1.879352
     12          1           0       -0.006842    1.073984    1.708198
     13          1           0       -1.606185    0.495029   -1.227652
     14          1           0       -0.141503    1.131838   -2.006318
     15          1           0       -1.574963    2.212673    0.131252
     16          1           0        1.738163    1.544433    0.043284
     17          1           0        2.022126    0.437755   -1.321577
     18          1           0        2.655094   -1.124046    0.287467
     19          1           0        0.700275   -2.091923   -0.107445
     20          1           0        0.521716   -1.440070   -1.759805
     21          1           0       -1.680795   -1.592491   -0.019250
 ---------------------------------------------------------------------
 Rotational constants (GHZ):           1.6301640           1.3939508           1.1349248
   150 basis functions,   273 primitive gaussians,   159 cartesian basis functions
    37 alpha electrons       37 beta electrons
       nuclear repulsion energy       529.7943909351 Hartrees.
 NAtoms=   21 NActive=   21 NUniq=   21 SFac= 1.00D+00 NAtFMM=   60 NAOKFM=F Big=F
 Nuclear repulsion after empirical dispersion term =      529.7792262738 Hartrees.
   1 Symmetry operations used in ECPInt.
 ECPInt:  NShTT=    3081 NPrTT=   12399 LenC2=    3050 LenP2D=    9708.
 LDataN:  DoStor=T MaxTD1= 4 Len=   56
 Initial guess from the checkpoint file:  "/scratch/user/peterchao1/peterchao1/6097791_1659647563000000718699040/Gau-209705.chk"
 B after Tr=     0.000000   -0.000000   -0.000000
         Rot=    0.996566    0.033960    0.000423   -0.075513 Ang=   9.50 deg.
 ExpMin= 1.22D-01 ExpMax= 2.27D+03 ExpMxC= 3.41D+02 IAcc=3 IRadAn=         5 AccDes= 0.00D+00
 Harris functional with IExCor= 4639 and IRadAn=       5 diagonalized for initial guess.
 HarFok:  IExCor= 4639 AccDes= 0.00D+00 IRadAn=         5 IDoV= 1 UseB2=F ITyADJ=14
 ICtDFT=  3500011 ScaDFX=  1.000000  1.000000  1.000000  1.000000
 FoFCou: FMM=F IPFlag=           0 FMFlag=      100000 FMFlg1=           0
         NFxFlg=           0 DoJE=T BraDBF=F KetDBF=T FulRan=T
         wScrn=  0.000000 ICntrl=       500 IOpCl=  0 I1Cent=   200000004 NGrid=           0
         NMat0=    1 NMatS0=      1 NMatT0=    0 NMatD0=    1 NMtDS0=    0 NMtDT0=    0
 Petite list used in FoFCou.
     Minimum is close to point  4 DX=  8.98D-02 DF= -4.30D-05 DXR=  6.96D-02 DFR=  4.87D-03 which will be used.
     Accept linear search using points  2 and  3.
     Accept linear search using points  1 and  2.
     Minimum is close to point  2 DX= -9.54D-02 DF= -8.00D-06 DXR=  9.49D-02 DFR=  1.05D-02 which will be used.
     Accept linear search using points  1 and  2.
     Accept linear search using points  1 and  2.
     Accept linear search using points  1 and  2.
     Minimum is close to point  2 DX= -2.61D-06 DF=  0.00D+00 DXR=  2.61D-06 DFR=  0.00D+00 which will be used.
 SCF Done:  E(RwB97XD) =  -498.055520519     a.u. after    9 cycles
            Convg  =    0.1732D-08                    36 Fock formations.
              S**2 =  0.0000                  -V/T =  2.0081
   1 Symmetry operations used in ECPInt.
 ECPInt:  NShTT=    3081 NPrTT=   12399 LenC2=    3050 LenP2D=    9708.
 LDataN:  DoStor=T MaxTD1= 5 Len=  102
 Calling FoFJK, ICntrl=      2127 FMM=F ISym2X=0 I1Cent= 0 IOpClX= 0 NMat=1 NMatS=1 NMatT=0.

 GradGradGradGradGradGradGradGradGradGradGradGradGradGradGradGradGradGrad
 Using GEDIIS/GDIIS optimizer.
 FormGI is forming the generalized inverse of G from B-inverse, IUseBI=4.
 Internal  Forces:  Max     0.004841867 RMS     0.001162673
 Step number   4 out of a maximum of  112
 All quantities printed in internal units (Hartrees-Bohrs-Radians)
 Mixed Optimization -- RFO/linear search
 Trust test= 4.80D-01 RLast= 4.51D-01 DXMaxT set to 5.05D-01
 ITU=  0  0  1  0
 Use linear search instead of GDIIS.
     Eigenvalues ---    0.00220   0.00232   0.00258   0.00491   0.01049
     Eigenvalues ---    0.01331   0.01373   0.01409   0.04457   0.04555
     Eigenvalues ---    0.04645   0.04717   0.04956   0.05106   0.05476
     Eigenvalues ---    0.05791   0.05838   0.05853   0.06644   0.11272
     Eigenvalues ---    0.11656   0.11819   0.11963   0.13739   0.13855
     Eigenvalues ---    0.14063   0.14187   0.14301   0.15385   0.15943
     Eigenvalues ---    0.15962   0.16021   0.16260   0.21433   0.22059
[...]
 00007185,-0.00015298,-0.00015531,-0.00030270,-0.00129659,0.00108105,-0
 .00007306,-0.11565950,0.39403046,-0.08042682,0.20055680,-0.13703811,0.
 00869929,-0.02882691,0.01052442,-0.00130620,-0.00319955,-0.00363471,-0
 .00063069,0.00017451,-0.00034608,0.00034410,0.00007391,-0.00006141,0.0
 0037649,-0.00098647,0.00089515,0.00008016,0.00038220,-0.00009318,-0.00
 032272,-0.00033343,-0.00019309,-0.00019816,0.00021881,0.00023135,0.072
 47206,-0.16737152,0.12949903,0.00791998,0.00167513,-0.01108534,-0.1046
 6570,-0.02289402,0.10025146,0.00492608,0.00365815,-0.01257682,-0.00227
 525,0.00292753,-0.00036445,0.00114827,-0.00098522,0.00158637,-0.000288
 65,-0.00048337,0.00104227,0.00000774,0.00111817,-0.00039035,0.00090466
 ,-0.00010686,-0.00206202,-0.00007204,0.00020755,0.00044033,0.00012372,
 0.00093625,0.00093787,0.10273901,0.00966415,-0.00426228,-0.03636908,-0
 .02158267,-0.05980133,0.04849375,-0.01154637,-0.00277209,0.02418228,0.
 00254873,-0.00537876,0.00030041,0.00010291,0.00029432,-0.00020783,-0.0
 0049156,0.00028374,0.00242718,0.00053836,0.00040181,-0.00190119,-0.001
 86224,0.00104256,0.00043576,0.00025494,0.00045587,-0.00013029,0.000256
 03,0.00218479,-0.00107000,0.02072848,0.06751828,0.00382087,-0.00897766
 ,-0.02100794,0.09753684,0.04434157,-0.25086876,0.00577903,0.00424997,-
 0.01129447,-0.00142375,0.00211662,0.00029653,0.00011195,-0.00020129,0.
 00070898,-0.00022787,0.00029473,-0.00179386,-0.00054424,-0.00298962,0.
 00043223,0.00143940,-0.00080095,0.00002863,-0.00067029,0.00004120,0.00
 047980,-0.00057544,0.00041080,0.00006541,-0.10372499,-0.03880470,0.278
 02096,0.00322861,-0.00698108,-0.00531613,-0.30504696,-0.02090740,-0.02
 468230,-0.01258517,0.00056576,-0.00088781,-0.00224877,0.00041711,0.000
 95204,0.00174063,-0.00155922,0.00281584,0.00009219,-0.00086433,-0.0010
 3580,0.00042329,0.00026985,0.00070231,0.00060097,0.00301394,-0.0014289
 9,0.00007585,-0.00028619,-0.00007990,-0.00006038,-0.00032352,-0.000634
 32,-0.01106774,-0.00011026,-0.00164509,0.32408572,-0.03115603,-0.01296
 195,-0.01471950,-0.01846872,-0.05192714,0.00060860,0.02672225,0.002349
 60,0.00146236,0.00097702,0.00016816,-0.00097467,-0.00082434,0.00026220
 ,0.00016338,0.00246561,0.00078294,0.00037129,-0.00027767,-0.00003275,-
 0.00018047,0.00058398,-0.00611213,0.00271912,-0.00070507,0.00136633,0.
 00022021,-0.00138969,0.00102564,-0.00025568,-0.00681528,0.00189619,0.0
 0038799,0.02717032,0.06488709,-0.02640459,-0.01303406,-0.00776856,-0.0
 1948817,-0.00008923,-0.05437187,-0.01388101,-0.00101654,-0.00045801,-0
 .00202596,0.00022350,0.00044174,0.00113891,-0.00081086,0.00042826,0.00
 045246,-0.00118307,0.00097382,-0.00033040,0.00025190,-0.00006024,0.000
 29040,0.00210178,-0.00121662,-0.00001667,0.00010172,0.00007286,0.00034
 858,0.00118718,-0.00001213,0.02753120,0.00255941,0.00516257,0.03165262
 ,0.00973786,0.05819540,0.00012595,-0.00033810,0.00036378,-0.00022324,-
 0.00007900,-0.00050411,0.00657509,0.00476670,0.00499601,-0.12292560,-0
 .07751082,-0.08443992,-0.03711269,-0.01428999,-0.01737961,-0.00067465,
 -0.00084753,0.00148934,0.00011533,0.00048362,0.00120765,0.00005272,0.0
 0084656,0.00126403,-0.00200171,-0.00043983,0.00078739,-0.00006062,0.00
 000704,0.00016933,0.00011460,0.00004694,0.00010924,0.00011175,-0.00006
 091,0.00028521,0.14994268,0.00036391,-0.00106527,0.00078621,0.00021590
 ,0.00017973,-0.00022340,0.00272585,0.00390774,0.00313999,-0.08438323,-
 0.14967369,-0.09500284,0.00994037,0.01002418,0.00680240,-0.00032407,-0
 .00040506,0.00003830,-0.00000526,0.00031100,0.00003007,-0.00068453,0.0
 0023741,-0.00131036,-0.00086359,-0.00056075,0.00143181,-0.00006117,0.0
 0009942,0.00010508,-0.00006560,0.00002424,-0.00005630,0.00004438,0.000
 03387,-0.00001779,0.08849982,0.14950925,0.00030452,0.00084644,0.001003
 69,-0.00008056,-0.00256654,-0.00043585,-0.01393777,-0.02026059,-0.0202
 6828,-0.08474115,-0.09335189,-0.14656392,0.00439808,0.00573081,0.00787
 257,0.00276073,0.00420022,-0.00296053,-0.00038570,-0.00162740,-0.00272
 781,-0.00188524,-0.00271935,-0.00197599,-0.00079528,0.00117982,0.00302
 014,0.00010546,0.00009414,0.00048405,0.00003736,0.00018753,0.00004183,
 0.00005715,0.00009346,0.00005365,0.08856832,0.10028407,0.15479775,0.00
 042738,-0.00007285,-0.00001342,-0.00071338,-0.00013408,0.00156532,0.00
 297866,-0.00723623,0.00125810,-0.05115078,0.01321267,-0.00708426,-0.01
 554435,0.04188657,-0.00551502,0.00031563,-0.00010681,-0.00015928,-0.00
 003549,0.00001998,0.00010990,0.00078979,-0.00078228,-0.00025867,-0.000
 75421,0.00031820,0.00024528,-0.00009206,0.00008515,0.00022333,0.000270
 56,-0.00041954,0.00015973,0.00006811,0.00002307,0.00023781,0.00471699,
 -0.01518057,0.00591256,0.06565107,-0.00009769,0.00001552,0.00033730,-0
 .00050707,0.00035604,-0.00015146,0.00060709,-0.00203186,0.00116243,0.0
 2495072,-0.29000579,0.07009483,0.00738748,-0.00499903,-0.00104204,-0.0
 0012046,0.00000866,-0.00253820,-0.00023420,0.00035349,0.00009830,0.000
 01422,-0.00061338,0.00018918,-0.00064955,0.00038169,0.00055999,0.00003
 275,0.00013608,0.00009228,0.00001730,-0.00019615,0.00003694,-0.0000262
 7,-0.00000169,-0.00000584,0.00226297,-0.01448111,0.00599174,-0.0347556
 5,0.30788120,0.00017360,-0.00042704,0.00092745,0.00303218,-0.00108210,
 -0.00577925,-0.00302025,0.03006023,-0.01173036,-0.00979026,0.07138269,
 -0.07219734,0.00217089,-0.00640950,0.00312042,-0.00039617,0.00257581,-
 0.00039091,-0.00011539,-0.00072402,0.00122408,-0.00125453,0.00019438,-
 0.00000933,-0.00026163,-0.00013004,0.00022514,0.00006953,-0.00008409,0
 .00003999,-0.00071743,0.00166487,-0.00069899,-0.00011193,-0.00009737,0
 .00011224,0.00308562,-0.01823308,0.00724944,0.00515904,-0.07632695,0.0
 7774503,0.00069159,0.00091072,-0.00236629,0.00076361,0.00168119,0.0031
 5962,-0.00095155,0.00055602,-0.00001068,-0.01258036,0.04944441,0.00128
 821,-0.04627192,0.00531208,0.00418705,0.00003124,0.00023868,-0.0000369
 8,0.00004796,-0.00031228,-0.00034734,-0.00009283,0.00043415,0.00014760
 ,0.00046806,-0.00038206,-0.00042376,0.00073087,-0.00032320,-0.00068646
 ,-0.00006634,-0.00014933,-0.00035727,-0.00011991,-0.00047331,-0.000044
 69,0.00096921,0.00020324,-0.00115815,-0.00705241,0.00119904,0.00125462
 ,0.06375547,0.00149908,-0.00186751,-0.00186945,0.00041331,0.00268306,0
 .00145283,-0.00149471,0.00023865,0.00001669,-0.00069914,-0.01141259,0.
 00103167,0.06029587,-0.49636083,-0.00894026,-0.00012257,-0.00030747,-0
 .00014142,-0.00000194,0.00007702,0.00042807,0.00026154,0.00020189,0.00
 065257,-0.00008558,-0.00059306,0.00009873,-0.00041529,-0.00033698,0.00
 042667,-0.00023467,-0.00047396,-0.00029216,-0.00044203,0.00009687,-0.0
 0023993,-0.00238382,0.00221214,0.00039393,0.00217023,0.00211328,-0.000
 72311,-0.05807338,0.50349262,-0.00222748,-0.00084468,0.00013191,0.0031
 2263,-0.00022104,-0.00171231,0.00094859,-0.00238843,0.00033975,0.00018
 420,-0.00373291,-0.00002305,0.00553766,-0.00444925,-0.00594287,-0.0000
 6904,-0.00023667,-0.00059754,-0.00002389,0.00030952,-0.00000734,0.0002
 7357,0.00071192,0.00009512,-0.00017686,0.00004772,-0.00067212,0.000094
 60,0.00062443,0.00013229,-0.00085452,-0.00029686,0.00002486,-0.0007336
 7,0.00006410,-0.00214292,0.00007617,0.00124587,0.00076331,-0.00166113,
 0.00122662,0.00056809,-0.00500154,0.00802217,0.00847388,0.00051788,0.0
 0019819,0.00008299,0.00024294,0.00077478,-0.00010899,-0.01115658,-0.00
 130044,-0.00082970,-0.00138293,-0.00028686,0.00076085,0.00100481,0.000
 59646,0.00063080,-0.31606598,-0.02180999,0.03685593,-0.00000397,0.0003
 2907,0.00511498,0.00127663,-0.00168555,-0.00116110,-0.00082908,-0.0007
 2376,-0.00024614,-0.00001432,-0.00002734,0.00003186,0.00014099,0.00018
 369,-0.00010672,0.00041168,-0.00056431,0.00021221,-0.00001321,0.000162
 15,-0.00004064,-0.00004073,0.00002637,-0.00034105,0.00010062,0.0000520
 8,0.00016460,0.33316048,0.00069290,0.00041490,0.00007631,-0.00235130,0
 .00067708,-0.00035430,-0.02793856,-0.00362369,0.00175360,-0.00105911,0
 .00116628,0.00058666,0.00088849,-0.00003293,0.00055313,-0.01860734,-0.
 05495478,0.00443769,-0.00375362,0.00185893,0.00146386,0.00178853,-0.00
 403344,-0.00242076,-0.00224925,-0.00073074,-0.00058207,-0.00001405,-0.
 00001627,0.00004769,0.00014154,0.00000601,-0.00001403,0.00052448,-0.00
 100306,0.00045785,0.00004378,-0.00003288,0.00023001,0.00021575,-0.0000
 3593,-0.00016555,0.00005004,-0.00017197,-0.00005642,0.02631328,0.05511
 370,0.00016921,0.00002683,-0.00019355,0.00011444,0.00076932,0.00018942
 ,-0.01681474,-0.00230040,0.00223761,-0.00196025,0.00000229,0.00043293,
 0.00053770,0.00016992,-0.00033728,0.02542813,0.00515678,-0.05134494,0.
 04202027,0.00193588,-0.01857983,0.00038557,-0.00307053,-0.00191453,-0.
 00154964,-0.00090261,-0.00030862,0.00003722,0.00002243,0.00001340,0.00
 001325,-0.00007484,-0.00006404,0.00027431,-0.00001253,0.00033333,0.000
 14525,0.00022024,0.00014099,-0.00000281,0.00025496,-0.00001450,0.00024
 532,-0.00017215,0.00028940,-0.04207419,-0.00292369,0.07246705,0.000470
 38,-0.00049249,0.00042707,-0.00098973,-0.00061845,-0.00186517,0.004859
 68,-0.01174422,0.00144408,-0.00039362,0.00040916,0.00024791,0.00021848
 ,0.00002937,0.00064780,-0.10812062,0.09534722,-0.03267818,0.00734454,-
 0.00574301,0.00261433,0.00074728,-0.00165055,0.00024153,0.00018245,0.0
 0042115,0.00034463,-0.00000211,-0.00022036,-0.00008301,0.00005407,0.00
 011721,0.00009441,0.00039574,-0.00027526,0.00011350,0.00001050,-0.0000
 4813,0.00012852,0.00001750,0.00022329,0.00047340,0.00001473,-0.0000377
 9,-0.00003769,-0.00993747,0.02593197,-0.00915971,0.10383142,0.00024790
 ,-0.00248947,0.00038859,-0.00278051,-0.00076145,-0.00397322,0.01294764
 ,-0.02369720,0.00702808,-0.00016779,-0.00054273,0.00189521,-0.00018068
 ,0.00045294,-0.00032693,0.09376279,-0.22401554,0.05922478,-0.00266440,
 0.00352287,0.00680093,0.00207872,-0.00015887,0.00103314,-0.00041786,0.
 00103121,-0.00004061,-0.00010195,-0.00032030,-0.00032502,0.00004986,0.
 00007112,0.00016848,-0.00004945,0.00016449,-0.00017252,-0.00007936,0.0
 0037671,-0.00025646,0.00018164,0.00065149,-0.00108004,-0.00021277,0.00
 001860,0.00024899,-0.00176352,0.00401061,-0.00183118,-0.10015346,0.240
 66138,0.00014896,-0.00146496,0.00059211,-0.00118528,-0.00127655,-0.002
 44339,0.00610000,-0.01284105,0.00541620,0.00028380,-0.00128126,0.00174
 645,0.00009403,0.00006116,-0.00030757,-0.02845366,0.05806575,-0.069341
 43,-0.01323476,0.03233355,-0.03124478,0.00049319,-0.00022970,0.0000196
 9,0.00005448,0.00003234,0.00005397,-0.00003578,-0.00030717,-0.00020650
 ,-0.00022337,-0.00034964,0.00018454,-0.00009075,0.00007442,-0.00023269
 ,-0.00006113,0.00012357,0.00013523,0.00001443,0.00016300,-0.00055502,-
 0.00004576,0.00001582,-0.00000690,0.00103639,-0.00373733,0.00312964,0.
 03736606,-0.06924828,0.09124129,-0.00007154,-0.00028155,-0.00016444,-0
 .00042870,0.00025161,0.00030167,0.00067552,0.00015632,-0.00130393,-0.0
 0055658,-0.00031535,-0.00025381,0.00001779,-0.00000381,0.00004752,-0.0
 0568124,0.00049070,-0.00355854,-0.47943854,0.04619925,0.11789547,0.000
 75000,0.00006253,-0.00148919,-0.00036203,0.00034997,0.00070626,0.00000
 142,0.00000512,-0.00000415,0.00011213,0.00023050,0.00003841,0.00002799
 ,0.00004616,-0.00002222,0.00010170,-0.00005182,-0.00024024,0.00000708,
 0.00001538,0.00004883,-0.00001236,0.00001439,0.00003079,0.00242838,-0.
 00041699,0.00202978,0.00140502,0.00009166,-0.00197171,0.48171689,-0.00
 035820,0.00033345,0.00077726,0.00065912,-0.00018533,-0.00116158,0.0016
 5530,0.00027524,-0.00021213,-0.00004873,-0.00000967,-0.00057621,-0.000
 39573,-0.00002932,0.00036004,-0.00624063,-0.00063575,0.00369527,0.0541
 5737,-0.00897794,-0.00891316,0.00029728,0.00016978,-0.00287940,0.00034
 386,0.00049868,0.00126926,0.00013235,-0.00013607,-0.00010525,0.0000772
 5,-0.00072242,0.00024087,-0.00034747,0.00009743,0.00026413,0.00006885,
 -0.00003398,-0.00002713,-0.00006766,-0.00010850,0.00021972,0.00011228,
 -0.00002094,-0.00011820,-0.00092041,0.00050245,0.00238594,-0.00162175,
 0.00052865,-0.00019602,-0.04583815,0.00940539,-0.00015583,0.00048536,0
 .00013482,0.00001665,-0.00043339,0.00001404,0.00078305,-0.00057071,0.0
 0031467,0.00047213,0.00020209,-0.00033818,-0.00078321,0.00006829,0.000
 26259,0.04738337,-0.00381785,-0.01499950,0.06554880,-0.00061963,-0.063
 08314,-0.00004432,-0.00082255,-0.00253804,0.00010710,0.00110735,0.0012
 3430,0.00000092,-0.00007335,0.00002885,0.00003827,-0.00026027,0.000060
 94,-0.00010288,0.00018061,-0.00004946,0.00000912,0.00000447,0.00008408
 ,-0.00000722,-0.00001444,0.00004269,0.00005598,-0.00005030,-0.00009449
 ,-0.00013138,0.00070248,-0.00695707,-0.00017322,0.00092457,0.00165488,
 -0.11152897,0.00410195,0.08366103,0.00037708,0.00022319,-0.00038585,0.
 00138221,-0.00147488,0.00185148,-0.01272909,-0.00312031,0.03277804,-0.
 00473806,0.00073203,-0.00447657,-0.00263175,0.00022238,0.00255977,0.00
 043326,0.00026180,0.00240722,0.00103427,0.00070794,-0.00171980,-0.0763
 9147,-0.00348109,0.07295555,0.00714182,-0.00438130,-0.01766787,-0.0000
 8298,0.00006437,0.00006733,-0.00028784,0.00098635,-0.00088469,0.000283
 16,-0.00020111,-0.00022842,0.00014088,0.00015462,-0.00001811,0.0001502
 7,-0.00030236,0.00016091,0.00009083,-0.00032151,0.00002395,0.00013242,
 0.00008318,0.00000601,-0.00009338,-0.00018360,-0.00031028,-0.00090865,
 -0.00177112,-0.00158754,0.08176902,0.00052015,0.00000608,0.00045148,0.
 00031737,0.00002781,-0.00165411,0.00180766,0.00141044,0.00011590,-0.00
 052306,0.00028700,0.00003225,-0.00009622,0.00028008,0.00002557,0.00008
 512,0.00003356,0.00044052,-0.00038328,-0.00017783,-0.00050793,-0.00400
 012,-0.05543827,0.02531711,0.00268362,-0.00695181,-0.03747079,0.000084
 94,-0.00001889,-0.00000769,0.00023826,-0.00007105,0.00016194,-0.000102
 07,0.00002748,0.00011746,-0.00013150,-0.00015553,0.00017590,0.00018325
 ,0.00016738,-0.00030242,-0.00010596,-0.00001467,0.00001024,0.00013613,
 0.00005363,0.00007637,0.00017897,0.00004601,-0.00000339,-0.00100905,-0
 .00042138,-0.00090674,0.00989524,0.05965114,0.00067011,0.00027635,0.00
 077049,-0.00080787,-0.00044407,-0.00016832,0.00050248,0.00273754,-0.00
 144411,-0.00036005,-0.00006541,0.00102110,0.00054559,-0.00027735,0.000
 07541,0.00125090,-0.00038952,-0.00272396,-0.00218048,-0.00120415,0.000
 66193,0.07425892,0.02280244,-0.25303024,-0.00362070,-0.01956091,-0.019
 67375,0.00017040,0.00004681,-0.00001012,0.00027592,-0.00056863,0.00050
 998,0.00003682,-0.00001466,0.00034854,-0.00045001,0.00002211,0.0005272
 7,-0.00005040,-0.00001144,0.00015584,-0.00004499,0.00006695,-0.0001180
 3,0.00009523,0.00017103,0.00037755,0.00021887,-0.00002375,0.00013025,-
 0.00045628,0.00030234,0.00057777,-0.07415584,-0.00816009,0.28488144,0.
 00104623,0.00008238,0.00059195,-0.00706261,-0.00224728,0.00023055,-0.0
 1163850,0.02696934,-0.01498643,0.00065260,0.00101567,-0.00087679,0.000
 57516,-0.00061021,0.00010613,0.00095687,0.00243085,0.00016182,0.000054
 98,-0.00046978,0.00013039,-0.08726273,0.08104539,-0.03814884,0.0080945
 1,-0.01629632,0.00272426,-0.00003332,-0.00008704,0.00004864,0.00012728
 ,-0.00020499,0.00009675,-0.00089545,0.00190289,-0.00072341,-0.00003205
 ,-0.00002272,0.00027587,-0.00036695,-0.00051094,0.00052373,0.00012918,
 0.00002031,-0.00026339,0.00024064,-0.00019057,0.00028940,-0.00006482,-
 0.00127487,-0.00011297,-0.00005063,0.00006452,-0.00006759,0.00548985,-
 0.00920342,0.00572421,0.09138452,0.00100869,0.00001300,0.00002627,-0.0
 0058036,0.00059468,-0.00031208,0.00057029,0.00060713,-0.00018361,-0.00
 049448,-0.00014600,0.00045894,0.00005305,0.00031320,-0.00023337,-0.000
 74513,0.00052401,-0.00036354,0.00018844,0.00023750,0.00000947,0.076736
 96,-0.21999777,0.08899311,0.00768404,-0.03383643,-0.00191507,0.0000387
 9,0.00007846,0.00005537,-0.00009794,0.00004435,0.00000410,0.00004666,0
 .00013330,0.00016978,-0.00001475,-0.00015757,0.00013597,0.00026173,0.0
 0021773,-0.00036214,-0.00015401,-0.00002356,0.00008987,0.00000818,0.00
 028277,-0.00005954,-0.00001100,0.00040352,0.00007079,0.00005479,-0.000
 33497,0.00003389,0.00151140,0.00022096,0.00256923,-0.08032695,0.253287
 81,0.00037665,0.00039169,0.00020842,-0.00039772,-0.00009672,-0.0001105
 2,0.00168570,-0.00190350,0.00101790,0.00069816,-0.00085071,0.00031557,
 -0.00041966,0.00002462,0.00001190,-0.00050007,0.00098984,-0.00031123,-
 0.00024158,-0.00079933,-0.00003737,-0.03967572,0.09745818,-0.10152763,
 0.00758972,-0.02567568,0.00886178,0.00005482,-0.00002146,-0.00000008,0
 .00008520,-0.00032787,0.00052572,-0.00005850,0.00013119,0.00037903,-0.
 00024228,-0.00008560,0.00006254,0.00012955,0.00016487,0.00028315,0.000
 02842,-0.00004641,-0.00006550,0.00003867,-0.00023781,0.00003024,-0.000
 34283,-0.00057295,0.00002084,-0.00009917,0.00074167,-0.00005463,-0.011
 20144,0.02401376,-0.01123098,0.04465032,-0.08939089,0.10233661,-0.0007
 7998,0.00056174,0.00234466,-0.00364290,-0.00807806,-0.00655542,0.00122
 138,-0.00314920,0.00035342,-0.00035778,-0.00050859,-0.00015419,-0.0002
 5814,0.00062512,-0.00023335,-0.00072118,-0.00014446,-0.00057201,-0.000
 30798,0.00041733,0.00044426,0.01304166,-0.01733215,0.00240448,-0.20867
 667,0.23423202,-0.03628039,0.00252689,0.00254418,0.00084207,0.00013446
 ,0.00070866,0.00097370,0.00047868,0.00132039,0.00090262,0.00006638,-0.
 00061954,0.00073426,0.00035731,0.00046759,-0.00014371,-0.00064569,-0.0
 0041438,0.00059245,-0.00021320,-0.00009316,-0.00013452,0.00004995,0.00
 067003,0.00013410,0.00026636,0.00004166,0.00016679,-0.00056184,-0.0005
 7603,-0.00162284,-0.00134474,-0.00573840,-0.00215827,0.19936703,-0.001
 80788,-0.00809580,-0.00125939,-0.00309119,0.00549556,0.00091696,0.0005
 4591,0.00294616,0.00080428,-0.00189169,-0.00018574,0.00060827,0.001652
 84,-0.00042991,-0.00004730,0.00150594,-0.00070472,-0.00103204,0.000008
 24,0.00001163,0.00080872,0.01729364,-0.03630381,-0.00037165,0.19074782
 ,-0.29108442,0.00897826,0.00220875,-0.00062528,0.00034820,-0.00009249,
 -0.00054525,-0.00031849,-0.00005320,-0.00125289,-0.00060273,-0.0008506
 6,-0.00034982,0.00126532,0.00019744,0.00019087,0.00004976,0.00004446,0
 .00044943,-0.00025698,0.00030180,0.00054932,0.00032651,-0.00004187,0.0
 0004597,-0.00000507,-0.00005164,-0.00019480,-0.00024184,0.00039478,0.0
 0103787,0.00172517,-0.00208625,-0.00246212,-0.00390690,-0.20493475,0.3
 3150774,0.00404531,0.00032112,-0.00308351,-0.00413317,-0.00236047,-0.0
 0104918,-0.00116138,-0.00046124,0.00185433,0.00118262,0.00052653,0.001
 19485,-0.00094687,0.00005913,-0.00072553,0.00019633,0.00019668,-0.0000
 4365,0.00007985,0.00022210,-0.00043916,0.01342685,-0.02130949,-0.00076
 824,-0.04964031,0.03139071,-0.02413326,-0.00094128,0.00051296,-0.00031
 853,-0.00024020,0.00011004,-0.00081492,0.00031699,0.00004027,-0.000188
 95,0.00052060,0.00069517,-0.00130416,-0.00026284,-0.00028207,-0.000317
 85,0.00015710,-0.00013093,0.00056447,0.00001540,0.00001166,0.00007281,
 -0.00002230,0.00013820,0.00001321,-0.00000607,-0.00016938,0.00004386,-
 0.00017387,-0.00192534,-0.00163806,-0.00037461,0.00020344,-0.00071574,
 0.03796187,-0.00778905,0.03179722\\0.00000223,0.00000079,-0.00000112,0
 .00000137,0.00000003,-0.00000066,-0.00000019,0.00000012,0.00000016,-0.
 00000036,0.00000091,0.00000025,-0.00000101,0.00000289,0.00000015,-0.00
 000166,0.00000049,0.00000066,-0.00000096,-0.00000084,-0.00000024,-0.00
 000008,-0.00000177,0.00000090,0.00000080,-0.00000291,0.00000042,0.0000
 0353,0.00000041,-0.00000103,0.00000183,-0.00000035,-0.00000041,0.00000
 110,0.00000181,-0.00000066,-0.00000036,0.00000059,-0.00000019,-0.00000
 226,0.00000085,0.00000031,0.00000045,0.00000297,-0.00000098,-0.0000017
 0,0.00000174,0.00000037,-0.00000271,-0.00000028,0.00000096,-0.00000099
 ,-0.00000131,0.00000044,0.00000020,-0.00000236,0.00000035,-0.00000121,
 -0.00000200,0.00000101,0.00000197,-0.00000178,-0.00000068\\\@


 FLOATING POINT NUMBERS ARE LIKE SANDPILES:
 EVERY TIME THAT YOU MOVE ONE, YOU LOSE A LITTLE SAND 
 AND YOU PICK UP A LITTLE DIRT.
 Job cpu time:       0 days  0 hours  9 minutes 36.4 seconds.
 Elapsed time:       0 days  0 hours  2 minutes 25.1 seconds.
 File lengths (MBytes):  RWF=     64 Int=      0 D2E=      0 Chk=      3 Scr=      1
 Normal termination of Gaussian 16 at Thu Aug  4 16:27:59 2022.
real 915.57
user 3476.10
sys 18.69
