 Entering Gaussian System, Link 0=g16
 Input=gaussian_test.inp
 Output=gaussian_test.log
 Initial command:
 /sw/restricted/lms/sw/Gaussian/g16_B01/g16/l1.exe "/scratch/user/peterchao1/peterchao1/9982567_1711744448000000588401989/Gau-112687.inp" -scrdir="/scratch/user/peterchao1/peterchao1/9982567_1711744448000000588401989/"
 Entering Link 1 = /sw/restricted/lms/sw/Gaussian/g16_B01/g16/l1.exe PID=    112691.
  
 Copyright (c) 1988-2017, Gaussian, Inc.  All Rights Reserved.
  
 This is part of the Gaussian(R) 16 program.  It is based on
 the Gaussian(R) 09 system (copyright 2009, Gaussian, Inc.),
 the Gaussian(R) 03 system (copyright 2003, Gaussian, Inc.),
 the Gaussian(R) 98 system (copyright 1998, Gaussian, Inc.),
 the Gaussian(R) 94 system (copyright 1995, Gaussian, Inc.),
 the Gaussian 92(TM) system (copyright 1992, Gaussian, Inc.),
 the Gaussian 90(TM) system (copyright 1990, Gaussian, Inc.),
 the Gaussian 88(TM) system (copyright 1988, Gaussian, Inc.),
 the Gaussian 86(TM) system (copyright 1986, Carnegie Mellon
 University), and the Gaussian 82(TM) system (copyright 1983,
 Carnegie Mellon University). Gaussian is a federally registered
 trademark of Gaussian, Inc.
  
 This software contains proprietary and confidential information,
 including trade secrets, belonging to Gaussian, Inc.
  
 This software is provided under written license and may be
 used, copied, transmitted, or stored only in accord with that
 written license.
  
 The following legend is applicable only to US Government
 contracts under FAR:
  
                    RESTRICTED RIGHTS LEGEND
  
 Use, reproduction and disclosure by the US Government is
 subject to restrictions as set forth in subparagraphs (a)
 and (c) of the Commercial Computer Software - Restricted
 Rights clause in FAR 52.227-19.
  
 Gaussian, Inc.
 340 Quinnipiac St., Bldg. 40, Wallingford CT 06492
  
  
 ---------------------------------------------------------------
 Warning -- This program may not be used in any manner that
 competes with the business of Gaussian, Inc. or will provide
 assistance to any competitor of Gaussian, Inc.  The licensee
 of this program is prohibited from giving any competitor of
 Gaussian, Inc. access to this program.  By using this program,
 the user acknowledges that Gaussian, Inc. is engaged in the
 business of creating and licensing software in the field of
 computational chemistry and represents and warrants to the
 licensee that it is not a competitor of Gaussian, Inc. and that
 it will not use this program in any manner prohibited above.
 ---------------------------------------------------------------
  

 Cite this work as:
 Gaussian 16, Revision B.01,
 M. J. Frisch, G. W. Trucks, H. B. Schlegel, G. E. Scuseria, 
 M. A. Robb, J. R. Cheeseman, G. Scalmani, V. Barone, 
 G. A. Petersson, H. Nakatsuji, X. Li, M. Caricato, A. V. Marenich, 
 J. Bloino, B. G. Janesko, R. Gomperts, B. Mennucci, H. P. Hratchian, 
 J. V. Ortiz, A. F. Izmaylov, J. L. Sonnenberg, D. Williams-Young, 
 F. Ding, F. Lipparini, F. Egidi, J. Goings, B. Peng, A. Petrone, 
 T. Henderson, D. Ranasinghe, V. G. Zakrzewski, J. Gao, N. Rega, 
 G. Zheng, W. Liang, M. Hada, M. Ehara, K. Toyota, R. Fukuda, 
 J. Hasegawa, M. Ishida, T. Nakajima, Y. Honda, O. Kitao, H. Nakai, 
 T. Vreven, K. Throssell, J. A. Montgomery, Jr., J. E. Peralta, 
 F. Ogliaro, M. J. Bearpark, J. J. Heyd, E. N. Brothers, K. N. Kudin, 
 V. N. Staroverov, T. A. Keith, R. Kobayashi, J. Normand, 
 K. Raghavachari, A. P. Rendell, J. C. Burant, S. S. Iyengar, 
 J. Tomasi, M. Cossi, J. M. Millam, M. Klene, C. Adamo, R. Cammi, 
 J. W. Ochterski, R. L. Martin, K. Morokuma, O. Farkas, 
 J. B. Foresman, and D. J. Fox, Gaussian, Inc., Wallingford CT, 2016.
 
 ******************************************
 Gaussian 16:  ES64L-G16RevB.01 20-Dec-2017
                29-Mar-2024 
 ******************************************
 %nprocshared=4
 Will use up to    4 processors via shared memory.
 %mem=8000mb
 %chk=monomer.chk
 %nprocshared=4
 Will use up to    4 processors via shared memory.
 %mem=8000mb
 ----------------------------------------------------------------------
 #T wB97XD/def2svpp opt=tight freq int(grid=ultrafine) scf=(verytight,q
 c) Volume=tight
 ----------------------------------------------------------------------
 -------
 Monomer
 -------
 Symbolic Z-matrix:
 Charge =  0 Multiplicity = 1
 C                    -2.5997    0.03948   0.7166 
 C                    -1.75181  -0.05633  -0.54638 
 C                    -0.23409  -0.03416  -0.32625 
 N                     0.43509   0.02854  -1.63152 
 C                     0.19282   1.24041   0.43973 
 O                     1.58912   1.42831   0.41371 
 C                     0.24846  -1.28021   0.45474 
 O                     1.64998  -1.37626   0.45369 
 H                    -3.65269  -0.00737   0.44839 
 H                    -2.42498   0.9767    1.23687 
 H                    -2.38762  -0.78228   1.39481 
 H                    -1.99928   0.77746  -1.20796 
 H                    -2.005    -0.98237  -1.07076 
 H                    -0.11569  -0.44934  -2.33532 
 H                     1.32117  -0.46932  -1.56256 
 H                    -0.08057   1.1688    1.49391 
 H                    -0.31322   2.10816  -0.00254 
 H                     1.83956   1.48879  -0.51757 
 H                    -0.1183   -2.1911   -0.02917 
 H                    -0.13588  -1.25199   1.48309 
 H                     1.99589  -0.52663   0.77281 
 

 GradGradGradGradGradGradGradGradGradGradGradGradGradGradGradGradGradGrad
 Initialization pass.
                           ----------------------------
                           !    Initial Parameters    !
                           ! (Angstroms and Degrees)  !
 --------------------------                            --------------------------
 ! Name  Definition              Value          Derivative Info.                !
 --------------------------------------------------------------------------------
 ! R1    R(1,2)                  1.5242         estimate D2E/DX2                !
 ! R2    R(1,9)                  1.0876         estimate D2E/DX2                !
 ! R3    R(1,10)                 1.0861         estimate D2E/DX2                !
 ! R4    R(1,11)                 1.0864         estimate D2E/DX2                !
 ! R5    R(2,3)                  1.5338         estimate D2E/DX2                !
 ! R6    R(2,12)                 1.0928         estimate D2E/DX2                !
 ! R7    R(2,13)                 1.0939         estimate D2E/DX2                !
 ! R8    R(3,4)                  1.4682         estimate D2E/DX2                !
 ! R9    R(3,5)                  1.5471         estimate D2E/DX2                !
 ! R10   R(3,7)                  1.5477         estimate D2E/DX2                !
 ! R11   R(4,14)                 1.0134         estimate D2E/DX2                !
 ! R12   R(4,15)                 1.0187         estimate D2E/DX2                !
 ! R13   R(5,6)                  1.4091         estimate D2E/DX2                !
 ! R14   R(5,16)                 1.0914         estimate D2E/DX2                !
 ! R15   R(5,17)                 1.0976         estimate D2E/DX2                !
 ! R16   R(6,18)                 0.9663         estimate D2E/DX2                !
 ! R17   R(7,8)                  1.4048         estimate D2E/DX2                !
 ! R18   R(7,19)                 1.0947         estimate D2E/DX2                !
 ! R19   R(7,20)                 1.0982         estimate D2E/DX2                !
 ! R20   R(8,21)                 0.9713         estimate D2E/DX2                !
 ! A1    A(2,1,9)              109.3616         estimate D2E/DX2                !
 ! A2    A(2,1,10)             111.204          estimate D2E/DX2                !
 ! A3    A(2,1,11)             111.1709         estimate D2E/DX2                !
 ! A4    A(9,1,10)             108.1219         estimate D2E/DX2                !
 ! A5    A(9,1,11)             108.0808         estimate D2E/DX2                !
 ! A6    A(10,1,11)            108.801          estimate D2E/DX2                !
 ! A7    A(1,2,3)              115.5076         estimate D2E/DX2                !
 ! A8    A(1,2,12)             109.1303         estimate D2E/DX2                !
 ! A9    A(1,2,13)             108.7638         estimate D2E/DX2                !
 ! A10   A(3,2,12)             107.4546         estimate D2E/DX2                !
 ! A11   A(3,2,13)             108.0637         estimate D2E/DX2                !
 ! A12   A(12,2,13)            107.6555         estimate D2E/DX2                !
 ! A13   A(2,3,4)              108.9078         estimate D2E/DX2                !
 ! A14   A(2,3,5)              110.8565         estimate D2E/DX2                !
 ! A15   A(2,3,7)              111.6726         estimate D2E/DX2                !
 ! A16   A(4,3,5)              106.2139         estimate D2E/DX2                !
 ! A17   A(4,3,7)              109.9316         estimate D2E/DX2                !
 ! A18   A(5,3,7)              109.1109         estimate D2E/DX2                !
 ! A19   A(3,4,14)             110.4612         estimate D2E/DX2                !
 ! A20   A(3,4,15)             108.3851         estimate D2E/DX2                !
 ! A21   A(14,4,15)            106.8151         estimate D2E/DX2                !
 ! A22   A(3,5,6)              111.9717         estimate D2E/DX2                !
 ! A23   A(3,5,16)             110.7959         estimate D2E/DX2                !
 ! A24   A(3,5,17)             108.9415         estimate D2E/DX2                !
 ! A25   A(6,5,16)             105.9504         estimate D2E/DX2                !
 ! A26   A(6,5,17)             110.1202         estimate D2E/DX2                !
 ! A27   A(16,5,17)            109.0016         estimate D2E/DX2                !
 ! A28   A(5,6,18)             106.4374         estimate D2E/DX2                !
 ! A29   A(3,7,8)              111.4518         estimate D2E/DX2                !
 ! A30   A(3,7,19)             110.022          estimate D2E/DX2                !
 ! A31   A(3,7,20)             110.0423         estimate D2E/DX2                !
 ! A32   A(8,7,19)             106.0825         estimate D2E/DX2                !
 ! A33   A(8,7,20)             110.5864         estimate D2E/DX2                !
 ! A34   A(19,7,20)            108.5456         estimate D2E/DX2                !
 ! A35   A(7,8,21)             107.1722         estimate D2E/DX2                !
 ! D1    D(9,1,2,3)           -178.7501         estimate D2E/DX2                !
 ! D2    D(9,1,2,12)            60.1            estimate D2E/DX2                !
 ! D3    D(9,1,2,13)           -57.0859         estimate D2E/DX2                !
 ! D4    D(10,1,2,3)            61.9123         estimate D2E/DX2                !
 ! D5    D(10,1,2,12)          -59.2375         estimate D2E/DX2                !
 ! D6    D(10,1,2,13)         -176.4235         estimate D2E/DX2                !
 ! D7    D(11,1,2,3)           -59.4841         estimate D2E/DX2                !
 ! D8    D(11,1,2,12)          179.3661         estimate D2E/DX2                !
 ! D9    D(11,1,2,13)           62.1802         estimate D2E/DX2                !
 ! D10   D(1,2,3,4)           -173.3059         estimate D2E/DX2                !
 ! D11   D(1,2,3,5)            -56.7964         estimate D2E/DX2                !
 ! D12   D(1,2,3,7)             65.1018         estimate D2E/DX2                !
 ! D13   D(12,2,3,4)           -51.2557         estimate D2E/DX2                !
 ! D14   D(12,2,3,5)            65.2539         estimate D2E/DX2                !
 ! D15   D(12,2,3,7)          -172.848          estimate D2E/DX2                !
 ! D16   D(13,2,3,4)            64.6547         estimate D2E/DX2                !
 ! D17   D(13,2,3,5)          -178.8358         estimate D2E/DX2                !
 ! D18   D(13,2,3,7)           -56.9376         estimate D2E/DX2                !
 ! D19   D(2,3,4,14)           -31.2748         estimate D2E/DX2                !
 ! D20   D(2,3,4,15)          -147.9788         estimate D2E/DX2                !
 ! D21   D(5,3,4,14)          -150.7159         estimate D2E/DX2                !
 ! D22   D(5,3,4,15)            92.5801         estimate D2E/DX2                !
 ! D23   D(7,3,4,14)            91.3711         estimate D2E/DX2                !
 ! D24   D(7,3,4,15)           -25.3329         estimate D2E/DX2                !
 ! D25   D(2,3,5,6)           -167.667          estimate D2E/DX2                !
 ! D26   D(2,3,5,16)            74.2855         estimate D2E/DX2                !
 ! D27   D(2,3,5,17)           -45.6192         estimate D2E/DX2                !
 ! D28   D(4,3,5,6)            -49.508          estimate D2E/DX2                !
 ! D29   D(4,3,5,16)          -167.5554         estimate D2E/DX2                !
 ! D30   D(4,3,5,17)            72.5399         estimate D2E/DX2                !
 ! D31   D(7,3,5,6)             68.948          estimate D2E/DX2                !
 ! D32   D(7,3,5,16)           -49.0994         estimate D2E/DX2                !
 ! D33   D(7,3,5,17)          -169.0041         estimate D2E/DX2                !
 ! D34   D(2,3,7,8)            169.7278         estimate D2E/DX2                !
 ! D35   D(2,3,7,19)            52.3423         estimate D2E/DX2                !
 ! D36   D(2,3,7,20)           -67.214          estimate D2E/DX2                !
 ! D37   D(4,3,7,8)             48.7292         estimate D2E/DX2                !
 ! D38   D(4,3,7,19)           -68.6563         estimate D2E/DX2                !
 ! D39   D(4,3,7,20)           171.7875         estimate D2E/DX2                !
 ! D40   D(5,3,7,8)            -67.3737         estimate D2E/DX2                !
 ! D41   D(5,3,7,19)           175.2408         estimate D2E/DX2                !
 ! D42   D(5,3,7,20)            55.6845         estimate D2E/DX2                !
 ! D43   D(3,5,6,18)            58.8603         estimate D2E/DX2                !
 ! D44   D(16,5,6,18)          179.7566         estimate D2E/DX2                !
 ! D45   D(17,5,6,18)          -62.5108         estimate D2E/DX2                !
 ! D46   D(3,7,8,21)            52.9799         estimate D2E/DX2                !
 ! D47   D(19,7,8,21)          172.7244         estimate D2E/DX2                !
 ! D48   D(20,7,8,21)          -69.767          estimate D2E/DX2                !
 --------------------------------------------------------------------------------
 Number of steps in this run=    113 maximum allowed number of steps=    126.
 GradGradGradGradGradGradGradGradGradGradGradGradGradGradGradGradGradGrad

                    Distance matrix (angstroms):
                    1          2          3          4          5
     1  C    0.000000
     2  C    1.524200   0.000000
     3  C    2.586317   1.533762   0.000000
     4  N    3.837145   2.442799   1.468152   0.000000
     5  C    3.052386   2.536842   1.547097   2.411934   0.000000
     6  O    4.423436   3.779917   2.451625   2.733890   1.409123
     7  C    3.149941   2.549743   1.547721   2.469849   2.521278
     8  O    4.487002   3.783453   2.441159   2.792405   2.995074
     9  H    1.087619   2.145992   3.505364   4.586634   4.042893
    10  H    1.086093   2.168013   2.874924   4.160130   2.749161
    11  H    1.086390   2.167826   2.856473   4.217086   3.414992
    12  H    2.146864   1.092770   2.133550   2.581945   2.781101
    13  H    2.143003   1.093905   2.142319   2.700080   3.471712
    14  H    3.965277   2.455946   2.054937   1.013436   3.263642
    15  H    4.563617   3.262881   2.033879   1.018702   2.864526
    16  H    2.868024   2.908048   2.187153   3.366662   1.091402
    17  H    3.166165   2.655249   2.168084   2.745608   1.097582
    18  H    4.830185   3.909758   2.579927   2.312096   1.920903
    19  H    3.418907   2.737346   2.180375   2.792947   3.477340
    20  H    2.885443   2.856495   2.183225   3.415639   2.721895
    21  H    4.630659   4.000833   2.534413   2.919782   2.546448
                    6          7          8          9         10
     6  O    0.000000
     7  C    3.022441   0.000000
     8  O    2.805519   1.404809   0.000000
     9  H    5.434972   4.103545   5.476508   0.000000
    10  H    4.122447   3.585062   4.770236   1.759928   0.000000
    11  H    4.654436   2.842637   4.188169   1.759710   1.766458
    12  H    3.991246   3.471443   4.551559   2.468442   2.489595
    13  H    4.575235   2.737506   3.979695   2.444032   3.056057
    14  H    3.740207   2.933837   3.428605   4.522690   4.486308
    15  H    2.752900   2.424411   2.235156   5.384844   4.895041
    16  H    2.005503   2.680628   3.248724   3.903392   2.366270
    17  H    2.062611   3.464919   4.025359   3.978802   2.697387
    18  H    0.966266   3.338321   3.031144   5.773766   4.639681
    19  H    4.026356   1.094712   2.005971   4.181933   4.118078
    20  H    3.362029   1.098189   2.065049   3.871379   3.204324
    21  H    2.028843   1.929391   0.971271   5.681657   4.692488
                   11         12         13         14         15
    11  H    0.000000
    12  H    3.059088   0.000000
    13  H    2.503090   1.765185   0.000000
    14  H    4.380230   2.514738   2.335112   0.000000
    15  H    4.753855   3.564489   3.401251   1.631599   0.000000
    16  H    3.023080   3.336862   3.861148   4.157234   3.740361
    17  H    3.822360   2.463043   3.681659   3.467229   3.427575
    18  H    5.165664   3.964760   4.603624   3.299028   2.279240
    19  H    3.026926   3.706745   2.470942   2.889993   2.718069
    20  H    2.301901   3.851322   3.176231   3.901914   3.465774
    21  H    4.434792   4.646014   4.428719   3.758352   2.431563
                   16         17         18         19         20
    16  H    0.000000
    17  H    1.782106   0.000000
    18  H    2.799171   2.298549   0.000000
    19  H    3.689181   4.303756   4.196827   0.000000
    20  H    2.421445   3.678207   3.926442   1.780211   0.000000
    21  H    2.775992   3.588213   2.398221   2.807740   2.361162
                   21
    21  H    0.000000
 Framework group  C1[X(C5H13NO2)]
 Deg. of freedom    57
                         Standard orientation:                         
 ---------------------------------------------------------------------
 Center     Atomic      Atomic             Coordinates (Angstroms)
 Number     Number       Type             X           Y           Z
 ---------------------------------------------------------------------
      1          6           0        2.556404    0.065255   -0.650181
      2          6           0        1.677306   -0.059319    0.588711
      3          6           0        0.165550   -0.038948    0.330632
      4          7           0       -0.536697   -0.005163    1.619498
      5          6           0       -0.247717    1.248960   -0.420377
      6          8           0       -1.645074    1.430587   -0.426052
      7          6           0       -0.291362   -1.271059   -0.487032
      8          8           0       -1.692005   -1.372848   -0.523450
      9          1           0        3.602480    0.017349   -0.356335
     10          1           0        2.390595    1.011997   -1.155933
     11          1           0        2.365328   -0.743608   -1.349805
     12          1           0        1.904131    0.762056    1.272845
     13          1           0        1.921413   -0.994638    1.100783
     14          1           0       -0.001701   -0.494794    2.327379
     15          1           0       -1.418453   -0.505157    1.518169
     16          1           0        0.052574    1.199610   -1.468493
     17          1           0        0.242986    2.109738    0.051808
     18          1           0       -1.919257    1.471368    0.499600
     19          1           0        0.067231   -2.189952   -0.012226
     20          1           0        0.118725   -1.220663   -1.504533
     21          1           0       -2.033634   -0.518413   -0.834251
 ---------------------------------------------------------------------
 Rotational constants (GHZ):           2.5489765           1.5424415           1.3717975
   138 basis functions,   252 primitive gaussians,   146 cartesian basis functions
    33 alpha electrons       33 beta electrons
       nuclear repulsion energy       436.6575025260 Hartrees.
 NAtoms=   21 NActive=   21 NUniq=   21 SFac= 1.00D+00 NAtFMM=   60 NAOKFM=F Big=F
 Nuclear repulsion after empirical dispersion term =      436.6423635965 Hartrees.
   1 Symmetry operations used in ECPInt.
 ECPInt:  NShTT=    2775 NPrTT=   11169 LenC2=    2761 LenP2D=    8930.
 LDataN:  DoStor=T MaxTD1= 4 Len=   56
 ExpMin= 1.22D-01 ExpMax= 2.27D+03 ExpMxC= 3.41D+02 IAcc=3 IRadAn=         5 AccDes= 0.00D+00
 Harris functional with IExCor= 4639 and IRadAn=       5 diagonalized for initial guess.
 HarFok:  IExCor= 4639 AccDes= 0.00D+00 IRadAn=         5 IDoV= 1 UseB2=F ITyADJ=14
 ICtDFT=  3500011 ScaDFX=  1.000000  1.000000  1.000000  1.000000
 FoFCou: FMM=F IPFlag=           0 FMFlag=      100000 FMFlg1=           0
         NFxFlg=           0 DoJE=T BraDBF=F KetDBF=T FulRan=T
         wScrn=  0.000000 ICntrl=       500 IOpCl=  0 I1Cent=   200000004 NGrid=           0
         NMat0=    1 NMatS0=      1 NMatT0=    0 NMatD0=    1 NMtDS0=    0 NMtDT0=    0
 Petite list used in FoFCou.
     Minimum is close to point  3 DX=  6.12D-03 DF= -5.68D-06 DXR=  1.01D-02 DFR=  1.01D-04 which will be used.
     Accept linear search using points  2 and  3.
     Accept linear search using points  1 and  2.
     Accept linear search using points  2 and  3.
     Minimum is close to point  2 DX=  9.52D-06 DF=  0.00D+00 DXR=  9.52D-06 DFR=  0.00D+00 which will be used.
 SCF Done:  E(RwB97XD) =  -403.090338106     a.u. after    8 cycles
            Convg  =    0.2536D-09                    36 Fock formations.
              S**2 =  0.0000                  -V/T =  2.0086

 **********************************************************************

            Population analysis using the SCF Density.

 **********************************************************************

 Orbital symmetries:
       Occupied  (A) (A) (A) (A) (A) (A) (A) (A) (A) (A) (A) (A)
                 (A) (A) (A) (A) (A) (A) (A) (A) (A) (A) (A) (A)
                 (A) (A) (A) (A) (A) (A) (A) (A) (A)
       Virtual   (A) (A) (A) (A) (A) (A) (A) (A) (A) (A) (A) (A)
                 (A) (A) (A) (A) (A) (A) (A) (A) (A) (A) (A) (A)
                 (A) (A) (A) (A) (A) (A) (A) (A) (A) (A) (A) (A)
                 (A) (A) (A) (A) (A) (A) (A) (A) (A) (A) (A) (A)
                 (A) (A) (A) (A) (A) (A) (A) (A) (A) (A) (A) (A)
                 (A) (A) (A) (A) (A) (A) (A) (A) (A) (A) (A) (A)
                 (A) (A) (A) (A) (A) (A) (A) (A) (A) (A) (A) (A)
                 (A) (A) (A) (A) (A) (A) (A) (A) (A) (A) (A) (A)
                 (A) (A) (A) (A) (A) (A) (A) (A) (A)
 The electronic state is 1-A.
 Alpha  occ. eigenvalues --  -19.25931 -19.23994 -14.41947 -10.33491 -10.33085
 Alpha  occ. eigenvalues --  -10.32956 -10.29872 -10.28783  -1.12884  -1.10328
 Alpha  occ. eigenvalues --   -0.98624  -0.88105  -0.81196  -0.76494  -0.73125
 Alpha  occ. eigenvalues --   -0.66499  -0.61965  -0.59184  -0.57922  -0.55344
 Alpha  occ. eigenvalues --   -0.54332  -0.52130  -0.51279  -0.49160  -0.48563
 Alpha  occ. eigenvalues --   -0.46057  -0.44615  -0.44434  -0.42254  -0.39959
 Alpha  occ. eigenvalues --   -0.36198  -0.35702  -0.32001
 Alpha virt. eigenvalues --    0.13025   0.13594   0.16242   0.17073   0.19150
 Alpha virt. eigenvalues --    0.19493   0.20564   0.20974   0.22292   0.22997
 Alpha virt. eigenvalues --    0.23888   0.25124   0.26493   0.29106   0.30120
 Alpha virt. eigenvalues --    0.31404   0.32717   0.33671   0.35506   0.38261
 Alpha virt. eigenvalues --    0.52641   0.52963   0.54716   0.55468   0.58077
 Alpha virt. eigenvalues --    0.60098   0.62479   0.62959   0.68011   0.68318
 Alpha virt. eigenvalues --    0.69835   0.72062   0.72749   0.75180   0.75880
 Alpha virt. eigenvalues --    0.76484   0.76957   0.78736   0.79421   0.80515
 Alpha virt. eigenvalues --    0.80688   0.81741   0.82537   0.83672   0.84015
 Alpha virt. eigenvalues --    0.84501   0.86479   0.87869   0.89688   0.95926
 Alpha virt. eigenvalues --    1.02454   1.06145   1.08279   1.10519   1.14015
 Alpha virt. eigenvalues --    1.17006   1.18433   1.23057   1.25801   1.27220
 Alpha virt. eigenvalues --    1.34078   1.37814   1.42221   1.50447   1.59076
 Alpha virt. eigenvalues --    1.62475   1.70277   1.74512   1.81233   1.83447
 Alpha virt. eigenvalues --    1.86482   1.90460   1.96937   1.98920   2.00484
 Alpha virt. eigenvalues --    2.05260   2.09185   2.10840   2.12678   2.19253
 Alpha virt. eigenvalues --    2.20911   2.23254   2.30696   2.31409   2.35814
 Alpha virt. eigenvalues --    2.37207   2.42806   2.46414   2.55624   2.64617
 Alpha virt. eigenvalues --    2.67281   2.69592   2.74828   2.76924   2.78945
 Alpha virt. eigenvalues --    2.86688   2.92218   2.94434   3.04404   3.07080
 Alpha virt. eigenvalues --    3.08418   3.12088   3.17338   3.47999   3.49623
          Condensed to atoms (all electrons):
 Mulliken charges:
               1
     1  C   -0.321993
     2  C   -0.181301
     3  C   -0.238449
     4  N   -0.498041
     5  C    0.091351
     6  O   -0.506191
     7  C    0.099863
     8  O   -0.508187
     9  H    0.125096
    10  H    0.126119
    11  H    0.124482
    12  H    0.113180
    13  H    0.099531
    14  H    0.222535
    15  H    0.228499
    16  H    0.104949
    17  H    0.095348
    18  H    0.322089
    19  H    0.090064
    20  H    0.089171
    21  H    0.321884
 Sum of Mulliken charges =   0.00000
 Mulliken charges with hydrogens summed into heavy atoms:
               1
     1  C    0.053703
     2  C    0.031411
     3  C   -0.238449
     4  N   -0.047007
     5  C    0.291647
     6  O   -0.184102
     7  C    0.279098
     8  O   -0.186303
 Electronic spatial extent (au):  <R**2>=           1054.5204
 Charge=              0.0000 electrons
 Dipole moment (field-independent basis, Debye):
    X=              2.1095    Y=              0.0762    Z=              0.9007  Tot=              2.2950
 Evaluate density.
 Using the total density.
 Monte-Carlo method of calculating molar volume:
 based on  0.001 e/bohr**3 density envelope.
 Number of points per bohr**3 =  100 CutOff= 1.00D-04
 Using the SCF density.
 There are      1781 points.  Will hold      1781 in memory.
 LenV=  1048288528 MDV=  1048576000.
 Box volume = 5652.044 fraction occupied=0.197
 Integrated density= 5.2696249360417760D+01 error=-1.3303750639582240D+01
 Molar volume = 1110.733 bohr**3/mol ( 99.121 cm**3/mol)
 Recommended a0 for SCRF calculation =  4.24 angstrom (  8.02 bohr)
   1 Symmetry operations used in ECPInt.
 ECPInt:  NShTT=    2775 NPrTT=   11169 LenC2=    2761 LenP2D=    8930.
 LDataN:  DoStor=T MaxTD1= 5 Len=  102
 Calling FoFJK, ICntrl=      2127 FMM=F ISym2X=0 I1Cent= 0 IOpClX= 0 NMat=1 NMatS=1 NMatT=0.

 GradGradGradGradGradGradGradGradGradGradGradGradGradGradGradGradGradGrad
 FormGI is forming the generalized inverse of G from B-inverse, IUseBI=4.
 Internal  Forces:  Max     0.011285297 RMS     0.002911695
 Step number   1 out of a maximum of  113
 All quantities printed in internal units (Hartrees-Bohrs-Radians)
 Mixed Optimization -- RFO/linear search
 Second derivative matrix not updated -- first step.
 ITU=  0
     Eigenvalues ---    0.00230   0.00230   0.00319   0.00446   0.00790
     Eigenvalues ---    0.01571   0.01628   0.03341   0.04337   0.04445
     Eigenvalues ---    0.04823   0.04876   0.04895   0.05286   0.05530
     Eigenvalues ---    0.05695   0.05713   0.05772   0.05922   0.08763
     Eigenvalues ---    0.11652   0.11680   0.12508   0.13914   0.13930
     Eigenvalues ---    0.14957   0.15308   0.16000   0.16000   0.16000
     Eigenvalues ---    0.16000   0.16000   0.16000   0.16000   0.22018
     Eigenvalues ---    0.22058   0.22082   0.27846   0.27899   0.29079
     Eigenvalues ---    0.29966   0.33883   0.33951   0.34274   0.34365
     Eigenvalues ---    0.34494   0.34651   0.35089   0.35233   0.35268
     Eigenvalues ---    0.35962   0.44141   0.44546   0.44833   0.45402
     Eigenvalues ---    0.53118   0.54147
 Linear search not attempted -- first point.
 Iteration  1 RMS(Cart)=  0.02720535 RMS(Int)=  0.00058176
 Iteration  2 RMS(Cart)=  0.00059885 RMS(Int)=  0.00003026
 Iteration  3 RMS(Cart)=  0.00000040 RMS(Int)=  0.00003025
 Variable       Old X    -DE/DX   Delta X   Delta X   Delta X     New X
                                 (Linear)    (Quad)   (Total)
    R1        2.88032   0.00525   0.00000   0.01733   0.01733   2.89765
    R2        2.05530   0.01024   0.00000   0.02894   0.02894   2.08424
    R3        2.05242   0.01129   0.00000   0.03172   0.03172   2.08413
    R4        2.05298   0.01107   0.00000   0.03113   0.03113   2.08411
    R5        2.89839   0.00087   0.00000   0.00294   0.00294   2.90133
    R6        2.06504   0.00834   0.00000   0.02397   0.02397   2.08901
    R7        2.06718   0.00821   0.00000   0.02368   0.02368   2.09086
    R8        2.77441   0.00113   0.00000   0.00311   0.00311   2.77752
    R9        2.92359  -0.00205   0.00000  -0.00728  -0.00728   2.91631
   R10        2.92477  -0.00104   0.00000  -0.00368  -0.00368   2.92108
   R11        1.91512   0.00526   0.00000   0.01151   0.01151   1.92662
   R12        1.92507   0.00342   0.00000   0.00761   0.00761   1.93268
   R13        2.66286   0.00118   0.00000   0.00266   0.00266   2.66551
   R14        2.06245   0.00709   0.00000   0.02028   0.02028   2.08273
   R15        2.07413   0.00696   0.00000   0.02031   0.02031   2.09444
   R16        1.82598   0.00506   0.00000   0.00929   0.00929   1.83527
   R17        2.65470   0.00244   0.00000   0.00541   0.00541   2.66011
   R18        2.06871   0.00635   0.00000   0.01836   0.01836   2.08706
   R19        2.07528   0.00692   0.00000   0.02022   0.02022   2.09550
   R20        1.83544   0.00247   0.00000   0.00463   0.00463   1.84006
    A1        1.90872   0.00181   0.00000   0.01080   0.01074   1.91946
    A2        1.94088   0.00177   0.00000   0.01045   0.01039   1.95127
    A3        1.94030   0.00220   0.00000   0.01414   0.01405   1.95435
    A4        1.88708  -0.00198   0.00000  -0.01349  -0.01353   1.87355
    A5        1.88637  -0.00194   0.00000  -0.01116  -0.01124   1.87512
    A6        1.89893  -0.00208   0.00000  -0.01220  -0.01228   1.88666
    A7        2.01599   0.00260   0.00000   0.01625   0.01618   2.03217
    A8        1.90468  -0.00031   0.00000   0.00298   0.00296   1.90764
    A9        1.89829   0.00002   0.00000   0.00575   0.00574   1.90402
   A10        1.87544  -0.00081   0.00000  -0.00303  -0.00313   1.87230
   A11        1.88607  -0.00114   0.00000  -0.00542  -0.00554   1.88053
   A12        1.87894  -0.00057   0.00000  -0.01930  -0.01934   1.85960
   A13        1.90080   0.00025   0.00000   0.00043   0.00044   1.90124
   A14        1.93481  -0.00124   0.00000  -0.00945  -0.00945   1.92536
   A15        1.94905   0.00064   0.00000   0.00409   0.00410   1.95316
   A16        1.85378   0.00055   0.00000   0.00367   0.00366   1.85745
   A17        1.91867  -0.00078   0.00000  -0.00353  -0.00354   1.91512
   A18        1.90435   0.00056   0.00000   0.00470   0.00471   1.90905
   A19        1.92791   0.00219   0.00000   0.01302   0.01303   1.94094
   A20        1.89168  -0.00082   0.00000  -0.00539  -0.00538   1.88630
   A21        1.86427  -0.00070   0.00000  -0.00506  -0.00504   1.85923
   A22        1.95427  -0.00320   0.00000  -0.01286  -0.01284   1.94143
   A23        1.93375   0.00137   0.00000   0.00771   0.00774   1.94149
   A24        1.90139   0.00054   0.00000   0.00065   0.00066   1.90205
   A25        1.84918   0.00103   0.00000   0.00654   0.00657   1.85575
   A26        1.92196   0.00148   0.00000   0.00828   0.00828   1.93024
   A27        1.90244  -0.00119   0.00000  -0.01023  -0.01024   1.89220
   A28        1.85768  -0.00199   0.00000  -0.01220  -0.01220   1.84549
   A29        1.94520   0.00002   0.00000   0.00341   0.00340   1.94860
   A30        1.92025  -0.00090   0.00000  -0.00953  -0.00956   1.91069
   A31        1.92060   0.00018   0.00000   0.00089   0.00082   1.92142
   A32        1.85149   0.00086   0.00000   0.00837   0.00839   1.85988
   A33        1.93010   0.00056   0.00000   0.01015   0.01012   1.94022
   A34        1.89448  -0.00074   0.00000  -0.01376  -0.01382   1.88065
   A35        1.87051   0.00099   0.00000   0.00605   0.00605   1.87656
    D1       -3.11978  -0.00005   0.00000  -0.00167  -0.00169  -3.12147
    D2        1.04894  -0.00056   0.00000  -0.01126  -0.01130   1.03764
    D3       -0.99634   0.00029   0.00000   0.00694   0.00697  -0.98937
    D4        1.08057   0.00015   0.00000   0.00162   0.00162   1.08219
    D5       -1.03389  -0.00036   0.00000  -0.00797  -0.00799  -1.04188
    D6       -3.07917   0.00049   0.00000   0.01023   0.01028  -3.06889
    D7       -1.03819   0.00007   0.00000   0.00020   0.00019  -1.03800
    D8        3.13053  -0.00044   0.00000  -0.00940  -0.00942   3.12111
    D9        1.08525   0.00040   0.00000   0.00881   0.00885   1.09410
   D10       -3.02476  -0.00007   0.00000   0.00476   0.00474  -3.02002
   D11       -0.99128   0.00003   0.00000   0.00405   0.00405  -0.98724
   D12        1.13624   0.00033   0.00000   0.00625   0.00624   1.14248
   D13       -0.89458   0.00066   0.00000   0.01719   0.01717  -0.87741
   D14        1.13889   0.00076   0.00000   0.01649   0.01647   1.15536
   D15       -3.01677   0.00106   0.00000   0.01869   0.01867  -2.99810
   D16        1.12844  -0.00100   0.00000  -0.00967  -0.00965   1.11879
   D17       -3.12127  -0.00090   0.00000  -0.01038  -0.01034  -3.13162
   D18       -0.99375  -0.00060   0.00000  -0.00818  -0.00815  -1.00190
   D19       -0.54585   0.00016   0.00000   0.05886   0.05885  -0.48700
   D20       -2.58272   0.00026   0.00000   0.06083   0.06083  -2.52189
   D21       -2.63049   0.00119   0.00000   0.06776   0.06775  -2.56274
   D22        1.61583   0.00128   0.00000   0.06972   0.06973   1.68556
   D23        1.59473   0.00062   0.00000   0.06196   0.06196   1.65669
   D24       -0.44214   0.00072   0.00000   0.06393   0.06394  -0.37820
   D25       -2.92634   0.00028   0.00000   0.02874   0.02873  -2.89761
   D26        1.29653   0.00014   0.00000   0.02373   0.02373   1.32026
   D27       -0.79621   0.00042   0.00000   0.03120   0.03120  -0.76501
   D28       -0.86408   0.00024   0.00000   0.02637   0.02635  -0.83773
   D29       -2.92439   0.00010   0.00000   0.02136   0.02135  -2.90304
   D30        1.26606   0.00038   0.00000   0.02882   0.02882   1.29488
   D31        1.20337  -0.00009   0.00000   0.02666   0.02666   1.23003
   D32       -0.85695  -0.00023   0.00000   0.02165   0.02166  -0.83528
   D33       -2.94968   0.00005   0.00000   0.02912   0.02913  -2.92055
   D34        2.96231   0.00017   0.00000  -0.00597  -0.00598   2.95633
   D35        0.91354  -0.00033   0.00000  -0.01241  -0.01239   0.90116
   D36       -1.17311   0.00103   0.00000   0.00999   0.00997  -1.16314
   D37        0.85049  -0.00003   0.00000  -0.00681  -0.00683   0.84366
   D38       -1.19828  -0.00054   0.00000  -0.01325  -0.01323  -1.21151
   D39        2.99826   0.00082   0.00000   0.00914   0.00912   3.00738
   D40       -1.17589  -0.00057   0.00000  -0.01193  -0.01193  -1.18783
   D41        3.05853  -0.00108   0.00000  -0.01837  -0.01834   3.04019
   D42        0.97188   0.00028   0.00000   0.00402   0.00402   0.97589
   D43        1.02731   0.00011   0.00000   0.01960   0.01960   1.04690
   D44        3.13734   0.00061   0.00000   0.02584   0.02582  -3.12002
   D45       -1.09102   0.00055   0.00000   0.02170   0.02172  -1.06930
   D46        0.92467  -0.00000   0.00000  -0.01555  -0.01553   0.90914
   D47        3.01461  -0.00055   0.00000  -0.02001  -0.02000   2.99461
   D48       -1.21766  -0.00064   0.00000  -0.02627  -0.02629  -1.24395
         Item               Value     Threshold  Converged?
 Maximum Force            0.011285     0.000015     NO 
 RMS     Force            0.002912     0.000010     NO 
 Maximum Displacement     0.112194     0.000060     NO 
 RMS     Displacement     0.027237     0.000040     NO 
 GradGradGradGradGradGradGradGradGradGradGradGradGradGradGradGradGradGrad

                    Distance matrix (angstroms):
                    1          2          3          4          5
     1  C    0.000000
     2  C    1.533372   0.000000
     3  C    2.608546   1.535320   0.000000
     4  N    3.856155   2.445789   1.469800   0.000000
     5  C    3.061527   2.526659   1.543245   2.413415   0.000000
     6  O    4.439217   3.764179   2.438874   2.708332   1.410529
     7  C    3.180656   2.552959   1.545771   2.466495   2.520760
     8  O    4.522755   3.789861   2.444635   2.789101   3.008217
     9  H    1.102931   2.173305   3.541352   4.616992   4.065936
    10  H    1.102876   2.196268   2.918068   4.200217   2.776237
    11  H    1.102862   2.198456   2.902115   4.263170   3.443669
    12  H    2.166505   1.105455   2.141788   2.578579   2.780774
    13  H    2.164560   1.106437   2.148715   2.698799   3.472059
    14  H    3.980186   2.456260   2.069763   1.019526   3.259686
    15  H    4.575227   3.252032   2.034492   1.022732   2.899993
    16  H    2.897307   2.919462   2.197413   3.379048   1.102135
    17  H    3.143014   2.632877   2.173143   2.767677   1.108327
    18  H    4.827105   3.877892   2.565862   2.282279   1.917274
    19  H    3.434944   2.730615   2.178870   2.791772   3.479299
    20  H    2.913387   2.860924   2.190109   3.424103   2.729869
    21  H    4.675801   4.010510   2.538588   2.907680   2.565390
                    6          7          8          9         10
     6  O    0.000000
     7  C    3.027115   0.000000
     8  O    2.825350   1.407670   0.000000
     9  H    5.461142   4.148543   5.525403   0.000000
    10  H    4.156097   3.634338   4.826691   1.777114   0.000000
    11  H    4.698437   2.897466   4.246928   1.778128   1.785584
    12  H    3.971828   3.481799   4.561821   2.498355   2.527289
    13  H    4.566161   2.745560   3.986081   2.477820   3.096745
    14  H    3.716426   2.971427   3.468307   4.541811   4.515507
    15  H    2.784551   2.400885   2.221650   5.403228   4.941227
    16  H    2.019488   2.683413   3.258079   3.949174   2.410609
    17  H    2.077927   3.470903   4.052822   3.965766   2.681881
    18  H    0.971181   3.357089   3.081264   5.775385   4.652560
    19  H    4.036849   1.104427   2.021804   4.209430   4.156111
    20  H    3.388148   1.108891   2.082888   3.913921   3.249761
    21  H    2.051816   1.937749   0.973720   5.739784   4.758326
                   11         12         13         14         15
    11  H    0.000000
    12  H    3.100153   0.000000
    13  H    2.546508   1.772836   0.000000
    14  H    4.437040   2.478113   2.337591   0.000000
    15  H    4.786831   3.558138   3.367674   1.636646   0.000000
    16  H    3.057234   3.366619   3.883472   4.173873   3.773090
    17  H    3.822432   2.446160   3.672909   3.458916   3.489877
    18  H    5.201786   3.913681   4.578682   3.259728   2.337607
    19  H    3.067223   3.705305   2.460438   2.933903   2.680494
    20  H    2.343118   3.870520   3.188163   3.943004   3.461927
    21  H    4.504200   4.657912   4.439456   3.779554   2.429710
                   16         17         18         19         20
    16  H    0.000000
    17  H    1.792998   0.000000
    18  H    2.811557   2.297186   0.000000
    19  H    3.696534   4.306960   4.218783   0.000000
    20  H    2.425629   3.684272   3.963148   1.787812   0.000000
    21  H    2.794308   3.622235   2.449078   2.826718   2.393726
                   21
    21  H    0.000000
 Framework group  C1[X(C5H13NO2)]
 Deg. of freedom    57
                         Standard orientation:                         
 ---------------------------------------------------------------------
 Center     Atomic      Atomic             Coordinates (Angstroms)
 Number     Number       Type             X           Y           Z
 ---------------------------------------------------------------------
      1          6           0        2.580792    0.041629   -0.631379
      2          6           0        1.665556   -0.065897    0.594187
      3          6           0        0.154561   -0.039308    0.323275
      4          7           0       -0.559167    0.016943    1.606919
      5          6           0       -0.229372    1.242274   -0.445975
      6          8           0       -1.624554    1.449156   -0.429937
      7          6           0       -0.309581   -1.277006   -0.478027
      8          8           0       -1.713386   -1.373436   -0.517630
      9          1           0        3.637167   -0.008897   -0.318369
     10          1           0        2.441085    0.997034   -1.164315
     11          1           0        2.408882   -0.778775   -1.348100
     12          1           0        1.888811    0.762943    1.290759
     13          1           0        1.894626   -1.003100    1.135833
     14          1           0       -0.014513   -0.417759    2.351109
     15          1           0       -1.417968   -0.531069    1.516792
     16          1           0        0.061460    1.173429   -1.506814
     17          1           0        0.298016    2.105804    0.006315
     18          1           0       -1.868363    1.528412    0.506796
     19          1           0        0.055168   -2.194291    0.017256
     20          1           0        0.119009   -1.251509   -1.500425
     21          1           0       -2.057418   -0.516740   -0.827219
 ---------------------------------------------------------------------
 Rotational constants (GHZ):           2.5408770           1.5353443           1.3609384
   138 basis functions,   252 primitive gaussians,   146 cartesian basis functions
    33 alpha electrons       33 beta electrons
       nuclear repulsion energy       435.4219578674 Hartrees.
 NAtoms=   21 NActive=   21 NUniq=   21 SFac= 1.00D+00 NAtFMM=   60 NAOKFM=F Big=F
 Nuclear repulsion after empirical dispersion term =      435.4068846706 Hartrees.
   1 Symmetry operations used in ECPInt.
 ECPInt:  NShTT=    2775 NPrTT=   11169 LenC2=    2760 LenP2D=    8921.
 LDataN:  DoStor=T MaxTD1= 4 Len=   56
 Initial guess from the checkpoint file:  "monomer.chk"
 B after Tr=    -0.000000    0.000000    0.000000
         Rot=    0.999971    0.005155    0.002883    0.004844 Ang=   0.88 deg.
 ExpMin= 1.22D-01 ExpMax= 2.27D+03 ExpMxC= 3.41D+02 IAcc=3 IRadAn=         5 AccDes= 0.00D+00
 Harris functional with IExCor= 4639 and IRadAn=       5 diagonalized for initial guess.
 HarFok:  IExCor= 4639 AccDes= 0.00D+00 IRadAn=         5 IDoV= 1 UseB2=F ITyADJ=14
 ICtDFT=  3500011 ScaDFX=  1.000000  1.000000  1.000000  1.000000
 FoFCou: FMM=F IPFlag=           0 FMFlag=      100000 FMFlg1=           0
         NFxFlg=           0 DoJE=T BraDBF=F KetDBF=T FulRan=T
         wScrn=  0.000000 ICntrl=       500 IOpCl=  0 I1Cent=   200000004 NGrid=           0
         NMat0=    1 NMatS0=      1 NMatT0=    0 NMatD0=    1 NMtDS0=    0 NMtDT0=    0
 Petite list used in FoFCou.
     Minimum is close to point  4 DX=  4.80D-03 DF= -2.18D-08 DXR=  3.98D-03 DFR=  1.58D-05 which will be used.
     Minimum is close to point  2 DX=  1.61D-02 DF= -2.67D-08 DXR=  1.59D-02 DFR=  2.52D-04 which will be used.
     Accept linear search using points  1 and  2.
     Accept linear search using points  1 and  2.
     Minimum is close to point  2 DX= -1.57D-04 DF= -1.36D-12 DXR=  1.57D-04 DFR=  2.43D-08 which will be used.
 SCF Done:  E(RwB97XD) =  -403.091941218     a.u. after    7 cycles
            Convg  =    0.2506D-08                    33 Fock formations.
              S**2 =  0.0000                  -V/T =  2.0091
   1 Symmetry operations used in ECPInt.
 ECPInt:  NShTT=    2775 NPrTT=   11169 LenC2=    2760 LenP2D=    8921.
 LDataN:  DoStor=T MaxTD1= 5 Len=  102
 Calling FoFJK, ICntrl=      2127 FMM=F ISym2X=0 I1Cent= 0 IOpClX= 0 NMat=1 NMatS=1 NMatT=0.

 GradGradGradGradGradGradGradGradGradGradGradGradGradGradGradGradGradGrad
 Using GEDIIS/GDIIS optimizer.
 FormGI is forming the generalized inverse of G from B-inverse, IUseBI=4.
 Internal  Forces:  Max     0.002718189 RMS     0.000534465
 Step number   2 out of a maximum of  113
 All quantities printed in internal units (Hartrees-Bohrs-Radians)
 Mixed Optimization -- En-DIIS/RFO-DIIS
 Trust test= 9.75D-01 RLast= 2.14D-01 DXMaxT set to 5.05D-01
 ITU=  1  0
 Use linear search instead of GDIIS.
     Eigenvalues ---    0.00230   0.00242   0.00319   0.00446   0.00748
     Eigenvalues ---    0.01600   0.01613   0.03222   0.04338   0.04409
     Eigenvalues ---    0.04750   0.04855   0.04933   0.05290   0.05401
     Eigenvalues ---    0.05657   0.05680   0.05777   0.05961   0.09000
     Eigenvalues ---    0.11595   0.11653   0.12645   0.13849   0.13954
     Eigenvalues ---    0.15095   0.15219   0.15588   0.16000   0.16000
     Eigenvalues ---    0.16000   0.16000   0.16000   0.16254   0.21495
     Eigenvalues ---    0.22025   0.22152   0.27577   0.27912   0.29085
     Eigenvalues ---    0.30036   0.33906   0.33939   0.34298   0.34368
     Eigenvalues ---    0.34516   0.34727   0.35143   0.35251   0.35780
     Eigenvalues ---    0.36049   0.44182   0.44482   0.45157   0.46026
     Eigenvalues ---    0.53078   0.53927
 Quartic linear search produced a step of  0.02672.
 Iteration  1 RMS(Cart)=  0.05153815 RMS(Int)=  0.00167885
 Iteration  2 RMS(Cart)=  0.00218558 RMS(Int)=  0.00000674
 Iteration  3 RMS(Cart)=  0.00000208 RMS(Int)=  0.00000648
 Iteration  4 RMS(Cart)=  0.00000000 RMS(Int)=  0.00000648
 Variable       Old X    -DE/DX   Delta X   Delta X   Delta X     New X
                                 (Linear)    (Quad)   (Total)
    R1        2.89765  -0.00272   0.00046  -0.00618  -0.00572   2.89193
    R2        2.08424  -0.00005   0.00077   0.00503   0.00581   2.09004
    R3        2.08413   0.00016   0.00085   0.00615   0.00700   2.09114
    R4        2.08411   0.00011   0.00083   0.00591   0.00674   2.09085
    R5        2.90133  -0.00038   0.00008  -0.00082  -0.00075   2.90059
    R6        2.08901   0.00017   0.00064   0.00481   0.00545   2.09446
    R7        2.09086   0.00027   0.00063   0.00504   0.00567   2.09654
    R8        2.77752   0.00023   0.00008   0.00121   0.00129   2.77881
    R9        2.91631  -0.00019  -0.00019  -0.00201  -0.00220   2.91411
   R10        2.92108  -0.00142  -0.00010  -0.00588  -0.00598   2.91510
   R11        1.92662  -0.00009   0.00031   0.00185   0.00216   1.92879
   R12        1.93268   0.00015   0.00020   0.00172   0.00192   1.93460
   R13        2.66551  -0.00062   0.00007  -0.00097  -0.00090   2.66461
   R14        2.08273  -0.00002   0.00054   0.00358   0.00412   2.08686
   R15        2.09444   0.00030   0.00054   0.00454   0.00508   2.09952
   R16        1.83527   0.00091   0.00025   0.00338   0.00363   1.83890
   R17        2.66011  -0.00196   0.00014  -0.00351  -0.00337   2.65674
   R18        2.08706   0.00006   0.00049   0.00348   0.00397   2.09103
   R19        2.09550   0.00017   0.00054   0.00413   0.00467   2.10017
   R20        1.84006   0.00024   0.00012   0.00129   0.00142   1.84148
    A1        1.91946   0.00012   0.00029   0.00313   0.00341   1.92287
    A2        1.95127   0.00016   0.00028   0.00258   0.00285   1.95412
    A3        1.95435   0.00012   0.00038   0.00313   0.00350   1.95784
    A4        1.87355  -0.00012  -0.00036  -0.00290  -0.00326   1.87029
    A5        1.87512  -0.00008  -0.00030  -0.00199  -0.00230   1.87283
    A6        1.88666  -0.00024  -0.00033  -0.00448  -0.00481   1.88185
    A7        2.03217  -0.00053   0.00043   0.00102   0.00144   2.03361
    A8        1.90764   0.00001   0.00008  -0.00156  -0.00149   1.90616
    A9        1.90402  -0.00007   0.00015   0.00035   0.00049   1.90452
   A10        1.87230   0.00031  -0.00008   0.00125   0.00117   1.87347
   A11        1.88053   0.00056  -0.00015   0.00491   0.00475   1.88528
   A12        1.85960  -0.00025  -0.00052  -0.00669  -0.00721   1.85240
   A13        1.90124   0.00032   0.00001   0.00468   0.00469   1.90593
   A14        1.92536   0.00044  -0.00025   0.00247   0.00223   1.92758
   A15        1.95316  -0.00030   0.00011   0.00039   0.00051   1.95366
   A16        1.85745  -0.00053   0.00010  -0.00496  -0.00487   1.85257
   A17        1.91512   0.00014  -0.00009  -0.00102  -0.00113   1.91400
   A18        1.90905  -0.00009   0.00013  -0.00181  -0.00169   1.90736
   A19        1.94094  -0.00013   0.00035   0.00372   0.00405   1.94499
   A20        1.88630   0.00038  -0.00014   0.00385   0.00369   1.88999
   A21        1.85923   0.00030  -0.00013   0.00586   0.00569   1.86492
   A22        1.94143  -0.00127  -0.00034  -0.00776  -0.00809   1.93334
   A23        1.94149   0.00076   0.00021   0.00538   0.00558   1.94707
   A24        1.90205   0.00038   0.00002   0.00303   0.00305   1.90510
   A25        1.85575   0.00006   0.00018  -0.00087  -0.00068   1.85507
   A26        1.93024   0.00063   0.00022   0.00645   0.00668   1.93692
   A27        1.89220  -0.00055  -0.00027  -0.00622  -0.00650   1.88570
   A28        1.84549  -0.00129  -0.00033  -0.01045  -0.01077   1.83471
   A29        1.94860  -0.00095   0.00009  -0.00394  -0.00384   1.94475
   A30        1.91069   0.00069  -0.00026   0.00379   0.00353   1.91422
   A31        1.92142   0.00016   0.00002   0.00007   0.00009   1.92152
   A32        1.85988   0.00012   0.00022   0.00230   0.00252   1.86241
   A33        1.94022   0.00031   0.00027   0.00170   0.00196   1.94218
   A34        1.88065  -0.00030  -0.00037  -0.00379  -0.00416   1.87649
   A35        1.87656  -0.00099   0.00016  -0.00527  -0.00511   1.87145
    D1       -3.12147  -0.00011  -0.00005  -0.00366  -0.00371  -3.12518
    D2        1.03764  -0.00014  -0.00030  -0.00480  -0.00510   1.03254
    D3       -0.98937   0.00020   0.00019   0.00388   0.00406  -0.98530
    D4        1.08219  -0.00014   0.00004  -0.00375  -0.00371   1.07848
    D5       -1.04188  -0.00017  -0.00021  -0.00489  -0.00510  -1.04699
    D6       -3.06889   0.00016   0.00027   0.00379   0.00406  -3.06483
    D7       -1.03800  -0.00004   0.00001  -0.00205  -0.00204  -1.04004
    D8        3.12111  -0.00007  -0.00025  -0.00319  -0.00344   3.11767
    D9        1.09410   0.00027   0.00024   0.00549   0.00573   1.09983
   D10       -3.02002   0.00017   0.00013   0.00331   0.00344  -3.01658
   D11       -0.98724  -0.00003   0.00011   0.00145   0.00156  -0.98567
   D12        1.14248  -0.00004   0.00017   0.00115   0.00132   1.14380
   D13       -0.87741   0.00005   0.00046   0.00295   0.00341  -0.87401
   D14        1.15536  -0.00015   0.00044   0.00109   0.00153   1.15690
   D15       -2.99810  -0.00015   0.00050   0.00079   0.00129  -2.99681
   D16        1.11879   0.00018  -0.00026  -0.00179  -0.00205   1.11674
   D17       -3.13162  -0.00002  -0.00028  -0.00365  -0.00393  -3.13554
   D18       -1.00190  -0.00002  -0.00022  -0.00395  -0.00417  -1.00607
   D19       -0.48700   0.00081   0.00157   0.06377   0.06535  -0.42165
   D20       -2.52189   0.00030   0.00163   0.05230   0.05391  -2.46797
   D21       -2.56274   0.00041   0.00181   0.06114   0.06297  -2.49977
   D22        1.68556  -0.00010   0.00186   0.04967   0.05153   1.73709
   D23        1.65669   0.00074   0.00166   0.06664   0.06830   1.72499
   D24       -0.37820   0.00022   0.00171   0.05517   0.05686  -0.32134
   D25       -2.89761  -0.00060   0.00077  -0.10031  -0.09954  -2.99715
   D26        1.32026  -0.00034   0.00063  -0.09767  -0.09703   1.22323
   D27       -0.76501  -0.00037   0.00083  -0.09522  -0.09439  -0.85939
   D28       -0.83773  -0.00028   0.00070  -0.09628  -0.09559  -0.93331
   D29       -2.90304  -0.00003   0.00057  -0.09364  -0.09307  -2.99611
   D30        1.29488  -0.00006   0.00077  -0.09119  -0.09043   1.20445
   D31        1.23003  -0.00045   0.00071  -0.10123  -0.10051   1.12952
   D32       -0.83528  -0.00020   0.00058  -0.09859  -0.09800  -0.93328
   D33       -2.92055  -0.00023   0.00078  -0.09614  -0.09536  -3.01591
   D34        2.95633   0.00009  -0.00016   0.01096   0.01080   2.96712
   D35        0.90116   0.00008  -0.00033   0.00812   0.00778   0.90894
   D36       -1.16314  -0.00008   0.00027   0.01041   0.01068  -1.15246
   D37        0.84366  -0.00022  -0.00018   0.00549   0.00530   0.84896
   D38       -1.21151  -0.00023  -0.00035   0.00264   0.00229  -1.20922
   D39        3.00738  -0.00038   0.00024   0.00494   0.00518   3.01256
   D40       -1.18783   0.00039  -0.00032   0.01310   0.01278  -1.17505
   D41        3.04019   0.00037  -0.00049   0.01025   0.00977   3.04996
   D42        0.97589   0.00022   0.00011   0.01255   0.01266   0.98855
   D43        1.04690  -0.00058   0.00052  -0.02842  -0.02791   1.01899
   D44       -3.12002  -0.00035   0.00069  -0.02691  -0.02621   3.13695
   D45       -1.06930  -0.00063   0.00058  -0.03142  -0.03084  -1.10014
   D46        0.90914  -0.00073  -0.00041  -0.03692  -0.03734   0.87181
   D47        2.99461  -0.00035  -0.00053  -0.03311  -0.03365   2.96095
   D48       -1.24395  -0.00047  -0.00070  -0.03540  -0.03610  -1.28006
         Item               Value     Threshold  Converged?
 Maximum Force            0.002718     0.000015     NO 
 RMS     Force            0.000534     0.000010     NO 
 Maximum Displacement     0.239872     0.000060     NO 
 RMS     Displacement     0.051535     0.000040     NO 
 GradGradGradGradGradGradGradGradGradGradGradGradGradGradGradGradGradGrad

                    Distance matrix (angstroms):
                    1          2          3          4          5
     1  C    0.000000
     2  C    1.530345   0.000000
     3  C    2.606803   1.534926   0.000000
     4  N    3.857046   2.450103   1.470485   0.000000
     5  C    3.062219   2.527334   1.542079   2.408609   0.000000
     6  O    4.418121   3.769227   2.430757   2.743032   1.410051
     7  C    3.179421   2.550441   1.542606   2.463450   2.515715
     8  O    4.516282   3.784821   2.437341   2.782612   2.990685
     9  H    1.106003   2.175440   3.544022   4.623187   4.069625
    10  H    1.106581   2.198453   2.919149   4.203072   2.778322
    11  H    1.106430   2.200994   2.906135   4.269936   3.448350
    12  H    2.164902   1.108339   2.144432   2.584464   2.785002
    13  H    2.164506   1.109439   2.154147   2.708150   3.477116
    14  H    3.974089   2.450646   2.073960   1.020670   3.242651
    15  H    4.568778   3.243867   2.038425   1.023747   2.923426
    16  H    2.838691   2.878764   2.202057   3.387486   1.104316
    17  H    3.223119   2.676912   2.176387   2.719582   1.111018
    18  H    4.827500   3.895103   2.535535   2.287545   1.910772
    19  H    3.442470   2.735420   2.180261   2.791138   3.478883
    20  H    2.907083   2.854551   2.189247   3.424342   2.731319
    21  H    4.657390   3.986442   2.511351   2.872443   2.527681
                    6          7          8          9         10
     6  O    0.000000
     7  C    2.954515   0.000000
     8  O    2.724928   1.405887   0.000000
     9  H    5.453690   4.152178   5.524887   0.000000
    10  H    4.139251   3.634236   4.817783   1.780433   0.000000
    11  H    4.652430   2.901702   4.246463   1.781975   1.788342
    12  H    4.015025   3.481973   4.558609   2.498323   2.530906
    13  H    4.571499   2.751134   3.992736   2.479947   3.101989
    14  H    3.747967   3.003131   3.504978   4.536946   4.503626
    15  H    2.840397   2.390703   2.223882   5.397074   4.947690
    16  H    2.020198   2.726376   3.316105   3.885152   2.330080
    17  H    2.084292   3.477223   4.019591   4.048403   2.778165
    18  H    0.973103   3.235143   2.894405   5.797862   4.668780
    19  H    3.977770   1.106528   2.023711   4.222486   4.165175
    20  H    3.302091   1.111362   2.084634   3.910695   3.245985
    21  H    1.916149   1.933272   0.974469   5.725317   4.737171
                   11         12         13         14         15
    11  H    0.000000
    12  H    3.104501   0.000000
    13  H    2.552723   1.772762   0.000000
    14  H    4.451768   2.446976   2.351993   0.000000
    15  H    4.782949   3.557285   3.349524   1.641849   0.000000
    16  H    3.027000   3.313051   3.861383   4.163357   3.829986
    17  H    3.903049   2.481979   3.708282   3.390153   3.463991
    18  H    5.165022   3.989317   4.585368   3.272893   2.324926
    19  H    3.079672   3.711469   2.471623   2.980615   2.649020
    20  H    2.338195   3.868670   3.187708   3.969244   3.460999
    21  H    4.499127   4.630802   4.427793   3.775517   2.426564
                   16         17         18         19         20
    16  H    0.000000
    17  H    1.792729   0.000000
    18  H    2.809407   2.307631   0.000000
    19  H    3.732717   4.319992   4.109628   0.000000
    20  H    2.473011   3.719571   3.846555   1.788780   0.000000
    21  H    2.853453   3.556727   2.216772   2.825030   2.405595
                   21
    21  H    0.000000
 Framework group  C1[X(C5H13NO2)]
 Deg. of freedom    57
                         Standard orientation:                         
 ---------------------------------------------------------------------
 Center     Atomic      Atomic             Coordinates (Angstroms)
 Number     Number       Type             X           Y           Z
 ---------------------------------------------------------------------
      1          6           0        2.572921    0.062349   -0.653201
      2          6           0        1.676173   -0.107476    0.575195
      3          6           0        0.161802   -0.051678    0.331137
      4          7           0       -0.537154   -0.058687    1.624867
      5          6           0       -0.224293    1.272900   -0.357656
      6          8           0       -1.625819    1.416538   -0.415414
      7          6           0       -0.327206   -1.234830   -0.529476
      8          8           0       -1.731147   -1.302556   -0.559189
      9          1           0        3.637222   -0.011830   -0.361649
     10          1           0        2.434072    1.049450   -1.133696
     11          1           0        2.386048   -0.715583   -1.417456
     12          1           0        1.920500    0.679182    1.316740
     13          1           0        1.909492   -1.075499    1.064428
     14          1           0        0.034767   -0.483773    2.355603
     15          1           0       -1.377835   -0.635591    1.532695
     16          1           0        0.133810    1.306770   -1.401748
     17          1           0        0.239882    2.118914    0.192946
     18          1           0       -1.923101    1.380093    0.510451
     19          1           0        0.027981   -2.186542   -0.090740
     20          1           0        0.094827   -1.161183   -1.554947
     21          1           0       -2.058242   -0.413053   -0.785868
 ---------------------------------------------------------------------
 Rotational constants (GHZ):           2.5887667           1.5256812           1.3756354
   138 basis functions,   252 primitive gaussians,   146 cartesian basis functions
    33 alpha electrons       33 beta electrons
       nuclear repulsion energy       436.4201044927 Hartrees.
 NAtoms=   21 NActive=   21 NUniq=   21 SFac= 1.00D+00 NAtFMM=   60 NAOKFM=F Big=F
 Nuclear repulsion after empirical dispersion term =      436.4050695740 Hartrees.
   1 Symmetry operations used in ECPInt.
 ECPInt:  NShTT=    2775 NPrTT=   11169 LenC2=    2761 LenP2D=    8920.
 LDataN:  DoStor=T MaxTD1= 4 Len=   56
 Initial guess from the checkpoint file:  "monomer.chk"
 B after Tr=     0.000000    0.000000   -0.000000
         Rot=    0.999740   -0.022526   -0.003201    0.001312 Ang=  -2.61 deg.
 ExpMin= 1.22D-01 ExpMax= 2.27D+03 ExpMxC= 3.41D+02 IAcc=3 IRadAn=         5 AccDes= 0.00D+00
 Harris functional with IExCor= 4639 and IRadAn=       5 diagonalized for initial guess.
 HarFok:  IExCor= 4639 AccDes= 0.00D+00 IRadAn=         5 IDoV= 1 UseB2=F ITyADJ=14
 ICtDFT=  3500011 ScaDFX=  1.000000  1.000000  1.000000  1.000000
 FoFCou: FMM=F IPFlag=           0 FMFlag=      100000 FMFlg1=           0
         NFxFlg=           0 DoJE=T BraDBF=F KetDBF=T FulRan=T
         wScrn=  0.000000 ICntrl=       500 IOpCl=  0 I1Cent=   200000004 NGrid=           0
         NMat0=    1 NMatS0=      1 NMatT0=    0 NMatD0=    1 NMtDS0=    0 NMtDT0=    0
 Petite list used in FoFCou.
     Minimum is close to point  4 DX=  1.02D-01 DF= -2.71D-05 DXR=  7.86D-02 DFR=  6.22D-03 which will be used.
     Accept linear search using points  2 and  3.
     Accept linear search using points  1 and  2.
     Accept linear search using points  1 and  2.
     Minimum is close to point  2 DX=  6.74D-02 DF= -3.99D-07 DXR=  6.97D-02 DFR=  4.88D-03 which will be used.
     Minimum is close to point  2 DX=  9.53D-05 DF= -7.96D-13 DXR=  9.53D-05 DFR=  8.75D-09 which will be used.
 SCF Done:  E(RwB97XD) =  -403.091613488     a.u. after    8 cycles
            Convg  =    0.1215D-08                    37 Fock formations.
              S**2 =  0.0000                  -V/T =  2.0091
   1 Symmetry operations used in ECPInt.
 ECPInt:  NShTT=    2775 NPrTT=   11169 LenC2=    2761 LenP2D=    8920.
 LDataN:  DoStor=T MaxTD1= 5 Len=  102
 Calling FoFJK, ICntrl=      2127 FMM=F ISym2X=0 I1Cent= 0 IOpClX= 0 NMat=1 NMatS=1 NMatT=0.

 GradGradGradGradGradGradGradGradGradGradGradGradGradGradGradGradGradGrad
 Using GEDIIS/GDIIS optimizer.
 FormGI is forming the generalized inverse of G from B-inverse, IUseBI=4.
 Internal  Forces:  Max     0.006145143 RMS     0.001398982
 Step number   3 out of a maximum of  113
 All quantities printed in internal units (Hartrees-Bohrs-Radians)
 Mixed Optimization -- RFO/linear search
 Trust test=-9.41D-01 RLast= 3.36D-01 DXMaxT set to 2.52D-01
 ITU= -1  1  0
 Use linear search instead of GDIIS.
     Eigenvalues ---    0.00227   0.00319   0.00445   0.00489   0.00721
     Eigenvalues ---    0.01606   0.02055   0.03203   0.04244   0.04331
     Eigenvalues ---    0.04738   0.04868   0.05151   0.05367   0.05477
     Eigenvalues ---    0.05620   0.05653   0.05774   0.06588   0.08977
     Eigenvalues ---    0.11487   0.11618   0.12672   0.13883   0.14012
     Eigenvalues ---    0.14772   0.15185   0.15801   0.16000   0.16000
     Eigenvalues ---    0.16000   0.16000   0.16114   0.16245   0.21829
     Eigenvalues ---    0.22031   0.25909   0.27905   0.29051   0.29338
     Eigenvalues ---    0.30510   0.33903   0.34025   0.34296   0.34402
     Eigenvalues ---    0.34517   0.34749   0.35141   0.35252   0.35840
     Eigenvalues ---    0.36674   0.44410   0.44616   0.44854   0.45742
     Eigenvalues ---    0.53081   0.53843
 Quartic linear search produced a step of -0.64814.
 Iteration  1 RMS(Cart)=  0.04088077 RMS(Int)=  0.00105016
 Iteration  2 RMS(Cart)=  0.00126086 RMS(Int)=  0.00000638
 Iteration  3 RMS(Cart)=  0.00000077 RMS(Int)=  0.00000634
 Variable       Old X    -DE/DX   Delta X   Delta X   Delta X     New X
                                 (Linear)    (Quad)   (Total)
    R1        2.89193  -0.00137   0.00371  -0.01308  -0.00937   2.88256
    R2        2.09004  -0.00198  -0.00376   0.00097  -0.00279   2.08725
    R3        2.09114  -0.00230  -0.00454   0.00187  -0.00267   2.08847
    R4        2.09085  -0.00213  -0.00437   0.00177  -0.00260   2.08825
    R5        2.90059   0.00009   0.00048  -0.00153  -0.00105   2.89954
    R6        2.09446  -0.00136  -0.00353   0.00198  -0.00156   2.09290
    R7        2.09654  -0.00160  -0.00368   0.00211  -0.00156   2.09497
    R8        2.77881   0.00069  -0.00084   0.00193   0.00110   2.77991
    R9        2.91411   0.00130   0.00143  -0.00020   0.00122   2.91533
   R10        2.91510   0.00290   0.00388  -0.00436  -0.00048   2.91462
   R11        1.92879  -0.00138  -0.00140  -0.00010  -0.00150   1.92728
   R12        1.93460  -0.00081  -0.00124   0.00071  -0.00054   1.93406
   R13        2.66461   0.00188   0.00058  -0.00034   0.00025   2.66486
   R14        2.08686  -0.00157  -0.00267   0.00056  -0.00211   2.08475
   R15        2.09952  -0.00166  -0.00330   0.00182  -0.00147   2.09805
   R16        1.83890   0.00032  -0.00235   0.00368   0.00133   1.84023
   R17        2.65674  -0.00138   0.00218  -0.00693  -0.00474   2.65200
   R18        2.09103  -0.00113  -0.00257   0.00113  -0.00144   2.08959
   R19        2.10017  -0.00121  -0.00303   0.00169  -0.00134   2.09883
   R20        1.84148   0.00041  -0.00092   0.00143   0.00051   1.84199
    A1        1.92287  -0.00027  -0.00221   0.00224   0.00004   1.92291
    A2        1.95412   0.00012  -0.00185   0.00251   0.00066   1.95479
    A3        1.95784  -0.00025  -0.00227   0.00188  -0.00038   1.95746
    A4        1.87029   0.00008   0.00211  -0.00200   0.00011   1.87040
    A5        1.87283   0.00023   0.00149  -0.00085   0.00064   1.87347
    A6        1.88185   0.00012   0.00312  -0.00419  -0.00107   1.88078
    A7        2.03361   0.00083  -0.00094   0.00035  -0.00058   2.03303
    A8        1.90616  -0.00045   0.00096  -0.00320  -0.00223   1.90392
    A9        1.90452  -0.00020  -0.00032  -0.00113  -0.00144   1.90307
   A10        1.87347   0.00005  -0.00076   0.00329   0.00253   1.87600
   A11        1.88528  -0.00047  -0.00308   0.00657   0.00349   1.88877
   A12        1.85240   0.00020   0.00467  -0.00652  -0.00186   1.85054
   A13        1.90593   0.00108  -0.00304   0.00622   0.00318   1.90911
   A14        1.92758  -0.00059  -0.00144   0.00313   0.00169   1.92928
   A15        1.95366  -0.00215  -0.00033  -0.00630  -0.00663   1.94704
   A16        1.85257  -0.00103   0.00316  -0.00823  -0.00507   1.84750
   A17        1.91400   0.00000   0.00073  -0.00028   0.00046   1.91446
   A18        1.90736   0.00275   0.00110   0.00536   0.00647   1.91383
   A19        1.94499   0.00016  -0.00262   0.00419   0.00156   1.94656
   A20        1.88999   0.00039  -0.00239   0.00768   0.00528   1.89527
   A21        1.86492  -0.00005  -0.00369   0.00998   0.00628   1.87120
   A22        1.93334   0.00403   0.00525  -0.00283   0.00239   1.93573
   A23        1.94707  -0.00124  -0.00362   0.00752   0.00389   1.95096
   A24        1.90510  -0.00052  -0.00198   0.00102  -0.00097   1.90413
   A25        1.85507   0.00029   0.00044   0.00453   0.00494   1.86001
   A26        1.93692  -0.00332  -0.00433  -0.00335  -0.00768   1.92924
   A27        1.88570   0.00064   0.00421  -0.00694  -0.00272   1.88298
   A28        1.83471   0.00016   0.00698  -0.01291  -0.00592   1.82879
   A29        1.94475   0.00615   0.00249   0.00420   0.00668   1.95144
   A30        1.91422  -0.00229  -0.00229   0.00170  -0.00059   1.91363
   A31        1.92152  -0.00086  -0.00006  -0.00003  -0.00009   1.92143
   A32        1.86241  -0.00158  -0.00164  -0.00017  -0.00181   1.86059
   A33        1.94218  -0.00229  -0.00127  -0.00089  -0.00217   1.94002
   A34        1.87649   0.00064   0.00270  -0.00512  -0.00242   1.87407
   A35        1.87145  -0.00202   0.00331  -0.01285  -0.00953   1.86192
    D1       -3.12518   0.00023   0.00240  -0.00038   0.00203  -3.12315
    D2        1.03254  -0.00007   0.00331  -0.00244   0.00087   1.03340
    D3       -0.98530   0.00005  -0.00263   0.00773   0.00510  -0.98020
    D4        1.07848   0.00023   0.00240  -0.00097   0.00143   1.07992
    D5       -1.04699  -0.00006   0.00331  -0.00304   0.00027  -1.04672
    D6       -3.06483   0.00005  -0.00263   0.00714   0.00450  -3.06032
    D7       -1.04004   0.00017   0.00132   0.00129   0.00262  -1.03743
    D8        3.11767  -0.00013   0.00223  -0.00077   0.00146   3.11913
    D9        1.09983  -0.00001  -0.00371   0.00940   0.00569   1.10552
   D10       -3.01658   0.00002  -0.00223  -0.00139  -0.00362  -3.02020
   D11       -0.98567  -0.00092  -0.00101  -0.00590  -0.00692  -0.99259
   D12        1.14380   0.00069  -0.00085  -0.00117  -0.00203   1.14177
   D13       -0.87401   0.00005  -0.00221  -0.00273  -0.00494  -0.87895
   D14        1.15690  -0.00090  -0.00099  -0.00724  -0.00824   1.14866
   D15       -2.99681   0.00071  -0.00083  -0.00251  -0.00335  -3.00016
   D16        1.11674   0.00007   0.00133  -0.00545  -0.00412   1.11262
   D17       -3.13554  -0.00088   0.00254  -0.00997  -0.00742   3.14023
   D18       -1.00607   0.00074   0.00270  -0.00524  -0.00253  -1.00860
   D19       -0.42165   0.00111  -0.04235   0.11267   0.07032  -0.35132
   D20       -2.46797   0.00084  -0.03494   0.09342   0.05847  -2.40950
   D21       -2.49977   0.00182  -0.04081   0.11031   0.06950  -2.43027
   D22        1.73709   0.00155  -0.03340   0.09106   0.05765   1.79474
   D23        1.72499  -0.00086  -0.04427   0.10872   0.06445   1.78944
   D24       -0.32134  -0.00113  -0.03686   0.08946   0.05260  -0.26874
   D25       -2.99715   0.00222   0.06452   0.01334   0.07786  -2.91929
   D26        1.22323   0.00002   0.06289   0.00468   0.06756   1.29080
   D27       -0.85939   0.00034   0.06118   0.00797   0.06916  -0.79023
   D28       -0.93331   0.00260   0.06195   0.01764   0.07961  -0.85370
   D29       -2.99611   0.00040   0.06032   0.00899   0.06931  -2.92681
   D30        1.20445   0.00072   0.05861   0.01228   0.07090   1.27535
   D31        1.12952   0.00345   0.06515   0.01553   0.08067   1.21019
   D32       -0.93328   0.00126   0.06352   0.00687   0.07037  -0.86291
   D33       -3.01591   0.00157   0.06181   0.01017   0.07197  -2.94394
   D34        2.96712   0.00000  -0.00700   0.02426   0.01726   2.98439
   D35        0.90894  -0.00035  -0.00505   0.02082   0.01578   0.92472
   D36       -1.15246   0.00077  -0.00692   0.02606   0.01915  -1.13332
   D37        0.84896   0.00006  -0.00344   0.02075   0.01732   0.86628
   D38       -1.20922  -0.00029  -0.00148   0.01731   0.01583  -1.19339
   D39        3.01256   0.00083  -0.00336   0.02255   0.01920   3.03176
   D40       -1.17505  -0.00027  -0.00828   0.02776   0.01947  -1.15558
   D41        3.04996  -0.00062  -0.00633   0.02432   0.01798   3.06794
   D42        0.98855   0.00050  -0.00820   0.02956   0.02135   1.00990
   D43        1.01899   0.00068   0.01809  -0.02770  -0.00960   1.00939
   D44        3.13695   0.00167   0.01699  -0.01738  -0.00038   3.13657
   D45       -1.10014   0.00085   0.01999  -0.02478  -0.00480  -1.10494
   D46        0.87181   0.00161   0.02420  -0.02965  -0.00545   0.86636
   D47        2.96095   0.00134   0.02181  -0.02529  -0.00349   2.95747
   D48       -1.28006  -0.00006   0.02340  -0.03200  -0.00860  -1.28866
         Item               Value     Threshold  Converged?
 Maximum Force            0.006145     0.000015     NO 
 RMS     Force            0.001399     0.000010     NO 
 Maximum Displacement     0.165982     0.000060     NO 
 RMS     Displacement     0.040837     0.000040     NO 
 GradGradGradGradGradGradGradGradGradGradGradGradGradGradGradGradGradGrad

                    Distance matrix (angstroms):
                    1          2          3          4          5
     1  C    0.000000
     2  C    1.525384   0.000000
     3  C    2.601653   1.534373   0.000000
     4  N    3.854410   2.452878   1.471065   0.000000
     5  C    3.064323   2.528896   1.542727   2.405000   0.000000
     6  O    4.435828   3.764439   2.433403   2.698104   1.410182
     7  C    3.166717   2.544052   1.542351   2.464109   2.521797
     8  O    4.499810   3.782944   2.440615   2.798008   2.991834
     9  H    1.104527   2.170000   3.538247   4.620731   4.070230
    10  H    1.105169   2.193462   2.914258   4.201133   2.781060
    11  H    1.105055   2.195282   2.898627   4.263761   3.449277
    12  H    2.158297   1.107515   2.145265   2.592129   2.784417
    13  H    2.158484   1.108612   2.155678   2.712013   3.479328
    14  H    3.961374   2.441418   2.074931   1.019875   3.220843
    15  H    4.556073   3.231874   2.042423   1.023463   2.950581
    16  H    2.891440   2.915930   2.204573   3.380228   1.103200
    17  H    3.171190   2.649233   2.175657   2.750442   1.110238
    18  H    4.809542   3.858383   2.529676   2.233331   1.907263
    19  H    3.439466   2.733342   2.179032   2.783266   3.483155
    20  H    2.881883   2.837510   2.188425   3.425258   2.748359
    21  H    4.629316   3.975232   2.506159   2.886552   2.518156
                    6          7          8          9         10
     6  O    0.000000
     7  C    3.012112   0.000000
     8  O    2.789787   1.403377   0.000000
     9  H    5.461945   4.137353   5.508041   0.000000
    10  H    4.158275   3.623531   4.800732   1.778183   0.000000
    11  H    4.690663   2.884947   4.220814   1.780101   1.785392
    12  H    3.983666   3.478152   4.563404   2.491052   2.523736
    13  H    4.569483   2.747234   3.996395   2.471158   3.095735
    14  H    3.689822   3.033117   3.556886   4.521055   4.481634
    15  H    2.860105   2.387924   2.256974   5.378158   4.947712
    16  H    2.023128   2.707259   3.259657   3.940730   2.394021
    17  H    2.078399   3.475369   4.037662   3.994750   2.717462
    18  H    0.973807   3.301821   3.011576   5.764434   4.651698
    19  H    4.017997   1.105764   2.019668   4.216702   4.162980
    20  H    3.397054   1.110655   2.080393   3.880463   3.228291
    21  H    1.991592   1.924797   0.974740   5.697531   4.707336
                   11         12         13         14         15
    11  H    0.000000
    12  H    3.097482   0.000000
    13  H    2.547637   1.770206   0.000000
    14  H    4.450935   2.417290   2.362534   0.000000
    15  H    4.764084   3.554635   3.322931   1.644798   0.000000
    16  H    3.063167   3.355453   3.892072   4.154954   3.832488
    17  H    3.852432   2.458773   3.687515   3.374613   3.527742
    18  H    5.174542   3.916700   4.553308   3.189052   2.371479
    19  H    3.076803   3.708985   2.471489   3.016928   2.612483
    20  H    2.305520   3.854820   3.168886   3.987872   3.465014
    21  H    4.461718   4.627442   4.423199   3.811633   2.481747
                   16         17         18         19         20
    16  H    0.000000
    17  H    1.789427   0.000000
    18  H    2.808847   2.298450   0.000000
    19  H    3.726265   4.315377   4.151983   0.000000
    20  H    2.469487   3.707423   3.937070   1.786006   0.000000
    21  H    2.770320   3.572894   2.364630   2.817206   2.397740
                   21
    21  H    0.000000
 Framework group  C1[X(C5H13NO2)]
 Deg. of freedom    57
                         Standard orientation:                         
 ---------------------------------------------------------------------
 Center     Atomic      Atomic             Coordinates (Angstroms)
 Number     Number       Type             X           Y           Z
 ---------------------------------------------------------------------
      1          6           0        2.570714    0.032910   -0.640091
      2          6           0        1.667806   -0.047384    0.586737
      3          6           0        0.155866   -0.029651    0.325928
      4          7           0       -0.559849    0.054735    1.608372
      5          6           0       -0.242504    1.234798   -0.463045
      6          8           0       -1.641592    1.411262   -0.457890
      7          6           0       -0.301394   -1.286229   -0.442688
      8          8           0       -1.700300   -1.377466   -0.507524
      9          1           0        3.631668   -0.006690   -0.335482
     10          1           0        2.426805    0.975354   -1.199096
     11          1           0        2.397620   -0.804197   -1.340402
     12          1           0        1.898899    0.799092    1.262507
     13          1           0        1.910742   -0.967802    1.154921
     14          1           0        0.029202   -0.242675    2.386004
     15          1           0       -1.362397   -0.579596    1.576500
     16          1           0        0.062564    1.170088   -1.521250
     17          1           0        0.262908    2.116341   -0.015754
     18          1           0       -1.882371    1.460228    0.484409
     19          1           0        0.050300   -2.192641    0.084040
     20          1           0        0.148482   -1.297096   -1.458094
     21          1           0       -2.023273   -0.510583   -0.814639
 ---------------------------------------------------------------------
 Rotational constants (GHZ):           2.5566054           1.5364584           1.3694246
   138 basis functions,   252 primitive gaussians,   146 cartesian basis functions
    33 alpha electrons       33 beta electrons
       nuclear repulsion energy       436.0865468939 Hartrees.
 NAtoms=   21 NActive=   21 NUniq=   21 SFac= 1.00D+00 NAtFMM=   60 NAOKFM=F Big=F
 Nuclear repulsion after empirical dispersion term =      436.0714886779 Hartrees.
   1 Symmetry operations used in ECPInt.
 ECPInt:  NShTT=    2775 NPrTT=   11169 LenC2=    2760 LenP2D=    8918.
 LDataN:  DoStor=T MaxTD1= 4 Len=   56
 Lowest energy guess from the checkpoint file:  "monomer.chk"
 B after Tr=     0.000000   -0.000000   -0.000000
         Rot=    0.999937    0.010665   -0.001207   -0.003252 Ang=   1.29 deg.
 B after Tr=     0.000000   -0.000000    0.000000
         Rot=    0.999433    0.033286    0.002044   -0.004624 Ang=   3.86 deg.
     Accept linear search using points  3 and  4.
     Accept linear search using points  2 and  3.
     Accept linear search using points  1 and  2.
     Accept linear search using points  1 and  2.
     Minimum is close to point  2 DX= -6.78D-02 DF= -2.10D-07 DXR=  9.27D-02 DFR=  5.45D-03 which will be used.
     Accept linear search using points  1 and  2.
     Accept linear search using points  1 and  2.
     Minimum is close to point  2 DX= -9.64D-05 DF= -2.84D-13 DXR=  9.64D-05 DFR=  9.10D-09 which will be used.
 SCF Done:  E(RwB97XD) =  -403.092307888     a.u. after    8 cycles
            Convg  =    0.2102D-08                    33 Fock formations.
              S**2 =  0.0000                  -V/T =  2.0091
   1 Symmetry operations used in ECPInt.
 ECPInt:  NShTT=    2775 NPrTT=   11169 LenC2=    2760 LenP2D=    8918.
 LDataN:  DoStor=T MaxTD1= 5 Len=  102
 Calling FoFJK, ICntrl=      2127 FMM=F ISym2X=0 I1Cent= 0 IOpClX= 0 NMat=1 NMatS=1 NMatT=0.

 GradGradGradGradGradGradGradGradGradGradGradGradGradGradGradGradGradGrad
 Using GEDIIS/GDIIS optimizer.
 FormGI is forming the generalized inverse of G from B-inverse, IUseBI=4.
 Internal  Forces:  Max     0.002625148 RMS     0.000554552
 Step number   4 out of a maximum of  113
 All quantities printed in internal units (Hartrees-Bohrs-Radians)
 Mixed Optimization -- En-DIIS/RFO-DIIS
 Trust test= 9.25D-01 RLast= 3.36D-01 DXMaxT set to 4.24D-01
 ITU=  1 -1  1  0
 Use linear search instead of GDIIS.
     Eigenvalues ---    0.00140   0.00318   0.00439   0.00468   0.00697
     Eigenvalues ---    0.01608   0.02121   0.03198   0.04071   0.04330
     Eigenvalues ---    0.04786   0.04872   0.05131   0.05372   0.05458
     Eigenvalues ---    0.05617   0.05673   0.05739   0.06664   0.09052
     Eigenvalues ---    0.11595   0.11842   0.12695   0.13887   0.14006
     Eigenvalues ---    0.14962   0.15256   0.15895   0.16000   0.16000
     Eigenvalues ---    0.16000   0.16078   0.16090   0.18916   0.21720
     Eigenvalues ---    0.22164   0.26205   0.27906   0.29085   0.29859
     Eigenvalues ---    0.32438   0.33915   0.34026   0.34295   0.34453
     Eigenvalues ---    0.34587   0.34747   0.35142   0.35258   0.35758
     Eigenvalues ---    0.39386   0.44522   0.44708   0.45662   0.48531
     Eigenvalues ---    0.52991   0.53828
 Quartic linear search produced a step of  0.10892.
 Iteration  1 RMS(Cart)=  0.05856601 RMS(Int)=  0.00348415
 Iteration  2 RMS(Cart)=  0.00377827 RMS(Int)=  0.00007650
[...]
 826,-0.24679906,-0.11431965,0.00067843,0.00076735,0.00067059,-0.000538
 18,-0.00028000,-0.00050542,0.00029265,0.00019235,0.00010855,-0.0002898
 9,0.00029112,-0.00117141,-0.00019229,0.00020912,0.00071385,0.00004514,
 -0.00007681,-0.00017708,0.00014109,0.00009768,0.00007878,0.00053363,0.
 00111966,0.00143183,0.03816261,0.25976776,-0.02016752,-0.11340794,-0.1
 1597361,-0.00525680,-0.02346947,-0.01290979,-0.00091603,-0.00015910,0.
 00044697,0.00026832,0.00063687,0.00027105,0.00075236,-0.00064219,-0.00
 008287,-0.00031066,0.00051321,0.00034491,-0.00003772,0.00015045,-0.000
 07625,0.00015499,-0.00000582,0.00011446,-0.00014644,-0.00656957,-0.004
 32240,0.01901950,0.12532571,0.12349497,-0.05663484,0.03588869,-0.02944
 945,0.00425411,-0.01696969,0.01220026,0.00085714,-0.00082568,-0.000112
 36,0.00003935,0.00040491,-0.00026668,0.00002522,-0.00006736,0.00019415
 ,-0.00004142,0.00008635,-0.00016378,-0.00164173,0.00026006,0.00078810,
 0.00043143,0.00005642,-0.00033864,-0.00267542,0.02447387,-0.01785599,0
 .00017288,-0.00450780,0.00425409,0.05780820,0.03512328,-0.21000824,0.1
 2819601,-0.00145352,0.00338463,-0.00293391,0.00049664,-0.00013327,0.00
 045979,-0.00030682,0.00002816,-0.00004187,0.00012682,-0.00019542,0.000
 31956,-0.00021140,0.00012088,-0.00011886,0.00002764,0.00026780,0.00131
 694,0.00054210,0.00006556,-0.00052623,-0.00065848,0.00238793,-0.002792
 56,0.00555827,-0.01715151,0.01737898,-0.03959622,0.21917348,-0.0286222
 2,0.12731930,-0.15212749,-0.00568718,0.02068153,-0.01564549,-0.0010140
 7,0.00010507,0.00047595,0.00020575,-0.00030661,0.00015040,0.00003677,-
 0.00017176,-0.00002668,0.00017102,0.00004104,0.00011901,0.00061220,0.0
 0046830,-0.00066720,-0.00040739,-0.00039671,0.00045084,-0.00026060,0.0
 0564375,-0.00488921,0.00391726,-0.01300420,0.01197612,0.02835663,-0.13
 937643,0.16281756,0.00387247,-0.01610288,0.01345780,-0.06215798,0.0460
 4879,-0.03744316,-0.01196182,0.02641310,-0.02080304,0.00193038,-0.0002
 0596,-0.00189640,0.00045016,0.00201505,0.00020880,0.00046472,-0.000540
 73,0.00049079,-0.00500465,-0.00337665,0.00150028,-0.00230971,0.0017566
 6,-0.00157641,0.00060461,-0.00060622,-0.00034045,0.00055379,0.00038017
 ,-0.00071313,-0.00192726,0.00049579,0.00385731,0.07382652,-0.00063730,
 0.00257709,-0.00234763,0.04633709,-0.19803458,0.11724048,-0.00094935,0
 .00016115,-0.00050993,0.00000569,0.00089148,-0.00079492,-0.00076096,0.
 00067789,-0.00108838,0.00019471,0.00022733,-0.00023351,-0.00017115,0.0
 0035074,-0.00041529,0.00046320,0.00032713,0.00007830,-0.00047253,0.000
 09612,0.00027740,-0.00038694,0.00076856,0.00015286,0.00015634,0.001375
 33,-0.00078118,-0.05097847,0.20859688,-0.00535030,0.02158802,-0.018031
 52,-0.03803013,0.11556965,-0.14094043,-0.00176248,0.00625191,-0.005976
 35,0.00106005,-0.00184795,0.00098631,-0.00055464,0.00140672,-0.0001218
 8,0.00056565,-0.00057753,0.00020683,-0.00058552,-0.00168747,0.00060379
 ,-0.00061361,0.00043873,0.00004015,-0.00005333,-0.00013185,0.00114902,
 -0.00083431,-0.00019714,0.00054844,0.00386648,-0.00097498,-0.00400868,
 0.03732634,-0.12756830,0.15435418,0.00324009,0.01777823,0.01041046,-0.
 05742866,-0.04207926,-0.02492195,-0.00984434,-0.02970598,-0.01734635,0
 .00322216,0.00135152,-0.00085889,-0.00491573,0.00306754,0.00091634,-0.
 00251386,-0.00202876,-0.00071611,0.00059950,-0.00212163,0.00000928,0.0
 0041199,0.00052029,0.00036447,0.00052047,0.00048431,-0.00049060,-0.001
 92716,-0.00006185,0.00381010,0.00059478,-0.00050463,-0.00063610,0.0011
 7456,0.00661952,0.00439947,0.06700242,0.00011152,0.00078245,0.00074011
 ,-0.04293576,-0.23633245,-0.10745288,0.00056622,-0.00221613,-0.0014008
 1,0.00044103,0.00150703,0.00110290,-0.00014827,0.00079870,0.00024565,-
 0.00057896,0.00012995,0.00000008,0.00095471,0.00049586,0.00091802,-0.0
 0017086,0.00034610,0.00009007,0.00047524,0.00008500,-0.00019479,0.0001
 2284,0.00149937,0.00026046,0.00026666,0.00076761,-0.00024454,-0.005039
 89,-0.01818386,-0.01197765,0.04653895,0.25058647,-0.00453806,-0.023813
 32,-0.01405323,-0.02597623,-0.10624947,-0.11107193,-0.00143545,-0.0067
 8041,-0.00514912,0.00054919,0.00128276,0.00086218,-0.00091328,0.001452
 07,0.00042965,-0.00039005,-0.00053770,0.00008294,-0.00020961,-0.001394
 79,-0.00030886,0.00042215,0.00058244,0.00015652,-0.00008239,0.00028576
 ,0.00105959,0.00373879,0.00024053,-0.00403741,-0.00090732,0.00014860,0
 .00061637,0.00454139,0.01640281,0.01056915,0.02520999,0.11767065,0.120
 21851,-0.00020965,0.00012211,-0.00013062,0.00088572,-0.00133740,0.0026
 2409,0.01088222,-0.00810913,0.01997058,-0.18348481,0.08308569,-0.18931
 281,-0.00131882,-0.00024882,-0.00019189,0.00023848,-0.00161848,-0.0012
 3257,-0.00348946,0.00018029,0.00413628,0.00053325,0.00105613,-0.001777
 34,0.00005275,-0.00002246,-0.00007962,0.00010115,-0.00006718,-0.000177
 84,0.00014525,0.00000538,-0.00024207,-0.00032017,0.00117143,0.00017154
 ,-0.00011233,-0.00053719,0.00012119,0.18562919,0.00048757,-0.00058020,
 0.00017223,0.00077824,0.00230224,-0.00193483,-0.00208557,-0.00408055,0
 .00468709,0.05438539,-0.04236339,0.03539513,-0.00113664,0.00021929,-0.
 00196214,0.00055170,-0.00239238,-0.00228806,-0.00060515,0.00002694,0.0
 0264853,-0.00037758,0.00028430,0.00052635,0.00015205,0.00003279,-0.000
 17522,0.00007548,-0.00003444,-0.00020492,-0.00002744,0.00006562,0.0000
 4590,0.00040178,-0.00032741,0.00005388,-0.00050448,-0.00069567,0.00035
 067,-0.07148033,0.05079323,-0.00029402,-0.00030821,0.00008787,-0.00246
 808,0.00047352,0.00244110,-0.01904464,0.00613011,-0.02189222,-0.167576
 05,0.06442997,-0.28563828,0.00050030,0.00077740,-0.00201335,0.00049746
 ,0.00033642,0.00040915,0.00253915,-0.00172734,-0.00376550,0.00027482,-
 0.00052365,0.00121663,-0.00014725,0.00000263,0.00012836,-0.00008964,0.
 00009097,0.00009998,-0.00017994,-0.00008198,0.00024906,0.00145504,-0.0
 0060577,0.00030615,0.00068987,0.00030143,0.00005874,0.17949853,-0.0661
 6086,0.30190373,-0.00083032,-0.00069006,-0.00035223,-0.00160191,0.0012
 1378,0.00319819,-0.01204263,0.01370984,0.00511193,-0.10822646,0.156268
 94,0.02745824,0.00037881,-0.00104889,-0.00079461,-0.00097417,0.0006318
 5,-0.00143595,0.00451455,0.00155702,-0.00154697,-0.00176709,-0.0003650
 7,0.00167048,-0.00014527,0.00000853,0.00020646,0.00012327,0.00000780,-
 0.00014230,-0.00003628,0.00000695,0.00004482,0.00020060,-0.00020448,0.
 00017347,-0.00034068,-0.00036819,-0.00019628,-0.01032378,0.01789190,0.
 00504624,0.13079365,-0.00078264,-0.00020524,-0.00011183,-0.00088299,0.
 00031356,0.00205681,-0.00859392,0.00167144,0.00024419,0.19818637,-0.32
 920119,-0.05177079,0.00166017,-0.00000177,-0.00159284,-0.00027188,0.00
 062124,-0.00028265,0.00159132,0.00191658,0.00306397,-0.00158551,-0.001
 94429,0.00166983,-0.00014384,0.00000033,0.00017277,0.00003312,0.000016
 87,-0.00002360,0.00000402,-0.00002480,0.00002572,-0.00000044,-0.000036
 23,0.00008741,0.00006071,-0.00017860,-0.00012350,-0.00339459,-0.004434
 51,-0.00290650,-0.18584170,0.33370785,0.00050318,-0.00003060,0.0003858
 0,-0.00010037,0.00001022,-0.00215529,0.01260984,-0.02928213,-0.0051063
 7,0.03335862,-0.04918248,-0.07127174,0.00415661,0.00089484,-0.00499294
 ,-0.00093114,0.00098758,0.00006840,0.00489072,-0.00079113,-0.00234924,
 -0.00123598,0.00079391,0.00287649,0.00010028,0.00006361,-0.00017175,-0
 .00008616,0.00001247,0.00004130,0.00003006,0.00005544,-0.00002570,-0.0
 0004543,-0.00009313,0.00001949,0.00006270,0.00008770,0.00030284,-0.014
 30735,0.02816397,0.00776244,-0.03764933,0.05104427,0.07541775,-0.00099
 006,-0.00019939,-0.00016555,0.00000195,0.00052137,-0.00002299,0.003326
 05,0.00358947,-0.00604934,0.00202922,-0.00194779,-0.00124120,-0.060472
 49,-0.00045391,0.04750687,-0.02054300,0.00059097,0.04026141,0.00025697
 ,0.00020183,0.00027017,0.00028120,0.00017039,-0.00018786,-0.00004583,-
 0.00001052,0.00007095,-0.00172923,-0.00039584,-0.00030101,0.00004624,0
 .00001608,0.00007839,-0.00000618,-0.00023529,0.00006197,0.00005553,-0.
 00011558,0.00018732,0.00000494,0.00011812,-0.00015005,-0.00036076,-0.0
 0045057,-0.00058773,0.08018046,-0.00054602,0.00033298,0.00011795,0.000
 26213,-0.00003148,0.00029496,0.00715850,0.00350724,-0.02280482,0.00115
 138,-0.00350576,-0.00382557,-0.00031806,-0.05358154,0.01108004,-0.0043
 3624,0.00188579,0.00437916,0.00109162,0.00110704,-0.00198732,-0.000248
 47,-0.00018450,0.00063567,-0.00002022,-0.00008208,0.00008161,-0.000380
 50,0.00000290,-0.00003928,-0.00005287,-0.00013578,0.00002065,-0.000115
 42,-0.00001277,-0.00006330,-0.00009883,-0.00002386,0.00001600,0.000156
 49,-0.00064232,-0.00064692,-0.00017108,-0.00023107,-0.00131085,0.00261
 809,0.05215097,0.00064791,-0.00064594,-0.00029572,-0.00002739,-0.00069
 033,-0.00070463,0.00372497,0.00389240,-0.01030065,0.00060290,-0.002764
 32,-0.00103944,0.05898909,0.00838843,-0.30704396,0.00269921,-0.0014096
 6,0.00388759,0.00025953,0.00209548,-0.00027887,0.00006850,-0.00044165,
 0.00053735,0.00008581,0.00035631,0.00032525,-0.00016471,0.00061552,0.0
 0050900,-0.00013048,-0.00001860,0.00002573,0.00010125,-0.00018674,0.00
 015528,-0.00027501,-0.00013466,0.00013070,0.00010456,-0.00006082,-0.00
 020017,-0.00040112,-0.00018548,-0.00069327,-0.06779235,-0.00881083,0.3
 2345640,0.00028221,-0.00013977,0.00004589,0.00050148,-0.00130262,0.000
 44809,0.00382756,-0.00605591,0.00326799,0.00068109,0.00059962,0.000540
 76,-0.08908961,0.08005907,-0.04193007,-0.03872946,0.02554775,-0.012784
 02,-0.00119889,-0.00207002,-0.00089644,0.00081825,0.00125104,-0.000039
 10,0.00002364,0.00009234,-0.00001006,0.00010565,0.00016025,0.00000142,
 0.00003401,-0.00000022,-0.00003709,0.00005920,-0.00011035,-0.00017843,
 0.00006480,0.00008267,0.00010872,0.00022046,0.00044991,0.00010853,-0.0
 0018159,-0.00017172,-0.00003555,0.00532104,-0.00525280,0.00226139,0.11
 709111,-0.00042958,-0.00005722,-0.00009080,0.00180164,0.00030171,0.000
 83084,0.01023892,-0.02366863,0.01533364,-0.00123888,0.00251352,-0.0002
 4007,0.08174716,-0.20386758,0.08300100,0.00053234,0.01273621,-0.005543
 50,-0.00317915,-0.00354564,-0.00465776,0.00087796,0.00067666,0.0000865
 6,-0.00007090,0.00005278,0.00006042,-0.00014469,-0.00020660,0.00028619
 ,0.00018192,0.00018849,-0.00012506,-0.00104060,0.00027168,-0.00092727,
 0.00002095,0.00049254,-0.00023779,0.00004809,-0.00064324,-0.00039249,0
 .00024871,0.00017339,0.00015862,-0.00034394,0.00080270,-0.00048033,-0.
 09017994,0.21549622,0.00000491,0.00019178,0.00009749,0.00067039,-0.000
 03446,0.00095693,0.00515622,-0.01424444,0.00599402,-0.00039102,0.00101
 635,0.00153720,-0.04318232,0.08421940,-0.10440050,-0.00055803,-0.00351
 618,0.00818769,-0.00135572,-0.00182915,-0.00177526,0.00047302,0.000496
 01,0.00008945,0.00001143,-0.00005594,0.00003285,0.00002545,0.00007412,
 -0.00027346,-0.00004643,-0.00020056,-0.00004944,-0.00006694,0.00014703
 ,-0.00013119,0.00023378,0.00009050,-0.00003545,-0.00017247,-0.00009115
 ,0.00003994,0.00010545,0.00022213,0.00011794,-0.01261740,0.02445886,-0
 .01043118,0.05141987,-0.08842294,0.09881688,-0.00005847,0.00012036,0.0
 0019394,0.00001918,0.00077128,0.00017581,-0.00363007,-0.00306079,0.004
 16412,-0.00075112,0.00392290,0.00168734,-0.02304879,0.00618982,0.04937
 533,-0.06041283,0.00699845,0.04300580,0.00112438,-0.00068727,0.0004775
 2,-0.00170187,0.00003245,-0.00004132,0.00008765,-0.00008496,-0.0001307
 4,0.00004395,-0.00018993,-0.00013965,0.00002815,0.00003309,-0.00006708
 ,-0.00009866,0.00005913,-0.00002985,0.00020761,0.00001467,0.00004400,0
 .00012572,0.00058311,-0.00024636,0.00224894,0.00103981,0.00020347,-0.0
 0732002,-0.00076091,-0.00050883,-0.00024745,0.00081749,0.00014034,0.09
 186587,0.00031918,0.00010777,0.00021377,0.00002380,0.00012610,-0.00075
 591,-0.00397607,-0.00108039,0.00342594,0.00438615,-0.00485356,0.004125
 79,0.00242141,0.00626358,0.00399188,0.01594203,-0.03537650,-0.08538158
 ,-0.00199091,-0.00095887,0.00053491,0.00150592,0.00030981,-0.00206530,
 0.00015615,-0.00005481,-0.00016751,0.00007653,-0.00010686,-0.00018148,
 -0.00001931,-0.00001213,-0.00001921,0.00011461,-0.00005608,0.00017446,
 -0.00014932,-0.00015885,0.00013213,0.00212927,0.00320452,-0.00039497,-
 0.00167634,-0.00216346,-0.00102318,-0.00305256,-0.00068999,0.00038523,
 -0.00023109,-0.00010812,-0.00113927,-0.01638349,0.03636372,0.00047341,
 0.00015113,0.00021986,0.00077214,-0.00098267,-0.00219629,-0.00458065,-
 0.00106543,0.00280676,0.00271957,0.00427375,-0.00110375,0.01519859,0.0
 0130794,-0.00753651,0.08481329,-0.07830005,-0.39823654,0.00266207,-0.0
 0000185,-0.00022908,-0.00172797,-0.00221731,-0.00039093,0.00010940,-0.
 00003311,-0.00018317,0.00006829,-0.00010952,-0.00010885,0.00003613,0.0
 0002741,-0.00005975,-0.00023921,0.00017777,0.00001680,-0.00087910,-0.0
 0023671,0.00006815,-0.00025351,0.00012152,-0.00074369,0.00103675,-0.00
 020442,0.00014904,0.00015015,-0.00198820,0.00114358,-0.00275661,0.0007
 9702,0.00009800,-0.09668030,0.07353390,0.40887041,0.00011280,-0.000036
 14,-0.00006558,0.00045686,0.00166427,0.00043172,0.00266827,0.00796071,
 0.00430875,0.00026170,-0.00043133,0.00051763,-0.00124806,0.00215107,-0
 .00117942,0.00098036,-0.00113808,0.00043348,-0.06984079,-0.06065743,-0
 .02947992,-0.02786104,-0.03538531,-0.01538515,-0.00001298,-0.00006714,
 0.00001606,0.00008592,-0.00007986,-0.00002953,0.00009478,-0.00015788,0
 .00007317,0.00000872,-0.00012677,0.00007153,-0.00017130,0.00011166,-0.
 00042259,-0.00005418,-0.00004243,-0.00002687,-0.00035845,-0.00067272,-
 0.00003196,0.00001136,-0.00017724,-0.00030969,0.00058802,0.00059616,0.
 00010330,-0.00014546,0.00024284,-0.00033172,0.09529806,0.00042118,-0.0
 0002885,0.00007909,-0.00160105,0.00037833,-0.00093538,-0.00689615,-0.0
 2342908,-0.01297342,0.00087166,0.00226643,-0.00064062,0.00352489,-0.00
 284550,0.00411033,-0.00077369,0.00052162,0.00039496,-0.06994719,-0.236
 80479,-0.09450025,-0.00162562,0.00660486,0.00280171,0.00006785,-0.0000
 0268,-0.00003720,-0.00016527,0.00014615,0.00011828,0.00005877,-0.00018
 836,-0.00012922,-0.00004792,0.00049810,0.00019282,0.00107526,0.0004389
 7,0.00076274,-0.00004783,-0.00000089,0.00013095,-0.00090821,-0.0002856
 5,0.00073910,0.00009438,0.00038428,0.00015688,-0.00046878,-0.00171474,
 -0.00057536,0.00004073,0.00000029,-0.00044933,0.07483674,0.25139496,0.
 00015164,-0.00003292,0.00005405,0.00070229,0.00016327,0.00090913,0.005
 14456,0.01629638,0.00596868,-0.00051897,0.00026539,0.00225555,-0.00154
 864,0.00214584,-0.00190080,0.00025560,-0.00063982,-0.00003449,-0.03359
 903,-0.09641669,-0.10460406,-0.00270348,0.00102983,0.00410342,0.000030
 53,-0.00000881,0.00006698,-0.00006311,0.00017773,-0.00008038,-0.000053
 44,-0.00013779,-0.00015525,0.00026346,-0.00004132,0.00002896,-0.000135
 94,-0.00015772,-0.00005118,-0.00011447,-0.00015035,0.00016195,0.000279
 13,-0.00033225,-0.00035083,-0.00008990,0.00019270,0.00042963,0.0001796
 4,0.00070777,0.00087649,-0.00004443,0.00002787,0.00007031,0.03982013,0
 .10050869,0.10211391,-0.00139912,0.00034590,-0.00023845,0.00014914,-0.
 00087396,0.00023623,0.00577535,-0.00166348,-0.00634426,0.00063727,0.00
 226292,-0.00184163,-0.00056223,-0.00005593,0.00044912,0.00083450,-0.00
 084570,0.00003618,-0.07527474,0.00126381,0.07478538,-0.03475638,0.0034
 3865,0.03232452,-0.00006367,0.00005452,-0.00004823,0.00008483,-0.00005
 835,0.00009361,-0.00152787,0.00050090,-0.00032434,0.00025396,-0.000004
 17,0.00014473,-0.00005620,0.00008449,0.00000220,0.00040615,0.00025869,
 -0.00045281,-0.00109434,0.00007566,-0.00038507,0.00016308,-0.00017865,
 -0.00011392,0.00009274,-0.00006118,-0.00015350,-0.00023249,0.00033597,
 -0.00036295,0.00566187,0.00024325,-0.00865458,0.10031269,0.00046001,0.
 00025192,-0.00010638,-0.00049811,0.00030186,-0.00033066,-0.00889868,0.
 00071154,0.02409509,0.00229136,-0.00348715,0.00359356,-0.00060582,0.00
 107505,0.00177638,-0.00016362,-0.00021763,-0.00054406,0.00277932,-0.05
 713396,-0.01628136,0.00394746,0.00524933,-0.00119710,0.00001714,-0.000
 04435,-0.00007492,0.00003259,-0.00012067,-0.00000511,0.00035047,0.0001
 5957,0.00004080,-0.00001017,0.00001334,-0.00003828,0.00017588,0.000033
 48,0.00006256,-0.00106708,-0.00047074,0.00104561,0.00013188,-0.0000812
 9,-0.00012604,0.00000404,-0.00091768,-0.00037507,0.00008270,0.00030462
 ,-0.00022033,0.00021042,0.00018278,0.00033179,0.00863107,0.00071024,-0
 .02500796,-0.00750249,0.05391470,0.00066315,0.00082193,-0.00048887,0.0
 0037055,0.00026628,-0.00072854,0.00685843,-0.00446215,-0.01615768,-0.0
 0171461,0.00388206,-0.00196296,0.00049247,-0.00185818,-0.00011784,-0.0
 0027729,0.00067535,0.00065030,0.07514859,-0.01192880,-0.26965087,0.005
 53220,0.00124996,0.01195469,0.00011459,-0.00040233,0.00047225,-0.00012
 336,-0.00001220,0.00003290,-0.00025883,-0.00075264,0.00086192,-0.00026
 265,0.00009069,0.00017279,0.00003218,0.00019906,0.00007245,0.00079907,
 0.00048955,-0.00045860,-0.00056586,-0.00003357,0.00076551,0.00003667,0
 .00059290,0.00098574,-0.00028419,-0.00007164,0.00044507,-0.00028095,-0
 .00058035,-0.00027039,0.00361052,0.00030258,-0.01051087,-0.09025406,0.
 01232428,0.28384298,0.00006575,0.00004073,0.00013499,-0.00026982,-0.00
 063294,0.00062569,0.00133448,-0.00007823,-0.00192674,-0.00023189,-0.00
 007924,0.00016529,-0.00288168,0.00430053,-0.00134739,-0.00389794,-0.00
 403173,0.00187114,-0.02685499,-0.04351193,-0.01309966,-0.09405792,-0.1
 0101201,-0.02696857,0.00009242,-0.00000320,-0.00001258,-0.00005949,0.0
 0002765,-0.00001577,-0.00004672,-0.00004376,-0.00005517,0.00038675,0.0
 0003065,0.00015136,0.00021636,0.00012404,0.00014633,0.00008792,0.00012
 567,0.00006576,0.00002391,0.00014133,-0.00051942,-0.00021047,0.0002190
 8,0.00017837,-0.00026428,-0.00042249,0.00019969,0.00189577,-0.00017478
 ,-0.00022779,-0.00653644,0.00124702,0.00069901,0.00059548,-0.00036837,
 0.00036338,0.13061280,0.00002757,0.00030901,-0.00005031,0.00000706,-0.
 00131602,0.00021152,0.00224492,0.00292040,0.00100201,-0.00084435,-0.00
 187407,-0.00027194,0.01158100,0.00103183,-0.00106216,-0.00810539,0.002
 47192,-0.00219089,-0.00210834,0.00469642,-0.00020144,-0.14888957,-0.39
 304861,-0.09961139,0.00000036,-0.00011920,0.00004273,0.00010439,-0.000
 10294,-0.00011453,-0.00012211,-0.00013555,0.00016283,0.00043939,-0.000
 18188,0.00022812,-0.00043841,-0.00017412,-0.00025273,-0.00002441,-0.00
 026320,0.00002967,-0.00040319,0.00036681,-0.00117220,-0.00071936,-0.00
 013508,0.00031420,-0.00234213,-0.00019875,-0.00058640,0.00033365,-0.00
 093894,0.00486635,0.00277779,0.00195629,0.00141014,0.00237914,-0.00043
 498,-0.00079278,0.14410198,0.38517065,0.00010766,-0.00006308,0.0001281
 3,-0.00019741,-0.00019443,0.00009883,-0.00016262,-0.00149784,0.0018570
 4,0.00141847,-0.00024185,-0.00028885,-0.00220104,0.00028763,0.00151336
 ,0.00244033,-0.00320016,-0.00459029,-0.00153520,-0.00246971,-0.0006910
 5,-0.03801189,-0.09590345,-0.03613259,0.00007096,0.00001140,-0.0001028
 6,0.00000473,-0.00004403,-0.00001509,0.00003744,0.00005368,-0.00008808
 ,0.00018436,0.00009877,0.00005271,0.00012139,0.00009312,0.00007940,0.0
 0056673,0.00037354,-0.00015327,-0.00124653,-0.00101969,-0.00078985,0.0
 0058149,-0.00039342,-0.00059835,0.00056928,-0.00007241,-0.00019347,-0.
 00129816,0.00516291,-0.00238394,-0.00212389,-0.00005735,0.00064882,0.0
 0110183,0.00103718,0.00009001,0.03957207,0.09803919,0.04155938\\0.0000
 0025,-0.00000026,0.00000116,-0.00000005,-0.00000017,0.00000073,-0.0000
 0003,0.00000002,-0.00000005,-0.00000083,0.00000024,-0.00000009,0.00000
 004,-0.00000019,-0.00000068,0.00000028,0.00000049,-0.00000046,0.000000
 54,0.00000029,-0.00000056,0.00000049,0.00000006,-0.00000128,0.00000010
 ,-0.00000034,0.00000159,0.00000054,-0.00000017,0.00000113,0.00000086,-
 0.00000040,0.00000097,-0.00000083,-0.00000009,0.00000081,-0.00000063,-
 0.00000029,0.00000075,-0.00000129,0.00000010,-0.00000028,-0.00000074,0
 .00000004,-0.00000074,0.00000070,0.00000009,-0.00000005,-0.00000024,0.
 00000016,0.00000012,-0.00000062,0.00000010,-0.00000142,0.00000018,-0.0
 0000009,-0.00000024,0.00000082,0.,-0.00000015,0.00000045,0.00000041,-0
 .00000126\\\@


 I WANT IT ALL - RICH, THIN, AND CHOCOLATE.
 File lengths (MBytes):  RWF=     54 Int=      0 D2E=      0 Chk=      3 Scr=      1
 Normal termination of Gaussian 16 at Fri Mar 29 15:47:37 2024.
real 807.49
user 3073.55
sys 17.59
