 Entering Gaussian System, Link 0=g16
 Input=gaussian_test.inp
 Output=gaussian_test.log
 Initial command:
 /sw/restricted/lms/sw/Gaussian/g16_B01/g16/l1.exe "/scratch/user/peterchao1/peterchao1/9982560_1711744440000000482585314/Gau-111200.inp" -scrdir="/scratch/user/peterchao1/peterchao1/9982560_1711744440000000482585314/"
 Entering Link 1 = /sw/restricted/lms/sw/Gaussian/g16_B01/g16/l1.exe PID=    111201.
  
 Copyright (c) 1988-2017, Gaussian, Inc.  All Rights Reserved.
  
 This is part of the Gaussian(R) 16 program.  It is based on
 the Gaussian(R) 09 system (copyright 2009, Gaussian, Inc.),
 the Gaussian(R) 03 system (copyright 2003, Gaussian, Inc.),
 the Gaussian(R) 98 system (copyright 1998, Gaussian, Inc.),
 the Gaussian(R) 94 system (copyright 1995, Gaussian, Inc.),
 the Gaussian 92(TM) system (copyright 1992, Gaussian, Inc.),
 the Gaussian 90(TM) system (copyright 1990, Gaussian, Inc.),
 the Gaussian 88(TM) system (copyright 1988, Gaussian, Inc.),
 the Gaussian 86(TM) system (copyright 1986, Carnegie Mellon
 University), and the Gaussian 82(TM) system (copyright 1983,
 Carnegie Mellon University). Gaussian is a federally registered
 trademark of Gaussian, Inc.
  
 This software contains proprietary and confidential information,
 including trade secrets, belonging to Gaussian, Inc.
  
 This software is provided under written license and may be
 used, copied, transmitted, or stored only in accord with that
 written license.
  
 The following legend is applicable only to US Government
 contracts under FAR:
  
                    RESTRICTED RIGHTS LEGEND
  
 Use, reproduction and disclosure by the US Government is
 subject to restrictions as set forth in subparagraphs (a)
 and (c) of the Commercial Computer Software - Restricted
 Rights clause in FAR 52.227-19.
  
 Gaussian, Inc.
 340 Quinnipiac St., Bldg. 40, Wallingford CT 06492
  
  
 ---------------------------------------------------------------
 Warning -- This program may not be used in any manner that
 competes with the business of Gaussian, Inc. or will provide
 assistance to any competitor of Gaussian, Inc.  The licensee
 of this program is prohibited from giving any competitor of
 Gaussian, Inc. access to this program.  By using this program,
 the user acknowledges that Gaussian, Inc. is engaged in the
 business of creating and licensing software in the field of
 computational chemistry and represents and warrants to the
 licensee that it is not a competitor of Gaussian, Inc. and that
 it will not use this program in any manner prohibited above.
 ---------------------------------------------------------------
  

 Cite this work as:
 Gaussian 16, Revision B.01,
 M. J. Frisch, G. W. Trucks, H. B. Schlegel, G. E. Scuseria, 
 M. A. Robb, J. R. Cheeseman, G. Scalmani, V. Barone, 
 G. A. Petersson, H. Nakatsuji, X. Li, M. Caricato, A. V. Marenich, 
 J. Bloino, B. G. Janesko, R. Gomperts, B. Mennucci, H. P. Hratchian, 
 J. V. Ortiz, A. F. Izmaylov, J. L. Sonnenberg, D. Williams-Young, 
 F. Ding, F. Lipparini, F. Egidi, J. Goings, B. Peng, A. Petrone, 
 T. Henderson, D. Ranasinghe, V. G. Zakrzewski, J. Gao, N. Rega, 
 G. Zheng, W. Liang, M. Hada, M. Ehara, K. Toyota, R. Fukuda, 
 J. Hasegawa, M. Ishida, T. Nakajima, Y. Honda, O. Kitao, H. Nakai, 
 T. Vreven, K. Throssell, J. A. Montgomery, Jr., J. E. Peralta, 
 F. Ogliaro, M. J. Bearpark, J. J. Heyd, E. N. Brothers, K. N. Kudin, 
 V. N. Staroverov, T. A. Keith, R. Kobayashi, J. Normand, 
 K. Raghavachari, A. P. Rendell, J. C. Burant, S. S. Iyengar, 
 J. Tomasi, M. Cossi, J. M. Millam, M. Klene, C. Adamo, R. Cammi, 
 J. W. Ochterski, R. L. Martin, K. Morokuma, O. Farkas, 
 J. B. Foresman, and D. J. Fox, Gaussian, Inc., Wallingford CT, 2016.
 
 ******************************************
 Gaussian 16:  ES64L-G16RevB.01 20-Dec-2017
                29-Mar-2024 
 ******************************************
 %nprocshared=4
 Will use up to    4 processors via shared memory.
 %mem=8000mb
 %chk=monomer.chk
 %nprocshared=4
 Will use up to    4 processors via shared memory.
 %mem=8000mb
 ----------------------------------------------------------------------
 #T wB97XD/def2svpp opt=tight freq int(grid=ultrafine) scf=(verytight,q
 c) Volume=tight
 ----------------------------------------------------------------------
 -------
 Monomer
 -------
 Symbolic Z-matrix:
 Charge =  0 Multiplicity = 1
 C                    -0.6721   -1.44551   0.12176 
 C                    -0.49014  -0.00061  -0.33886 
 C                    -1.72626   0.82427   0.00857 
 C                     0.76146   0.63601   0.29688 
 N                     2.03431   0.05291  -0.08323 
 H                    -1.56519  -1.87645  -0.32557 
 H                    -0.77601  -1.48609   1.2045 
 H                     0.17718  -2.0623   -0.16685 
 H                    -0.35977   0.00578  -1.42885 
 H                    -1.61655   1.84832  -0.34112 
 H                    -1.87542   0.84399   1.08606 
 H                    -2.61352   0.39672  -0.45325 
 H                     0.68395   0.57504   1.3861 
 H                     0.79864   1.69446   0.02142 
 H                     2.14003   0.07206  -1.09256 
 H                     2.08358  -0.91552   0.21384 
 

 GradGradGradGradGradGradGradGradGradGradGradGradGradGradGradGradGradGrad
 Initialization pass.
                           ----------------------------
                           !    Initial Parameters    !
                           ! (Angstroms and Degrees)  !
 --------------------------                            --------------------------
 ! Name  Definition              Value          Derivative Info.                !
 --------------------------------------------------------------------------------
 ! R1    R(1,2)                  1.5274         estimate D2E/DX2                !
 ! R2    R(1,6)                  1.0878         estimate D2E/DX2                !
 ! R3    R(1,7)                  1.0885         estimate D2E/DX2                !
 ! R4    R(1,8)                  1.0886         estimate D2E/DX2                !
 ! R5    R(2,3)                  1.5261         estimate D2E/DX2                !
 ! R6    R(2,4)                  1.5414         estimate D2E/DX2                !
 ! R7    R(2,9)                  1.0978         estimate D2E/DX2                !
 ! R8    R(3,10)                 1.0877         estimate D2E/DX2                !
 ! R9    R(3,11)                 1.0879         estimate D2E/DX2                !
 ! R10   R(3,12)                 1.0878         estimate D2E/DX2                !
 ! R11   R(4,5)                  1.4507         estimate D2E/DX2                !
 ! R12   R(4,13)                 1.0937         estimate D2E/DX2                !
 ! R13   R(4,14)                 1.0943         estimate D2E/DX2                !
 ! R14   R(5,15)                 1.015          estimate D2E/DX2                !
 ! R15   R(5,16)                 1.0142         estimate D2E/DX2                !
 ! A1    A(2,1,6)              110.3971         estimate D2E/DX2                !
 ! A2    A(2,1,7)              110.2808         estimate D2E/DX2                !
 ! A3    A(2,1,8)              111.2907         estimate D2E/DX2                !
 ! A4    A(6,1,7)              108.4148         estimate D2E/DX2                !
 ! A5    A(6,1,8)              107.8798         estimate D2E/DX2                !
 ! A6    A(7,1,8)              108.4871         estimate D2E/DX2                !
 ! A7    A(1,2,3)              110.2525         estimate D2E/DX2                !
 ! A8    A(1,2,4)              111.2873         estimate D2E/DX2                !
 ! A9    A(1,2,9)              108.6078         estimate D2E/DX2                !
 ! A10   A(3,2,4)              109.9103         estimate D2E/DX2                !
 ! A11   A(3,2,9)              108.6075         estimate D2E/DX2                !
 ! A12   A(4,2,9)              108.1            estimate D2E/DX2                !
 ! A13   A(2,3,10)             110.7319         estimate D2E/DX2                !
 ! A14   A(2,3,11)             110.2617         estimate D2E/DX2                !
 ! A15   A(2,3,12)             110.5826         estimate D2E/DX2                !
 ! A16   A(10,3,11)            108.372          estimate D2E/DX2                !
 ! A17   A(10,3,12)            108.4112         estimate D2E/DX2                !
 ! A18   A(11,3,12)            108.4068         estimate D2E/DX2                !
 ! A19   A(2,4,5)              115.9989         estimate D2E/DX2                !
 ! A20   A(2,4,13)             109.2802         estimate D2E/DX2                !
 ! A21   A(2,4,14)             108.8583         estimate D2E/DX2                !
 ! A22   A(5,4,13)             107.5007         estimate D2E/DX2                !
 ! A23   A(5,4,14)             107.0375         estimate D2E/DX2                !
 ! A24   A(13,4,14)            107.8797         estimate D2E/DX2                !
 ! A25   A(4,5,15)             110.1411         estimate D2E/DX2                !
 ! A26   A(4,5,16)             110.468          estimate D2E/DX2                !
 ! A27   A(15,5,16)            107.7112         estimate D2E/DX2                !
 ! D1    D(6,1,2,3)             57.0823         estimate D2E/DX2                !
 ! D2    D(6,1,2,4)            179.3129         estimate D2E/DX2                !
 ! D3    D(6,1,2,9)            -61.8056         estimate D2E/DX2                !
 ! D4    D(7,1,2,3)            -62.7            estimate D2E/DX2                !
 ! D5    D(7,1,2,4)             59.5306         estimate D2E/DX2                !
 ! D6    D(7,1,2,9)            178.4121         estimate D2E/DX2                !
 ! D7    D(8,1,2,3)            176.8481         estimate D2E/DX2                !
 ! D8    D(8,1,2,4)            -60.9212         estimate D2E/DX2                !
 ! D9    D(8,1,2,9)             57.9602         estimate D2E/DX2                !
 ! D10   D(1,2,3,10)          -178.4043         estimate D2E/DX2                !
 ! D11   D(1,2,3,11)            61.6643         estimate D2E/DX2                !
 ! D12   D(1,2,3,12)           -58.2145         estimate D2E/DX2                !
 ! D13   D(4,2,3,10)            58.5568         estimate D2E/DX2                !
 ! D14   D(4,2,3,11)           -61.3745         estimate D2E/DX2                !
 ! D15   D(4,2,3,12)           178.7467         estimate D2E/DX2                !
 ! D16   D(9,2,3,10)           -59.5163         estimate D2E/DX2                !
 ! D17   D(9,2,3,11)          -179.4476         estimate D2E/DX2                !
 ! D18   D(9,2,3,12)            60.6736         estimate D2E/DX2                !
 ! D19   D(1,2,4,5)             64.8569         estimate D2E/DX2                !
 ! D20   D(1,2,4,13)           -56.8152         estimate D2E/DX2                !
 ! D21   D(1,2,4,14)          -174.4085         estimate D2E/DX2                !
 ! D22   D(3,2,4,5)           -172.7147         estimate D2E/DX2                !
 ! D23   D(3,2,4,13)            65.6131         estimate D2E/DX2                !
 ! D24   D(3,2,4,14)           -51.9802         estimate D2E/DX2                !
 ! D25   D(9,2,4,5)            -54.328          estimate D2E/DX2                !
 ! D26   D(9,2,4,13)          -176.0002         estimate D2E/DX2                !
 ! D27   D(9,2,4,14)            66.4065         estimate D2E/DX2                !
 ! D28   D(2,4,5,15)            56.2587         estimate D2E/DX2                !
 ! D29   D(2,4,5,16)           -62.6074         estimate D2E/DX2                !
 ! D30   D(13,4,5,15)          178.8725         estimate D2E/DX2                !
 ! D31   D(13,4,5,16)           60.0064         estimate D2E/DX2                !
 ! D32   D(14,4,5,15)          -65.449          estimate D2E/DX2                !
 ! D33   D(14,4,5,16)          175.685          estimate D2E/DX2                !
 --------------------------------------------------------------------------------
 Number of steps in this run=     85 maximum allowed number of steps=    100.
 GradGradGradGradGradGradGradGradGradGradGradGradGradGradGradGradGradGrad

                    Distance matrix (angstroms):
                    1          2          3          4          5
     1  C    0.000000
     2  C    1.527417   0.000000
     3  C    2.505186   1.526146   0.000000
     4  C    2.533471   1.541420   2.511440   0.000000
     5  N    3.100310   2.537930   3.839963   1.450734   0.000000
     6  H    1.087850   2.162091   2.726068   3.480397   4.091151
     7  H    1.088472   2.161094   2.769649   2.773248   3.453213
     8  H    1.088578   2.173814   3.462100   2.799519   2.816033
     9  H    2.146666   1.097773   2.145550   2.152322   2.746735
    10  H    3.457682   2.165029   1.087662   2.744390   4.076614
    11  H    2.760368   2.159336   1.087943   2.760290   4.156803
    12  H    2.737438   2.163256   1.087792   3.465607   4.675194
    13  H    2.742269   2.164575   2.787263   1.093680   2.062770
    14  H    3.468788   2.159632   2.670672   1.094335   2.057308
    15  H    3.418421   2.736992   4.089800   2.036912   1.015032
    16  H    2.807686   2.786857   4.193312   2.040131   1.014166
                    6          7          8          9         10
     6  H    0.000000
     7  H    1.765300   0.000000
     8  H    1.759424   1.766694   0.000000
     9  H    2.492594   3.055071   2.481514   0.000000
    10  H    3.725154   3.770110   4.305903   2.481450   0.000000
    11  H    3.080532   2.579138   3.772193   3.053610   1.764243
    12  H    2.506512   3.109585   3.730525   2.486767   1.764556
    13  H    3.741418   2.532333   3.102264   3.055711   3.145926
    14  H    4.296438   3.740996   3.812461   2.509342   2.447082
    15  H    4.255998   4.025863   3.043875   2.523185   4.222748
    16  H    3.811535   3.079647   2.257071   3.084988   4.651637
                   11         12         13         14         15
    11  H    0.000000
    12  H    1.764735   0.000000
    13  H    2.590894   3.779987   0.000000
    14  H    3.001220   3.681330   1.768789   0.000000
    15  H    4.633144   4.807316   2.918373   2.381688   0.000000
    16  H    4.419308   4.922366   2.356892   2.915490   1.638645
                   16
    16  H    0.000000
 Framework group  C1[X(C4H11N)]
 Deg. of freedom    42
                         Standard orientation:                         
 ---------------------------------------------------------------------
 Center     Atomic      Atomic             Coordinates (Angstroms)
 Number     Number       Type             X           Y           Z
 ---------------------------------------------------------------------
      1          6           0        0.606892    1.448932    0.110354
      2          6           0        0.453069   -0.001278   -0.343773
      3          6           0        1.709835   -0.797504   -0.003648
      4          6           0       -0.779006   -0.662963    0.304409
      5          7           0       -2.067435   -0.109385   -0.067252
      6          1           0        1.486609    1.897782   -0.345771
      7          1           0        0.718685    1.495717    1.192059
      8          1           0       -0.258081    2.045843   -0.173408
      9          1           0        0.314015   -0.014495   -1.432624
     10          1           0        1.619863   -1.824987   -0.348892
     11          1           0        1.868141   -0.810023    1.072643
     12          1           0        2.583678   -0.352228   -0.474200
     13          1           0       -0.694008   -0.596348    1.392744
     14          1           0       -0.795095   -1.722964    0.032915
     15          1           0       -2.180899   -0.134518   -1.075609
     16          1           0       -2.135602    0.858801    0.226859
 ---------------------------------------------------------------------
 Rotational constants (GHZ):           7.4713413           3.4510519           2.6328073
    92 basis functions,   169 primitive gaussians,    97 cartesian basis functions
    21 alpha electrons       21 beta electrons
       nuclear repulsion energy       194.1283231519 Hartrees.
 NAtoms=   16 NActive=   16 NUniq=   16 SFac= 1.00D+00 NAtFMM=   60 NAOKFM=F Big=F
 Nuclear repulsion after empirical dispersion term =      194.1193369733 Hartrees.
   1 Symmetry operations used in ECPInt.
 ECPInt:  NShTT=    1378 NPrTT=    5558 LenC2=    1377 LenP2D=    4709.
 LDataN:  DoStor=T MaxTD1= 4 Len=   56
 ExpMin= 1.22D-01 ExpMax= 1.71D+03 ExpMxC= 2.58D+02 IAcc=3 IRadAn=         5 AccDes= 0.00D+00
 Harris functional with IExCor= 4639 and IRadAn=       5 diagonalized for initial guess.
 HarFok:  IExCor= 4639 AccDes= 0.00D+00 IRadAn=         5 IDoV= 1 UseB2=F ITyADJ=14
 ICtDFT=  3500011 ScaDFX=  1.000000  1.000000  1.000000  1.000000
 FoFCou: FMM=F IPFlag=           0 FMFlag=      100000 FMFlg1=           0
         NFxFlg=           0 DoJE=T BraDBF=F KetDBF=T FulRan=T
         wScrn=  0.000000 ICntrl=       500 IOpCl=  0 I1Cent=   200000004 NGrid=           0
         NMat0=    1 NMatS0=      1 NMatT0=    0 NMatD0=    1 NMtDS0=    0 NMtDT0=    0
 Petite list used in FoFCou.
     Minimum is close to point  3 DX=  6.34D-02 DF= -3.10D-04 DXR=  9.55D-02 DFR=  9.19D-03 which will be used.
     Minimum is close to point  3 DX=  5.99D-02 DF= -1.45D-05 DXR=  6.24D-02 DFR=  3.90D-03 which will be used.
     Accept linear search using points  1 and  2.
     Minimum is close to point  2 DX=  7.00D-05 DF= -1.99D-13 DXR=  7.00D-05 DFR=  4.88D-09 which will be used.
 SCF Done:  E(RwB97XD) =  -213.554136386     a.u. after    6 cycles
            Convg  =    0.3907D-09                    31 Fock formations.
              S**2 =  0.0000                  -V/T =  2.0100

 **********************************************************************

            Population analysis using the SCF Density.

 **********************************************************************

 Orbital symmetries:
       Occupied  (A) (A) (A) (A) (A) (A) (A) (A) (A) (A) (A) (A)
                 (A) (A) (A) (A) (A) (A) (A) (A) (A)
       Virtual   (A) (A) (A) (A) (A) (A) (A) (A) (A) (A) (A) (A)
                 (A) (A) (A) (A) (A) (A) (A) (A) (A) (A) (A) (A)
                 (A) (A) (A) (A) (A) (A) (A) (A) (A) (A) (A) (A)
                 (A) (A) (A) (A) (A) (A) (A) (A) (A) (A) (A) (A)
                 (A) (A) (A) (A) (A) (A) (A) (A) (A) (A) (A) (A)
                 (A) (A) (A) (A) (A) (A) (A) (A) (A) (A) (A)
 The electronic state is 1-A.
 Alpha  occ. eigenvalues --  -14.40804 -10.30404 -10.29078 -10.27744 -10.27493
 Alpha  occ. eigenvalues --   -0.97265  -0.88260  -0.77706  -0.74357  -0.65416
 Alpha  occ. eigenvalues --   -0.58717  -0.54831  -0.53346  -0.51125  -0.47616
 Alpha  occ. eigenvalues --   -0.46613  -0.44774  -0.43376  -0.41266  -0.40774
 Alpha  occ. eigenvalues --   -0.30792
 Alpha virt. eigenvalues --    0.13111   0.15699   0.16744   0.18559   0.20715
 Alpha virt. eigenvalues --    0.21369   0.21981   0.23359   0.25114   0.26464
 Alpha virt. eigenvalues --    0.27349   0.30081   0.31695   0.33708   0.34567
 Alpha virt. eigenvalues --    0.49240   0.50614   0.52684   0.55737   0.58146
 Alpha virt. eigenvalues --    0.63528   0.65070   0.69288   0.71176   0.74148
 Alpha virt. eigenvalues --    0.75173   0.76592   0.77841   0.79049   0.79861
 Alpha virt. eigenvalues --    0.80533   0.81368   0.81650   0.81851   0.83993
 Alpha virt. eigenvalues --    0.84887   0.85750   0.87162   0.92182   0.96493
 Alpha virt. eigenvalues --    1.03627   1.08178   1.18202   1.20377   1.20814
 Alpha virt. eigenvalues --    1.39397   1.50574   1.54023   1.77015   1.80795
 Alpha virt. eigenvalues --    1.85329   1.98097   2.00559   2.01864   2.05376
 Alpha virt. eigenvalues --    2.11003   2.14869   2.17792   2.24188   2.25084
 Alpha virt. eigenvalues --    2.25238   2.37346   2.45765   2.49211   2.54578
 Alpha virt. eigenvalues --    2.55901   2.63657   2.75849   2.77342   2.85291
 Alpha virt. eigenvalues --    3.08898
          Condensed to atoms (all electrons):
 Mulliken charges:
               1
     1  C   -0.293462
     2  C   -0.225951
     3  C   -0.281417
     4  C   -0.064827
     5  N   -0.503359
     6  H    0.117597
     7  H    0.106881
     8  H    0.100942
     9  H    0.081146
    10  H    0.113896
    11  H    0.107035
    12  H    0.114335
    13  H    0.094267
    14  H    0.100461
    15  H    0.214050
    16  H    0.218405
 Sum of Mulliken charges =   0.00000
 Mulliken charges with hydrogens summed into heavy atoms:
               1
     1  C    0.031958
     2  C   -0.144805
     3  C    0.053849
     4  C    0.129902
     5  N   -0.070903
 Electronic spatial extent (au):  <R**2>=            533.6556
 Charge=              0.0000 electrons
 Dipole moment (field-independent basis, Debye):
    X=              0.9036    Y=              0.8078    Z=             -0.7337  Tot=              1.4168
 Evaluate density.
 Using the total density.
 Monte-Carlo method of calculating molar volume:
 based on  0.001 e/bohr**3 density envelope.
 Number of points per bohr**3 =  100 CutOff= 1.00D-04
 Using the SCF density.
 There are      1676 points.  Will hold      1676 in memory.
 LenV=  1048397693 MDV=  1048576000.
 Box volume = 4709.134 fraction occupied=0.183
 Integrated density= 3.9577504247631076D+01 error=-2.4224957523689241D+00
 Molar volume =  859.782 bohr**3/mol ( 76.726 cm**3/mol)
 Recommended a0 for SCRF calculation =  3.94 angstrom (  7.44 bohr)
   1 Symmetry operations used in ECPInt.
 ECPInt:  NShTT=    1378 NPrTT=    5558 LenC2=    1377 LenP2D=    4709.
 LDataN:  DoStor=T MaxTD1= 5 Len=  102
 Calling FoFJK, ICntrl=      2127 FMM=F ISym2X=0 I1Cent= 0 IOpClX= 0 NMat=1 NMatS=1 NMatT=0.

 GradGradGradGradGradGradGradGradGradGradGradGradGradGradGradGradGradGrad
 FormGI is forming the generalized inverse of G from B-inverse, IUseBI=4.
 Internal  Forces:  Max     0.011653612 RMS     0.003794862
 Step number   1 out of a maximum of   85
 All quantities printed in internal units (Hartrees-Bohrs-Radians)
 Mixed Optimization -- RFO/linear search
 Second derivative matrix not updated -- first step.
 ITU=  0
     Eigenvalues ---    0.00230   0.00403   0.00420   0.01021   0.03686
     Eigenvalues ---    0.03866   0.04371   0.04692   0.04846   0.05342
     Eigenvalues ---    0.05562   0.05622   0.05659   0.05670   0.09999
     Eigenvalues ---    0.13194   0.16000   0.16000   0.16000   0.16000
     Eigenvalues ---    0.16000   0.16000   0.16000   0.16000   0.16441
     Eigenvalues ---    0.16675   0.22063   0.28394   0.29663   0.29782
     Eigenvalues ---    0.33930   0.34316   0.34391   0.34977   0.34990
     Eigenvalues ---    0.35051   0.35062   0.35069   0.35084   0.38149
     Eigenvalues ---    0.45140   0.45282
 Linear search not attempted -- first point.
 Iteration  1 RMS(Cart)=  0.03624148 RMS(Int)=  0.00059470
 Iteration  2 RMS(Cart)=  0.00082859 RMS(Int)=  0.00011747
 Iteration  3 RMS(Cart)=  0.00000050 RMS(Int)=  0.00011747
 Variable       Old X    -DE/DX   Delta X   Delta X   Delta X     New X
                                 (Linear)    (Quad)   (Total)
    R1        2.88640   0.00339   0.00000   0.01129   0.01129   2.89769
    R2        2.05574   0.01082   0.00000   0.03053   0.03053   2.08627
    R3        2.05691   0.01145   0.00000   0.03238   0.03238   2.08929
    R4        2.05711   0.01044   0.00000   0.02951   0.02951   2.08663
    R5        2.88400   0.00449   0.00000   0.01487   0.01487   2.89887
    R6        2.91286   0.00085   0.00000   0.00296   0.00296   2.91582
    R7        2.07449   0.00621   0.00000   0.01809   0.01809   2.09258
    R8        2.05538   0.01123   0.00000   0.03165   0.03165   2.08704
    R9        2.05591   0.01165   0.00000   0.03288   0.03288   2.08880
   R10        2.05563   0.01091   0.00000   0.03078   0.03078   2.08641
   R11        2.74149   0.00506   0.00000   0.01313   0.01313   2.75462
   R12        2.06676   0.00802   0.00000   0.02305   0.02305   2.08981
   R13        2.06799   0.00727   0.00000   0.02096   0.02096   2.08896
   R14        1.91813   0.00438   0.00000   0.00962   0.00962   1.92776
   R15        1.91650   0.00445   0.00000   0.00973   0.00973   1.92623
    A1        1.92679   0.00217   0.00000   0.01369   0.01364   1.94043
    A2        1.92476   0.00062   0.00000   0.00327   0.00325   1.92802
    A3        1.94239   0.00125   0.00000   0.00769   0.00765   1.95004
    A4        1.89219  -0.00145   0.00000  -0.00893  -0.00896   1.88324
    A5        1.88286  -0.00168   0.00000  -0.00926  -0.00933   1.87353
    A6        1.89346  -0.00109   0.00000  -0.00748  -0.00749   1.88597
    A7        1.92427   0.00086   0.00000   0.01704   0.01677   1.94104
    A8        1.94233   0.00026   0.00000   0.01018   0.00980   1.95213
    A9        1.89556  -0.00047   0.00000  -0.01218  -0.01209   1.88347
   A10        1.91830   0.00050   0.00000   0.01282   0.01249   1.93079
   A11        1.89556  -0.00035   0.00000  -0.00830  -0.00816   1.88740
   A12        1.88670  -0.00087   0.00000  -0.02114  -0.02107   1.86563
   A13        1.93264   0.00168   0.00000   0.01060   0.01055   1.94318
   A14        1.92443   0.00093   0.00000   0.00483   0.00480   1.92923
   A15        1.93003   0.00206   0.00000   0.01301   0.01294   1.94297
   A16        1.89145  -0.00145   0.00000  -0.00974  -0.00976   1.88169
   A17        1.89213  -0.00176   0.00000  -0.00919  -0.00928   1.88285
   A18        1.89206  -0.00162   0.00000  -0.01061  -0.01063   1.88142
   A19        2.02456   0.00319   0.00000   0.02066   0.02053   2.04509
   A20        1.90730  -0.00154   0.00000  -0.01293  -0.01307   1.89423
   A21        1.89994  -0.00107   0.00000  -0.00405  -0.00443   1.89550
   A22        1.87624  -0.00008   0.00000   0.00551   0.00561   1.88185
   A23        1.86816   0.00028   0.00000   0.01483   0.01471   1.88287
   A24        1.88286  -0.00099   0.00000  -0.02711  -0.02727   1.85559
   A25        1.92232   0.00200   0.00000   0.01545   0.01526   1.93759
   A26        1.92803   0.00334   0.00000   0.02360   0.02341   1.95145
   A27        1.87992  -0.00205   0.00000  -0.00608  -0.00643   1.87349
    D1        0.99627  -0.00052   0.00000  -0.00528  -0.00535   0.99092
    D2        3.12960   0.00090   0.00000   0.02977   0.02981  -3.12377
    D3       -1.07871  -0.00031   0.00000   0.00220   0.00220  -1.07651
    D4       -1.09432  -0.00050   0.00000  -0.00501  -0.00508  -1.09940
    D5        1.03901   0.00092   0.00000   0.03004   0.03009   1.06909
    D6        3.11388  -0.00030   0.00000   0.00247   0.00248   3.11636
    D7        3.08658  -0.00037   0.00000  -0.00284  -0.00289   3.08369
    D8       -1.06328   0.00104   0.00000   0.03221   0.03228  -1.03100
    D9        1.01160  -0.00017   0.00000   0.00464   0.00467   1.01626
   D10       -3.11374   0.00038   0.00000   0.01149   0.01154  -3.10220
   D11        1.07625   0.00051   0.00000   0.01369   0.01376   1.09001
   D12       -1.01603   0.00062   0.00000   0.01545   0.01554  -1.00050
   D13        1.02201  -0.00087   0.00000  -0.02146  -0.02155   1.00046
   D14       -1.07119  -0.00074   0.00000  -0.01926  -0.01933  -1.09051
   D15        3.11972  -0.00063   0.00000  -0.01750  -0.01755   3.10217
   D16       -1.03876   0.00010   0.00000   0.00164   0.00162  -1.03714
   D17       -3.13195   0.00024   0.00000   0.00384   0.00384  -3.12812
   D18        1.05895   0.00034   0.00000   0.00560   0.00561   1.06456
   D19        1.13197  -0.00141   0.00000  -0.07217  -0.07222   1.05975
   D20       -0.99161  -0.00235   0.00000  -0.08395  -0.08388  -1.07549
   D21       -3.04400   0.00033   0.00000  -0.04169  -0.04179  -3.08579
   D22       -3.01444   0.00021   0.00000  -0.03479  -0.03478  -3.04922
   D23        1.14517  -0.00073   0.00000  -0.04658  -0.04644   1.09872
   D24       -0.90722   0.00195   0.00000  -0.00432  -0.00435  -0.91158
   D25       -0.94820  -0.00044   0.00000  -0.04997  -0.05001  -0.99821
   D26       -3.07178  -0.00139   0.00000  -0.06176  -0.06166  -3.13345
   D27        1.15901   0.00129   0.00000  -0.01949  -0.01958   1.13943
   D28        0.98190   0.00054   0.00000   0.00482   0.00497   0.98687
   D29       -1.09271  -0.00026   0.00000  -0.01211  -0.01214  -1.10485
   D30        3.12191   0.00065   0.00000   0.00640   0.00657   3.12848
   D31        1.04731  -0.00015   0.00000  -0.01054  -0.01055   1.03676
   D32       -1.14230  -0.00039   0.00000  -0.01491  -0.01497  -1.15727
   D33        3.06628  -0.00120   0.00000  -0.03185  -0.03208   3.03420
         Item               Value     Threshold  Converged?
 Maximum Force            0.011654     0.000015     NO 
 RMS     Force            0.003795     0.000010     NO 
 Maximum Displacement     0.113947     0.000060     NO 
 RMS     Displacement     0.036342     0.000040     NO 
 GradGradGradGradGradGradGradGradGradGradGradGradGradGradGradGradGradGrad

                    Distance matrix (angstroms):
                    1          2          3          4          5
     1  C    0.000000
     2  C    1.533392   0.000000
     3  C    2.531159   1.534016   0.000000
     4  C    2.548168   1.542985   2.530138   0.000000
     5  N    3.102730   2.561271   3.874024   1.457683   0.000000
     6  H    1.104005   2.189363   2.770973   3.513033   4.113351
     7  H    1.105605   2.181574   2.810430   2.813947   3.462963
     8  H    1.104196   2.196413   3.501765   2.815238   2.808868
     9  H    2.149912   1.107344   2.153406   2.144760   2.778281
    10  H    3.499145   2.192203   1.104412   2.772513   4.130251
    11  H    2.807117   2.182812   1.105345   2.802382   4.199715
    12  H    2.777694   2.191801   1.104080   3.500997   4.728445
    13  H    2.789853   2.165270   2.778482   1.105878   2.081963
    14  H    3.490484   2.165892   2.692674   1.105428   2.082378
    15  H    3.413474   2.782388   4.155851   2.057195   1.020126
    16  H    2.839666   2.840718   4.247130   2.065889   1.019317
                    6          7          8          9         10
     6  H    0.000000
     7  H    1.786496   0.000000
     8  H    1.779029   1.788427   0.000000
     9  H    2.511316   3.078237   2.497079   0.000000
    10  H    3.784596   3.829020   4.359197   2.503088   0.000000
    11  H    3.144013   2.634042   3.832675   3.081279   1.785607
    12  H    2.559323   3.158500   3.787083   2.513008   1.785342
    13  H    3.801851   2.601248   3.166758   3.058707   3.132305
    14  H    4.334225   3.796893   3.832119   2.491783   2.470020
    15  H    4.270752   4.032697   3.007495   2.577466   4.318378
    16  H    3.863556   3.092660   2.286795   3.161081   4.723481
                   11         12         13         14         15
    11  H    0.000000
    12  H    1.785166   0.000000
    13  H    2.594576   3.796508   0.000000
    14  H    3.053094   3.714734   1.769706   0.000000
    15  H    4.706976   4.889219   2.948623   2.426250   0.000000
    16  H    4.470403   5.001625   2.391588   2.952313   1.643042
                   16
    16  H    0.000000
 Framework group  C1[X(C4H11N)]
 Deg. of freedom    42
                         Standard orientation:                         
 ---------------------------------------------------------------------
 Center     Atomic      Atomic             Coordinates (Angstroms)
 Number     Number       Type             X           Y           Z
 ---------------------------------------------------------------------
      1          6           0        0.579798    1.465801    0.106373
      2          6           0        0.463535    0.001881   -0.334891
      3          6           0        1.737971   -0.782447    0.002524
      4          6           0       -0.775456   -0.685391    0.276142
      5          7           0       -2.079352   -0.124647   -0.055914
      6          1           0        1.459196    1.951676   -0.351241
      7          1           0        0.688629    1.531045    1.204672
      8          1           0       -0.309177    2.052409   -0.184944
      9          1           0        0.330414   -0.013003   -1.434104
     10          1           0        1.672259   -1.826917   -0.350306
     11          1           0        1.901846   -0.804410    1.095433
     12          1           0        2.627378   -0.322751   -0.462907
     13          1           0       -0.674261   -0.677846    1.377355
     14          1           0       -0.775433   -1.748020   -0.028473
     15          1           0       -2.219248   -0.097090   -1.066026
     16          1           0       -2.181230    0.828370    0.291053
 ---------------------------------------------------------------------
 Rotational constants (GHZ):           7.3714559           3.4036904           2.5863631
    92 basis functions,   169 primitive gaussians,    97 cartesian basis functions
    21 alpha electrons       21 beta electrons
       nuclear repulsion energy       192.6207271779 Hartrees.
 NAtoms=   16 NActive=   16 NUniq=   16 SFac= 1.00D+00 NAtFMM=   60 NAOKFM=F Big=F
 Nuclear repulsion after empirical dispersion term =      192.6117909782 Hartrees.
   1 Symmetry operations used in ECPInt.
 ECPInt:  NShTT=    1378 NPrTT=    5558 LenC2=    1377 LenP2D=    4699.
 LDataN:  DoStor=T MaxTD1= 4 Len=   56
 Initial guess from the checkpoint file:  "monomer.chk"
 B after Tr=    -0.000000   -0.000000    0.000000
         Rot=    0.999971   -0.003712    0.000155   -0.006684 Ang=  -0.88 deg.
 ExpMin= 1.22D-01 ExpMax= 1.71D+03 ExpMxC= 2.58D+02 IAcc=3 IRadAn=         5 AccDes= 0.00D+00
 Harris functional with IExCor= 4639 and IRadAn=       5 diagonalized for initial guess.
 HarFok:  IExCor= 4639 AccDes= 0.00D+00 IRadAn=         5 IDoV= 1 UseB2=F ITyADJ=14
 ICtDFT=  3500011 ScaDFX=  1.000000  1.000000  1.000000  1.000000
 FoFCou: FMM=F IPFlag=           0 FMFlag=      100000 FMFlg1=           0
         NFxFlg=           0 DoJE=T BraDBF=F KetDBF=T FulRan=T
         wScrn=  0.000000 ICntrl=       500 IOpCl=  0 I1Cent=   200000004 NGrid=           0
         NMat0=    1 NMatS0=      1 NMatT0=    0 NMatD0=    1 NMtDS0=    0 NMtDT0=    0
 Petite list used in FoFCou.
     Accept linear search using points  3 and  4.
     Minimum is close to point  3 DX=  7.05D-02 DF= -9.48D-07 DXR=  6.02D-02 DFR=  3.64D-03 which will be used.
     Accept linear search using points  1 and  2.
     Minimum is close to point  2 DX= -9.81D-02 DF= -9.85D-07 DXR=  9.80D-02 DFR=  1.12D-02 which will be used.
     Minimum is close to point  2 DX=  1.24D-04 DF= -1.08D-12 DXR=  1.24D-04 DFR=  1.54D-08 which will be used.
 SCF Done:  E(RwB97XD) =  -213.555993323     a.u. after    6 cycles
            Convg  =    0.4270D-09                    31 Fock formations.
              S**2 =  0.0000                  -V/T =  2.0112
   1 Symmetry operations used in ECPInt.
 ECPInt:  NShTT=    1378 NPrTT=    5558 LenC2=    1377 LenP2D=    4699.
 LDataN:  DoStor=T MaxTD1= 5 Len=  102
 Calling FoFJK, ICntrl=      2127 FMM=F ISym2X=0 I1Cent= 0 IOpClX= 0 NMat=1 NMatS=1 NMatT=0.

 GradGradGradGradGradGradGradGradGradGradGradGradGradGradGradGradGradGrad
 Using GEDIIS/GDIIS optimizer.
 FormGI is forming the generalized inverse of G from B-inverse, IUseBI=4.
 Internal  Forces:  Max     0.004380543 RMS     0.000716253
 Step number   2 out of a maximum of   85
 All quantities printed in internal units (Hartrees-Bohrs-Radians)
 Mixed Optimization -- En-DIIS/RFO-DIIS
 Trust test= 9.20D-01 RLast= 2.07D-01 DXMaxT set to 5.05D-01
 ITU=  1  0
 Use linear search instead of GDIIS.
     Eigenvalues ---    0.00233   0.00404   0.00420   0.01017   0.03535
     Eigenvalues ---    0.03733   0.04157   0.04791   0.04882   0.05307
     Eigenvalues ---    0.05475   0.05502   0.05576   0.05594   0.10229
     Eigenvalues ---    0.13337   0.15751   0.16000   0.16000   0.16000
     Eigenvalues ---    0.16000   0.16000   0.16000   0.16238   0.16817
     Eigenvalues ---    0.17023   0.22066   0.28339   0.29466   0.29733
     Eigenvalues ---    0.32870   0.34094   0.34345   0.34602   0.34997
     Eigenvalues ---    0.35020   0.35064   0.35078   0.35102   0.41412
     Eigenvalues ---    0.45156   0.45535
 Quartic linear search produced a step of -0.02575.
 Iteration  1 RMS(Cart)=  0.02993270 RMS(Int)=  0.00041051
 Iteration  2 RMS(Cart)=  0.00051455 RMS(Int)=  0.00000378
 Iteration  3 RMS(Cart)=  0.00000006 RMS(Int)=  0.00000378
 Variable       Old X    -DE/DX   Delta X   Delta X   Delta X     New X
                                 (Linear)    (Quad)   (Total)
    R1        2.89769  -0.00227  -0.00029  -0.00682  -0.00711   2.89059
    R2        2.08627  -0.00006  -0.00079   0.00152   0.00074   2.08701
    R3        2.08929   0.00041  -0.00083   0.00291   0.00207   2.09137
    R4        2.08663  -0.00021  -0.00076   0.00103   0.00027   2.08690
    R5        2.89887  -0.00273  -0.00038  -0.00811  -0.00849   2.89038
    R6        2.91582  -0.00113  -0.00008  -0.00371  -0.00378   2.91204
    R7        2.09258   0.00066  -0.00047   0.00288   0.00242   2.09499
    R8        2.08704  -0.00006  -0.00082   0.00158   0.00076   2.08780
    R9        2.08880   0.00032  -0.00085   0.00271   0.00186   2.09066
   R10        2.08641  -0.00014  -0.00079   0.00131   0.00052   2.08693
   R11        2.75462  -0.00438  -0.00034  -0.01045  -0.01078   2.74384
   R12        2.08981   0.00057  -0.00059   0.00288   0.00229   2.09209
   R13        2.08896  -0.00005  -0.00054   0.00102   0.00048   2.08944
   R14        1.92776  -0.00008  -0.00025   0.00036   0.00011   1.92787
   R15        1.92623  -0.00045  -0.00025  -0.00043  -0.00068   1.92555
    A1        1.94043   0.00018  -0.00035   0.00198   0.00163   1.94206
    A2        1.92802   0.00067  -0.00008   0.00439   0.00430   1.93232
    A3        1.95004  -0.00042  -0.00020  -0.00240  -0.00259   1.94745
    A4        1.88324  -0.00039   0.00023  -0.00231  -0.00208   1.88116
    A5        1.87353   0.00010   0.00024  -0.00016   0.00008   1.87361
    A6        1.88597  -0.00017   0.00019  -0.00174  -0.00155   1.88442
    A7        1.94104   0.00007  -0.00043  -0.00052  -0.00094   1.94009
    A8        1.95213   0.00016  -0.00025   0.00089   0.00064   1.95277
    A9        1.88347  -0.00010   0.00031   0.00012   0.00043   1.88390
   A10        1.93079  -0.00040  -0.00032  -0.00281  -0.00312   1.92766
   A11        1.88740  -0.00001   0.00021  -0.00134  -0.00113   1.88627
   A12        1.86563   0.00028   0.00054   0.00383   0.00436   1.87000
   A13        1.94318  -0.00006  -0.00027   0.00018  -0.00009   1.94309
   A14        1.92923   0.00055  -0.00012   0.00378   0.00365   1.93288
   A15        1.94297  -0.00006  -0.00033   0.00024  -0.00009   1.94288
   A16        1.88169  -0.00023   0.00025  -0.00172  -0.00147   1.88022
   A17        1.88285   0.00002   0.00024  -0.00069  -0.00045   1.88240
   A18        1.88142  -0.00025   0.00027  -0.00202  -0.00175   1.87968
   A19        2.04509  -0.00028  -0.00053   0.00050  -0.00003   2.04506
   A20        1.89423   0.00068   0.00034   0.00645   0.00679   1.90101
   A21        1.89550   0.00020   0.00011   0.00001   0.00014   1.89564
   A22        1.88185  -0.00018  -0.00014   0.00041   0.00025   1.88211
   A23        1.88287  -0.00012  -0.00038  -0.00265  -0.00302   1.87985
   A24        1.85559  -0.00033   0.00070  -0.00547  -0.00477   1.85082
   A25        1.93759  -0.00020  -0.00039  -0.00074  -0.00113   1.93646
   A26        1.95145  -0.00072  -0.00060  -0.00342  -0.00402   1.94742
   A27        1.87349   0.00043   0.00017   0.00159   0.00176   1.87524
    D1        0.99092   0.00016   0.00014   0.00660   0.00674   0.99766
    D2       -3.12377  -0.00018  -0.00077   0.00320   0.00243  -3.12134
    D3       -1.07651   0.00019  -0.00006   0.00845   0.00839  -1.06811
    D4       -1.09940   0.00009   0.00013   0.00531   0.00544  -1.09396
    D5        1.06909  -0.00026  -0.00077   0.00191   0.00113   1.07022
    D6        3.11636   0.00012  -0.00006   0.00716   0.00709   3.12345
    D7        3.08369   0.00013   0.00007   0.00613   0.00620   3.08989
    D8       -1.03100  -0.00022  -0.00083   0.00273   0.00189  -1.02911
    D9        1.01626   0.00016  -0.00012   0.00798   0.00786   1.02412
   D10       -3.10220   0.00003  -0.00030  -0.00382  -0.00412  -3.10632
   D11        1.09001  -0.00001  -0.00035  -0.00429  -0.00465   1.08536
   D12       -1.00050  -0.00002  -0.00040  -0.00442  -0.00482  -1.00531
   D13        1.00046   0.00005   0.00055  -0.00254  -0.00198   0.99848
   D14       -1.09051   0.00002   0.00050  -0.00300  -0.00250  -1.09302
   D15        3.10217   0.00001   0.00045  -0.00313  -0.00268   3.09949
   D16       -1.03714  -0.00006  -0.00004  -0.00480  -0.00484  -1.04198
   D17       -3.12812  -0.00009  -0.00010  -0.00526  -0.00536  -3.13348
   D18        1.06456  -0.00010  -0.00014  -0.00539  -0.00553   1.05903
   D19        1.05975   0.00006   0.00186  -0.04477  -0.04291   1.01684
   D20       -1.07549  -0.00006   0.00216  -0.05098  -0.04882  -1.12431
   D21       -3.08579  -0.00013   0.00108  -0.04794  -0.04686  -3.13265
   D22       -3.04922  -0.00002   0.00090  -0.04689  -0.04599  -3.09521
   D23        1.09872  -0.00014   0.00120  -0.05309  -0.05190   1.04682
   D24       -0.91158  -0.00022   0.00011  -0.05006  -0.04994  -0.96152
   D25       -0.99821  -0.00008   0.00129  -0.04777  -0.04648  -1.04470
   D26       -3.13345  -0.00021   0.00159  -0.05398  -0.05240   3.09734
   D27        1.13943  -0.00028   0.00050  -0.05094  -0.05044   1.08900
   D28        0.98687  -0.00038  -0.00013  -0.01750  -0.01762   0.96925
   D29       -1.10485  -0.00030   0.00031  -0.01670  -0.01639  -1.12124
   D30        3.12848   0.00019  -0.00017  -0.00822  -0.00839   3.12009
   D31        1.03676   0.00027   0.00027  -0.00743  -0.00716   1.02960
   D32       -1.15727  -0.00034   0.00039  -0.01570  -0.01531  -1.17258
   D33        3.03420  -0.00027   0.00083  -0.01491  -0.01408   3.02012
         Item               Value     Threshold  Converged?
 Maximum Force            0.004381     0.000015     NO 
 RMS     Force            0.000716     0.000010     NO 
 Maximum Displacement     0.110789     0.000060     NO 
 RMS     Displacement     0.029941     0.000040     NO 
 GradGradGradGradGradGradGradGradGradGradGradGradGradGradGradGradGradGrad

                    Distance matrix (angstroms):
                    1          2          3          4          5
     1  C    0.000000
     2  C    1.529632   0.000000
     3  C    2.523533   1.529521   0.000000
     4  C    2.543950   1.540983   2.522068   0.000000
     5  N    3.074203   2.554702   3.862616   1.451976   0.000000
     6  H    1.104396   2.187514   2.768392   3.509991   4.090668
     7  H    1.106703   2.182219   2.804882   2.814762   3.425498
     8  H    1.104341   2.191343   3.493515   2.808262   2.775052
     9  H    2.147897   1.108623   2.149583   2.147271   2.796726
    10  H    3.492319   2.188476   1.104816   2.762967   4.130035
    11  H    2.801162   2.182250   1.106329   2.798532   4.179439
    12  H    2.772486   2.187977   1.104356   3.494166   4.719160
    13  H    2.815899   2.169472   2.752189   1.107089   2.078131
    14  H    3.486939   2.164430   2.707261   1.105683   2.075418
    15  H    3.357522   2.767980   4.153343   2.051418   1.020182
    16  H    2.813217   2.837524   4.224062   2.057863   1.018959
                    6          7          8          9         10
     6  H    0.000000
     7  H    1.786345   0.000000
     8  H    1.779514   1.788426   0.000000
     9  H    2.507315   3.079995   2.495385   0.000000
    10  H    3.782882   3.824041   4.351227   2.500554   0.000000
    11  H    3.142450   2.628295   3.825738   3.081194   1.785774
    12  H    2.558203   3.154316   3.782479   2.506546   1.785599
    13  H    3.823656   2.634875   3.200448   3.064978   3.089315
    14  H    4.331529   3.810490   3.814900   2.474424   2.482125
    15  H    4.221178   3.973550   2.928648   2.589560   4.339709
    16  H    3.845746   3.035400   2.271131   3.198119   4.711970
                   11         12         13         14         15
    11  H    0.000000
    12  H    1.785046   0.000000
    13  H    2.568780   3.778313   0.000000
    14  H    3.085692   3.723091   1.767710   0.000000
    15  H    4.695881   4.884475   2.945128   2.423740   0.000000
    16  H    4.425727   4.985338   2.381280   2.944039   1.643860
                   16
    16  H    0.000000
 Framework group  C1[X(C4H11N)]
 Deg. of freedom    42
                         Standard orientation:                         
 ---------------------------------------------------------------------
 Center     Atomic      Atomic             Coordinates (Angstroms)
 Number     Number       Type             X           Y           Z
 ---------------------------------------------------------------------
      1          6           0        0.558937    1.462739    0.106380
      2          6           0        0.465819    0.002719   -0.340213
      3          6           0        1.740338   -0.765247    0.013712
      4          6           0       -0.769529   -0.701814    0.253229
      5          7           0       -2.068551   -0.125970   -0.045404
      6          1           0        1.435843    1.963401   -0.340906
      7          1           0        0.656098    1.530061    1.206752
      8          1           0       -0.335944    2.036756   -0.192385
      9          1           0        0.351274   -0.010456   -1.442824
     10          1           0        1.690668   -1.810888   -0.339538
     11          1           0        1.893540   -0.786649    1.109174
     12          1           0        2.630937   -0.296287   -0.440722
     13          1           0       -0.663192   -0.745959    1.354315
     14          1           0       -0.778680   -1.751120   -0.095207
     15          1           0       -2.208497   -0.044229   -1.052630
     16          1           0       -2.165583    0.806777    0.353151
 ---------------------------------------------------------------------
 Rotational constants (GHZ):           7.4082458           3.4310012           2.6032018
    92 basis functions,   169 primitive gaussians,    97 cartesian basis functions
    21 alpha electrons       21 beta electrons
       nuclear repulsion energy       193.0436773953 Hartrees.
 NAtoms=   16 NActive=   16 NUniq=   16 SFac= 1.00D+00 NAtFMM=   60 NAOKFM=F Big=F
 Nuclear repulsion after empirical dispersion term =      193.0347198092 Hartrees.
   1 Symmetry operations used in ECPInt.
 ECPInt:  NShTT=    1378 NPrTT=    5558 LenC2=    1377 LenP2D=    4702.
 LDataN:  DoStor=T MaxTD1= 4 Len=   56
 Initial guess from the checkpoint file:  "monomer.chk"
 B after Tr=     0.000000   -0.000000   -0.000000
         Rot=    0.999986   -0.003952    0.000837   -0.003310 Ang=  -0.60 deg.
 ExpMin= 1.22D-01 ExpMax= 1.71D+03 ExpMxC= 2.58D+02 IAcc=3 IRadAn=         5 AccDes= 0.00D+00
 Harris functional with IExCor= 4639 and IRadAn=       5 diagonalized for initial guess.
 HarFok:  IExCor= 4639 AccDes= 0.00D+00 IRadAn=         5 IDoV= 1 UseB2=F ITyADJ=14
 ICtDFT=  3500011 ScaDFX=  1.000000  1.000000  1.000000  1.000000
 FoFCou: FMM=F IPFlag=           0 FMFlag=      100000 FMFlg1=           0
         NFxFlg=           0 DoJE=T BraDBF=F KetDBF=T FulRan=T
         wScrn=  0.000000 ICntrl=       500 IOpCl=  0 I1Cent=   200000004 NGrid=           0
         NMat0=    1 NMatS0=      1 NMatT0=    0 NMatD0=    1 NMtDS0=    0 NMtDT0=    0
 Petite list used in FoFCou.
     Minimum is close to point  2 DX=  3.20D-05 DF= -1.14D-13 DXR=  3.20D-05 DFR=  1.28D-09 which will be used.
 SCF Done:  E(RwB97XD) =  -213.556084896     a.u. after    5 cycles
            Convg  =    0.1401D-08                    30 Fock formations.
              S**2 =  0.0000                  -V/T =  2.0111
   1 Symmetry operations used in ECPInt.
 ECPInt:  NShTT=    1378 NPrTT=    5558 LenC2=    1377 LenP2D=    4702.
 LDataN:  DoStor=T MaxTD1= 5 Len=  102
 Calling FoFJK, ICntrl=      2127 FMM=F ISym2X=0 I1Cent= 0 IOpClX= 0 NMat=1 NMatS=1 NMatT=0.

 GradGradGradGradGradGradGradGradGradGradGradGradGradGradGradGradGradGrad
 Using GEDIIS/GDIIS optimizer.
 FormGI is forming the generalized inverse of G from B-inverse, IUseBI=4.
 Internal  Forces:  Max     0.000618977 RMS     0.000163072
 Step number   3 out of a maximum of   85
 All quantities printed in internal units (Hartrees-Bohrs-Radians)
 Mixed Optimization -- En-DIIS/RFO-DIIS
 Swapping is turned off.
 Trust test= 9.14D-01 RLast= 1.52D-01 DXMaxT set to 5.05D-01
 ITU=  1  1  0
     Eigenvalues ---    0.00287   0.00408   0.00422   0.00933   0.03546
     Eigenvalues ---    0.03727   0.04196   0.04683   0.04903   0.05128
     Eigenvalues ---    0.05481   0.05501   0.05555   0.05573   0.10433
     Eigenvalues ---    0.13288   0.15109   0.16000   0.16000   0.16000
     Eigenvalues ---    0.16000   0.16000   0.16008   0.16512   0.16768
     Eigenvalues ---    0.16911   0.22007   0.28517   0.29490   0.29987
     Eigenvalues ---    0.33580   0.34133   0.34408   0.34834   0.35004
     Eigenvalues ---    0.35051   0.35072   0.35086   0.35216   0.40242
     Eigenvalues ---    0.45155   0.45399
 En-DIIS/RFO-DIIS/Sim-DIIS IScMMF=       -3 using points:     3    2
 RFO step:  Lambda=-2.73006124D-05.
 DidBck=F Rises=F RFO-DIIS coefs:    0.83954    0.16046
 Iteration  1 RMS(Cart)=  0.00779891 RMS(Int)=  0.00003340
 Iteration  2 RMS(Cart)=  0.00003619 RMS(Int)=  0.00000160
 Iteration  3 RMS(Cart)=  0.00000000 RMS(Int)=  0.00000160
 Variable       Old X    -DE/DX   Delta X   Delta X   Delta X     New X
                                 (Linear)    (Quad)   (Total)
    R1        2.89059  -0.00022   0.00114  -0.00278  -0.00164   2.88894
    R2        2.08701  -0.00029  -0.00012  -0.00022  -0.00034   2.08666
    R3        2.09137  -0.00021  -0.00033   0.00043   0.00010   2.09146
    R4        2.08690  -0.00030  -0.00004  -0.00042  -0.00046   2.08644
    R5        2.89038  -0.00012   0.00136  -0.00285  -0.00149   2.88889
    R6        2.91204   0.00014   0.00061  -0.00069  -0.00008   2.91195
    R7        2.09499  -0.00013  -0.00039   0.00058   0.00019   2.09519
    R8        2.08780  -0.00022  -0.00012  -0.00001  -0.00014   2.08766
    R9        2.09066  -0.00030  -0.00030   0.00012  -0.00018   2.09048
   R10        2.08693  -0.00023  -0.00008  -0.00013  -0.00022   2.08671
   R11        2.74384  -0.00001   0.00173  -0.00325  -0.00152   2.74232
   R12        2.09209  -0.00015  -0.00037   0.00055   0.00018   2.09228
   R13        2.08944   0.00005  -0.00008   0.00050   0.00043   2.08986
   R14        1.92787  -0.00006  -0.00002   0.00001  -0.00001   1.92786
   R15        1.92555  -0.00013   0.00011  -0.00038  -0.00027   1.92528
    A1        1.94206   0.00003  -0.00026   0.00073   0.00046   1.94253
    A2        1.93232   0.00013  -0.00069   0.00207   0.00138   1.93370
    A3        1.94745   0.00012   0.00042   0.00013   0.00055   1.94800
    A4        1.88116  -0.00012   0.00033  -0.00172  -0.00138   1.87977
    A5        1.87361  -0.00006  -0.00001  -0.00030  -0.00032   1.87330
    A6        1.88442  -0.00012   0.00025  -0.00109  -0.00085   1.88358
    A7        1.94009   0.00009   0.00015   0.00096   0.00111   1.94120
    A8        1.95277   0.00022  -0.00010   0.00245   0.00235   1.95512
    A9        1.88390  -0.00008  -0.00007  -0.00027  -0.00033   1.88357
   A10        1.92766  -0.00022   0.00050  -0.00168  -0.00118   1.92648
   A11        1.88627  -0.00003   0.00018  -0.00228  -0.00210   1.88417
   A12        1.87000   0.00001  -0.00070   0.00066  -0.00004   1.86996
   A13        1.94309   0.00014   0.00001   0.00087   0.00088   1.94397
   A14        1.93288   0.00006  -0.00059   0.00145   0.00086   1.93374
   A15        1.94288   0.00018   0.00001   0.00126   0.00128   1.94416
   A16        1.88022  -0.00012   0.00024  -0.00144  -0.00120   1.87902
   A17        1.88240  -0.00015   0.00007  -0.00098  -0.00091   1.88149
   A18        1.87968  -0.00012   0.00028  -0.00137  -0.00109   1.87859
   A19        2.04506   0.00062   0.00001   0.00351   0.00351   2.04857
   A20        1.90101  -0.00025  -0.00109   0.00043  -0.00066   1.90035
   A21        1.89564  -0.00034  -0.00002  -0.00211  -0.00214   1.89350
   A22        1.88211  -0.00008  -0.00004   0.00081   0.00077   1.88288
   A23        1.87985   0.00002   0.00049   0.00080   0.00128   1.88113
   A24        1.85082  -0.00002   0.00077  -0.00422  -0.00346   1.84736
   A25        1.93646   0.00028   0.00018   0.00210   0.00227   1.93873
   A26        1.94742   0.00026   0.00065   0.00113   0.00177   1.94920
   A27        1.87524  -0.00018  -0.00028   0.00063   0.00034   1.87558
    D1        0.99766  -0.00003  -0.00108  -0.00374  -0.00482   0.99284
    D2       -3.12134  -0.00009  -0.00039  -0.00341  -0.00380  -3.12514
    D3       -1.06811  -0.00000  -0.00135  -0.00135  -0.00270  -1.07081
    D4       -1.09396   0.00001  -0.00087  -0.00343  -0.00431  -1.09827
    D5        1.07022  -0.00005  -0.00018  -0.00311  -0.00328   1.06694
    D6        3.12345   0.00004  -0.00114  -0.00105  -0.00218   3.12126
    D7        3.08989  -0.00001  -0.00100  -0.00354  -0.00454   3.08536
    D8       -1.02911  -0.00007  -0.00030  -0.00321  -0.00352  -1.03262
    D9        1.02412   0.00002  -0.00126  -0.00116  -0.00242   1.02170
   D10       -3.10632   0.00004   0.00066  -0.00739  -0.00673  -3.11305
   D11        1.08536   0.00006   0.00075  -0.00711  -0.00636   1.07900
   D12       -1.00531   0.00006   0.00077  -0.00718  -0.00641  -1.01172
   D13        0.99848  -0.00016   0.00032  -0.01002  -0.00970   0.98878
   D14       -1.09302  -0.00013   0.00040  -0.00975  -0.00934  -1.10236
   D15        3.09949  -0.00013   0.00043  -0.00982  -0.00939   3.09010
   D16       -1.04198  -0.00002   0.00078  -0.00856  -0.00778  -1.04976
   D17       -3.13348   0.00000   0.00086  -0.00828  -0.00742  -3.14090
   D18        1.05903  -0.00000   0.00089  -0.00835  -0.00747   1.05156
   D19        1.01684   0.00000   0.00688   0.00397   0.01086   1.02770
   D20       -1.12431  -0.00014   0.00783  -0.00006   0.00778  -1.11653
   D21       -3.13265   0.00020   0.00752   0.00584   0.01336  -3.11930
   D22       -3.09521   0.00012   0.00738   0.00576   0.01313  -3.08208
   D23        1.04682  -0.00002   0.00833   0.00172   0.01005   1.05688
   D24       -0.96152   0.00031   0.00801   0.00762   0.01563  -0.94589
   D25       -1.04470  -0.00003   0.00746   0.00250   0.00996  -1.03474
   D26        3.09734  -0.00017   0.00841  -0.00153   0.00688   3.10422
   D27        1.08900   0.00016   0.00809   0.00437   0.01246   1.10146
   D28        0.96925  -0.00005   0.00283  -0.01316  -0.01034   0.95891
   D29       -1.12124  -0.00019   0.00263  -0.01613  -0.01350  -1.13473
   D30        3.12009   0.00000   0.00135  -0.00939  -0.00804   3.11205
   D31        1.02960  -0.00014   0.00115  -0.01235  -0.01120   1.01840
   D32       -1.17258  -0.00005   0.00246  -0.01350  -0.01104  -1.18362
   D33        3.02012  -0.00019   0.00226  -0.01646  -0.01420   3.00592
         Item               Value     Threshold  Converged?
 Maximum Force            0.000619     0.000015     NO 
 RMS     Force            0.000163     0.000010     NO 
 Maximum Displacement     0.030498     0.000060     NO 
 RMS     Displacement     0.007802     0.000040     NO 
 GradGradGradGradGradGradGradGradGradGradGradGradGradGradGradGradGradGrad

                    Distance matrix (angstroms):
                    1          2          3          4          5
     1  C    0.000000
     2  C    1.528762   0.000000
     3  C    2.523124   1.528733   0.000000
     4  C    2.545211   1.540938   2.520348   0.000000
     5  N    3.085071   2.556716   3.861579   1.451171   0.000000
     6  H    1.104216   2.186944   2.766548   3.510854   4.101229
     7  H    1.106754   2.182495   2.808025   2.816206   3.437122
     8  H    1.104097   2.190780   3.492791   2.811973   2.790997
     9  H    2.146965   1.108726   2.147396   2.147278   2.795442
    10  H    3.492080   2.188360   1.104743   2.757282   4.121681
    11  H    2.798848   2.182106   1.106234   2.801660   4.185012
    12  H    2.776410   2.188112   1.104241   3.493083   4.719778
    13  H    2.813536   2.169011   2.754584   1.107185   2.078077
    14  H    3.486574   2.162961   2.696458   1.105908   2.075838
    15  H    3.365863   2.768781   4.150009   2.052235   1.020180
    16  H    2.834964   2.847135   4.232725   2.058223   1.018815
                    6          7          8          9         10
     6  H    0.000000
     7  H    1.785339   0.000000
     8  H    1.778965   1.787720   0.000000
     9  H    2.507609   3.079979   2.493791   0.000000
    10  H    3.783372   3.825222   4.350798   2.501667   0.000000
    11  H    3.135420   2.629712   3.824961   3.079916   1.784853
    12  H    2.561082   3.163686   3.784264   2.502243   1.784855
    13  H    3.820959   2.632418   3.199412   3.064860   3.087883
    14  H    4.330163   3.808129   3.820422   2.477645   2.465964
    15  H    4.229813   3.982130   2.942110   2.586997   4.331173
    16  H    3.868500   3.056559   2.297750   3.204293   4.712379
                   11         12         13         14         15
    11  H    0.000000
    12  H    1.784167   0.000000
    13  H    2.576610   3.781988   0.000000
    14  H    3.078221   3.712053   1.765663   0.000000
    15  H    4.698632   4.880936   2.945986   2.430172   0.000000
    16  H    4.439278   4.998911   2.378607   2.944381   1.643946
                   16
    16  H    0.000000
 Framework group  C1[X(C4H11N)]
 Deg. of freedom    42
                         Standard orientation:                         
 ---------------------------------------------------------------------
 Center     Atomic      Atomic             Coordinates (Angstroms)
 Number     Number       Type             X           Y           Z
 ---------------------------------------------------------------------
      1          6           0        0.569371    1.462769    0.106331
      2          6           0        0.465645    0.003798   -0.338371
      3          6           0        1.734949   -0.772988    0.011619
      4          6           0       -0.772256   -0.694911    0.256519
      5          7           0       -2.071353   -0.124747   -0.048697
      6          1           0        1.450615    1.956375   -0.339823
      7          1           0        0.665865    1.532199    1.206683
      8          1           0       -0.320215    2.043677   -0.194025
      9          1           0        0.349962   -0.009368   -1.440967
     10          1           0        1.674504   -1.820363   -0.334518
     11          1           0        1.895836   -0.789958    1.105960
     12          1           0        2.627401   -0.315635   -0.450665
     13          1           0       -0.667757   -0.732341    1.358127
     14          1           0       -0.777446   -1.747639   -0.082257
     15          1           0       -2.208065   -0.041651   -1.056254
     16          1           0       -2.177484    0.805922    0.352023
 ---------------------------------------------------------------------
 Rotational constants (GHZ):           7.4011059           3.4268659           2.6003866
    92 basis functions,   169 primitive gaussians,    97 cartesian basis functions
    21 alpha electrons       21 beta electrons
       nuclear repulsion energy       193.0119139700 Hartrees.
 NAtoms=   16 NActive=   16 NUniq=   16 SFac= 1.00D+00 NAtFMM=   60 NAOKFM=F Big=F
 Nuclear repulsion after empirical dispersion term =      193.0029632448 Hartrees.
   1 Symmetry operations used in ECPInt.
 ECPInt:  NShTT=    1378 NPrTT=    5558 LenC2=    1377 LenP2D=    4699.
 LDataN:  DoStor=T MaxTD1= 4 Len=   56
 Initial guess from the checkpoint file:  "monomer.chk"
 B after Tr=    -0.000000   -0.000000    0.000000
         Rot=    0.999998    0.000689   -0.000083    0.001893 Ang=   0.23 deg.
 ExpMin= 1.22D-01 ExpMax= 1.71D+03 ExpMxC= 2.58D+02 IAcc=3 IRadAn=         5 AccDes= 0.00D+00
 Harris functional with IExCor= 4639 and IRadAn=       5 diagonalized for initial guess.
 HarFok:  IExCor= 4639 AccDes= 0.00D+00 IRadAn=         5 IDoV= 1 UseB2=F ITyADJ=14
 ICtDFT=  3500011 ScaDFX=  1.000000  1.000000  1.000000  1.000000
 FoFCou: FMM=F IPFlag=           0 FMFlag=      100000 FMFlg1=           0
         NFxFlg=           0 DoJE=T BraDBF=F KetDBF=T FulRan=T
         wScrn=  0.000000 ICntrl=       500 IOpCl=  0 I1Cent=   200000004 NGrid=           0
         NMat0=    1 NMatS0=      1 NMatT0=    0 NMatD0=    1 NMtDS0=    0 NMtDT0=    0
 Petite list used in FoFCou.
     Accept linear search using points  1 and  2.
     Minimum is close to point  2 DX= -1.43D-05 DF= -2.84D-14 DXR=  1.43D-05 DFR=  3.65D-10 which will be used.
 SCF Done:  E(RwB97XD) =  -213.556097928     a.u. after    3 cycles
            Convg  =    0.9894D-09                    21 Fock formations.
              S**2 =  0.0000                  -V/T =  2.0110
   1 Symmetry operations used in ECPInt.
 ECPInt:  NShTT=    1378 NPrTT=    5558 LenC2=    1377 LenP2D=    4699.
 LDataN:  DoStor=T MaxTD1= 5 Len=  102
 Calling FoFJK, ICntrl=      2127 FMM=F ISym2X=0 I1Cent= 0 IOpClX= 0 NMat=1 NMatS=1 NMatT=0.

 GradGradGradGradGradGradGradGradGradGradGradGradGradGradGradGradGradGrad
 Using GEDIIS/GDIIS optimizer.
 FormGI is forming the generalized inverse of G from B-inverse, IUseBI=4.
 Internal  Forces:  Max     0.000307348 RMS     0.000097551
 Step number   4 out of a maximum of   85
 All quantities printed in internal units (Hartrees-Bohrs-Radians)
 Mixed Optimization -- En-DIIS/RFO-DIIS
 Swapping is turned off.
 Trust test= 9.52D-01 RLast= 5.23D-02 DXMaxT set to 5.05D-01
 ITU=  1  1  1  0
     Eigenvalues ---    0.00288   0.00388   0.00435   0.00725   0.03556
     Eigenvalues ---    0.03773   0.04113   0.04890   0.04943   0.05361
     Eigenvalues ---    0.05488   0.05526   0.05561   0.05640   0.10318
     Eigenvalues ---    0.13249   0.15130   0.15997   0.16000   0.16000
     Eigenvalues ---    0.16000   0.16000   0.16017   0.16380   0.16883
     Eigenvalues ---    0.17630   0.24645   0.28697   0.29525   0.31404
     Eigenvalues ---    0.33507   0.34124   0.34345   0.34642   0.35013
     Eigenvalues ---    0.35053   0.35070   0.35090   0.35180   0.40305
     Eigenvalues ---    0.45174   0.45382
 En-DIIS/RFO-DIIS/Sim-DIIS IScMMF=       -3 using points:     4    3    2
 RFO step:  Lambda=-6.84247546D-06.
 DidBck=F Rises=F RFO-DIIS coefs:    1.30091   -0.13469   -0.16622
 Iteration  1 RMS(Cart)=  0.00459173 RMS(Int)=  0.00001399
 Iteration  2 RMS(Cart)=  0.00001562 RMS(Int)=  0.00000142
 Iteration  3 RMS(Cart)=  0.00000000 RMS(Int)=  0.00000142
 Variable       Old X    -DE/DX   Delta X   Delta X   Delta X     New X
                                 (Linear)    (Quad)   (Total)
    R1        2.88894   0.00007  -0.00168   0.00133  -0.00034   2.88860
    R2        2.08666  -0.00014   0.00002  -0.00051  -0.00049   2.08617
    R3        2.09146  -0.00022   0.00037  -0.00094  -0.00057   2.09090
    R4        2.08644  -0.00007  -0.00009  -0.00025  -0.00035   2.08609
    R5        2.88889   0.00031  -0.00186   0.00222   0.00036   2.88924
    R6        2.91195  -0.00005  -0.00065   0.00042  -0.00024   2.91171
    R7        2.09519  -0.00014   0.00046  -0.00077  -0.00031   2.09488
    R8        2.08766  -0.00017   0.00009  -0.00058  -0.00050   2.08716
    R9        2.09048  -0.00019   0.00026  -0.00081  -0.00055   2.08993
   R10        2.08671  -0.00014   0.00002  -0.00048  -0.00046   2.08625
   R11        2.74232   0.00010  -0.00225   0.00189  -0.00036   2.74196
   R12        2.09228  -0.00018   0.00044  -0.00085  -0.00041   2.09186
   R13        2.08986  -0.00002   0.00021  -0.00019   0.00002   2.08989
   R14        1.92786  -0.00011   0.00002  -0.00025  -0.00023   1.92763
   R15        1.92528  -0.00000  -0.00019   0.00009  -0.00010   1.92518
    A1        1.94253   0.00000   0.00041  -0.00018   0.00023   1.94276
    A2        1.93370  -0.00004   0.00113  -0.00107   0.00006   1.93376
    A3        1.94800  -0.00002  -0.00027   0.00025  -0.00001   1.94798
    A4        1.87977   0.00002  -0.00076   0.00052  -0.00025   1.87953
    A5        1.87330   0.00004  -0.00008   0.00045   0.00037   1.87366
    A6        1.88358   0.00000  -0.00051   0.00010  -0.00041   1.88317
    A7        1.94120   0.00011   0.00018   0.00084   0.00102   1.94222
    A8        1.95512  -0.00022   0.00081  -0.00162  -0.00080   1.95432
    A9        1.88357   0.00001  -0.00003  -0.00040  -0.00044   1.88313
   A10        1.92648   0.00011  -0.00088   0.00128   0.00041   1.92688
   A11        1.88417  -0.00002  -0.00082   0.00111   0.00029   1.88446
   A12        1.86996  -0.00000   0.00071  -0.00123  -0.00052   1.86944
   A13        1.94397   0.00002   0.00025   0.00006   0.00031   1.94429
   A14        1.93374   0.00000   0.00087  -0.00058   0.00028   1.93402
   A15        1.94416   0.00002   0.00037  -0.00001   0.00036   1.94452
   A16        1.87902  -0.00001  -0.00061   0.00027  -0.00033   1.87868
   A17        1.88149  -0.00002  -0.00035   0.00003  -0.00032   1.88117
   A18        1.87859  -0.00001  -0.00062   0.00026  -0.00036   1.87823
   A19        2.04857  -0.00031   0.00105  -0.00163  -0.00058   2.04799
   A20        1.90035   0.00001   0.00093  -0.00201  -0.00109   1.89926
   A21        1.89350   0.00004  -0.00062   0.00078   0.00016   1.89366
   A22        1.88288   0.00007   0.00027  -0.00074  -0.00048   1.88240
   A23        1.88113   0.00022  -0.00012   0.00244   0.00233   1.88346
   A24        1.84736  -0.00001  -0.00183   0.00153  -0.00030   1.84706
   A25        1.93873   0.00007   0.00050   0.00052   0.00101   1.93975
   A26        1.94920   0.00006  -0.00013   0.00093   0.00079   1.94999
   A27        1.87558  -0.00004   0.00039  -0.00021   0.00018   1.87576
    D1        0.99284  -0.00001  -0.00033   0.00134   0.00101   0.99385
    D2       -3.12514   0.00006  -0.00074   0.00245   0.00171  -3.12343
    D3       -1.07081  -0.00006   0.00058  -0.00024   0.00034  -1.07047
    D4       -1.09827  -0.00001  -0.00039   0.00153   0.00113  -1.09714
    D5        1.06694   0.00006  -0.00080   0.00263   0.00183   1.06877
    D6        3.12126  -0.00006   0.00052  -0.00006   0.00046   3.12173
    D7        3.08536   0.00002  -0.00033   0.00196   0.00162   3.08698
    D8       -1.03262   0.00010  -0.00074   0.00307   0.00232  -1.03030
    D9        1.02170  -0.00002   0.00058   0.00038   0.00096   1.02266
   D10       -3.11305  -0.00007  -0.00271  -0.00042  -0.00313  -3.11617
   D11        1.07900  -0.00007  -0.00269  -0.00041  -0.00310   1.07590
   D12       -1.01172  -0.00007  -0.00273  -0.00034  -0.00307  -1.01479
   D13        0.98878   0.00005  -0.00325   0.00013  -0.00312   0.98566
   D14       -1.10236   0.00005  -0.00323   0.00013  -0.00310  -1.10546
   D15        3.09010   0.00005  -0.00327   0.00020  -0.00307   3.08704
   D16       -1.04976   0.00000  -0.00315   0.00025  -0.00289  -1.05265
   D17       -3.14090  -0.00000  -0.00312   0.00026  -0.00287   3.13942
   D18        1.05156   0.00000  -0.00317   0.00033  -0.00284   1.04873
   D19        1.02770  -0.00015  -0.00386  -0.00317  -0.00703   1.02067
   D20       -1.11653  -0.00003  -0.00577   0.00072  -0.00505  -1.12158
   D21       -3.11930  -0.00004  -0.00377  -0.00044  -0.00420  -3.12350
   D22       -3.08208  -0.00008  -0.00369  -0.00230  -0.00599  -3.08807
   D23        1.05688   0.00004  -0.00560   0.00160  -0.00401   1.05287
   D24       -0.94589   0.00003  -0.00360   0.00044  -0.00316  -0.94905
   D25       -1.03474  -0.00005  -0.00473  -0.00100  -0.00572  -1.04046
   D26        3.10422   0.00008  -0.00664   0.00290  -0.00374   3.10048
   D27        1.10146   0.00006  -0.00463   0.00174  -0.00290   1.09856
   D28        0.95891   0.00003  -0.00604   0.00107  -0.00497   0.95395
   D29       -1.13473  -0.00001  -0.00679   0.00036  -0.00643  -1.14116
   D30        3.11205  -0.00013  -0.00381  -0.00343  -0.00724   3.10481
   D31        1.01840  -0.00017  -0.00456  -0.00414  -0.00870   1.00970
   D32       -1.18362   0.00001  -0.00587  -0.00081  -0.00668  -1.19030
   D33        3.00592  -0.00003  -0.00661  -0.00152  -0.00814   2.99778
         Item               Value     Threshold  Converged?
 Maximum Force            0.000307     0.000015     NO 
 RMS     Force            0.000098     0.000010     NO 
 Maximum Displacement     0.022340     0.000060     NO 
 RMS     Displacement     0.004590     0.000040     NO 
 GradGradGradGradGradGradGradGradGradGradGradGradGradGradGradGradGradGrad

                    Distance matrix (angstroms):
                    1          2          3          4          5
     1  C    0.000000
     2  C    1.528581   0.000000
     3  C    2.524009   1.528921   0.000000
     4  C    2.544266   1.540811   2.520753   0.000000
     5  N    3.079664   2.555995   3.861643   1.450980   0.000000
     6  H    1.103956   2.186752   2.768173   3.509968   4.096107
     7  H    1.106454   2.182150   2.808459   2.815861   3.430941
     8  H    1.103913   2.190469   3.493336   2.809722   2.783415
     9  H    2.146359   1.108562   2.147656   2.146655   2.796498
    10  H    3.492621   2.188552   1.104479   2.756597   4.122904
    11  H    2.798674   2.182254   1.105941   2.803767   4.184965
    12  H    2.779178   2.188355   1.103998   3.493229   4.719516
    13  H    2.813827   2.167927   2.752083   1.106967   2.077398
    14  H    3.485963   2.162978   2.698494   1.105920   2.077394
    15  H    3.355167   2.766821   4.151273   2.052657   1.020057
    16  H    2.832773   2.849568   4.233128   2.058544   1.018762
                    6          7          8          9         10
     6  H    0.000000
     7  H    1.784726   0.000000
     8  H    1.778848   1.787062   0.000000
     9  H    2.506910   3.079228   2.493406   0.000000
    10  H    3.785345   3.824735   4.350980   2.503233   0.000000
    11  H    3.135233   2.629353   3.824510   3.079943   1.784185
    12  H    2.565244   3.166288   3.786820   2.501707   1.784237
    13  H    3.820902   2.633648   3.199373   3.063536   3.082578
    14  H    4.329800   3.808828   3.817699   2.475985   2.467084
    15  H    4.219240   3.971399   2.926555   2.587300   4.336651
    16  H    3.866988   3.049651   2.295991   3.211149   4.713399
                   11         12         13         14         15
    11  H    0.000000
    12  H    1.783497   0.000000
    13  H    2.576085   3.780346   0.000000
    14  H    3.083419   3.712676   1.765296   0.000000
    15  H    4.699351   4.880617   2.945660   2.435212   0.000000
    16  H    4.436776   5.000642   2.375413   2.945440   1.643915
                   16
    16  H    0.000000
 Framework group  C1[X(C4H11N)]
 Deg. of freedom    42
                         Standard orientation:                         
 ---------------------------------------------------------------------
 Center     Atomic      Atomic             Coordinates (Angstroms)
 Number     Number       Type             X           Y           Z
 ---------------------------------------------------------------------
      1          6           0        0.562922    1.463283    0.106306
      2          6           0        0.466311    0.004121   -0.338748
      3          6           0        1.737826   -0.768646    0.012936
      4          6           0       -0.770449   -0.698605    0.253451
      5          7           0       -2.069694   -0.127266   -0.048012
      6          1           0        1.442033    1.961122   -0.338711
      7          1           0        0.658192    1.532955    1.206447
      8          1           0       -0.329180    2.039911   -0.194153
      9          1           0        0.352091   -0.008865   -1.441333
     10          1           0        1.680530   -1.816694   -0.330848
     11          1           0        1.898902   -0.783129    1.106988
     12          1           0        2.629118   -0.310207   -0.449929
     13          1           0       -0.664880   -0.739406    1.354616
     14          1           0       -0.773720   -1.750344   -0.088446
     15          1           0       -2.206021   -0.034164   -1.054622
     16          1           0       -2.178869    0.798755    0.362406
 ---------------------------------------------------------------------
 Rotational constants (GHZ):           7.4042466           3.4294192           2.6016623
    92 basis functions,   169 primitive gaussians,    97 cartesian basis functions
    21 alpha electrons       21 beta electrons
       nuclear repulsion energy       193.0445408167 Hartrees.
 NAtoms=   16 NActive=   16 NUniq=   16 SFac= 1.00D+00 NAtFMM=   60 NAOKFM=F Big=F
 Nuclear repulsion after empirical dispersion term =      193.0355877008 Hartrees.
   1 Symmetry operations used in ECPInt.
 ECPInt:  NShTT=    1378 NPrTT=    5558 LenC2=    1377 LenP2D=    4701.
 LDataN:  DoStor=T MaxTD1= 4 Len=   56
 Initial guess from the checkpoint file:  "monomer.chk"
 B after Tr=     0.000000    0.000000    0.000000
         Rot=    0.999999   -0.000451    0.000101   -0.001249 Ang=  -0.15 deg.
 ExpMin= 1.22D-01 ExpMax= 1.71D+03 ExpMxC= 2.58D+02 IAcc=3 IRadAn=         5 AccDes= 0.00D+00
 Harris functional with IExCor= 4639 and IRadAn=       5 diagonalized for initial guess.
 HarFok:  IExCor= 4639 AccDes= 0.00D+00 IRadAn=         5 IDoV= 1 UseB2=F ITyADJ=14
 ICtDFT=  3500011 ScaDFX=  1.000000  1.000000  1.000000  1.000000
 FoFCou: FMM=F IPFlag=           0 FMFlag=      100000 FMFlg1=           0
         NFxFlg=           0 DoJE=T BraDBF=F KetDBF=T FulRan=T
         wScrn=  0.000000 ICntrl=       500 IOpCl=  0 I1Cent=   200000004 NGrid=           0
         NMat0=    1 NMatS0=      1 NMatT0=    0 NMatD0=    1 NMtDS0=    0 NMtDT0=    0
 Petite list used in FoFCou.
     Accept linear search using points  1 and  2.
     Minimum is close to point  2 DX= -5.19D-06 DF=  0.00D+00 DXR=  5.19D-06 DFR=  0.00D+00 which will be used.
 SCF Done:  E(RwB97XD) =  -213.556101629     a.u. after    3 cycles
            Convg  =    0.1507D-09                    20 Fock formations.
              S**2 =  0.0000                  -V/T =  2.0110
   1 Symmetry operations used in ECPInt.
 ECPInt:  NShTT=    1378 NPrTT=    5558 LenC2=    1377 LenP2D=    4701.
 LDataN:  DoStor=T MaxTD1= 5 Len=  102
 Calling FoFJK, ICntrl=      2127 FMM=F ISym2X=0 I1Cent= 0 IOpClX= 0 NMat=1 NMatS=1 NMatT=0.

 GradGradGradGradGradGradGradGradGradGradGradGradGradGradGradGradGradGrad
 Using GEDIIS/GDIIS optimizer.
 FormGI is forming the generalized inverse of G from B-inverse, IUseBI=4.
 Internal  Forces:  Max     0.000153039 RMS     0.000042787
 Step number   5 out of a maximum of   85
 All quantities printed in internal units (Hartrees-Bohrs-Radians)
 Mixed Optimization -- En-DIIS/RFO-DIIS
 Swapping is turned off.
 Trust test= 1.09D+00 RLast= 2.51D-02 DXMaxT set to 5.05D-01
 ITU=  1  1  1  1  0
     Eigenvalues ---    0.00302   0.00355   0.00437   0.00543   0.03576
     Eigenvalues ---    0.04005   0.04089   0.04916   0.05103   0.05450
     Eigenvalues ---    0.05495   0.05503   0.05559   0.05637   0.10584
     Eigenvalues ---    0.13397   0.15625   0.15945   0.16000   0.16000
     Eigenvalues ---    0.16000   0.16013   0.16056   0.16798   0.17296
     Eigenvalues ---    0.17471   0.24067   0.28888   0.29613   0.30781
     Eigenvalues ---    0.33782   0.34150   0.34456   0.34975   0.35042
     Eigenvalues ---    0.35070   0.35085   0.35125   0.35886   0.41074
     Eigenvalues ---    0.45186   0.45391
 En-DIIS/RFO-DIIS/Sim-DIIS IScMMF=       -3 using points:     5    4    3    2
 RFO step:  Lambda=-1.93462714D-06.
 DidBck=F Rises=F RFO-DIIS coefs:    1.43177   -0.26390   -0.17918    0.01131
 Iteration  1 RMS(Cart)=  0.00168130 RMS(Int)=  0.00000446
 Iteration  2 RMS(Cart)=  0.00000465 RMS(Int)=  0.00000058
 Iteration  3 RMS(Cart)=  0.00000000 RMS(Int)=  0.00000058
 Variable       Old X    -DE/DX   Delta X   Delta X   Delta X     New X
                                 (Linear)    (Quad)   (Total)
    R1        2.88860   0.00015  -0.00034   0.00062   0.00028   2.88888
    R2        2.08617   0.00003  -0.00028   0.00022  -0.00005   2.08612
    R3        2.09090  -0.00001  -0.00025   0.00011  -0.00014   2.09076
    R4        2.08609   0.00001  -0.00023   0.00016  -0.00008   2.08602
    R5        2.88924   0.00011  -0.00000   0.00028   0.00028   2.88953
    R6        2.91171   0.00015  -0.00007   0.00056   0.00049   2.91220
    R7        2.09488  -0.00002  -0.00013   0.00003  -0.00010   2.09478
    R8        2.08716   0.00001  -0.00025   0.00015  -0.00010   2.08706
    R9        2.08993  -0.00000  -0.00029   0.00016  -0.00013   2.08979
   R10        2.08625   0.00002  -0.00024   0.00018  -0.00006   2.08619
   R11        2.74196   0.00010  -0.00029   0.00028  -0.00001   2.74194
   R12        2.09186  -0.00002  -0.00017   0.00004  -0.00014   2.09173
   R13        2.08989  -0.00002   0.00008  -0.00011  -0.00003   2.08986
   R14        1.92763  -0.00002  -0.00010   0.00000  -0.00010   1.92753
   R15        1.92518  -0.00003  -0.00008  -0.00004  -0.00012   1.92506
    A1        1.94276  -0.00001   0.00016  -0.00005   0.00011   1.94287
    A2        1.93376  -0.00005   0.00021  -0.00038  -0.00017   1.93358
    A3        1.94798  -0.00005   0.00011  -0.00047  -0.00035   1.94763
    A4        1.87953   0.00003  -0.00032   0.00041   0.00009   1.87962
    A5        1.87366   0.00003   0.00010   0.00023   0.00033   1.87399
    A6        1.88317   0.00004  -0.00030   0.00032   0.00002   1.88319
    A7        1.94222  -0.00002   0.00064  -0.00059   0.00004   1.94226
    A8        1.95432  -0.00005   0.00004  -0.00054  -0.00050   1.95382
    A9        1.88313   0.00002  -0.00025   0.00023  -0.00002   1.88311
   A10        1.92688   0.00006   0.00001   0.00026   0.00027   1.92715
   A11        1.88446  -0.00000  -0.00022   0.00039   0.00018   1.88464
   A12        1.86944  -0.00000  -0.00028   0.00032   0.00005   1.86949
   A13        1.94429  -0.00004   0.00029  -0.00045  -0.00017   1.94412
   A14        1.93402  -0.00004   0.00022  -0.00033  -0.00011   1.93391
   A15        1.94452  -0.00003   0.00037  -0.00044  -0.00007   1.94445
   A16        1.87868   0.00005  -0.00033   0.00051   0.00018   1.87887
   A17        1.88117   0.00004  -0.00029   0.00035   0.00006   1.88123
   A18        1.87823   0.00004  -0.00032   0.00045   0.00013   1.87836
   A19        2.04799  -0.00011   0.00034  -0.00095  -0.00061   2.04738
   A20        1.89926   0.00002  -0.00066   0.00055  -0.00011   1.89915
   A21        1.89366   0.00005  -0.00029   0.00044   0.00015   1.89381
   A22        1.88240   0.00003  -0.00008   0.00003  -0.00005   1.88235
   A23        1.88346  -0.00000   0.00125  -0.00099   0.00026   1.88372
   A24        1.84706   0.00002  -0.00066   0.00113   0.00047   1.84753
   A25        1.93975   0.00002   0.00083  -0.00020   0.00063   1.94037
   A26        1.94999  -0.00004   0.00069  -0.00060   0.00008   1.95008
   A27        1.87576   0.00002   0.00012   0.00026   0.00038   1.87614
    D1        0.99385  -0.00001  -0.00045   0.00060   0.00015   0.99400
    D2       -3.12343   0.00001   0.00007   0.00009   0.00016  -3.12327
    D3       -1.07047  -0.00000  -0.00040   0.00032  -0.00008  -1.07055
    D4       -1.09714  -0.00001  -0.00029   0.00038   0.00008  -1.09706
    D5        1.06877   0.00001   0.00023  -0.00014   0.00009   1.06886
    D6        3.12173  -0.00001  -0.00025   0.00010  -0.00015   3.12158
    D7        3.08698  -0.00000  -0.00013   0.00054   0.00041   3.08739
    D8       -1.03030   0.00002   0.00039   0.00003   0.00042  -1.02988
    D9        1.02266   0.00000  -0.00008   0.00026   0.00018   1.02284
   D10       -3.11617  -0.00001  -0.00243   0.00114  -0.00129  -3.11746
   D11        1.07590  -0.00002  -0.00235   0.00102  -0.00133   1.07457
   D12       -1.01479  -0.00002  -0.00235   0.00097  -0.00138  -1.01617
   D13        0.98566   0.00003  -0.00295   0.00208  -0.00087   0.98479
   D14       -1.10546   0.00002  -0.00288   0.00196  -0.00092  -1.10637
[...]
   zy        -0.163009D+00     -0.241554D-01     -0.268765D-01
   zz         0.469210D+02      0.695298D+01      0.773623D+01

 ----------------------------------------------------------------------

 Dipole orientation:
     6         -0.27486014          1.75986681          2.43088014
     6         -0.30713757         -0.67270708          0.87225983
     6         -2.87911353         -1.98109233          1.02425176
     6          0.42789379         -0.19513410         -1.90493217
     7          2.88792638          0.91995665         -2.38011629
     1         -0.76838049          1.39006218          4.42388057
     1         -1.65413723          3.14005367          1.67966803
     1          1.60763395          2.65854791          2.41147539
     1          1.12747872         -1.97101338          1.67501014
     1         -2.89111405         -3.76396784         -0.06087534
     1         -4.38223331         -0.75504262          0.24638524
     1         -3.38836087         -2.43154769          2.99665339
     1         -1.01515710          1.03886121         -2.78237522
     1          0.33373716         -2.00942525         -2.93786501
     1          4.28895225         -0.10036654         -1.53656246
     1          2.99630056          2.71970193         -1.70555075

 Electric dipole moment (dipole orientation):
 (Debye = 10**-18 statcoulomb cm , SI units = C m)
                  (au)            (Debye)         (10**-30 SI)
   Tot        0.533840D+00      0.135689D+01      0.452608D+01
   x          0.000000D+00      0.000000D+00      0.000000D+00
   y          0.000000D+00      0.000000D+00      0.000000D+00
   z          0.533840D+00      0.135689D+01      0.452608D+01

 Dipole polarizability, Alpha (dipole orientation).
 (esu units = cm**3 , SI units = C**2 m**2 J**-1)
 Alpha(0;0):
               (au)            (10**-24 esu)      (10**-40 SI)
   iso        0.504275D+02      0.747259D+01      0.831438D+01
   aniso      0.641463D+01      0.950551D+00      0.105763D+01
   xx         0.520495D+02      0.771295D+01      0.858181D+01
   yx         0.273062D+01      0.404636D+00      0.450218D+00
   yy         0.501170D+02      0.742657D+01      0.826317D+01
   zx        -0.174688D+01     -0.258860D+00     -0.288021D+00
   zy         0.992124D+00      0.147018D+00      0.163579D+00
   zz         0.491160D+02      0.727825D+01      0.809814D+01

 ----------------------------------------------------------------------
 1\1\GINC-C200\Freq\RwB97XD\def2SVPP\C4H11N1\PETERCHAO1\29-Mar-2024\0\\
 #T Geom=AllCheck Guess=TCheck SCRF=Check GenChk RwB97XD/def2SVPP Freq\
 \Monomer\\0,1\C,-0.6572483957,-1.4505328816,0.0846051702\C,-0.50257576
 38,0.0109839641,-0.3368854341\C,-1.739061516,0.8297105604,0.035991727\
 C,0.766222069,0.6509113534,0.2594423046\N,2.0381407443,0.0305212042,-0
 .0621630224\H,-1.5584266252,-1.9041791303,-0.3635802851\H,-0.749632800
 9,-1.534115494,1.1839973441\H,0.2091150976,-2.0577941977,-0.2304707191
 \H,-0.3939957733,0.0379579977,-1.4397384034\H,-1.6400160761,1.88009825
 91,-0.2907514476\H,-1.8927645328,0.8319713219,1.1311789072\H,-2.651049
 7824,0.4162189347,-0.4289354944\H,0.6698158138,0.6748486364,1.36183546
 09\H,0.8116514517,1.7076349106,-0.0634928654\H,2.1597870298,-0.0583163
 962,-1.0710041946\H,2.1142384962,-0.9028413627,0.338825535\\Version=ES
 64L-G16RevB.01\State=1-A\HF=-213.5561032\RMSD=1.707e-10\RMSF=8.402e-07
 \ZeroPoint=0.1503977\Thermal=0.157114\Dipole=-0.3323667,-0.3372066,-0.
 2465948\DipoleDeriv=-0.0069568,-0.0142737,-0.0130929,0.0029268,-0.0347
 399,0.0089131,-0.0190173,-0.0205702,0.0819384,-0.0266477,0.0013697,-0.
 0079153,-0.0422898,0.1026406,-0.0307304,-0.0466073,-0.0306752,0.109499
 8,-0.0066342,0.0171388,0.0051151,-0.0021694,0.0159771,-0.0031215,-0.02
 1118,0.0134246,0.0842263,0.6128233,-0.0476772,-0.0133612,-0.094267,0.2
 705433,0.0564723,-0.0178601,0.0709661,0.2292248,-0.9883985,-0.0193569,
 -0.0502354,-0.0914994,-0.3471676,-0.0752056,-0.0940141,-0.0857698,-0.2
 36362,-0.0764816,-0.1051495,-0.0638246,-0.0628052,0.0037487,-0.0093006
 ,-0.0744726,-0.0307289,0.0362231,0.0687344,-0.0058544,0.0082438,-0.000
 2845,0.0328295,-0.0240466,0.0236706,0.0504129,-0.1419078,-0.0559916,0.
 1410537,0.0508527,0.0946738,-0.0208647,-0.0025901,0.0525505,-0.0153559
 ,0.0417555,-0.0130453,-0.0013359,0.0516925,-0.0010225,-0.0203342,0.006
 7557,0.0336808,0.006887,-0.1954835,0.0478504,-0.0233562,0.0258784,0.02
 75686,-0.1458727,0.0455354,0.0158992,0.0587959,0.0518749,0.0418912,0.0
 205245,-0.0065944,0.0163977,0.0576216,0.0227953,0.0580391,-0.0198569,-
 0.1403879,-0.1219947,-0.0248639,-0.0500303,-0.0698741,0.0314552,-0.049
 1863,-0.0732559,-0.0393043,0.0332113,-0.0161968,0.015682,0.0452023,-0.
 0028292,0.053961,0.0192387,0.0163331,-0.0355272,-0.1616377,-0.0145206,
 0.0015484,-0.0036649,-0.0010577,-0.1761736,0.0335445,-0.016792,0.07596
 03,0.0385176,0.275526,0.0649883,-0.0711414,0.1415742,0.1656843,-0.0533
 448,0.0414235,-0.020984,0.0036911,0.2800424,-0.0204376,0.0928756,0.084
 9577,0.0106914,0.0542707,0.1215404,0.0223256,0.1656161\Polar=53.118298
 3,-1.6334074,51.2432512,-0.9594967,-0.1630087,46.921021\Quadrupole=-2.
 4802505,0.8174444,1.6628061,-1.9921204,-1.2418878,-0.3493519\PG=C01 [X
 (C4H11N1)]\NImag=0\\0.58741164,-0.00895692,0.50129943,0.00417089,0.029
 76959,0.57028448,-0.08353608,-0.00932089,0.00353073,0.48918832,-0.0135
 7398,-0.19260948,0.03590135,-0.00770917,0.50860597,0.00425627,0.034853
 70,-0.09506383,-0.01842261,-0.00230056,0.59872154,0.00193479,0.0018761
 3,-0.00138683,-0.16215520,0.05384785,0.02605040,0.52745344,0.02908510,
 -0.02410813,-0.00795882,0.05162362,-0.11618859,-0.01731687,0.04278074,
 0.56115330,-0.00830405,0.00475208,0.00244607,0.02650653,-0.01789902,-0
 .09186693,0.02222760,-0.01413239,0.57087368,-0.00369388,-0.00999067,-0
 .00020123,-0.13342464,-0.03667667,-0.03596241,-0.02995713,-0.00565877,
 -0.00941649,0.48107895,-0.03053991,-0.01852436,-0.01351527,-0.03730179
 ,-0.10720665,-0.01963820,0.01594911,0.00816296,0.00821075,-0.02375940,
 0.59240948,0.00815968,0.00273050,0.00440559,-0.03340873,-0.02149486,-0
 .10647155,0.00745295,0.00525606,0.00370885,-0.02909077,-0.03842391,0.6
 0756168,0.00119704,0.00212706,-0.00053566,-0.03930926,0.01763543,0.010
 91984,-0.00513538,-0.00575032,-0.00408631,-0.20227550,0.05117440,0.026
 66195,0.32554109,-0.00025788,-0.00072014,-0.00035039,-0.00392379,0.008
 12737,0.00316934,-0.00177226,-0.00043682,-0.00085793,0.09691045,-0.118
 21090,-0.00009513,-0.16240329,0.53994216,0.00026754,-0.00089454,-0.000
 19354,-0.00788660,0.00660381,0.00557607,-0.00202320,-0.00143530,-0.000
 49942,0.05364490,-0.00052747,-0.10879081,-0.10470851,-0.10669635,0.630
 58824,-0.22843577,-0.08864825,-0.09077390,-0.00202888,0.00067499,-0.00
 055785,0.00093093,0.00100208,0.00025380,0.00016221,-0.00003304,0.00089
 168,-0.00002182,-0.00077208,-0.00036210,0.24163946,-0.08718032,-0.0897
 5898,-0.04431620,-0.02649118,-0.01225577,-0.01500209,-0.00133312,0.001
 26701,-0.00065551,0.00225066,-0.00664161,0.00320341,0.00010269,0.00079
 767,0.00009404,0.09614990,0.09805171,-0.09125331,-0.04521934,-0.094871
 11,0.00924172,0.00450252,0.00389202,0.00014874,-0.00035817,0.00008661,
 0.00000297,0.00164832,-0.00018025,0.00002131,0.00024223,0.00023195,0.0
 9824056,0.04670206,0.09551262,-0.05170065,-0.00082226,0.02146420,-0.00
 127390,-0.00049180,0.00359032,0.00012520,0.00013615,-0.00105284,0.0003
 7819,0.00026642,0.00155234,-0.00036765,-0.00022782,-0.00045283,0.00429
 394,0.00277804,-0.02619238,0.04771619,-0.00085829,-0.04922334,0.014924
 61,-0.00272868,-0.00195426,0.03312464,-0.00076810,0.00164921,0.0010094
 1,0.00073881,0.00175985,0.00121922,-0.00005991,0.00012973,-0.00013817,
 0.00256219,0.00031829,-0.01230490,0.00212200,0.05263075,0.02138914,0.0
 1559310,-0.30750525,0.00114361,0.00064876,-0.00973394,0.00015495,-0.00
 065890,0.00079309,-0.00099773,-0.00084313,0.00081475,0.00070745,0.0003
 1624,0.00024573,0.00247480,0.00115395,-0.00993359,-0.02402340,-0.02027
 278,0.32972319,-0.21460450,0.11464030,0.06165202,0.00437823,-0.0020540
 8,-0.00192886,0.00026036,-0.00007741,-0.00051484,-0.00090265,0.0001680
 7,-0.00052441,-0.00035819,-0.00104569,-0.00033750,-0.01758421,0.014215
 26,0.00886199,-0.00013108,-0.00072388,-0.00082702,0.22932455,0.1136726
 6,-0.12570609,-0.04174091,0.02547975,-0.01428288,-0.01105251,-0.002580
 27,-0.00614728,0.00266900,0.00232153,-0.00019275,-0.00062832,0.0000074
 5,0.00198480,0.00076292,-0.01054304,0.00770163,0.00514570,-0.00316181,
 0.00110085,0.00088432,-0.12413751,0.13552504,0.06173765,-0.04283689,-0
 .07280774,-0.00938893,0.00525347,0.00235991,0.00044488,0.00179020,-0.0
 0004671,0.00065729,-0.00073086,-0.00009122,-0.00002291,0.00012246,0.00
 006488,-0.01062262,0.00875511,0.00420209,0.02515586,-0.01707079,-0.005
 97637,-0.06643182,0.04435633,0.07126826,-0.00056918,-0.00008179,0.0034
 1405,-0.05084151,-0.00061211,0.02291212,-0.00428158,0.00035345,0.02851
 074,-0.00030041,-0.00048839,-0.02928637,0.00297077,-0.00003240,0.00010
 921,-0.00004233,0.00016828,0.00046845,0.00068560,-0.00075318,0.0000653
 2,0.00038091,0.00000047,-0.00066566,0.05874567,-0.00335769,-0.00327751
 ,0.03358387,-0.00107177,-0.04905785,0.00667098,0.00253965,-0.00051853,
 -0.01821935,0.00056680,-0.00039286,-0.01560513,0.00090980,-0.00028463,
 0.00092098,-0.00024493,0.00112403,-0.00045788,-0.00080110,-0.00629400,
 0.00219564,0.00054795,0.00111467,-0.00030538,0.00081412,0.05809264,0.0
 0066781,0.00023942,-0.00884346,0.02382546,0.00673211,-0.29511101,0.000
 31298,0.00012271,-0.00711996,0.00241721,-0.00031681,-0.01550072,0.0000
 9022,0.00036395,0.00245331,0.00033107,0.00027268,0.00051870,0.00019352
 ,0.00199533,0.00081325,-0.00031118,0.00034410,0.00039748,-0.02548546,-
 0.00671369,0.31977438,-0.00466678,0.00183044,0.00161358,0.00373461,0.0
 2520315,-0.01008837,-0.05161208,-0.02682699,0.00840654,0.00072341,0.00
 188424,-0.00041407,0.00047578,-0.00052428,0.00015428,0.00011205,0.0000
 9186,0.00022273,-0.00010598,-0.00016857,-0.00006148,0.00012315,0.00165
 902,-0.00027546,0.00098540,-0.00058059,0.00005426,0.05317828,0.0041977
 5,-0.00100920,-0.00200120,-0.00320423,-0.01520481,0.00562612,-0.025295
 01,-0.28805176,0.07642537,-0.00164405,0.00012136,-0.00000169,0.0004182
 0,0.00059995,-0.00021602,-0.00003139,0.00042955,-0.00001220,-0.0000659
 7,0.00024033,0.00002985,-0.00007964,-0.00119601,0.00047261,-0.00012521
 ,0.00033829,-0.00047406,0.02493762,0.30930832,0.00131106,-0.00071684,0
 .00007025,-0.00139428,-0.00938208,0.00200323,0.00761359,0.07690954,-0.
 07402449,-0.00011546,0.00043814,0.00008682,-0.00007619,-0.00020393,-0.
 00009083,0.00017076,0.00025366,-0.00008345,0.00010825,-0.00034427,0.00
 033897,0.00019544,-0.00040698,0.00054530,-0.00059810,-0.00029961,0.000
 36654,-0.00990864,-0.08221784,0.07244940,0.00083219,-0.00128861,0.0001
 7136,-0.00369945,-0.00076440,0.02785372,-0.05271893,-0.00071071,0.0324
 5430,0.00122790,0.00012435,0.00205873,-0.00003439,-0.00008316,-0.00060
 872,-0.00002985,0.00007543,-0.00015692,0.00021471,0.00037167,-0.000538
 68,-0.00001087,-0.00025059,-0.00021403,-0.00433310,0.00311930,0.001264
 34,-0.00136163,0.00038105,0.00313772,0.05491914,-0.00037805,0.00106798
 ,-0.00145256,0.00188564,-0.00039374,-0.01844745,-0.00100102,-0.0493664
 3,0.00211381,-0.00083010,0.00015536,0.00012302,0.00001403,-0.00009443,
 0.00010568,-0.00004400,-0.00005575,-0.00003710,0.00022293,-0.00023344,
 0.00055000,-0.00014298,0.00016988,0.00029247,0.00330985,-0.00145810,-0
 .00100617,-0.00320863,0.00260176,0.03005869,-0.00268699,0.04759312,-0.
 00043347,0.00052263,0.00089834,0.00142153,0.00022450,-0.00838853,0.033
 13498,0.00169135,-0.30729337,-0.00124127,-0.00002252,0.00043382,0.0003
 2193,0.00000368,0.00053460,0.00005268,-0.00000192,-0.00009472,0.000070
 46,-0.00075672,0.00024557,-0.00002253,-0.00004819,0.00033137,0.0015924
 3,-0.00117280,0.00095459,0.00040516,-0.00130188,-0.00637079,-0.0384829
 4,-0.00032205,0.32895518,0.00087525,-0.00129013,-0.00020395,-0.0210893
 1,-0.01149680,-0.01217975,-0.22709929,-0.08420737,-0.09413670,-0.00173
 096,0.00465828,0.00308808,-0.00232803,-0.00045063,-0.00074855,0.000344
 01,0.00096825,-0.00000495,-0.00001361,0.00005108,0.00004931,0.00030533
 ,-0.00009218,0.00030356,0.00068546,-0.00037740,0.00041264,-0.00101985,
 0.00024458,-0.00024242,0.00518241,0.00290784,0.00279756,0.24521006,0.0
 0094155,0.00129765,0.00056730,0.01579175,0.00658114,0.00956074,-0.0856
 2751,-0.08803562,-0.04404711,0.00132060,-0.00266218,-0.00123537,0.0017
 0853,0.00068113,0.00007218,-0.00011322,-0.00039874,-0.00024881,-0.0000
 4694,-0.00006366,0.00001509,-0.00021132,0.00023446,-0.00005429,-0.0008
 1801,0.00051317,0.00013751,-0.02365254,-0.00879284,-0.01418787,0.00177
 640,-0.00019438,0.00102201,0.08895620,0.09054175,-0.00018223,0.0002597
 4,-0.00000709,0.00888843,0.00408224,0.00362184,-0.09497132,-0.04364390
 ,-0.09812012,0.00091402,-0.00109891,-0.00034534,0.00079017,-0.00003346
 ,0.00061048,-0.00019362,0.00021701,0.00016874,-0.00011259,-0.00009765,
 -0.00009433,0.00013761,0.00017420,-0.00007032,-0.00001830,0.00065983,0
 .00056932,0.00979645,0.00357157,0.00465382,-0.02598645,-0.01240311,-0.
 01045052,0.10082549,0.04845836,0.09916507,0.00095798,0.00130189,-0.000
 29819,0.00031985,-0.00044126,-0.02697996,0.00155441,-0.00028608,-0.001
 20495,-0.04893359,0.00078748,0.01302719,-0.00930967,0.00034736,0.03541
 103,0.00004200,0.00024060,0.00019100,0.00003559,-0.00023702,0.00065959
 ,-0.00001601,-0.00018494,0.00004229,-0.00428548,-0.00248295,-0.0023086
 3,-0.00000315,0.00003209,0.00003837,-0.00048208,0.00001440,0.00070115,
 0.00022248,-0.00007220,0.00031598,0.06359485,0.00080909,0.00098603,-0.
 00139032,-0.00073587,-0.00032024,-0.01581773,0.00068429,0.00008309,0.0
 0032311,-0.00102831,-0.05181184,0.00362995,0.00559968,-0.00016498,-0.0
 1768024,0.00008684,0.00015406,0.00029096,-0.00020042,-0.00015573,0.000
 48172,0.00001176,-0.00007006,0.00000036,-0.00213779,-0.00055934,-0.001
 64674,-0.00010188,-0.00000268,0.00014015,0.00006761,0.00029453,0.00023
 844,0.00007476,-0.00013452,0.00006908,-0.00302403,0.04984461,0.0006291
 6,0.00070841,0.00102858,0.00051591,0.00049365,-0.01527428,0.00067417,-
 0.00004961,0.00047752,0.01951366,-0.00082189,-0.30412979,0.00382756,-0
 .00057562,-0.00600270,-0.00002603,0.00000591,0.00034550,-0.00033673,-0
 .00092245,0.00033225,-0.00001451,0.00007764,-0.00002086,-0.00258881,-0
 .00144994,0.00000383,-0.00003545,-0.00005397,-0.00006661,-0.00077642,0
 .00027270,0.00042503,-0.00014560,0.00001982,0.00042233,-0.02246187,0.0
 0484872,0.32748890,-0.00484376,-0.00126268,-0.00294372,-0.00265800,-0.
 02462757,0.00889532,0.00078822,-0.00169376,0.00041500,-0.04780553,-0.0
 2002656,0.00741048,-0.00704462,0.03470170,-0.01284003,-0.00008910,-0.0
 0178821,0.00027511,0.00000998,0.00034002,0.00001182,0.00017939,0.00002
 193,-0.00015715,0.00091308,0.00050764,-0.00028130,-0.00076206,0.000642
 06,-0.00030390,-0.00000555,0.00004494,0.00001968,0.00029610,0.00027627
 ,-0.00007143,-0.00024542,-0.00250369,0.00022592,0.06444937,-0.00287830
 ,0.00028630,-0.00222540,-0.00145411,-0.01504005,0.00593207,0.00107154,
 0.00063400,0.00020192,-0.01638675,-0.28061750,0.07481314,0.00740280,-0
 .01319167,0.00494165,-0.00014361,-0.00096843,0.00021969,0.00004638,0.0
 0022216,0.00001965,0.00016938,0.00020422,0.00002219,0.00036724,0.00032
 494,-0.00039907,-0.00056350,0.00068321,0.00004299,-0.00005779,-0.00003
 176,-0.00006562,0.00000596,0.00035627,-0.00022411,-0.00021246,0.002807
 83,-0.00078375,0.01119251,0.30548228,-0.00214849,-0.00025759,-0.000533
 48,-0.00376021,-0.01492568,0.00413312,0.00067602,-0.00015283,0.0002089
 7,0.00510231,0.07831603,-0.07842301,0.00127483,-0.00903535,0.00478795,
 -0.00011993,-0.00064490,0.00046957,-0.00017685,-0.00032610,0.00030855,
 0.00018777,0.00005504,-0.00006164,0.00078085,-0.00020653,0.00074335,0.
 00016427,0.00019853,0.00019401,-0.00004361,0.00015709,-0.00004993,0.00
 017164,-0.00012002,-0.00014779,0.00125034,0.02913081,-0.00675454,-0.00
 410897,-0.07967885,0.07430474,-0.00025636,-0.00030957,-0.00009128,0.00
 195066,-0.00063590,0.00252180,0.00010542,0.00044246,-0.00034360,-0.008
 77998,0.00311717,0.03785273,-0.03286448,0.02442901,0.01955446,0.000149
 48,-0.00001904,-0.00005611,0.00017818,0.00016185,-0.00024517,-0.000139
 33,-0.00037773,0.00015989,-0.00069815,-0.00001201,-0.00121754,0.000033
 32,-0.00009052,0.00006087,0.00026752,-0.00014995,-0.00030239,0.0001717
 6,-0.00006629,-0.00017375,-0.00456833,0.00295899,0.00078124,0.00083250
 ,-0.00008327,-0.00065987,0.04528804,-0.00022162,-0.00003575,0.00017661
 ,0.00013146,0.00033272,0.00077116,-0.00008552,0.00011588,-0.00002428,-
 0.00294092,0.00013738,-0.01857598,0.03093111,-0.05263980,-0.04206725,0
 .00009327,0.00001360,-0.00007131,0.00016186,-0.00013155,-0.00015697,0.
 00001197,-0.00023773,0.00014244,0.00001646,0.00031386,0.00036310,0.000
 05070,-0.00014787,-0.00001833,-0.00007605,-0.00005346,0.00001747,0.000
 06229,-0.00001800,0.00001251,0.00429546,-0.00132102,-0.00141139,-0.000
 30621,-0.00044372,-0.00052997,-0.02612206,0.04992031,0.00023642,0.0000
 0302,-0.00013730,-0.00145545,0.00085067,0.00225993,-0.00045355,-0.0000
 4482,0.00014314,-0.00350683,-0.00242452,-0.00862870,0.05790705,-0.0136
 1343,-0.41931956,-0.00004419,0.00003963,0.00002120,-0.00009508,0.00001
 179,0.00004199,0.00006945,0.00017472,-0.00006110,0.00091219,0.00036009
 ,0.00004169,0.00000512,0.00001675,-0.00002514,-0.00016801,0.00000006,-
 0.00005281,-0.00006255,0.00004550,0.00004039,0.00181734,-0.00177399,0.
 00149520,0.00026063,-0.00018570,0.00018277,-0.05449394,0.02327878,0.43
 735122,-0.00090193,0.00019595,0.00041792,0.00044456,0.00172234,-0.0008
 7999,-0.00019318,-0.00021218,0.00028527,-0.00576638,0.03401955,-0.0154
 3147,-0.03113569,0.01510476,0.02082663,0.00055787,-0.00022911,-0.00001
 090,-0.00004471,-0.00004999,0.00003749,-0.00120506,-0.00183474,-0.0007
 2285,-0.00001516,-0.00007681,0.00003461,0.00016551,-0.00031733,0.00000
 292,0.00003199,0.00004209,-0.00003495,-0.00001181,-0.00016328,0.000041
 54,0.00111659,-0.00056102,0.00021780,-0.00401460,0.00152400,0.00140989
 ,-0.00167025,-0.00600221,-0.00092862,0.04264225,-0.00050318,0.00003560
 ,0.00002775,-0.00097076,0.00086714,-0.00013334,-0.00028648,-0.00021227
 ,0.00013015,-0.00519321,-0.01648576,0.00508509,0.05018234,-0.36651946,
 0.15615407,0.00000430,0.00022174,-0.00004175,0.00008434,0.00000480,0.0
 0004346,-0.00129217,-0.00020273,-0.00020944,0.00001901,0.00002123,-0.0
 0001438,-0.00003005,0.00008242,-0.00006543,0.00000249,-0.00000115,-0.0
 0002837,-0.00001474,0.00009435,-0.00000340,-0.00007834,0.00037028,-0.0
 0035822,0.00448161,-0.00070810,-0.00197968,-0.00324313,0.00419515,-0.0
 0673856,-0.04316203,0.37823677,-0.00050408,0.00049303,0.00082949,0.000
 64290,0.00070912,-0.00065759,-0.00005636,-0.00001824,0.00023307,-0.001
 72016,-0.01024973,0.00554989,0.00690726,0.12724366,-0.11019636,0.00028
 489,-0.00007684,-0.00028588,0.00030774,-0.00005118,-0.00041385,-0.0001
 9162,-0.00076705,-0.00003335,-0.00012266,0.00003893,-0.00006132,-0.000
 03889,-0.00006195,-0.00004705,0.00003559,-0.00000507,-0.00007783,0.000
 07620,-0.00000503,-0.00001651,-0.00020067,-0.00084428,0.00022962,0.003
 19253,-0.00263079,0.00063737,-0.00334738,0.03809340,-0.01335293,-0.005
 26530,-0.15186795,0.11766323\\-0.00000053,-0.00000224,0.00000063,0.,0.
 00000135,-0.00000151,0.00000010,-0.00000070,0.00000015,-0.00000007,0.0
 0000205,0.00000012,0.,-0.00000193,-0.00000010,-0.00000106,-0.00000029,
 -0.00000103,-0.00000030,0.00000009,0.00000098,0.00000033,0.00000051,-0
 .00000108,0.00000028,0.00000078,-0.00000105,0.00000069,0.00000077,-0.0
 0000005,0.00000016,-0.00000026,0.00000143,-0.00000035,-0.00000051,-0.0
 0000071,0.00000077,-0.00000122,0.00000075,0.00000028,0.00000077,0.0000
 0042,-0.00000046,0.00000079,0.00000054,0.00000017,0.00000003,0.0000005
 1\\\@


 NATURE GIVES TO EVERY TIME AND SEASON SOME BEAUTY OF ITS OWN.

                                                    --DICKENS
 File lengths (MBytes):  RWF=     21 Int=      0 D2E=      0 Chk=      2 Scr=      1
 Normal termination of Gaussian 16 at Fri Mar 29 15:37:52 2024.
real 230.97
user 828.61
sys 8.54
