 Entering Gaussian System, Link 0=g16
 Input=gaussian_test.inp
 Output=gaussian_test.log
 Initial command:
 /sw/restricted/lms/sw/Gaussian/g16_B01/g16/l1.exe "/scratch/user/peterchao1/peterchao1/8625359_1689034688000000062518878/Gau-246479.inp" -scrdir="/scratch/user/peterchao1/peterchao1/8625359_1689034688000000062518878/"
 Entering Link 1 = /sw/restricted/lms/sw/Gaussian/g16_B01/g16/l1.exe PID=    246481.
  
 Copyright (c) 1988-2017, Gaussian, Inc.  All Rights Reserved.
  
 This is part of the Gaussian(R) 16 program.  It is based on
 the Gaussian(R) 09 system (copyright 2009, Gaussian, Inc.),
 the Gaussian(R) 03 system (copyright 2003, Gaussian, Inc.),
 the Gaussian(R) 98 system (copyright 1998, Gaussian, Inc.),
 the Gaussian(R) 94 system (copyright 1995, Gaussian, Inc.),
 the Gaussian 92(TM) system (copyright 1992, Gaussian, Inc.),
 the Gaussian 90(TM) system (copyright 1990, Gaussian, Inc.),
 the Gaussian 88(TM) system (copyright 1988, Gaussian, Inc.),
 the Gaussian 86(TM) system (copyright 1986, Carnegie Mellon
 University), and the Gaussian 82(TM) system (copyright 1983,
 Carnegie Mellon University). Gaussian is a federally registered
 trademark of Gaussian, Inc.
  
 This software contains proprietary and confidential information,
 including trade secrets, belonging to Gaussian, Inc.
  
 This software is provided under written license and may be
 used, copied, transmitted, or stored only in accord with that
 written license.
  
 The following legend is applicable only to US Government
 contracts under FAR:
  
                    RESTRICTED RIGHTS LEGEND
  
 Use, reproduction and disclosure by the US Government is
 subject to restrictions as set forth in subparagraphs (a)
 and (c) of the Commercial Computer Software - Restricted
 Rights clause in FAR 52.227-19.
  
 Gaussian, Inc.
 340 Quinnipiac St., Bldg. 40, Wallingford CT 06492
  
  
 ---------------------------------------------------------------
 Warning -- This program may not be used in any manner that
 competes with the business of Gaussian, Inc. or will provide
 assistance to any competitor of Gaussian, Inc.  The licensee
 of this program is prohibited from giving any competitor of
 Gaussian, Inc. access to this program.  By using this program,
 the user acknowledges that Gaussian, Inc. is engaged in the
 business of creating and licensing software in the field of
 computational chemistry and represents and warrants to the
 licensee that it is not a competitor of Gaussian, Inc. and that
 it will not use this program in any manner prohibited above.
 ---------------------------------------------------------------
  

 Cite this work as:
 Gaussian 16, Revision B.01,
 M. J. Frisch, G. W. Trucks, H. B. Schlegel, G. E. Scuseria, 
 M. A. Robb, J. R. Cheeseman, G. Scalmani, V. Barone, 
 G. A. Petersson, H. Nakatsuji, X. Li, M. Caricato, A. V. Marenich, 
 J. Bloino, B. G. Janesko, R. Gomperts, B. Mennucci, H. P. Hratchian, 
 J. V. Ortiz, A. F. Izmaylov, J. L. Sonnenberg, D. Williams-Young, 
 F. Ding, F. Lipparini, F. Egidi, J. Goings, B. Peng, A. Petrone, 
 T. Henderson, D. Ranasinghe, V. G. Zakrzewski, J. Gao, N. Rega, 
 G. Zheng, W. Liang, M. Hada, M. Ehara, K. Toyota, R. Fukuda, 
 J. Hasegawa, M. Ishida, T. Nakajima, Y. Honda, O. Kitao, H. Nakai, 
 T. Vreven, K. Throssell, J. A. Montgomery, Jr., J. E. Peralta, 
 F. Ogliaro, M. J. Bearpark, J. J. Heyd, E. N. Brothers, K. N. Kudin, 
 V. N. Staroverov, T. A. Keith, R. Kobayashi, J. Normand, 
 K. Raghavachari, A. P. Rendell, J. C. Burant, S. S. Iyengar, 
 J. Tomasi, M. Cossi, J. M. Millam, M. Klene, C. Adamo, R. Cammi, 
 J. W. Ochterski, R. L. Martin, K. Morokuma, O. Farkas, 
 J. B. Foresman, and D. J. Fox, Gaussian, Inc., Wallingford CT, 2016.
 
 ******************************************
 Gaussian 16:  ES64L-G16RevB.01 20-Dec-2017
                10-Jul-2023 
 ******************************************
 %nprocshared=4
 Will use up to    4 processors via shared memory.
 %mem=8000mb
 %chk=17.chk
 %mem=8000mb
 ----------------------------------------------------------------------
 #T wB97XD/def2svpp opt=tight freq int(grid=ultrafine) scf=(verytight,q
 c)
 ----------------------------------------------------------------------
 -------
 comment
 -------
 Symbolic Z-matrix:
 Charge =  1 Multiplicity = 2
 C                    0.         1.17246  -1.27135 
 C                     0.        0.34116   0. 
 C                    0.         1.17247   1.27134 
 Cl                   -1.4653   -0.71794   0. 
 Cl                    1.4653   -0.71793   0. 
 H                    -0.89819   1.81192  -1.29564 
 H                    0.         0.52272  -2.15978 
 H                     0.89819   1.81193  -1.29564 
 H                    -0.89819   1.81193   1.29564 
 H                     0.89819   1.81193   1.29564 
 H                     0.        0.52273   2.15977 
 

 GradGradGradGradGradGradGradGradGradGradGradGradGradGradGradGradGradGrad
 Initialization pass.
                           ----------------------------
                           !    Initial Parameters    !
                           ! (Angstroms and Degrees)  !
 --------------------------                            --------------------------
 ! Name  Definition              Value          Derivative Info.                !
 --------------------------------------------------------------------------------
 ! R1    R(1,2)                  1.519          estimate D2E/DX2                !
 ! R2    R(1,6)                  1.1028         estimate D2E/DX2                !
 ! R3    R(1,7)                  1.1007         estimate D2E/DX2                !
 ! R4    R(1,8)                  1.1028         estimate D2E/DX2                !
 ! R5    R(2,3)                  1.519          estimate D2E/DX2                !
 ! R6    R(2,4)                  1.808          estimate D2E/DX2                !
 ! R7    R(2,5)                  1.808          estimate D2E/DX2                !
 ! R8    R(3,9)                  1.1028         estimate D2E/DX2                !
 ! R9    R(3,10)                 1.1028         estimate D2E/DX2                !
 ! R10   R(3,11)                 1.1007         estimate D2E/DX2                !
 ! A1    A(2,1,6)              109.6189         estimate D2E/DX2                !
 ! A2    A(2,1,7)              110.6407         estimate D2E/DX2                !
 ! A3    A(2,1,8)              109.6189         estimate D2E/DX2                !
 ! A4    A(6,1,7)              108.9355         estimate D2E/DX2                !
 ! A5    A(6,1,8)              109.0634         estimate D2E/DX2                !
 ! A6    A(7,1,8)              108.9356         estimate D2E/DX2                !
 ! A7    A(1,2,3)              113.6404         estimate D2E/DX2                !
 ! A8    A(1,2,4)              108.6982         estimate D2E/DX2                !
 ! A9    A(1,2,5)              108.6983         estimate D2E/DX2                !
 ! A10   A(3,2,4)              108.6983         estimate D2E/DX2                !
 ! A11   A(3,2,5)              108.6983         estimate D2E/DX2                !
 ! A12   A(4,2,5)              108.2823         estimate D2E/DX2                !
 ! A13   A(2,3,9)              109.6189         estimate D2E/DX2                !
 ! A14   A(2,3,10)             109.6189         estimate D2E/DX2                !
 ! A15   A(2,3,11)             110.6408         estimate D2E/DX2                !
 ! A16   A(9,3,10)             109.0633         estimate D2E/DX2                !
 ! A17   A(9,3,11)             108.9356         estimate D2E/DX2                !
 ! A18   A(10,3,11)            108.9356         estimate D2E/DX2                !
 ! D1    D(6,1,2,3)            -59.8406         estimate D2E/DX2                !
 ! D2    D(6,1,2,4)             61.3308         estimate D2E/DX2                !
 ! D3    D(6,1,2,5)            178.9879         estimate D2E/DX2                !
 ! D4    D(7,1,2,3)           -180.0            estimate D2E/DX2                !
 ! D5    D(7,1,2,4)            -58.8285         estimate D2E/DX2                !
 ! D6    D(7,1,2,5)             58.8285         estimate D2E/DX2                !
 ! D7    D(8,1,2,3)             59.8406         estimate D2E/DX2                !
 ! D8    D(8,1,2,4)           -178.9879         estimate D2E/DX2                !
 ! D9    D(8,1,2,5)            -61.3309         estimate D2E/DX2                !
 ! D10   D(1,2,3,9)             59.8406         estimate D2E/DX2                !
 ! D11   D(1,2,3,10)           -59.8406         estimate D2E/DX2                !
 ! D12   D(1,2,3,11)          -180.0            estimate D2E/DX2                !
 ! D13   D(4,2,3,9)            -61.3309         estimate D2E/DX2                !
 ! D14   D(4,2,3,10)           178.988          estimate D2E/DX2                !
 ! D15   D(4,2,3,11)            58.8286         estimate D2E/DX2                !
 ! D16   D(5,2,3,9)           -178.988          estimate D2E/DX2                !
 ! D17   D(5,2,3,10)            61.3309         estimate D2E/DX2                !
 ! D18   D(5,2,3,11)           -58.8285         estimate D2E/DX2                !
 --------------------------------------------------------------------------------
 Number of steps in this run=     56 maximum allowed number of steps=    100.
 GradGradGradGradGradGradGradGradGradGradGradGradGradGradGradGradGradGrad

                    Distance matrix (angstroms):
                    1          2          3          4          5
     1  C    0.000000
     2  C    1.519009   0.000000
     3  C    2.542691   1.519008   0.000000
     4  Cl   2.708696   1.807979   2.708697   0.000000
     5  Cl   2.708696   1.807978   2.708697   2.930597   0.000000
     6  H    1.102833   2.156055   2.793755   2.898360   3.696613
     7  H    1.100669   2.167393   3.492098   2.889801   2.889802
     8  H    1.102832   2.156054   2.793754   3.696612   2.898361
     9  H    2.793754   2.156055   1.102833   2.898362   3.696614
    10  H    2.793754   2.156054   1.102833   3.696613   2.898362
    11  H    3.492098   2.167393   1.100669   2.889804   2.889803
                    6          7          8          9         10
     6  H    0.000000
     7  H    1.793186   0.000000
     8  H    1.796375   1.793186   0.000000
     9  H    2.591279   3.795875   3.153044   0.000000
    10  H    3.153045   3.795876   2.591279   1.796374   0.000000
    11  H    3.795876   4.319549   3.795876   1.793186   1.793186
                   11
    11  H    0.000000
 Framework group  C1[X(C3H6Cl2)]
 Deg. of freedom    27
                         Standard orientation:                         
 ---------------------------------------------------------------------
 Center     Atomic      Atomic             Coordinates (Angstroms)
 Number     Number       Type             X           Y           Z
 ---------------------------------------------------------------------
      1          6           0        0.000000    1.172464    1.271348
      2          6           0       -0.000000    0.341163    0.000000
      3          6           0        0.000000    1.172471   -1.271343
      4         17           0        1.465298   -0.717934   -0.000002
      5         17           0       -1.465299   -0.717933   -0.000002
      6          1           0        0.898189    1.811923    1.295644
      7          1           0        0.000001    0.522718    2.159775
      8          1           0       -0.898186    1.811925    1.295644
      9          1           0        0.898188    1.811931   -1.295635
     10          1           0       -0.898186    1.811933   -1.295635
     11          1           0       -0.000000    0.522731   -2.159774
 ---------------------------------------------------------------------
 Rotational constants (GHZ):           3.6526988           2.4253152           2.1340942
    90 basis functions,   173 primitive gaussians,    95 cartesian basis functions
    29 alpha electrons       28 beta electrons
       nuclear repulsion energy       294.4417213363 Hartrees.
 NAtoms=   11 NActive=   11 NUniq=   11 SFac= 1.00D+00 NAtFMM=   60 NAOKFM=F Big=F
 Nuclear repulsion after empirical dispersion term =      294.4370313141 Hartrees.
   1 Symmetry operations used in ECPInt.
 ECPInt:  NShTT=    1081 NPrTT=    4759 LenC2=    1073 LenP2D=    3745.
 LDataN:  DoStor=T MaxTD1= 4 Len=   56
 ExpMin= 1.22D-01 ExpMax= 1.04D+04 ExpMxC= 1.57D+03 IAcc=3 IRadAn=         5 AccDes= 0.00D+00
 Harris functional with IExCor= 4639 and IRadAn=       5 diagonalized for initial guess.
 HarFok:  IExCor= 4639 AccDes= 0.00D+00 IRadAn=         5 IDoV= 1 UseB2=F ITyADJ=14
 ICtDFT=  3500011 ScaDFX=  1.000000  1.000000  1.000000  1.000000
 FoFCou: FMM=F IPFlag=           0 FMFlag=      100000 FMFlg1=           0
         NFxFlg=           0 DoJE=T BraDBF=F KetDBF=T FulRan=T
         wScrn=  0.000000 ICntrl=       500 IOpCl=  0 I1Cent=   200000004 NGrid=           0
         NMat0=    1 NMatS0=      1 NMatT0=    0 NMatD0=    1 NMtDS0=    0 NMtDT0=    0
 Petite list used in FoFCou.
 Initial guess <Sx>= 0.0000 <Sy>= 0.0000 <Sz>= 0.5000 <S**2>= 0.7500 S= 0.5000
     Accept linear search using points  3 and  4.
     Minimum is close to point  3 DX=  2.77D-02 DF= -2.60D-05 DXR=  3.35D-02 DFR=  1.11D-03 which will be used.
     Accept linear search using points  2 and  3.
     Accept linear search using points  1 and  2.
     Accept linear search using points  1 and  2.
     Minimum is close to point  2 DX= -8.90D-04 DF= -6.48D-11 DXR=  8.91D-04 DFR=  7.95D-07 which will be used.
 SCF Done:  E(UwB97XD) =  -1037.51366619     a.u. after    7 cycles
            Convg  =    0.2210D-07                    39 Fock formations.
              S**2 =  0.7558                  -V/T =  2.0031
 <Sx>= 0.0000 <Sy>= 0.0000 <Sz>= 0.5000 <S**2>= 0.7558 S= 0.5029
 <L.S>=  0.00000000000    
 Annihilation of the first spin contaminant:
 S**2 before annihilation     0.7558,   after     0.7500

 **********************************************************************

            Population analysis using the SCF Density.

 **********************************************************************

 Orbital symmetries:
 Alpha Orbitals:
       Occupied  (A) (A) (A) (A) (A) (A) (A) (A) (A) (A) (A) (A)
                 (A) (A) (A) (A) (A) (A) (A) (A) (A) (A) (A) (A)
                 (A) (A) (A) (A) (A)
       Virtual   (A) (A) (A) (A) (A) (A) (A) (A) (A) (A) (A) (A)
                 (A) (A) (A) (A) (A) (A) (A) (A) (A) (A) (A) (A)
                 (A) (A) (A) (A) (A) (A) (A) (A) (A) (A) (A) (A)
                 (A) (A) (A) (A) (A) (A) (A) (A) (A) (A) (A) (A)
                 (A) (A) (A) (A) (A) (A) (A) (A) (A) (A) (A) (A)
                 (A)
 Beta  Orbitals:
       Occupied  (A) (A) (A) (A) (A) (A) (A) (A) (A) (A) (A) (A)
                 (A) (A) (A) (A) (A) (A) (A) (A) (A) (A) (A) (A)
                 (A) (A) (A) (A)
       Virtual   (A) (A) (A) (A) (A) (A) (A) (A) (A) (A) (A) (A)
                 (A) (A) (A) (A) (A) (A) (A) (A) (A) (A) (A) (A)
                 (A) (A) (A) (A) (A) (A) (A) (A) (A) (A) (A) (A)
                 (A) (A) (A) (A) (A) (A) (A) (A) (A) (A) (A) (A)
                 (A) (A) (A) (A) (A) (A) (A) (A) (A) (A) (A) (A)
                 (A) (A)
 The electronic state is 2-A.
 Alpha  occ. eigenvalues -- -101.97152-101.97148 -10.65281 -10.49701 -10.49700
 Alpha  occ. eigenvalues --   -9.87732  -9.87729  -7.63269  -7.63266  -7.62631
 Alpha  occ. eigenvalues --   -7.62630  -7.61779  -7.61779  -1.26879  -1.19334
 Alpha  occ. eigenvalues --   -1.07533  -1.00219  -0.88735  -0.80402  -0.77742
 Alpha  occ. eigenvalues --   -0.75546  -0.70755  -0.69802  -0.68346  -0.66136
 Alpha  occ. eigenvalues --   -0.65642  -0.65300  -0.64434  -0.62995
 Alpha virt. eigenvalues --   -0.16190  -0.12661  -0.02408   0.02598   0.02743
 Alpha virt. eigenvalues --    0.03361   0.05506   0.06179   0.06790   0.08082
 Alpha virt. eigenvalues --    0.24613   0.26334   0.29518   0.30329   0.31725
 Alpha virt. eigenvalues --    0.33846   0.37989   0.43026   0.47621   0.50651
 Alpha virt. eigenvalues --    0.53262   0.53573   0.54395   0.54975   0.55428
 Alpha virt. eigenvalues --    0.57534   0.58464   0.59544   0.60946   0.61145
 Alpha virt. eigenvalues --    0.61793   0.62727   0.64639   0.66186   0.67056
 Alpha virt. eigenvalues --    0.68285   0.68781   0.73630   0.77338   0.85874
 Alpha virt. eigenvalues --    0.87737   0.91881   0.92683   1.04358   1.13419
 Alpha virt. eigenvalues --    1.18964   1.30274   1.45093   1.63722   1.75542
 Alpha virt. eigenvalues --    1.76941   1.79169   1.86088   1.90188   2.01144
 Alpha virt. eigenvalues --    2.02050   2.06954   2.19358   2.22377   2.38726
 Alpha virt. eigenvalues --    2.47091
  Beta  occ. eigenvalues -- -101.96782-101.96778 -10.65317 -10.49694 -10.49692
  Beta  occ. eigenvalues --   -9.87338  -9.87336  -7.62537  -7.62535  -7.61823
  Beta  occ. eigenvalues --   -7.61821  -7.61505  -7.61505  -1.25405  -1.16642
  Beta  occ. eigenvalues --   -1.06692  -1.00182  -0.87931  -0.79739  -0.76458
  Beta  occ. eigenvalues --   -0.75352  -0.69452  -0.67509  -0.67028  -0.65244
  Beta  occ. eigenvalues --   -0.63752  -0.62587  -0.62420
  Beta virt. eigenvalues --   -0.42489  -0.15286  -0.12193  -0.02388   0.02632
  Beta virt. eigenvalues --    0.02874   0.03386   0.05509   0.06359   0.06821
  Beta virt. eigenvalues --    0.08145   0.24936   0.26958   0.29640   0.31311
  Beta virt. eigenvalues --    0.31930   0.34363   0.38993   0.43758   0.48330
  Beta virt. eigenvalues --    0.51133   0.53404   0.54710   0.55510   0.55736
  Beta virt. eigenvalues --    0.56009   0.58191   0.60520   0.61017   0.61533
  Beta virt. eigenvalues --    0.61814   0.62773   0.63818   0.65600   0.67193
  Beta virt. eigenvalues --    0.67652   0.69691   0.70163   0.74207   0.78211
  Beta virt. eigenvalues --    0.86348   0.89915   0.92479   0.93421   1.04632
  Beta virt. eigenvalues --    1.14148   1.19713   1.30304   1.45385   1.63723
  Beta virt. eigenvalues --    1.75518   1.77002   1.79251   1.86106   1.90196
  Beta virt. eigenvalues --    2.01197   2.02082   2.07035   2.19377   2.22382
  Beta virt. eigenvalues --    2.38713   2.47024
          Condensed to atoms (all electrons):
          Atomic-Atomic Spin Densities.
 Mulliken charges and spin densities:
               1          2
     1  C   -0.232911   0.004298
     2  C   -0.333059  -0.047208
     3  C   -0.232910   0.004298
     4  Cl   0.305251   0.516688
     5  Cl   0.305251   0.516687
     6  H    0.198629   0.001554
     7  H    0.196932  -0.000490
     8  H    0.198629   0.001554
     9  H    0.198629   0.001554
    10  H    0.198629   0.001554
    11  H    0.196932  -0.000490
 Sum of Mulliken charges =   1.00000   1.00000
 Mulliken charges and spin densities with hydrogens summed into heavy atoms:
               1          2
     1  C    0.361279   0.006917
     2  C   -0.333059  -0.047208
     3  C    0.361279   0.006917
     4  Cl   0.305251   0.516688
     5  Cl   0.305251   0.516687
 Electronic spatial extent (au):  <R**2>=            650.2061
 Charge=              1.0000 electrons
 Dipole moment (field-independent basis, Debye):
    X=              0.0000    Y=              1.1459    Z=              0.0000  Tot=              1.1459
                          Isotropic Fermi Contact Couplings
        Atom                 a.u.       MegaHertz       Gauss      10(-4) cm-1
     1  C(13)             -0.00188      -2.11605      -0.75506      -0.70584
     2  C(13)             -0.02024     -22.75256      -8.11868      -7.58944
     3  C(13)             -0.00188      -2.11605      -0.75506      -0.70584
     4  Cl(35)             0.06754      29.61218      10.56636       9.87756
     5  Cl(35)             0.06754      29.61216      10.56635       9.87755
     6  H(1)               0.00148       6.61479       2.36032       2.20646
     7  H(1)              -0.00022      -0.99469      -0.35493      -0.33179
     8  H(1)               0.00148       6.61471       2.36029       2.20643
     9  H(1)               0.00148       6.61477       2.36031       2.20645
    10  H(1)               0.00148       6.61475       2.36031       2.20644
    11  H(1)              -0.00022      -0.99469      -0.35493      -0.33179
 --------------------------------------------------------
       Center         ----  Spin Dipole Couplings  ----
                      3XX-RR        3YY-RR        3ZZ-RR
 --------------------------------------------------------
     1   Atom        0.012364     -0.004340     -0.008024
     2   Atom        0.015680     -0.006705     -0.008975
     3   Atom        0.012364     -0.004340     -0.008024
     4   Atom        1.098666      0.555745     -1.654412
     5   Atom        1.098661      0.555748     -1.654410
     6   Atom       -0.001391      0.004089     -0.002699
     7   Atom       -0.000997     -0.001774      0.002771
     8   Atom       -0.001391      0.004089     -0.002699
     9   Atom       -0.001391      0.004089     -0.002699
    10   Atom       -0.001391      0.004089     -0.002699
    11   Atom       -0.000997     -0.001774      0.002771
 --------------------------------------------------------
                        XY            XZ            YZ
 --------------------------------------------------------
     1   Atom        0.000000     -0.000000      0.005255
     2   Atom        0.000000     -0.000000     -0.000000
     3   Atom       -0.000000      0.000000     -0.005255
     4   Atom        2.502845      0.000004      0.000004
     5   Atom       -2.502842     -0.000007      0.000006
     6   Atom        0.001041     -0.000343      0.003981
     7   Atom       -0.000000     -0.000000      0.004383
     8   Atom       -0.001041      0.000343      0.003981
     9   Atom        0.001041      0.000343     -0.003981
    10   Atom       -0.001041     -0.000343     -0.003981
    11   Atom       -0.000000      0.000000     -0.004383
 --------------------------------------------------------


 ---------------------------------------------------------------------------------
              Anisotropic Spin Dipole Couplings in Principal Axis System
 ---------------------------------------------------------------------------------

       Atom             a.u.   MegaHertz   Gauss  10(-4) cm-1        Axes

              Baa    -0.0118    -1.577    -0.563    -0.526  0.0000 -0.5785  0.8157
     1 C(13)  Bbb    -0.0006    -0.082    -0.029    -0.027 -0.0000  0.8157  0.5785
              Bcc     0.0124     1.659     0.592     0.553  1.0000  0.0000  0.0000
 
              Baa    -0.0090    -1.204    -0.430    -0.402  0.0000  0.0000  1.0000
     2 C(13)  Bbb    -0.0067    -0.900    -0.321    -0.300 -0.0000  1.0000 -0.0000
              Bcc     0.0157     2.104     0.751     0.702  1.0000  0.0000 -0.0000
 
              Baa    -0.0118    -1.577    -0.563    -0.526  0.0000  0.5785  0.8157
     3 C(13)  Bbb    -0.0006    -0.082    -0.029    -0.027  0.0000  0.8157 -0.5785
              Bcc     0.0124     1.659     0.592     0.553  1.0000 -0.0000  0.0000
 
              Baa    -1.6903   -88.467   -31.567   -29.509 -0.6679  0.7443  0.0000
     4 Cl(35) Bbb    -1.6544   -86.588   -30.897   -28.883 -0.0000 -0.0000  1.0000
              Bcc     3.3447   175.055    62.464    58.392  0.7443  0.6679  0.0000
 
              Baa    -1.6903   -88.467   -31.567   -29.509  0.6679  0.7443  0.0000
     5 Cl(35) Bbb    -1.6544   -86.588   -30.897   -28.883  0.0000 -0.0000  1.0000
              Bcc     3.3447   175.055    62.464    58.392  0.7443 -0.6679 -0.0000
 
              Baa    -0.0047    -2.512    -0.896    -0.838  0.2237 -0.4237  0.8778
     6 H(1)   Bbb    -0.0013    -0.697    -0.249    -0.233  0.9686 -0.0035 -0.2485
              Bcc     0.0060     3.209     1.145     1.070  0.1084  0.9058  0.4096
 
              Baa    -0.0044    -2.368    -0.845    -0.790  0.0000  0.8545 -0.5195
     7 H(1)   Bbb    -0.0010    -0.532    -0.190    -0.177  1.0000 -0.0000  0.0000
              Bcc     0.0054     2.900     1.035     0.967 -0.0000  0.5195  0.8545
 
              Baa    -0.0047    -2.512    -0.896    -0.838 -0.2237 -0.4237  0.8778
     8 H(1)   Bbb    -0.0013    -0.697    -0.249    -0.233  0.9686  0.0035  0.2485
              Bcc     0.0060     3.209     1.145     1.070 -0.1084  0.9058  0.4096
 
              Baa    -0.0047    -2.512    -0.896    -0.838 -0.2237  0.4237  0.8778
     9 H(1)   Bbb    -0.0013    -0.697    -0.249    -0.233  0.9686 -0.0035  0.2485
              Bcc     0.0060     3.209     1.145     1.070  0.1084  0.9058 -0.4096
 
              Baa    -0.0047    -2.512    -0.896    -0.838  0.2237  0.4237  0.8778
    10 H(1)   Bbb    -0.0013    -0.697    -0.249    -0.233  0.9686  0.0035 -0.2485
              Bcc     0.0060     3.209     1.145     1.070 -0.1084  0.9058 -0.4096
 
              Baa    -0.0044    -2.368    -0.845    -0.790 -0.0000  0.8545  0.5195
    11 H(1)   Bbb    -0.0010    -0.532    -0.190    -0.177  1.0000  0.0000 -0.0000
              Bcc     0.0054     2.900     1.035     0.967  0.0000 -0.5195  0.8545
 

 ---------------------------------------------------------------------------------

   1 Symmetry operations used in ECPInt.
 ECPInt:  NShTT=    1081 NPrTT=    4759 LenC2=    1073 LenP2D=    3745.
 LDataN:  DoStor=T MaxTD1= 5 Len=  102
 Calling FoFJK, ICntrl=      2127 FMM=F ISym2X=0 I1Cent= 0 IOpClX= 1 NMat=1 NMatS=1 NMatT=0.

 GradGradGradGradGradGradGradGradGradGradGradGradGradGradGradGradGradGrad
 FormGI is forming the generalized inverse of G from B-inverse, IUseBI=4.
 Internal  Forces:  Max     0.020624926 RMS     0.006061575
 Step number   1 out of a maximum of   56
 All quantities printed in internal units (Hartrees-Bohrs-Radians)
 Mixed Optimization -- RFO/linear search
 Second derivative matrix not updated -- first step.
 ITU=  0
     Eigenvalues ---    0.00515   0.00515   0.05443   0.05758   0.05758
     Eigenvalues ---    0.05865   0.05865   0.07139   0.13142   0.16000
     Eigenvalues ---    0.16000   0.16000   0.16000   0.16000   0.16000
     Eigenvalues ---    0.19163   0.25000   0.25498   0.25498   0.30462
     Eigenvalues ---    0.30462   0.33371   0.33371   0.33371   0.33371
     Eigenvalues ---    0.33608   0.33608
 Linear search not attempted -- first point.
 Iteration  1 RMS(Cart)=  0.06420638 RMS(Int)=  0.00423179
 Iteration  2 RMS(Cart)=  0.00489600 RMS(Int)=  0.00122165
 Iteration  3 RMS(Cart)=  0.00000877 RMS(Int)=  0.00122164
 Iteration  4 RMS(Cart)=  0.00000001 RMS(Int)=  0.00122164
 Variable       Old X    -DE/DX   Delta X   Delta X   Delta X     New X
                                 (Linear)    (Quad)   (Total)
    R1        2.87051  -0.00122   0.00000  -0.00379  -0.00379   2.86672
    R2        2.08405   0.00043   0.00000   0.00122   0.00122   2.08527
    R3        2.07996   0.00098   0.00000   0.00278   0.00278   2.08274
    R4        2.08405   0.00043   0.00000   0.00122   0.00122   2.08527
    R5        2.87051  -0.00122   0.00000  -0.00379  -0.00379   2.86672
    R6        3.41658  -0.00339   0.00000  -0.01243  -0.01243   3.40416
    R7        3.41658  -0.00339   0.00000  -0.01243  -0.01243   3.40416
    R8        2.08405   0.00043   0.00000   0.00122   0.00122   2.08527
    R9        2.08405   0.00043   0.00000   0.00122   0.00122   2.08527
   R10        2.07996   0.00098   0.00000   0.00278   0.00278   2.08274
    A1        1.91321  -0.00136   0.00000  -0.00976  -0.00985   1.90336
    A2        1.93104   0.00359   0.00000   0.02443   0.02443   1.95548
    A3        1.91321  -0.00136   0.00000  -0.00976  -0.00985   1.90336
    A4        1.90128  -0.00042   0.00000   0.00177   0.00178   1.90306
    A5        1.90352  -0.00005   0.00000  -0.00873  -0.00892   1.89460
    A6        1.90129  -0.00042   0.00000   0.00177   0.00178   1.90306
    A7        1.98340  -0.00046   0.00000   0.06024   0.05534   2.03874
    A8        1.89714   0.00495   0.00000   0.03384   0.03082   1.92796
    A9        1.89714   0.00495   0.00000   0.03384   0.03082   1.92796
   A10        1.89714   0.00495   0.00000   0.03384   0.03082   1.92796
   A11        1.89714   0.00495   0.00000   0.03384   0.03082   1.92797
   A12        1.88988  -0.02062   0.00000  -0.21111  -0.20956   1.68032
   A13        1.91321  -0.00136   0.00000  -0.00976  -0.00985   1.90336
   A14        1.91321  -0.00136   0.00000  -0.00976  -0.00985   1.90336
   A15        1.93105   0.00359   0.00000   0.02443   0.02443   1.95548
   A16        1.90351  -0.00005   0.00000  -0.00873  -0.00891   1.89460
   A17        1.90128  -0.00042   0.00000   0.00177   0.00178   1.90306
   A18        1.90128  -0.00042   0.00000   0.00177   0.00178   1.90306
    D1       -1.04442   0.00087   0.00000   0.01134   0.01129  -1.03313
    D2        1.07042   0.01042   0.00000   0.11853   0.11917   1.18960
    D3        3.12393  -0.00869   0.00000  -0.09584  -0.09659   3.02734
    D4       -3.14159  -0.00000   0.00000  -0.00000  -0.00000  -3.14159
    D5       -1.02675   0.00955   0.00000   0.10718   0.10788  -0.91887
    D6        1.02675  -0.00955   0.00000  -0.10719  -0.10788   0.91887
    D7        1.04442  -0.00087   0.00000  -0.01134  -0.01129   1.03312
    D8       -3.12393   0.00869   0.00000   0.09584   0.09659  -3.02734
    D9       -1.07043  -0.01042   0.00000  -0.11853  -0.11917  -1.18960
   D10        1.04441  -0.00087   0.00000  -0.01134  -0.01129   1.03313
   D11       -1.04441   0.00087   0.00000   0.01134   0.01129  -1.03312
   D12       -3.14159   0.00000   0.00000   0.00000   0.00000  -3.14159
   D13       -1.07043  -0.01042   0.00000  -0.11853  -0.11917  -1.18960
   D14        3.12393  -0.00869   0.00000  -0.09584  -0.09659   3.02734
   D15        1.02675  -0.00955   0.00000  -0.10719  -0.10788   0.91887
   D16       -3.12393   0.00869   0.00000   0.09584   0.09659  -3.02734
   D17        1.07043   0.01042   0.00000   0.11853   0.11917   1.18960
   D18       -1.02675   0.00955   0.00000   0.10719   0.10788  -0.91887
         Item               Value     Threshold  Converged?
 Maximum Force            0.020625     0.000015     NO 
 RMS     Force            0.006062     0.000010     NO 
 Maximum Displacement     0.233768     0.000060     NO 
 RMS     Displacement     0.065988     0.000040     NO 
 GradGradGradGradGradGradGradGradGradGradGradGradGradGradGradGradGradGrad

                    Distance matrix (angstroms):
                    1          2          3          4          5
     1  C    0.000000
     2  C    1.517004   0.000000
     3  C    2.584302   1.517004   0.000000
     4  Cl   2.730788   1.801402   2.730788   0.000000
     5  Cl   2.730788   1.801402   2.730788   2.683188   0.000000
     6  H    1.103478   2.147551   2.834759   2.985275   3.703962
     7  H    1.102140   2.184228   3.532773   2.890599   2.890599
     8  H    1.103478   2.147551   2.834759   3.703962   2.985276
     9  H    2.834759   2.147551   1.103478   2.985275   3.703962
    10  H    2.834759   2.147551   1.103478   3.703962   2.985276
    11  H    3.532773   2.184228   1.102139   2.890600   2.890599
                    6          7          8          9         10
     6  H    0.000000
     7  H    1.796046   0.000000
     8  H    1.791700   1.796047   0.000000
     9  H    2.638312   3.837577   3.189181   0.000000
    10  H    3.189181   3.837577   2.638311   1.791700   0.000000
    11  H    3.837578   4.359310   3.837578   1.796047   1.796047
                   11
    11  H    0.000000
 Framework group  C1[X(C3H6Cl2)]
 Deg. of freedom    27
                         Standard orientation:                         
 ---------------------------------------------------------------------
 Center     Atomic      Atomic             Coordinates (Angstroms)
 Number     Number       Type             X           Y           Z
 ---------------------------------------------------------------------
      1          6           0       -0.000000    1.230958    1.292155
      2          6           0       -0.000000    0.436200    0.000001
      3          6           0       -0.000000    1.230965   -1.292147
      4         17           0        1.341594   -0.765954   -0.000002
      5         17           0       -1.341594   -0.765955   -0.000002
      6          1           0        0.895850    1.874687    1.319161
      7          1           0        0.000000    0.577466    2.179656
      8          1           0       -0.895850    1.874688    1.319161
      9          1           0        0.895850    1.874695   -1.319150
     10          1           0       -0.895850    1.874695   -1.319150
     11          1           0       -0.000001    0.577479   -2.179653
 ---------------------------------------------------------------------
 Rotational constants (GHZ):           3.3629471           2.7203475           2.2690210
    90 basis functions,   173 primitive gaussians,    95 cartesian basis functions
    29 alpha electrons       28 beta electrons
       nuclear repulsion energy       298.2360016551 Hartrees.
 NAtoms=   11 NActive=   11 NUniq=   11 SFac= 1.00D+00 NAtFMM=   60 NAOKFM=F Big=F
 Nuclear repulsion after empirical dispersion term =      298.2313439339 Hartrees.
   1 Symmetry operations used in ECPInt.
 ECPInt:  NShTT=    1081 NPrTT=    4759 LenC2=    1075 LenP2D=    3739.
 LDataN:  DoStor=T MaxTD1= 4 Len=   56
 Initial guess from the checkpoint file:  "17.chk"
 B after Tr=     0.000000    0.000000   -0.000000
         Rot=    1.000000   -0.000000   -0.000000   -0.000000 Ang=  -0.00 deg.
 Initial guess <Sx>= 0.0000 <Sy>= 0.0000 <Sz>= 0.5000 <S**2>= 0.7550 S= 0.5025
 ExpMin= 1.22D-01 ExpMax= 1.04D+04 ExpMxC= 1.57D+03 IAcc=3 IRadAn=         5 AccDes= 0.00D+00
 Harris functional with IExCor= 4639 and IRadAn=       5 diagonalized for initial guess.
 HarFok:  IExCor= 4639 AccDes= 0.00D+00 IRadAn=         5 IDoV= 1 UseB2=F ITyADJ=14
 ICtDFT=  3500011 ScaDFX=  1.000000  1.000000  1.000000  1.000000
 FoFCou: FMM=F IPFlag=           0 FMFlag=      100000 FMFlg1=           0
         NFxFlg=           0 DoJE=T BraDBF=F KetDBF=T FulRan=T
         wScrn=  0.000000 ICntrl=       500 IOpCl=  0 I1Cent=   200000004 NGrid=           0
         NMat0=    1 NMatS0=      1 NMatT0=    0 NMatD0=    1 NMtDS0=    0 NMtDT0=    0
 Petite list used in FoFCou.
     Minimum is close to point  4 DX=  1.18D-01 DF= -5.09D-05 DXR=  8.96D-02 DFR=  8.11D-03 which will be used.
     Accept linear search using points  2 and  3.
     Accept linear search using points  1 and  2.
     Minimum is close to point  2 DX= -5.13D-02 DF= -2.73D-06 DXR=  4.89D-02 DFR=  2.81D-03 which will be used.
     Accept linear search using points  1 and  2.
     Accept linear search using points  1 and  2.
     Accept linear search using points  1 and  2.
     Accept linear search using points  1 and  2.
     Accept linear search using points  1 and  2.
     Minimum is close to point  2 DX= -6.48D-03 DF= -1.89D-08 DXR=  6.52D-03 DFR=  4.27D-05 which will be used.
     Minimum is close to point  2 DX=  4.13D-05 DF=  0.00D+00 DXR=  4.13D-05 DFR=  0.00D+00 which will be used.
 SCF Done:  E(UwB97XD) =  -1037.52769320     a.u. after   13 cycles
            Convg  =    0.1509D-06                    51 Fock formations.
              S**2 =  0.7543                  -V/T =  2.0030
 <Sx>= 0.0000 <Sy>= 0.0000 <Sz>= 0.5000 <S**2>= 0.7543 S= 0.5022
 <L.S>=  0.00000000000    
 Annihilation of the first spin contaminant:
 S**2 before annihilation     0.7543,   after     0.7500
   1 Symmetry operations used in ECPInt.
 ECPInt:  NShTT=    1081 NPrTT=    4759 LenC2=    1075 LenP2D=    3739.
 LDataN:  DoStor=T MaxTD1= 5 Len=  102
 Calling FoFJK, ICntrl=      2127 FMM=F ISym2X=0 I1Cent= 0 IOpClX= 1 NMat=1 NMatS=1 NMatT=0.

 GradGradGradGradGradGradGradGradGradGradGradGradGradGradGradGradGradGrad
 Using GEDIIS/GDIIS optimizer.
 FormGI is forming the generalized inverse of G from B-inverse, IUseBI=4.
 Internal  Forces:  Max     0.012422061 RMS     0.003842300
 Step number   2 out of a maximum of   56
 All quantities printed in internal units (Hartrees-Bohrs-Radians)
 Mixed Optimization -- RFO/linear search
 Trust test= 1.30D+00 RLast= 4.41D-01 DXMaxT set to 5.05D-01
 ITU=  1  0
 Use linear search instead of GDIIS.
     Eigenvalues ---    0.00515   0.00515   0.03845   0.04323   0.05614
     Eigenvalues ---    0.05614   0.05966   0.05979   0.14774   0.15983
     Eigenvalues ---    0.16000   0.16000   0.16000   0.16000   0.16204
     Eigenvalues ---    0.20276   0.24357   0.25498   0.27259   0.30462
     Eigenvalues ---    0.30912   0.33371   0.33371   0.33371   0.33381
     Eigenvalues ---    0.33608   0.33722
 Quartic linear search produced a step of  0.68631.
 Iteration  1 RMS(Cart)=  0.06107602 RMS(Int)=  0.00325113
 Iteration  2 RMS(Cart)=  0.00293268 RMS(Int)=  0.00127219
 Iteration  3 RMS(Cart)=  0.00000297 RMS(Int)=  0.00127219
 Iteration  4 RMS(Cart)=  0.00000000 RMS(Int)=  0.00127219
 Variable       Old X    -DE/DX   Delta X   Delta X   Delta X     New X
                                 (Linear)    (Quad)   (Total)
    R1        2.86672  -0.00436  -0.00260  -0.02147  -0.02407   2.84265
    R2        2.08527  -0.00010   0.00084  -0.00125  -0.00041   2.08486
    R3        2.08274  -0.00082   0.00191  -0.00579  -0.00388   2.07886
    R4        2.08527  -0.00010   0.00084  -0.00125  -0.00041   2.08486
    R5        2.86672  -0.00436  -0.00260  -0.02147  -0.02407   2.84265
    R6        3.40416   0.00504  -0.00853   0.04100   0.03247   3.43663
    R7        3.40416   0.00504  -0.00853   0.04100   0.03247   3.43663
    R8        2.08527  -0.00010   0.00084  -0.00125  -0.00041   2.08486
    R9        2.08527  -0.00010   0.00084  -0.00125  -0.00041   2.08486
   R10        2.08274  -0.00082   0.00191  -0.00579  -0.00388   2.07886
    A1        1.90336  -0.00049  -0.00676   0.00140  -0.00543   1.89793
    A2        1.95548  -0.00032   0.01677  -0.01977  -0.00301   1.95247
    A3        1.90336  -0.00049  -0.00676   0.00140  -0.00543   1.89793
    A4        1.90306   0.00066   0.00122   0.00664   0.00786   1.91092
    A5        1.89460  -0.00001  -0.00612   0.00435  -0.00193   1.89267
    A6        1.90306   0.00066   0.00122   0.00664   0.00786   1.91092
    A7        2.03874  -0.00608   0.03798  -0.03414  -0.00148   2.03726
    A8        1.92796   0.00443   0.02115   0.01912   0.03737   1.96533
    A9        1.92796   0.00443   0.02115   0.01912   0.03737   1.96533
   A10        1.92796   0.00443   0.02115   0.01912   0.03737   1.96533
   A11        1.92797   0.00443   0.02115   0.01912   0.03737   1.96533
   A12        1.68032  -0.01242  -0.14382  -0.04207  -0.18359   1.49673
   A13        1.90336  -0.00049  -0.00676   0.00140  -0.00543   1.89793
   A14        1.90336  -0.00049  -0.00676   0.00140  -0.00543   1.89793
   A15        1.95548  -0.00032   0.01677  -0.01977  -0.00301   1.95247
   A16        1.89460  -0.00001  -0.00612   0.00435  -0.00193   1.89267
   A17        1.90306   0.00066   0.00122   0.00664   0.00786   1.91092
   A18        1.90306   0.00066   0.00122   0.00664   0.00786   1.91092
    D1       -1.03313   0.00029   0.00775  -0.00344   0.00427  -1.02886
    D2        1.18960   0.00541   0.08179   0.01191   0.09441   1.28401
    D3        3.02734  -0.00484  -0.06629  -0.01879  -0.08588   2.94145
    D4       -3.14159  -0.00000  -0.00000   0.00000  -0.00000  -3.14159
    D5       -0.91887   0.00513   0.07404   0.01535   0.09015  -0.82872
    D6        0.91887  -0.00513  -0.07404  -0.01535  -0.09015   0.82872
    D7        1.03312  -0.00029  -0.00775   0.00344  -0.00427   1.02886
    D8       -3.02734   0.00484   0.06629   0.01879   0.08588  -2.94145
    D9       -1.18960  -0.00541  -0.08179  -0.01191  -0.09441  -1.28401
   D10        1.03313  -0.00029  -0.00775   0.00344  -0.00427   1.02886
   D11       -1.03312   0.00029   0.00775  -0.00344   0.00427  -1.02886
   D12       -3.14159   0.00000   0.00000  -0.00000  -0.00000  -3.14159
   D13       -1.18960  -0.00541  -0.08179  -0.01191  -0.09441  -1.28401
   D14        3.02734  -0.00484  -0.06629  -0.01879  -0.08588   2.94145
   D15        0.91887  -0.00513  -0.07404  -0.01535  -0.09015   0.82872
   D16       -3.02734   0.00484   0.06629   0.01879   0.08588  -2.94145
   D17        1.18960   0.00541   0.08179   0.01191   0.09441   1.28401
   D18       -0.91887   0.00513   0.07404   0.01535   0.09015  -0.82872
         Item               Value     Threshold  Converged?
 Maximum Force            0.012422     0.000015     NO 
 RMS     Force            0.003842     0.000010     NO 
 Maximum Displacement     0.196815     0.000060     NO 
 RMS     Displacement     0.062148     0.000040     NO 
 GradGradGradGradGradGradGradGradGradGradGradGradGradGradGradGradGradGrad

                    Distance matrix (angstroms):
                    1          2          3          4          5
     1  C    0.000000
     2  C    1.504267   0.000000
     3  C    2.561437   1.504267   0.000000
     4  Cl   2.770039   1.818586   2.770039   0.000000
     5  Cl   2.770039   1.818586   2.770039   2.474888   0.000000
     6  H    1.103262   2.132269   2.806483   3.075741   3.726994
     7  H    1.100086   2.169278   3.507373   2.893476   2.893476
     8  H    1.103262   2.132269   2.806483   3.726994   3.075741
     9  H    2.806483   2.132269   1.103262   3.075741   3.726994
    10  H    2.806483   2.132269   1.103262   3.726994   3.075742
    11  H    3.507373   2.169278   1.100086   2.893476   2.893476
                    6          7          8          9         10
     6  H    0.000000
     7  H    1.799211   0.000000
     8  H    1.790102   1.799211   0.000000
     9  H    2.599775   3.807183   3.156469   0.000000
    10  H    3.156469   3.807183   2.599775   1.790102   0.000000
    11  H    3.807183   4.330177   3.807183   1.799211   1.799211
                   11
    11  H    0.000000
 Framework group  C1[X(C3H6Cl2)]
 Deg. of freedom    27
                         Standard orientation:                         
 ---------------------------------------------------------------------
 Center     Atomic      Atomic             Coordinates (Angstroms)
 Number     Number       Type             X           Y           Z
 ---------------------------------------------------------------------
      1          6           0        1.303471    0.000001    1.280722
      2          6           0        0.514437    0.000001    0.000002
      3          6           0        1.303479    0.000001   -1.280715
      4         17           0       -0.818223   -1.237444   -0.000002
      5         17           0       -0.818225    1.237443   -0.000002
      6          1           0        1.948222   -0.895050    1.299893
      7          1           0        0.649192    0.000000    2.165090
      8          1           0        1.948221    0.895052    1.299893
      9          1           0        1.948230   -0.895050   -1.299882
     10          1           0        1.948229    0.895052   -1.299882
     11          1           0        0.649205    0.000001   -2.165087
 ---------------------------------------------------------------------
 Rotational constants (GHZ):           3.1283559           3.0453894           2.3370709
    90 basis functions,   173 primitive gaussians,    95 cartesian basis functions
    29 alpha electrons       28 beta electrons
       nuclear repulsion energy       301.3447464925 Hartrees.
 NAtoms=   11 NActive=   11 NUniq=   11 SFac= 1.00D+00 NAtFMM=   60 NAOKFM=F Big=F
 Nuclear repulsion after empirical dispersion term =      301.3400762116 Hartrees.
   1 Symmetry operations used in ECPInt.
 ECPInt:  NShTT=    1081 NPrTT=    4759 LenC2=    1077 LenP2D=    3749.
 LDataN:  DoStor=T MaxTD1= 4 Len=   56
 Initial guess from the checkpoint file:  "17.chk"
 B after Tr=    -0.000000    0.000000    0.000000
         Rot=    0.707107   -0.000000    0.000000    0.707107 Ang= -90.00 deg.
 Initial guess <Sx>= 0.0000 <Sy>= 0.0000 <Sz>= 0.5000 <S**2>= 0.7540 S= 0.5020
 ExpMin= 1.22D-01 ExpMax= 1.04D+04 ExpMxC= 1.57D+03 IAcc=3 IRadAn=         5 AccDes= 0.00D+00
 Harris functional with IExCor= 4639 and IRadAn=       5 diagonalized for initial guess.
 HarFok:  IExCor= 4639 AccDes= 0.00D+00 IRadAn=         5 IDoV= 1 UseB2=F ITyADJ=14
 ICtDFT=  3500011 ScaDFX=  1.000000  1.000000  1.000000  1.000000
 FoFCou: FMM=F IPFlag=           0 FMFlag=      100000 FMFlg1=           0
         NFxFlg=           0 DoJE=T BraDBF=F KetDBF=T FulRan=T
         wScrn=  0.000000 ICntrl=       500 IOpCl=  0 I1Cent=   200000004 NGrid=           0
         NMat0=    1 NMatS0=      1 NMatT0=    0 NMatD0=    1 NMtDS0=    0 NMtDT0=    0
 Petite list used in FoFCou.
     Accept linear search using points  1 and  2.
     Minimum is close to point  2 DX= -4.37D-02 DF= -1.30D-06 DXR=  3.78D-02 DFR=  1.93D-03 which will be used.
     Accept linear search using points  1 and  2.
     Accept linear search using points  1 and  2.
     Accept linear search using points  1 and  2.
     Accept linear search using points  1 and  2.
     Minimum is close to point  2 DX= -2.19D-03 DF= -1.10D-09 DXR=  2.19D-03 DFR=  4.82D-06 which will be used.
     Minimum is close to point  2 DX=  1.37D-05 DF=  0.00D+00 DXR=  1.37D-05 DFR=  0.00D+00 which will be used.
 SCF Done:  E(UwB97XD) =  -1037.53132967     a.u. after   11 cycles
            Convg  =    0.3004D-07                    47 Fock formations.
              S**2 =  0.7535                  -V/T =  2.0030
 <Sx>= 0.0000 <Sy>= 0.0000 <Sz>= 0.5000 <S**2>= 0.7535 S= 0.5017
 <L.S>=  0.00000000000    
 Annihilation of the first spin contaminant:
 S**2 before annihilation     0.7535,   after     0.7500
   1 Symmetry operations used in ECPInt.
 ECPInt:  NShTT=    1081 NPrTT=    4759 LenC2=    1077 LenP2D=    3749.
 LDataN:  DoStor=T MaxTD1= 5 Len=  102
 Calling FoFJK, ICntrl=      2127 FMM=F ISym2X=0 I1Cent= 0 IOpClX= 1 NMat=1 NMatS=1 NMatT=0.

 GradGradGradGradGradGradGradGradGradGradGradGradGradGradGradGradGradGrad
 Using GEDIIS/GDIIS optimizer.
 FormGI is forming the generalized inverse of G from B-inverse, IUseBI=4.
 Internal  Forces:  Max     0.010684178 RMS     0.003076218
 Step number   3 out of a maximum of   56
 All quantities printed in internal units (Hartrees-Bohrs-Radians)
 Mixed Optimization -- RFO/linear search
 Trust test= 5.97D-01 RLast= 3.75D-01 DXMaxT set to 8.49D-01
 ITU=  1  1  0
 Use linear search instead of GDIIS.
     Eigenvalues ---    0.00515   0.00515   0.03704   0.05641   0.05641
     Eigenvalues ---    0.05989   0.06031   0.07394   0.15642   0.15968
     Eigenvalues ---    0.16000   0.16000   0.16000   0.16000   0.16259
     Eigenvalues ---    0.20814   0.24647   0.25498   0.29732   0.30418
     Eigenvalues ---    0.30462   0.33371   0.33371   0.33371   0.33379
     Eigenvalues ---    0.33608   0.33686
 Quartic linear search produced a step of -0.20711.
 Iteration  1 RMS(Cart)=  0.01466077 RMS(Int)=  0.00015956
 Iteration  2 RMS(Cart)=  0.00013681 RMS(Int)=  0.00010996
 Iteration  3 RMS(Cart)=  0.00000002 RMS(Int)=  0.00010996
 Variable       Old X    -DE/DX   Delta X   Delta X   Delta X     New X
                                 (Linear)    (Quad)   (Total)
    R1        2.84265  -0.00028   0.00498  -0.00563  -0.00064   2.84201
    R2        2.08486   0.00002   0.00008  -0.00000   0.00008   2.08495
    R3        2.07886   0.00030   0.00080   0.00001   0.00081   2.07967
    R4        2.08486   0.00002   0.00008  -0.00000   0.00008   2.08495
    R5        2.84265  -0.00028   0.00498  -0.00563  -0.00064   2.84201
    R6        3.43663   0.01068  -0.00673   0.03931   0.03259   3.46922
    R7        3.43663   0.01068  -0.00673   0.03931   0.03259   3.46922
    R8        2.08486   0.00002   0.00008  -0.00000   0.00008   2.08495
    R9        2.08486   0.00002   0.00008  -0.00000   0.00008   2.08495
   R10        2.07886   0.00030   0.00080   0.00001   0.00081   2.07967
    A1        1.89793  -0.00051   0.00112  -0.00491  -0.00380   1.89414
    A2        1.95247   0.00186   0.00062   0.01129   0.01191   1.96438
    A3        1.89793  -0.00051   0.00113  -0.00491  -0.00380   1.89413
    A4        1.91092  -0.00045  -0.00163   0.00135  -0.00029   1.91064
    A5        1.89267   0.00001   0.00040  -0.00470  -0.00432   1.88835
    A6        1.91092  -0.00045  -0.00163   0.00134  -0.00029   1.91064
    A7        2.03726   0.00686   0.00031   0.01697   0.01773   2.05499
    A8        1.96533  -0.00357  -0.00774  -0.00403  -0.01154   1.95379
    A9        1.96533  -0.00357  -0.00774  -0.00403  -0.01154   1.95379
   A10        1.96533  -0.00357  -0.00774  -0.00403  -0.01154   1.95379
   A11        1.96533  -0.00357  -0.00774  -0.00403  -0.01154   1.95379
   A12        1.49673   0.00647   0.03802  -0.00881   0.02894   1.52568
   A13        1.89793  -0.00051   0.00112  -0.00491  -0.00380   1.89414
   A14        1.89793  -0.00051   0.00112  -0.00491  -0.00380   1.89414
   A15        1.95247   0.00186   0.00062   0.01129   0.01191   1.96438
   A16        1.89267   0.00001   0.00040  -0.00470  -0.00432   1.88835
   A17        1.91092  -0.00045  -0.00163   0.00135  -0.00029   1.91064
   A18        1.91092  -0.00045  -0.00163   0.00135  -0.00029   1.91064
    D1       -1.02886   0.00028  -0.00088   0.00558   0.00469  -1.02417
    D2        1.28401  -0.00190  -0.01955   0.01259  -0.00704   1.27697
    D3        2.94145   0.00246   0.01779  -0.00142   0.01643   2.95789
    D4       -3.14159  -0.00000   0.00000  -0.00000  -0.00000  -3.14159
    D5       -0.82872  -0.00218  -0.01867   0.00701  -0.01174  -0.84046
    D6        0.82872   0.00218   0.01867  -0.00701   0.01174   0.84046
    D7        1.02886  -0.00028   0.00088  -0.00558  -0.00469   1.02417
    D8       -2.94145  -0.00246  -0.01779   0.00143  -0.01643  -2.95789
    D9       -1.28401   0.00190   0.01955  -0.01259   0.00704  -1.27697
   D10        1.02886  -0.00028   0.00088  -0.00558  -0.00469   1.02417
   D11       -1.02886   0.00028  -0.00088   0.00558   0.00469  -1.02417
   D12       -3.14159   0.00000   0.00000  -0.00000  -0.00000  -3.14159
   D13       -1.28401   0.00190   0.01955  -0.01259   0.00704  -1.27697
   D14        2.94145   0.00246   0.01779  -0.00143   0.01643   2.95789
   D15        0.82872   0.00218   0.01867  -0.00701   0.01174   0.84046
   D16       -2.94145  -0.00246  -0.01779   0.00143  -0.01643  -2.95789
   D17        1.28401  -0.00190  -0.01955   0.01259  -0.00704   1.27697
   D18       -0.82872  -0.00218  -0.01867   0.00701  -0.01174  -0.84046
         Item               Value     Threshold  Converged?
 Maximum Force            0.010684     0.000015     NO 
 RMS     Force            0.003076     0.000010     NO 
 Maximum Displacement     0.058716     0.000060     NO 
 RMS     Displacement     0.014719     0.000040     NO 
 GradGradGradGradGradGradGradGradGradGradGradGradGradGradGradGradGradGrad

                    Distance matrix (angstroms):
                    1          2          3          4          5
     1  C    0.000000
     2  C    1.503927   0.000000
     3  C    2.574739   1.503927   0.000000
     4  Cl   2.774099   1.835830   2.774099   0.000000
     5  Cl   2.774099   1.835830   2.774099   2.537030   0.000000
     6  H    1.103305   2.129203   2.818543   3.068631   3.735122
     7  H    1.100516   2.177705   3.522286   2.906228   2.906228
     8  H    1.103306   2.129203   2.818543   3.735122   3.068631
     9  H    2.818543   2.129203   1.103306   3.068631   3.735122
    10  H    2.818543   2.129203   1.103306   3.735122   3.068631
    11  H    3.522286   2.177705   1.100516   2.906228   2.906228
                    6          7          8          9         10
     6  H    0.000000
     7  H    1.799416   0.000000
     8  H    1.787382   1.799416   0.000000
     9  H    2.612654   3.820749   3.165548   0.000000
    10  H    3.165548   3.820749   2.612654   1.787382   0.000000
    11  H    3.820749   4.348155   3.820749   1.799416   1.799416
                   11
    11  H    0.000000
 Framework group  C1[X(C3H6Cl2)]
 Deg. of freedom    27
                         Standard orientation:                         
 ---------------------------------------------------------------------
 Center     Atomic      Atomic             Coordinates (Angstroms)
 Number     Number       Type             X           Y           Z
 ---------------------------------------------------------------------
      1          6           0        1.292009   -0.000002    1.287373
      2          6           0        0.514532   -0.000001    0.000002
      3          6           0        1.292016   -0.000002   -1.287366
      4         17           0       -0.812549   -1.268514   -0.000003
      5         17           0       -0.812545    1.268516   -0.000002
      6          1           0        1.938722   -0.893694    1.306332
      7          1           0        0.640175   -0.000001    2.174079
      8          1           0        1.938725    0.893688    1.306333
      9          1           0        1.938730   -0.893694   -1.306322
     10          1           0        1.938733    0.893688   -1.306321
     11          1           0        0.640187   -0.000001   -2.174075
 ---------------------------------------------------------------------
 Rotational constants (GHZ):           3.1471313           2.9392601           2.2955038
    90 basis functions,   173 primitive gaussians,    95 cartesian basis functions
    29 alpha electrons       28 beta electrons
       nuclear repulsion energy       299.0411791383 Hartrees.
 NAtoms=   11 NActive=   11 NUniq=   11 SFac= 1.00D+00 NAtFMM=   60 NAOKFM=F Big=F
 Nuclear repulsion after empirical dispersion term =      299.0365035225 Hartrees.
   1 Symmetry operations used in ECPInt.
 ECPInt:  NShTT=    1081 NPrTT=    4759 LenC2=    1075 LenP2D=    3745.
 LDataN:  DoStor=T MaxTD1= 4 Len=   56
 Initial guess from the checkpoint file:  "17.chk"
 B after Tr=    -0.000000   -0.000000   -0.000000
         Rot=    1.000000   -0.000000    0.000000    0.000001 Ang=   0.00 deg.
 Initial guess <Sx>= 0.0000 <Sy>= 0.0000 <Sz>= 0.5000 <S**2>= 0.7535 S= 0.5018
 ExpMin= 1.22D-01 ExpMax= 1.04D+04 ExpMxC= 1.57D+03 IAcc=3 IRadAn=         5 AccDes= 0.00D+00
 Harris functional with IExCor= 4639 and IRadAn=       5 diagonalized for initial guess.
 HarFok:  IExCor= 4639 AccDes= 0.00D+00 IRadAn=         5 IDoV= 1 UseB2=F ITyADJ=14
 ICtDFT=  3500011 ScaDFX=  1.000000  1.000000  1.000000  1.000000
 FoFCou: FMM=F IPFlag=           0 FMFlag=      100000 FMFlg1=           0
         NFxFlg=           0 DoJE=T BraDBF=F KetDBF=T FulRan=T
         wScrn=  0.000000 ICntrl=       500 IOpCl=  0 I1Cent=   200000004 NGrid=           0
         NMat0=    1 NMatS0=      1 NMatT0=    0 NMatD0=    1 NMtDS0=    0 NMtDT0=    0
 Petite list used in FoFCou.
     Accept linear search using points  3 and  4.
     Minimum is close to point  3 DX=  1.01D-01 DF= -5.65D-07 DXR=  8.37D-02 DFR=  7.06D-03 which will be used.
     Minimum is close to point  2 DX=  2.11D-03 DF= -3.43D-10 DXR=  2.11D-03 DFR=  4.44D-06 which will be used.
 SCF Done:  E(UwB97XD) =  -1037.53217680     a.u. after    5 cycles
            Convg  =    0.7594D-08                    32 Fock formations.
              S**2 =  0.7538                  -V/T =  2.0031
 <Sx>= 0.0000 <Sy>= 0.0000 <Sz>= 0.5000 <S**2>= 0.7538 S= 0.5019
 <L.S>=  0.00000000000    
 Annihilation of the first spin contaminant:
 S**2 before annihilation     0.7538,   after     0.7500
   1 Symmetry operations used in ECPInt.
 ECPInt:  NShTT=    1081 NPrTT=    4759 LenC2=    1075 LenP2D=    3745.
 LDataN:  DoStor=T MaxTD1= 5 Len=  102
 Calling FoFJK, ICntrl=      2127 FMM=F ISym2X=0 I1Cent= 0 IOpClX= 1 NMat=1 NMatS=1 NMatT=0.

 GradGradGradGradGradGradGradGradGradGradGradGradGradGradGradGradGradGrad
 Using GEDIIS/GDIIS optimizer.
 FormGI is forming the generalized inverse of G from B-inverse, IUseBI=4.
 Internal  Forces:  Max     0.001956136 RMS     0.000605188
 Step number   4 out of a maximum of   56
 All quantities printed in internal units (Hartrees-Bohrs-Radians)
 Mixed Optimization -- En-DIIS/RFO-DIIS
 Trust test= 1.03D+00 RLast= 7.81D-02 DXMaxT set to 8.49D-01
 ITU=  1  1  1  0
 Use linear search instead of GDIIS.
     Eigenvalues ---    0.00515   0.00515   0.03705   0.05568   0.05568
     Eigenvalues ---    0.05768   0.06066   0.07425   0.15749   0.15995
     Eigenvalues ---    0.16000   0.16000   0.16000   0.16000   0.16481
     Eigenvalues ---    0.20878   0.23458   0.25050   0.25498   0.30462
     Eigenvalues ---    0.31507   0.33371   0.33371   0.33371   0.33446
     Eigenvalues ---    0.33608   0.33761
 Quartic linear search produced a step of  0.14199.
 Iteration  1 RMS(Cart)=  0.00466521 RMS(Int)=  0.00002181
 Iteration  2 RMS(Cart)=  0.00004004 RMS(Int)=  0.00000411
 Iteration  3 RMS(Cart)=  0.00000000 RMS(Int)=  0.00000411
 Variable       Old X    -DE/DX   Delta X   Delta X   Delta X     New X
                                 (Linear)    (Quad)   (Total)
    R1        2.84201  -0.00143  -0.00009  -0.00662  -0.00671   2.83530
    R2        2.08495   0.00021   0.00001   0.00075   0.00076   2.08570
    R3        2.07967  -0.00021   0.00012  -0.00089  -0.00078   2.07890
    R4        2.08495   0.00021   0.00001   0.00075   0.00076   2.08570
    R5        2.84201  -0.00143  -0.00009  -0.00662  -0.00671   2.83530
    R6        3.46922   0.00177   0.00463   0.00950   0.01412   3.48334
    R7        3.46922   0.00177   0.00463   0.00950   0.01412   3.48334
    R8        2.08495   0.00021   0.00001   0.00075   0.00076   2.08570
    R9        2.08495   0.00021   0.00001   0.00075   0.00076   2.08570
   R10        2.07967  -0.00021   0.00012  -0.00089  -0.00078   2.07890
    A1        1.89414   0.00005  -0.00054   0.00001  -0.00053   1.89361
    A2        1.96438  -0.00008   0.00169  -0.00039   0.00130   1.96568
    A3        1.89413   0.00005  -0.00054   0.00001  -0.00053   1.89361
    A4        1.91064   0.00003  -0.00004   0.00074   0.00070   1.91133
    A5        1.88835  -0.00008  -0.00061  -0.00117  -0.00178   1.88656
    A6        1.91064   0.00003  -0.00004   0.00074   0.00070   1.91133
    A7        2.05499   0.00196   0.00252   0.01069   0.01320   2.06819
    A8        1.95379  -0.00072  -0.00164  -0.00181  -0.00345   1.95034
    A9        1.95379  -0.00072  -0.00164  -0.00181  -0.00345   1.95034
   A10        1.95379  -0.00072  -0.00164  -0.00181  -0.00345   1.95034
   A11        1.95379  -0.00072  -0.00164  -0.00181  -0.00345   1.95034
   A12        1.52568   0.00037   0.00411  -0.00912  -0.00503   1.52065
   A13        1.89414   0.00005  -0.00054   0.00001  -0.00053   1.89361
   A14        1.89414   0.00005  -0.00054   0.00001  -0.00053   1.89361
   A15        1.96438  -0.00008   0.00169  -0.00039   0.00130   1.96568
   A16        1.88835  -0.00008  -0.00061  -0.00117  -0.00178   1.88656
   A17        1.91064   0.00003  -0.00004   0.00074   0.00070   1.91133
   A18        1.91064   0.00003  -0.00004   0.00074   0.00070   1.91133
    D1       -1.02417   0.00002   0.00067   0.00069   0.00135  -1.02281
    D2        1.27697   0.00013  -0.00100   0.00683   0.00582   1.28279
    D3        2.95789  -0.00009   0.00233  -0.00545  -0.00312   2.95477
    D4       -3.14159   0.00000  -0.00000   0.00000   0.00000  -3.14159
    D5       -0.84046   0.00011  -0.00167   0.00614   0.00447  -0.83599
    D6        0.84046  -0.00011   0.00167  -0.00614  -0.00447   0.83599
    D7        1.02417  -0.00002  -0.00067  -0.00069  -0.00135   1.02281
    D8       -2.95789   0.00009  -0.00233   0.00545   0.00312  -2.95477
    D9       -1.27697  -0.00013   0.00100  -0.00683  -0.00582  -1.28279
   D10        1.02417  -0.00002  -0.00067  -0.00069  -0.00135   1.02281
   D11       -1.02417   0.00002   0.00067   0.00069   0.00135  -1.02281
   D12       -3.14159  -0.00000  -0.00000  -0.00000  -0.00000   3.14159
   D13       -1.27697  -0.00013   0.00100  -0.00683  -0.00582  -1.28279
   D14        2.95789  -0.00009   0.00233  -0.00545  -0.00312   2.95477
   D15        0.84046  -0.00011   0.00167  -0.00614  -0.00447   0.83599
   D16       -2.95789   0.00009  -0.00233   0.00545   0.00312  -2.95477
   D17        1.27697   0.00013  -0.00100   0.00683   0.00582   1.28279
   D18       -0.84046   0.00011  -0.00167   0.00614   0.00447  -0.83599
         Item               Value     Threshold  Converged?
 Maximum Force            0.001956     0.000015     NO 
 RMS     Force            0.000605     0.000010     NO 
 Maximum Displacement     0.018040     0.000060     NO 
 RMS     Displacement     0.004644     0.000040     NO 
 GradGradGradGradGradGradGradGradGradGradGradGradGradGradGradGradGradGrad

                    Distance matrix (angstroms):
                    1          2          3          4          5
     1  C    0.000000
     2  C    1.500375   0.000000
     3  C    2.578842   1.500375   0.000000
     4  Cl   2.774568   1.843304   2.774568   0.000000
     5  Cl   2.774568   1.843304   2.774568   2.540645   0.000000
     6  H    1.103706   2.126017   2.825337   3.070383   3.737254
     7  H    1.100104   2.175158   3.523410   2.902630   2.902630
     8  H    1.103706   2.126017   2.825337   3.737254   3.070383
     9  H    2.825337   2.126017   1.103706   3.070383   3.737254
    10  H    2.825337   2.126017   1.103706   3.737254   3.070383
    11  H    3.523410   2.175158   1.100104   2.902630   2.902630
                    6          7          8          9         10
     6  H    0.000000
     7  H    1.799851   0.000000
     8  H    1.786875   1.799850   0.000000
     9  H    2.623023   3.825651   3.173826   0.000000
    10  H    3.173826   3.825651   2.623023   1.786875   0.000000
    11  H    3.825651   4.344661   3.825651   1.799851   1.799850
                   11
    11  H    0.000000
 Framework group  C1[X(C3H6Cl2)]
 Deg. of freedom    27
                         Standard orientation:                         
 ---------------------------------------------------------------------
 Center     Atomic      Atomic             Coordinates (Angstroms)
 Number     Number       Type             X           Y           Z
 ---------------------------------------------------------------------
      1          6           0        1.290016   -0.000002    1.289425
      2          6           0        0.522870   -0.000001    0.000002
      3          6           0        1.290024   -0.000001   -1.289417
      4         17           0       -0.812814   -1.270322   -0.000003
      5         17           0       -0.812811    1.270324   -0.000002
      6          1           0        1.937664   -0.893440    1.311517
      7          1           0        0.633737   -0.000001    2.172332
      8          1           0        1.937666    0.893435    1.311517
      9          1           0        1.937672   -0.893439   -1.311506
     10          1           0        1.937673    0.893436   -1.311506
     11          1           0        0.633749   -0.000001   -2.172328
 ---------------------------------------------------------------------
 Rotational constants (GHZ):           3.1442584           2.9309860           2.2923844
    90 basis functions,   173 primitive gaussians,    95 cartesian basis functions
    29 alpha electrons       28 beta electrons
       nuclear repulsion energy       298.7509090295 Hartrees.
 NAtoms=   11 NActive=   11 NUniq=   11 SFac= 1.00D+00 NAtFMM=   60 NAOKFM=F Big=F
 Nuclear repulsion after empirical dispersion term =      298.7462427406 Hartrees.
   1 Symmetry operations used in ECPInt.
 ECPInt:  NShTT=    1081 NPrTT=    4759 LenC2=    1075 LenP2D=    3741.
 LDataN:  DoStor=T MaxTD1= 4 Len=   56
 Initial guess from the checkpoint file:  "17.chk"
 B after Tr=     0.000000   -0.000000   -0.000000
         Rot=    1.000000   -0.000000   -0.000000   -0.000000 Ang=  -0.00 deg.
 Initial guess <Sx>= 0.0000 <Sy>= 0.0000 <Sz>= 0.5000 <S**2>= 0.7538 S= 0.5019
     Minimum is close to point  2 DX=  3.75D-04 DF= -9.55D-12 DXR=  3.75D-04 DFR=  1.39D-07 which will be used.
 SCF Done:  E(UwB97XD) =  -1037.53223680     a.u. after    3 cycles
            Convg  =    0.1464D-08                    25 Fock formations.
              S**2 =  0.7538                  -V/T =  2.0031
 <Sx>= 0.0000 <Sy>= 0.0000 <Sz>= 0.5000 <S**2>= 0.7538 S= 0.5019
 <L.S>=  0.00000000000    
 Annihilation of the first spin contaminant:
 S**2 before annihilation     0.7538,   after     0.7500
   1 Symmetry operations used in ECPInt.
 ECPInt:  NShTT=    1081 NPrTT=    4759 LenC2=    1075 LenP2D=    3741.
 LDataN:  DoStor=T MaxTD1= 5 Len=  102
 Calling FoFJK, ICntrl=      2127 FMM=F ISym2X=0 I1Cent= 0 IOpClX= 1 NMat=1 NMatS=1 NMatT=0.

 GradGradGradGradGradGradGradGradGradGradGradGradGradGradGradGradGradGrad
 Using GEDIIS/GDIIS optimizer.
 FormGI is forming the generalized inverse of G from B-inverse, IUseBI=4.
 Internal  Forces:  Max     0.000324211 RMS     0.000098100
 Step number   5 out of a maximum of   56
 All quantities printed in internal units (Hartrees-Bohrs-Radians)
 Mixed Optimization -- En-DIIS/RFO-DIIS
 Swapping is turned off.
 Trust test= 1.10D+00 RLast= 3.19D-02 DXMaxT set to 8.49D-01
 ITU=  1  1  1  1  0
     Eigenvalues ---    0.00515   0.00515   0.03616   0.05557   0.05557
     Eigenvalues ---    0.05799   0.06073   0.06886   0.15812   0.15967
     Eigenvalues ---    0.16000   0.16000   0.16000   0.16000   0.16389
     Eigenvalues ---    0.21007   0.21731   0.25498   0.25811   0.30462
     Eigenvalues ---    0.31402   0.33371   0.33371   0.33371   0.33459
     Eigenvalues ---    0.33608   0.33740
 En-DIIS/RFO-DIIS/Sim-DIIS IScMMF=       -3 using points:     5    4
 RFO step:  Lambda=-3.18193367D-06.
 DidBck=F Rises=F RFO-DIIS coefs:    1.11676   -0.11676
 Iteration  1 RMS(Cart)=  0.00178773 RMS(Int)=  0.00000218
 Iteration  2 RMS(Cart)=  0.00000218 RMS(Int)=  0.00000082
 Iteration  3 RMS(Cart)=  0.00000000 RMS(Int)=  0.00000082
 Variable       Old X    -DE/DX   Delta X   Delta X   Delta X     New X
                                 (Linear)    (Quad)   (Total)
    R1        2.83530  -0.00011  -0.00078   0.00016  -0.00062   2.83468
    R2        2.08570   0.00006   0.00009   0.00011   0.00020   2.08590
    R3        2.07890  -0.00004  -0.00009  -0.00005  -0.00014   2.07875
    R4        2.08570   0.00006   0.00009   0.00011   0.00020   2.08590
    R5        2.83530  -0.00011  -0.00078   0.00016  -0.00062   2.83468
    R6        3.48334   0.00002   0.00165  -0.00052   0.00113   3.48447
    R7        3.48334   0.00002   0.00165  -0.00052   0.00113   3.48447
    R8        2.08570   0.00006   0.00009   0.00011   0.00020   2.08590
    R9        2.08570   0.00006   0.00009   0.00011   0.00020   2.08590
   R10        2.07890  -0.00004  -0.00009  -0.00005  -0.00014   2.07875
    A1        1.89361   0.00017  -0.00006   0.00120   0.00114   1.89474
    A2        1.96568  -0.00018   0.00015  -0.00128  -0.00113   1.96455
    A3        1.89361   0.00017  -0.00006   0.00120   0.00114   1.89474
    A4        1.91133  -0.00002   0.00008  -0.00038  -0.00030   1.91103
    A5        1.88656  -0.00011  -0.00021  -0.00030  -0.00051   1.88605
    A6        1.91133  -0.00002   0.00008  -0.00038  -0.00030   1.91103
    A7        2.06819   0.00032   0.00154   0.00074   0.00228   2.07047
    A8        1.95034  -0.00011  -0.00040  -0.00018  -0.00058   1.94976
    A9        1.95034  -0.00011  -0.00040  -0.00018  -0.00058   1.94976
   A10        1.95034  -0.00011  -0.00040  -0.00018  -0.00058   1.94976
   A11        1.95034  -0.00011  -0.00040  -0.00018  -0.00058   1.94976
   A12        1.52065  -0.00001  -0.00059  -0.00038  -0.00097   1.51968
   A13        1.89361   0.00017  -0.00006   0.00120   0.00114   1.89474
   A14        1.89361   0.00017  -0.00006   0.00120   0.00114   1.89474
   A15        1.96568  -0.00018   0.00015  -0.00128  -0.00113   1.96455
   A16        1.88656  -0.00011  -0.00021  -0.00030  -0.00051   1.88605
   A17        1.91133  -0.00002   0.00008  -0.00038  -0.00030   1.91103
   A18        1.91133  -0.00002   0.00008  -0.00038  -0.00030   1.91103
    D1       -1.02281  -0.00003   0.00016  -0.00048  -0.00032  -1.02314
    D2        1.28279   0.00003   0.00068  -0.00018   0.00050   1.28329
    D3        2.95477  -0.00008  -0.00036  -0.00078  -0.00114   2.95362
    D4       -3.14159   0.00000   0.00000  -0.00000  -0.00000  -3.14159
    D5       -0.83599   0.00005   0.00052   0.00030   0.00082  -0.83517
    D6        0.83599  -0.00005  -0.00052  -0.00030  -0.00082   0.83517
    D7        1.02281   0.00003  -0.00016   0.00048   0.00032   1.02314
    D8       -2.95477   0.00008   0.00036   0.00078   0.00114  -2.95362
    D9       -1.28279  -0.00003  -0.00068   0.00018  -0.00050  -1.28329
   D10        1.02281   0.00003  -0.00016   0.00048   0.00032   1.02314
   D11       -1.02281  -0.00003   0.00016  -0.00048  -0.00032  -1.02314
   D12        3.14159   0.00000  -0.00000   0.00000   0.00000   3.14159
   D13       -1.28279  -0.00003  -0.00068   0.00018  -0.00050  -1.28329
   D14        2.95477  -0.00008  -0.00036  -0.00078  -0.00114   2.95362
   D15        0.83599  -0.00005  -0.00052  -0.00030  -0.00082   0.83517
   D16       -2.95477   0.00008   0.00036   0.00078   0.00114  -2.95362
   D17        1.28279   0.00003   0.00068  -0.00018   0.00050   1.28329
   D18       -0.83599   0.00005   0.00052   0.00030   0.00082  -0.83517
         Item               Value     Threshold  Converged?
 Maximum Force            0.000324     0.000015     NO 
 RMS     Force            0.000098     0.000010     NO 
 Maximum Displacement     0.004931     0.000060     NO 
 RMS     Displacement     0.001787     0.000040     NO 
 GradGradGradGradGradGradGradGradGradGradGradGradGradGradGradGradGradGrad

                    Distance matrix (angstroms):
                    1          2          3          4          5
     1  C    0.000000
     2  C    1.500047   0.000000
     3  C    2.580024   1.500047   0.000000
     4  Cl   2.774290   1.843902   2.774290   0.000000
     5  Cl   2.774290   1.843902   2.774290   2.540174   0.000000
     6  H    1.103811   2.126650   2.828308   3.071147   3.737715
     7  H    1.100027   2.174017   3.523411   2.900539   2.900540
     8  H    1.103811   2.126650   2.828308   3.737715   3.071147
     9  H    2.828308   2.126650   1.103811   3.071147   3.737715
    10  H    2.828308   2.126650   1.103811   3.737715   3.071147
    11  H    3.523411   2.174017   1.100027   2.900539   2.900540
                    6          7          8          9         10
     6  H    0.000000
     7  H    1.799682   0.000000
     8  H    1.786716   1.799682   0.000000
     9  H    2.628241   3.827873   3.178051   0.000000
    10  H    3.178051   3.827874   2.628242   1.786716   0.000000
    11  H    3.827873   4.342736   3.827874   1.799682   1.799682
                   11
    11  H    0.000000
 Framework group  C1[X(C3H6Cl2)]
 Deg. of freedom    27
                         Standard orientation:                         
 ---------------------------------------------------------------------
 Center     Atomic      Atomic             Coordinates (Angstroms)
 Number     Number       Type             X           Y           Z
 ---------------------------------------------------------------------
      1          6           0        1.289555   -0.000001    1.290016
      2          6           0        0.524047   -0.000000    0.000002
      3          6           0        1.289562   -0.000001   -1.290008
      4         17           0       -0.812687   -1.270087   -0.000003
      5         17           0       -0.812685    1.270088   -0.000002
      6          1           0        1.937420   -0.893359    1.314126
      7          1           0        0.631319   -0.000001    2.171370
      8          1           0        1.937421    0.893356    1.314126
      9          1           0        1.937427   -0.893359   -1.314115
     10          1           0        1.937429    0.893357   -1.314115
     11          1           0        0.631331   -0.000000   -2.171366
 ---------------------------------------------------------------------
 Rotational constants (GHZ):           3.1438903           2.9307588           2.2932101
    90 basis functions,   173 primitive gaussians,    95 cartesian basis functions
    29 alpha electrons       28 beta electrons
       nuclear repulsion energy       298.7508416413 Hartrees.
 NAtoms=   11 NActive=   11 NUniq=   11 SFac= 1.00D+00 NAtFMM=   60 NAOKFM=F Big=F
 Nuclear repulsion after empirical dispersion term =      298.7461796384 Hartrees.
   1 Symmetry operations used in ECPInt.
 ECPInt:  NShTT=    1081 NPrTT=    4759 LenC2=    1075 LenP2D=    3741.
 LDataN:  DoStor=T MaxTD1= 4 Len=   56
 Initial guess from the checkpoint file:  "17.chk"
 B after Tr=    -0.000000   -0.000000    0.000000
         Rot=    1.000000    0.000000   -0.000000   -0.000000 Ang=  -0.00 deg.
 Initial guess <Sx>= 0.0000 <Sy>= 0.0000 <Sz>= 0.5000 <S**2>= 0.7538 S= 0.5019
     Minimum is close to point  2 DX=  2.20D-05 DF=  0.00D+00 DXR=  2.20D-05 DFR=  0.00D+00 which will be used.
 SCF Done:  E(UwB97XD) =  -1037.53223851     a.u. after    2 cycles
            Convg  =    0.2873D-06                    14 Fock formations.
              S**2 =  0.7538                  -V/T =  2.0031
 <Sx>= 0.0000 <Sy>= 0.0000 <Sz>= 0.5000 <S**2>= 0.7538 S= 0.5019
 <L.S>=  0.00000000000    
 Annihilation of the first spin contaminant:
 S**2 before annihilation     0.7538,   after     0.7500
   1 Symmetry operations used in ECPInt.
 ECPInt:  NShTT=    1081 NPrTT=    4759 LenC2=    1075 LenP2D=    3741.
 LDataN:  DoStor=T MaxTD1= 5 Len=  102
 Calling FoFJK, ICntrl=      2127 FMM=F ISym2X=0 I1Cent= 0 IOpClX= 1 NMat=1 NMatS=1 NMatT=0.

 GradGradGradGradGradGradGradGradGradGradGradGradGradGradGradGradGradGrad
 Using GEDIIS/GDIIS optimizer.
 FormGI is forming the generalized inverse of G from B-inverse, IUseBI=4.
 Internal  Forces:  Max     0.000054474 RMS     0.000017503
 Step number   6 out of a maximum of   56
 All quantities printed in internal units (Hartrees-Bohrs-Radians)
 Mixed Optimization -- En-DIIS/RFO-DIIS
 Swapping is turned off.
 Trust test= 1.08D+00 RLast= 5.38D-03 DXMaxT set to 8.49D-01
 ITU=  1  1  1  1  1  0
     Eigenvalues ---    0.00515   0.00515   0.03600   0.05561   0.05561
     Eigenvalues ---    0.05811   0.06063   0.06810   0.15266   0.16000
     Eigenvalues ---    0.16000   0.16000   0.16000   0.16005   0.16393
     Eigenvalues ---    0.21029   0.21633   0.25226   0.25498   0.30462
     Eigenvalues ---    0.31283   0.33371   0.33371   0.33371   0.33461
     Eigenvalues ---    0.33608   0.33856
 En-DIIS/RFO-DIIS/Sim-DIIS IScMMF=       -3 using points:     6    5    4
 RFO step:  Lambda=-6.29031393D-08.
 DidBck=F Rises=F RFO-DIIS coefs:    1.11001   -0.11881    0.00880
 Iteration  1 RMS(Cart)=  0.00022095 RMS(Int)=  0.00000006
 Iteration  2 RMS(Cart)=  0.00000003 RMS(Int)=  0.00000006
 Variable       Old X    -DE/DX   Delta X   Delta X   Delta X     New X
                                 (Linear)    (Quad)   (Total)
    R1        2.83468  -0.00003  -0.00001  -0.00010  -0.00011   2.83457
    R2        2.08590  -0.00000   0.00002  -0.00003  -0.00001   2.08589
    R3        2.07875   0.00001  -0.00001   0.00006   0.00005   2.07880
    R4        2.08590  -0.00000   0.00002  -0.00003  -0.00001   2.08589
    R5        2.83468  -0.00003  -0.00001  -0.00010  -0.00011   2.83457
    R6        3.48447  -0.00005   0.00000  -0.00018  -0.00018   3.48430
    R7        3.48447  -0.00005   0.00000  -0.00018  -0.00017   3.48430
    R8        2.08590  -0.00000   0.00002  -0.00003  -0.00001   2.08589
    R9        2.08590  -0.00000   0.00002  -0.00003  -0.00001   2.08589
   R10        2.07875   0.00001  -0.00001   0.00006   0.00005   2.07880
    A1        1.89474   0.00001   0.00013  -0.00002   0.00011   1.89485
    A2        1.96455  -0.00001  -0.00014   0.00006  -0.00008   1.96448
    A3        1.89474   0.00001   0.00013  -0.00002   0.00011   1.89485
    A4        1.91103  -0.00001  -0.00004  -0.00002  -0.00006   1.91098
    A5        1.88605  -0.00001  -0.00004   0.00002  -0.00002   1.88603
    A6        1.91103  -0.00001  -0.00004  -0.00002  -0.00006   1.91098
    A7        2.07047   0.00005   0.00013   0.00016   0.00029   2.07076
    A8        1.94976  -0.00002  -0.00003  -0.00006  -0.00009   1.94967
    A9        1.94976  -0.00002  -0.00003  -0.00006  -0.00009   1.94967
   A10        1.94976  -0.00002  -0.00003  -0.00006  -0.00009   1.94967
   A11        1.94976  -0.00002  -0.00003  -0.00006  -0.00009   1.94967
   A12        1.51968   0.00000  -0.00006   0.00003  -0.00003   1.51964
   A13        1.89474   0.00001   0.00013  -0.00002   0.00011   1.89485
   A14        1.89474   0.00001   0.00013  -0.00002   0.00011   1.89485
   A15        1.96455  -0.00001  -0.00014   0.00006  -0.00008   1.96448
   A16        1.88605  -0.00001  -0.00004   0.00002  -0.00002   1.88603
   A17        1.91103  -0.00001  -0.00004  -0.00002  -0.00006   1.91098
   A18        1.91103  -0.00001  -0.00004  -0.00002  -0.00006   1.91098
    D1       -1.02314  -0.00000  -0.00005  -0.00000  -0.00005  -1.02319
    D2        1.28329   0.00001   0.00000   0.00001   0.00001   1.28330
    D3        2.95362  -0.00001  -0.00010  -0.00001  -0.00011   2.95352
    D4       -3.14159   0.00000  -0.00000  -0.00000  -0.00000  -3.14159
    D5       -0.83517   0.00001   0.00005   0.00001   0.00006  -0.83511
    D6        0.83517  -0.00001  -0.00005  -0.00001  -0.00006   0.83511
    D7        1.02314   0.00000   0.00005   0.00000   0.00005   1.02319
    D8       -2.95362   0.00001   0.00010   0.00001   0.00011  -2.95351
    D9       -1.28329  -0.00001  -0.00000  -0.00001  -0.00001  -1.28330
   D10        1.02314   0.00000   0.00005   0.00000   0.00005   1.02319
   D11       -1.02314  -0.00000  -0.00005  -0.00000  -0.00005  -1.02319
   D12        3.14159  -0.00000   0.00000   0.00000   0.00000   3.14159
   D13       -1.28329  -0.00001  -0.00000  -0.00001  -0.00001  -1.28330
   D14        2.95362  -0.00001  -0.00010  -0.00001  -0.00011   2.95351
   D15        0.83517  -0.00001  -0.00005  -0.00001  -0.00006   0.83511
   D16       -2.95362   0.00001   0.00010   0.00001   0.00011  -2.95352
   D17        1.28329   0.00001   0.00000   0.00001   0.00001   1.28330
   D18       -0.83517   0.00001   0.00005   0.00001   0.00006  -0.83511
         Item               Value     Threshold  Converged?
 Maximum Force            0.000054     0.000015     NO 
 RMS     Force            0.000018     0.000010     NO 
 Maximum Displacement     0.000540     0.000060     NO 
 RMS     Displacement     0.000221     0.000040     NO 
 GradGradGradGradGradGradGradGradGradGradGradGradGradGradGradGradGradGrad

                    Distance matrix (angstroms):
                    1          2          3          4          5
     1  C    0.000000
     2  C    1.499990   0.000000
     3  C    2.580151   1.499990   0.000000
     4  Cl   2.774080   1.843810   2.774080   0.000000
     5  Cl   2.774080   1.843810   2.774080   2.540004   0.000000
     6  H    1.103805   2.126674   2.828625   3.071019   3.737562
     7  H    1.100052   2.173932   3.523450   2.900217   2.900217
     8  H    1.103805   2.126674   2.828625   3.737562   3.071019
     9  H    2.828625   2.126674   1.103805   3.071019   3.737562
    10  H    2.828625   2.126674   1.103805   3.737562   3.071019
    11  H    3.523450   2.173932   1.100052   2.900217   2.900217
                    6          7          8          9         10
     6  H    0.000000
     7  H    1.799661   0.000000
     8  H    1.786694   1.799661   0.000000
     9  H    2.628813   3.828144   3.178511   0.000000
    10  H    3.178511   3.828144   2.628814   1.786694   0.000000
    11  H    3.828144   4.342608   3.828144   1.799661   1.799661
                   11
    11  H    0.000000
 Framework group  C1[X(C3H6Cl2)]
 Deg. of freedom    27
                         Standard orientation:                         
 ---------------------------------------------------------------------
 Center     Atomic      Atomic             Coordinates (Angstroms)
 Number     Number       Type             X           Y           Z
[...]
    A1        1.89485   0.00000   0.00000   0.00002   0.00002   1.89487
    A2        1.96448   0.00000   0.00000   0.00000   0.00000   1.96448
    A3        1.89485   0.00000   0.00000   0.00002   0.00002   1.89487
    A4        1.91098  -0.00000   0.00000  -0.00001  -0.00001   1.91097
    A5        1.88603  -0.00000   0.00000  -0.00001  -0.00001   1.88602
    A6        1.91098  -0.00000   0.00000  -0.00001  -0.00001   1.91097
    A7        2.07076  -0.00000   0.00000  -0.00001  -0.00001   2.07075
    A8        1.94967   0.00000   0.00000   0.00000   0.00000   1.94967
    A9        1.94967   0.00000   0.00000   0.00000   0.00000   1.94967
   A10        1.94967   0.00000   0.00000   0.00000   0.00000   1.94967
   A11        1.94967   0.00000   0.00000   0.00000   0.00000   1.94967
   A12        1.51964   0.00000   0.00000   0.00001   0.00001   1.51966
   A13        1.89485   0.00000   0.00000   0.00002   0.00002   1.89487
   A14        1.89485   0.00000   0.00000   0.00002   0.00002   1.89487
   A15        1.96448   0.00000   0.00000   0.00000   0.00000   1.96448
   A16        1.88603  -0.00000   0.00000  -0.00001  -0.00001   1.88602
   A17        1.91098  -0.00000   0.00000  -0.00001  -0.00001   1.91097
   A18        1.91098  -0.00000   0.00000  -0.00001  -0.00001   1.91097
    D1       -1.02319  -0.00000   0.00000  -0.00000  -0.00000  -1.02319
    D2        1.28330  -0.00000   0.00000  -0.00001  -0.00001   1.28329
    D3        2.95352   0.00000   0.00000   0.00001   0.00001   2.95352
    D4       -3.14159  -0.00000   0.00000  -0.00000  -0.00000   3.14159
    D5       -0.83511  -0.00000   0.00000  -0.00001  -0.00001  -0.83512
    D6        0.83511   0.00000   0.00000   0.00001   0.00001   0.83512
    D7        1.02319   0.00000   0.00000   0.00000   0.00000   1.02319
    D8       -2.95351  -0.00000   0.00000  -0.00001  -0.00001  -2.95352
    D9       -1.28330   0.00000   0.00000   0.00001   0.00001  -1.28329
   D10        1.02319   0.00000   0.00000   0.00000   0.00000   1.02319
   D11       -1.02319  -0.00000   0.00000  -0.00000  -0.00000  -1.02319
   D12        3.14159  -0.00000   0.00000   0.00000   0.00000   3.14159
   D13       -1.28330   0.00000   0.00000   0.00001   0.00001  -1.28329
   D14        2.95351   0.00000   0.00000   0.00001   0.00001   2.95352
   D15        0.83511   0.00000   0.00000   0.00001   0.00001   0.83512
   D16       -2.95352  -0.00000   0.00000  -0.00001  -0.00001  -2.95352
   D17        1.28330  -0.00000   0.00000  -0.00001  -0.00001   1.28329
   D18       -0.83511  -0.00000   0.00000  -0.00001  -0.00001  -0.83512
         Item               Value     Threshold  Converged?
 Maximum Force            0.000004     0.000015     YES
 RMS     Force            0.000001     0.000010     YES
 Maximum Displacement     0.000029     0.000060     YES
 RMS     Displacement     0.000009     0.000040     YES
 Optimization completed.
    -- Stationary point found.
                           ----------------------------
                           !   Optimized Parameters   !
                           ! (Angstroms and Degrees)  !
 --------------------------                            --------------------------
 ! Name  Definition              Value          Derivative Info.                !
 --------------------------------------------------------------------------------
 ! R1    R(1,2)                  1.5            -DE/DX =    0.0                 !
 ! R2    R(1,6)                  1.1038         -DE/DX =    0.0                 !
 ! R3    R(1,7)                  1.1001         -DE/DX =    0.0                 !
 ! R4    R(1,8)                  1.1038         -DE/DX =    0.0                 !
 ! R5    R(2,3)                  1.5            -DE/DX =    0.0                 !
 ! R6    R(2,4)                  1.8438         -DE/DX =    0.0                 !
 ! R7    R(2,5)                  1.8438         -DE/DX =    0.0                 !
 ! R8    R(3,9)                  1.1038         -DE/DX =    0.0                 !
 ! R9    R(3,10)                 1.1038         -DE/DX =    0.0                 !
 ! R10   R(3,11)                 1.1001         -DE/DX =    0.0                 !
 ! A1    A(2,1,6)              108.5669         -DE/DX =    0.0                 !
 ! A2    A(2,1,7)              112.5562         -DE/DX =    0.0                 !
 ! A3    A(2,1,8)              108.5669         -DE/DX =    0.0                 !
 ! A4    A(6,1,7)              109.4909         -DE/DX =    0.0                 !
 ! A5    A(6,1,8)              108.0618         -DE/DX =    0.0                 !
 ! A6    A(7,1,8)              109.4909         -DE/DX =    0.0                 !
 ! A7    A(1,2,3)              118.6458         -DE/DX =    0.0                 !
 ! A8    A(1,2,4)              111.7078         -DE/DX =    0.0                 !
 ! A9    A(1,2,5)              111.7078         -DE/DX =    0.0                 !
 ! A10   A(3,2,4)              111.7078         -DE/DX =    0.0                 !
 ! A11   A(3,2,5)              111.7078         -DE/DX =    0.0                 !
 ! A12   A(4,2,5)               87.0692         -DE/DX =    0.0                 !
 ! A13   A(2,3,9)              108.5669         -DE/DX =    0.0                 !
 ! A14   A(2,3,10)             108.5669         -DE/DX =    0.0                 !
 ! A15   A(2,3,11)             112.5562         -DE/DX =    0.0                 !
 ! A16   A(9,3,10)             108.0618         -DE/DX =    0.0                 !
 ! A17   A(9,3,11)             109.4909         -DE/DX =    0.0                 !
 ! A18   A(10,3,11)            109.4909         -DE/DX =    0.0                 !
 ! D1    D(6,1,2,3)            -58.6242         -DE/DX =    0.0                 !
 ! D2    D(6,1,2,4)             73.5277         -DE/DX =    0.0                 !
 ! D3    D(6,1,2,5)            169.2239         -DE/DX =    0.0                 !
 ! D4    D(7,1,2,3)            180.0            -DE/DX =    0.0                 !
 ! D5    D(7,1,2,4)            -47.8481         -DE/DX =    0.0                 !
 ! D6    D(7,1,2,5)             47.8481         -DE/DX =    0.0                 !
 ! D7    D(8,1,2,3)             58.6242         -DE/DX =    0.0                 !
 ! D8    D(8,1,2,4)           -169.2239         -DE/DX =    0.0                 !
 ! D9    D(8,1,2,5)            -73.5277         -DE/DX =    0.0                 !
 ! D10   D(1,2,3,9)             58.6242         -DE/DX =    0.0                 !
 ! D11   D(1,2,3,10)           -58.6242         -DE/DX =    0.0                 !
 ! D12   D(1,2,3,11)           180.0            -DE/DX =    0.0                 !
 ! D13   D(4,2,3,9)            -73.5277         -DE/DX =    0.0                 !
 ! D14   D(4,2,3,10)           169.2239         -DE/DX =    0.0                 !
 ! D15   D(4,2,3,11)            47.8481         -DE/DX =    0.0                 !
 ! D16   D(5,2,3,9)           -169.2239         -DE/DX =    0.0                 !
 ! D17   D(5,2,3,10)            73.5277         -DE/DX =    0.0                 !
 ! D18   D(5,2,3,11)           -47.8481         -DE/DX =    0.0                 !
 --------------------------------------------------------------------------------
 GradGradGradGradGradGradGradGradGradGradGradGradGradGradGradGradGradGrad


 ----------------------------------------------------------------------

 Electric dipole moment (input orientation):
 (Debye = 10**-18 statcoulomb cm , SI units = C m)
                  (au)            (Debye)         (10**-30 SI)
   Tot        0.728189D+00      0.185087D+01      0.617384D+01
   x          0.000000D+00      0.000000D+00      0.000000D+00
   y          0.728189D+00      0.185087D+01      0.617384D+01
   z          0.000000D+00      0.000000D+00      0.000000D+00

 Dipole polarizability, Alpha (input orientation).
 (esu units = cm**3 , SI units = C**2 m**2 J**-1)
 Alpha(0;0):
               (au)            (10**-24 esu)      (10**-40 SI)
   iso        0.553970D+02      0.820899D+01      0.913374D+01
   aniso      0.239231D+02      0.354504D+01      0.394439D+01
   xx         0.702094D+02      0.104040D+02      0.115760D+02
   yx         0.176075D-04      0.260916D-05      0.290309D-05
   yy         0.531111D+02      0.787025D+01      0.875683D+01
   zx         0.000000D+00      0.000000D+00      0.000000D+00
   zy        -0.287920D-04     -0.426654D-05     -0.474716D-05
   zz         0.428706D+02      0.635277D+01      0.706841D+01

 ----------------------------------------------------------------------

 Dipole orientation:
     6         -0.00000303          2.43788829          2.27421457
     6         -0.00000022         -0.00000127          0.82801955
     6          0.00000249         -2.43789081          2.27421460
    17         -2.39995637         -0.00000399         -1.69795061
    17          2.39995598          0.00000144         -1.69795047
     1         -1.68818402          2.48386556          3.49849578
     1         -0.00000497          4.10316899          1.02993231
     1          1.68817793          2.48386947          3.49849568
     1         -1.68817843         -2.48387191          3.49849579
     1          1.68818354         -2.48386815          3.49849574
     1          0.00000434         -4.10317151          1.02993236

 Electric dipole moment (dipole orientation):
 (Debye = 10**-18 statcoulomb cm , SI units = C m)
                  (au)            (Debye)         (10**-30 SI)
   Tot        0.728189D+00      0.185087D+01      0.617384D+01
   x          0.000000D+00      0.000000D+00      0.000000D+00
   y          0.000000D+00      0.000000D+00      0.000000D+00
   z          0.728189D+00      0.185087D+01      0.617384D+01

 Dipole polarizability, Alpha (dipole orientation).
 (esu units = cm**3 , SI units = C**2 m**2 J**-1)
 Alpha(0;0):
               (au)            (10**-24 esu)      (10**-40 SI)
   iso        0.553970D+02      0.820899D+01      0.913374D+01
   aniso      0.239231D+02      0.354504D+01      0.394439D+01
   xx         0.702094D+02      0.104040D+02      0.115760D+02
   yx         0.308673D-04      0.457405D-05      0.508932D-05
   yy         0.428706D+02      0.635277D+01      0.706841D+01
   zx         0.000000D+00      0.000000D+00      0.000000D+00
   zy         0.000000D+00      0.000000D+00      0.000000D+00
   zz         0.531111D+02      0.787025D+01      0.875683D+01

 ----------------------------------------------------------------------
 1\1\GINC-C276\Freq\UwB97XD\def2SVPP\C3H6Cl2(1+,2)\PETERCHAO1\10-Jul-20
 23\0\\#T Geom=AllCheck Guess=TCheck SCRF=Check GenChk UwB97XD/def2SVPP
  Freq\\comment\\1,2\C,-0.0000015154,1.203458825,-1.290078376\C,-0.0000
 005547,0.4381690782,-0.0000005836\C,-0.0000011762,1.203466239,1.290072
 811\Cl,-1.2700013222,-0.8985180392,0.000003419\Cl,1.270002909,-0.89851
 54271,0.0000030809\H,-0.89334905,1.8513195768,-1.3144112503\H,-0.00000
 10031,0.5450104834,-2.1713050815\H,0.8933447542,1.8513213135,-1.314411
 53\H,-0.8933487147,1.8513271178,1.3144022088\H,0.8933450934,1.85132887
 78,1.3144020075\H,-0.0000004203,0.5450229548,2.1713032943\\Version=ES6
 4L-G16RevB.01\State=2-A\HF=-1037.5322385\S2=0.753787\S2-1=0.\S2A=0.750
 008\RMSD=3.226e-10\RMSF=2.364e-06\ZeroPoint=0.0847099\Thermal=0.091021
 2\Dipole=-0.0000007,0.7281891,-0.0000021\DipoleDeriv=-0.0329632,0.0000
 002,0.,0.0000002,-0.2348888,0.0547602,0.,0.0147945,-0.1690439,0.336507
 1,-0.0000009,0.,-0.0000009,1.2832109,-0.000002,0.,-0.0000018,0.630006,
 -0.0329633,0.0000002,0.,0.0000002,-0.2348892,-0.0547598,0.,-0.0147941,
 -0.1690433,0.1250656,-0.2062308,0.0000007,-0.0582521,-0.1726533,0.0000
 009,0.0000002,0.0000008,0.1110022,0.1250651,0.2062313,-0.0000006,0.058
 2526,-0.1726527,0.0000008,-0.0000001,0.0000007,0.1110023,0.068395,0.02
 05801,0.0349043,-0.0036353,0.1109615,-0.003851,0.0574265,0.024815,0.07
 95635,0.1028545,0.,0.,0.,0.0440136,-0.0396745,0.,0.0023657,0.0839115,0
 .0683949,-0.0205802,-0.0349043,0.0036352,0.1109615,-0.0038511,-0.05742
 66,0.0248149,0.0795635,0.0683949,0.0205799,-0.0349044,-0.0036356,0.110
 9614,0.0038508,-0.0574265,-0.0248152,0.0795636,0.068395,-0.02058,0.034
 9045,0.0036356,0.1109614,0.0038509,0.0574266,-0.0248151,0.0795635,0.10
 28545,0.,0.,0.,0.0440137,0.0396747,0.,-0.0023655,0.0839111\Polar=70.20
 9414,0.0000176,53.1110792,-0.0000035,-0.0000288,42.8706013\Quadrupole=
 0.2331783,1.2270986,-1.4602769,-0.000001,-0.0000002,-0.0000077\PG=C01 
 [X(C3H6Cl2)]\NImag=0\\0.58772972,0.00000002,0.56733175,-0.00000007,0.0
 6602290,0.54905288,-0.05929538,0.00000005,-0.00000008,0.18840304,0.000
 00006,-0.10472327,0.05500951,-0.00000018,0.35019761,-0.00000007,0.0533
 6383,-0.19777467,0.00000004,0.00000044,0.50083255,0.00289877,-0.000000
 02,-0.00000002,-0.05929537,0.00000004,0.00000005,0.58772972,-0.0000000
 1,0.01790275,0.01336080,0.00000004,-0.10472389,-0.05336437,0.,0.567330
 98,0.,-0.01336105,-0.02550701,0.00000004,-0.05501004,-0.19777406,0.000
 00006,-0.06602302,0.54905366,-0.01311335,-0.01140312,0.00207297,-0.026
 18097,-0.04069865,0.00000011,-0.01311336,-0.01140313,-0.00207291,0.115
 25744,-0.02781008,-0.02038695,0.00257225,-0.00420173,-0.05680310,0.000
 00008,-0.02781019,-0.02038705,-0.00257212,0.05822849,0.08879322,0.0186
 7683,0.01439340,0.00104508,0.00000001,0.00000008,-0.02882091,-0.018676
 67,-0.01439327,0.00104519,-0.00000017,-0.00000017,0.03197251,-0.013113
 44,0.01140314,-0.00207298,-0.02618109,0.04069872,-0.00000011,-0.013113
 43,0.01140315,0.00207292,-0.07074254,-0.00551150,0.00000002,0.11525769
 ,0.02781009,-0.02038687,0.00257224,0.00420181,-0.05680303,0.00000008,0
 .02781020,-0.02038697,-0.00257212,0.00551134,0.00915352,-0.00000003,-0
 .05822846,0.08879300,-0.01867686,0.01439337,0.00104508,-0.00000001,0.0
 0000007,-0.02882091,0.01867670,-0.01439324,0.00104519,0.,-0.00000003,-
 0.00163568,0.00000015,-0.00000016,0.03197251,-0.22929584,0.13268592,-0
 .00433710,-0.00180052,-0.00075415,-0.00020195,0.00025584,-0.00014361,0
 .00048633,0.00093163,0.00025767,-0.00032208,0.00252161,-0.00238106,0.0
 0091454,0.23973976,0.13213608,-0.14001603,0.00152629,0.01179200,-0.012
 51210,0.00230166,-0.00011701,-0.00017893,-0.00113567,0.00057719,0.0004
 7529,-0.00014003,0.00119843,-0.00173184,0.00237126,-0.14221882,0.14805
 127,-0.00188826,0.00147906,-0.04951902,-0.02203587,0.01500763,-0.00065
 360,0.00023688,-0.00071239,0.00047025,-0.00048847,-0.00098903,0.000571
 36,-0.00227241,0.00492484,-0.00305956,0.00441705,-0.00632365,0.0500539
 6,-0.04823763,0.00000009,0.00000011,-0.00512410,-0.00000002,-0.0000000
 2,0.00121079,0.,0.,0.00049316,0.00091376,0.00093385,0.00049316,-0.0009
 1376,-0.00093385,0.00246831,0.01290295,0.02088938,0.04522354,0.0000000
 9,-0.15665843,-0.14236263,-0.00000001,0.01145216,0.01956094,0.,-0.0026
 8852,0.00249906,0.00050377,0.00107175,0.00060121,-0.00050377,0.0010717
 5,0.00060121,-0.00293212,-0.00809529,-0.01243235,-0.00000009,0.1611820
 5,0.00000010,-0.13485362,-0.22719641,0.00000001,-0.01645372,-0.0225139
 1,0.,0.00434178,-0.00256744,-0.00043384,-0.00060366,0.00068509,0.00043
 384,-0.00060366,0.00068509,0.00008160,0.00296099,0.00376587,-0.0000001
 1,0.14297749,0.24378661,-0.22929532,-0.13268609,0.00433715,-0.00180049
 ,0.00075418,0.00020194,0.00025584,0.00014361,-0.00048633,0.00252161,0.
 00238107,-0.00091455,0.00093163,-0.00025767,0.00032208,-0.01542941,-0.
 01564277,0.00082873,0.00246833,0.00293213,-0.00008161,0.23973920,-0.13
 213625,-0.14001654,0.00152634,-0.01179198,-0.01251212,0.00230166,0.000
 11701,-0.00017893,-0.00113567,-0.00119842,-0.00173184,0.00237126,-0.00
 057719,0.00047529,-0.00014003,0.01564271,0.01333688,-0.00119226,-0.012
 90293,-0.00809531,0.00296100,0.14221899,0.14805182,0.00188832,0.001479
 10,-0.04951902,0.02203584,0.01500767,-0.00065361,-0.00023688,-0.000712
 39,0.00047025,0.00227239,0.00492485,-0.00305955,0.00048847,-0.00098903
 ,0.00057136,-0.00082873,-0.00119225,-0.00051889,-0.02088935,-0.0124323
 9,0.00376588,-0.00441710,-0.00632371,0.05005397,0.00025584,-0.00014361
 ,-0.00048633,-0.00180051,-0.00075416,0.00020196,-0.22929584,0.13268594
 ,0.00433638,0.00093163,0.00025768,0.00032207,0.00252161,-0.00238107,-0
 .00091453,0.00044526,-0.00019222,0.00006241,0.00018427,-0.00012832,0.0
 0005061,-0.00002092,0.00016400,0.00009667,0.23973976,-0.00011702,-0.00
 017892,0.00113568,0.01179212,-0.01251219,-0.00230159,0.13213608,-0.140
 01604,-0.00152581,0.00057719,0.00047530,0.00014003,0.00119844,-0.00173
 189,-0.00237127,-0.00019222,0.00060381,0.00017293,-0.00027182,-0.00007
 806,0.00009206,-0.00016400,0.00014500,0.00010358,-0.14221884,0.1480513
 3,-0.00023688,0.00071240,0.00047024,0.02203580,-0.01500756,-0.00065350
 ,0.00188755,-0.00147857,-0.04951901,0.00048847,0.00098903,0.00057135,0
 .00227240,-0.00492485,-0.00305952,-0.00006241,-0.00017295,-0.00120969,
 -0.00034721,0.00003837,0.00021488,0.00009667,-0.00010358,-0.00011557,-
 0.00441628,0.00632313,0.05005389,0.00025584,0.00014361,0.00048633,-0.0
 0180050,0.00075417,-0.00020195,-0.22929532,-0.13268611,-0.00433634,0.0
 0252161,0.00238107,0.00091453,0.00093163,-0.00025767,-0.00032207,-0.00
 002092,-0.00016400,-0.00009667,0.00018427,0.00012832,-0.00005061,0.000
 44526,0.00019222,-0.00006241,-0.01542941,-0.01564277,-0.00082864,0.239
 73919,0.00011702,-0.00017891,0.00113568,-0.01179210,-0.01251221,-0.002
 30159,-0.13213626,-0.14001656,-0.00152579,-0.00119843,-0.00173188,-0.0
 0237127,-0.00057719,0.00047529,0.00014003,0.00016400,0.00014500,0.0001
 0358,0.00027182,-0.00007806,0.00009206,0.00019222,0.00060381,0.0001729
 3,0.01564271,0.01333690,0.00119217,0.14221902,0.14805189,0.00023688,0.
 00071240,0.00047025,-0.02203577,-0.01500760,-0.00065349,-0.00188751,-0
 .00147855,-0.04951901,-0.00227239,-0.00492486,-0.00305952,-0.00048847,
 0.00098903,0.00057135,-0.00009667,-0.00010358,-0.00011557,0.00034721,0
 .00003837,0.00021488,0.00006241,-0.00017295,-0.00120969,0.00082864,0.0
 0119218,-0.00051891,0.00441623,0.00632310,0.05005389,0.00121079,0.,0.,
 -0.00512410,-0.00000002,0.00000001,-0.04823764,0.00000012,-0.00000016,
 0.00049316,0.00091375,-0.00093385,0.00049316,-0.00091375,0.00093386,0.
 00018427,-0.00027182,0.00034722,0.00063592,0.,0.,0.00018427,0.00027182
 ,-0.00034722,0.00246831,0.01290283,-0.02088945,0.00246833,-0.01290281,
 0.02088943,0.04522354,0.,-0.00268856,-0.00249906,-0.00000002,0.0114521
 4,-0.01956115,0.00000012,-0.15665684,0.14236224,0.00050377,0.00107175,
 -0.00060121,-0.00050378,0.00107175,-0.00060120,-0.00012832,-0.00007806
 ,-0.00003837,0.,0.00091596,-0.00091072,0.00012832,-0.00007806,-0.00003
 837,-0.00293211,-0.00809524,0.01243242,0.00293214,-0.00809526,0.012432
 46,-0.00000013,0.16118042,0.,-0.00434178,-0.00256740,-0.00000002,0.016
 45352,-0.02251388,-0.00000016,0.13485323,-0.22719802,0.00043384,0.0006
 0366,0.00068508,-0.00043384,0.00060366,0.00068508,-0.00005061,-0.00009
 206,0.00021488,0.,0.00091071,-0.00084055,0.00005061,-0.00009206,0.0002
 1489,-0.00008158,-0.00296093,0.00376583,0.00008159,-0.00296092,0.00376
 582,0.00000017,-0.14297703,0.24378828\\0.,0.00000190,-0.00000055,0.,0.
 00001108,0.,0.,0.00000190,0.00000055,-0.00000235,-0.00000291,0.,0.0000
 0235,-0.00000291,0.,0.00000045,-0.00000154,0.00000164,0.,-0.00000144,-
 0.00000058,-0.00000045,-0.00000154,0.00000164,0.00000045,-0.00000154,-
 0.00000164,-0.00000045,-0.00000154,-0.00000164,0.,-0.00000144,0.000000
 58\\\@


 THE SCIENTIFIC THEORIST IS NOT TO BE ENVIED. FOR NATURE, OR MORE
 PRECISELY EXPERIMENT, IS AN INEXORABLE AND NOT VERY FRIENDLY JUDGE OF HIS
 WORK.  IT NEVER SAYS "YES" TO A THEORY. IN THE MOST FAVORABLE CASES
 IT SAYS "MAYBE", AND IN THE GREAT MAJORITY OF CASES SIMPLY "NO"...
 PROBABLY EVERY THEORY WILL SOME DAY EXPERIENCE ITS "NO" - MOST
 THEORIES, SOON AFTER CONCEPTION.  -- A.EINSTEIN, NOV 11, 1922.
 Job cpu time:       0 days  0 hours  2 minutes 41.8 seconds.
 Elapsed time:       0 days  0 hours  0 minutes 40.9 seconds.
 File lengths (MBytes):  RWF=     30 Int=      0 D2E=      0 Chk=      2 Scr=      1
 Normal termination of Gaussian 16 at Mon Jul 10 19:21:16 2023.
real 188.76
user 708.83
sys 7.94
