 Entering Gaussian System, Link 0=g16
 Input=gaussian_test.inp
 Output=gaussian_test.log
 Initial command:
 /sw/restricted/lms/sw/Gaussian/g16_B01/g16/l1.exe "/scratch/user/peterchao1/peterchao1/6318285_1663960373000000698070664/Gau-226564.inp" -scrdir="/scratch/user/peterchao1/peterchao1/6318285_1663960373000000698070664/"
 Entering Link 1 = /sw/restricted/lms/sw/Gaussian/g16_B01/g16/l1.exe PID=    226569.
  
 Copyright (c) 1988-2017, Gaussian, Inc.  All Rights Reserved.
  
 This is part of the Gaussian(R) 16 program.  It is based on
 the Gaussian(R) 09 system (copyright 2009, Gaussian, Inc.),
 the Gaussian(R) 03 system (copyright 2003, Gaussian, Inc.),
 the Gaussian(R) 98 system (copyright 1998, Gaussian, Inc.),
 the Gaussian(R) 94 system (copyright 1995, Gaussian, Inc.),
 the Gaussian 92(TM) system (copyright 1992, Gaussian, Inc.),
 the Gaussian 90(TM) system (copyright 1990, Gaussian, Inc.),
 the Gaussian 88(TM) system (copyright 1988, Gaussian, Inc.),
 the Gaussian 86(TM) system (copyright 1986, Carnegie Mellon
 University), and the Gaussian 82(TM) system (copyright 1983,
 Carnegie Mellon University). Gaussian is a federally registered
 trademark of Gaussian, Inc.
  
 This software contains proprietary and confidential information,
 including trade secrets, belonging to Gaussian, Inc.
  
 This software is provided under written license and may be
 used, copied, transmitted, or stored only in accord with that
 written license.
  
 The following legend is applicable only to US Government
 contracts under FAR:
  
                    RESTRICTED RIGHTS LEGEND
  
 Use, reproduction and disclosure by the US Government is
 subject to restrictions as set forth in subparagraphs (a)
 and (c) of the Commercial Computer Software - Restricted
 Rights clause in FAR 52.227-19.
  
 Gaussian, Inc.
 340 Quinnipiac St., Bldg. 40, Wallingford CT 06492
  
  
 ---------------------------------------------------------------
 Warning -- This program may not be used in any manner that
 competes with the business of Gaussian, Inc. or will provide
 assistance to any competitor of Gaussian, Inc.  The licensee
 of this program is prohibited from giving any competitor of
 Gaussian, Inc. access to this program.  By using this program,
 the user acknowledges that Gaussian, Inc. is engaged in the
 business of creating and licensing software in the field of
 computational chemistry and represents and warrants to the
 licensee that it is not a competitor of Gaussian, Inc. and that
 it will not use this program in any manner prohibited above.
 ---------------------------------------------------------------
  

 Cite this work as:
 Gaussian 16, Revision B.01,
 M. J. Frisch, G. W. Trucks, H. B. Schlegel, G. E. Scuseria, 
 M. A. Robb, J. R. Cheeseman, G. Scalmani, V. Barone, 
 G. A. Petersson, H. Nakatsuji, X. Li, M. Caricato, A. V. Marenich, 
 J. Bloino, B. G. Janesko, R. Gomperts, B. Mennucci, H. P. Hratchian, 
 J. V. Ortiz, A. F. Izmaylov, J. L. Sonnenberg, D. Williams-Young, 
 F. Ding, F. Lipparini, F. Egidi, J. Goings, B. Peng, A. Petrone, 
 T. Henderson, D. Ranasinghe, V. G. Zakrzewski, J. Gao, N. Rega, 
 G. Zheng, W. Liang, M. Hada, M. Ehara, K. Toyota, R. Fukuda, 
 J. Hasegawa, M. Ishida, T. Nakajima, Y. Honda, O. Kitao, H. Nakai, 
 T. Vreven, K. Throssell, J. A. Montgomery, Jr., J. E. Peralta, 
 F. Ogliaro, M. J. Bearpark, J. J. Heyd, E. N. Brothers, K. N. Kudin, 
 V. N. Staroverov, T. A. Keith, R. Kobayashi, J. Normand, 
 K. Raghavachari, A. P. Rendell, J. C. Burant, S. S. Iyengar, 
 J. Tomasi, M. Cossi, J. M. Millam, M. Klene, C. Adamo, R. Cammi, 
 J. W. Ochterski, R. L. Martin, K. Morokuma, O. Farkas, 
 J. B. Foresman, and D. J. Fox, Gaussian, Inc., Wallingford CT, 2016.
 
 ******************************************
 Gaussian 16:  ES64L-G16RevB.01 20-Dec-2017
                23-Sep-2022 
 ******************************************
 %chk=32.chk
 %nprocshared=4
 Will use up to    4 processors via shared memory.
 %mem=8000mb
 --------------------------------------------------------------
 #T wB97XD//def2svpp Volume=tight Geom=AllCheckpoint Guess=Read
 --------------------------------------------------------------
 Structure from the checkpoint file:  "32.chk"
 -------
 Monomer
 -------
 Charge =  0 Multiplicity = 1
 Redundant internal coordinates found in file.  (old form).
 O,0,-1.812508,-0.99459,1.091119
 C,0,-0.499286,-1.301166,0.696772
 C,0,0.118596,-0.30447,-0.296344
 C,0,1.4895,-0.802856,-0.781775
 O,0,2.432995,-0.884781,0.245083
 C,0,-0.806132,-0.023605,-1.500013
 O,0,-2.02224,0.548321,-1.155294
 N,0,0.343112,1.021272,0.409433
 O,0,-0.337493,1.276907,1.380136
 O,0,1.186718,1.760197,-0.045661
 H,0,-1.757173,-0.190567,1.634456
 H,0,-0.546936,-2.27681,0.186824
 H,0,0.177088,-1.41248,1.563654
 H,0,1.838113,-0.164735,-1.613329
 H,0,1.352081,-1.822361,-1.178468
 H,0,2.789493,0.00113,0.405416
 H,0,-0.921493,-0.991707,-2.034562
 H,0,-0.2973,0.675178,-2.18466
 H,0,-2.431512,-0.022403,-0.480266
 Recover connectivity data from disk.
                           ----------------------------
                           !    Current Parameters    !
                           ! (Angstroms and Degrees)  !
 --------------------------                            --------------------------
 ! Name  Definition              Value                                          !
 --------------------------------------------------------------------------------
 ! R1    R(1,2)                  1.405                                          !
 ! R2    R(1,11)                 0.972                                          !
 ! R3    R(2,3)                  1.5367                                         !
 ! R4    R(2,12)                 1.1019                                         !
 ! R5    R(2,13)                 1.1052                                         !
 ! R6    R(3,4)                  1.5373                                         !
 ! R7    R(3,6)                  1.5436                                         !
 ! R8    R(3,8)                  1.5186                                         !
 ! R9    R(4,5)                  1.3969                                         !
 ! R10   R(4,14)                 1.1046                                         !
 ! R11   R(4,15)                 1.1026                                         !
 ! R12   R(5,16)                 0.9683                                         !
 ! R13   R(6,7)                  1.3874                                         !
 ! R14   R(6,17)                 1.1119                                         !
 ! R15   R(6,18)                 1.1027                                         !
 ! R16   R(7,19)                 0.9741                                         !
 ! R17   R(8,9)                  1.2128                                         !
 ! R18   R(8,10)                 1.2103                                         !
 ! A1    A(2,1,11)             106.5101                                         !
 ! A2    A(1,2,3)              114.5621                                         !
 ! A3    A(1,2,12)             106.4198                                         !
 ! A4    A(1,2,13)             111.9536                                         !
 ! A5    A(3,2,12)             107.0124                                         !
 ! A6    A(3,2,13)             109.0368                                         !
 ! A7    A(12,2,13)            107.4753                                         !
 ! A8    A(2,3,4)              110.6312                                         !
 ! A9    A(2,3,6)              112.4001                                         !
 ! A10   A(2,3,8)              108.9848                                         !
 ! A11   A(4,3,6)              110.3021                                         !
 ! A12   A(4,3,8)              107.3334                                         !
 ! A13   A(6,3,8)              106.9851                                         !
 ! A14   A(3,4,5)              112.9045                                         !
 ! A15   A(3,4,14)             109.3811                                         !
 ! A16   A(3,4,15)             107.5917                                         !
 ! A17   A(5,4,14)             111.9684                                         !
 ! A18   A(5,4,15)             107.1236                                         !
 ! A19   A(14,4,15)            107.6167                                         !
 ! A20   A(4,5,16)             108.465                                          !
 ! A21   A(3,6,7)              113.9765                                         !
 ! A22   A(3,6,17)             106.1773                                         !
 ! A23   A(3,6,18)             108.8451                                         !
 ! A24   A(7,6,17)             112.795                                          !
 ! A25   A(7,6,18)             107.3081                                         !
 ! A26   A(17,6,18)            107.5259                                         !
 ! A27   A(6,7,19)             107.3936                                         !
 ! A28   A(3,8,9)              118.2316                                         !
 ! A29   A(3,8,10)             117.4709                                         !
 ! A30   A(9,8,10)             124.2943                                         !
 ! D1    D(11,1,2,3)           -68.734                                          !
 ! D2    D(11,1,2,12)          173.2285                                         !
 ! D3    D(11,1,2,13)           56.0783                                         !
 ! D4    D(1,2,3,4)           -173.9116                                         !
 ! D5    D(1,2,3,6)            -50.1192                                         !
 ! D6    D(1,2,3,8)             68.3014                                         !
 ! D7    D(12,2,3,4)           -56.2107                                         !
 ! D8    D(12,2,3,6)            67.5818                                         !
 ! D9    D(12,2,3,8)          -173.9977                                         !
 ! D10   D(13,2,3,4)            59.7516                                         !
 ! D11   D(13,2,3,6)          -176.456                                          !
 ! D12   D(13,2,3,8)           -58.0355                                         !
 ! D13   D(2,3,4,5)            -63.9443                                         !
 ! D14   D(2,3,4,14)           170.6654                                         !
 ! D15   D(2,3,4,15)            54.0432                                         !
 ! D16   D(6,3,4,5)            171.0651                                         !
 ! D17   D(6,3,4,14)            45.6747                                         !
 ! D18   D(6,3,4,15)           -70.9475                                         !
 ! D19   D(8,3,4,5)             54.8492                                         !
 ! D20   D(8,3,4,14)           -70.5412                                         !
 ! D21   D(8,3,4,15)           172.8366                                         !
 ! D22   D(2,3,6,7)             61.6996                                         !
 ! D23   D(2,3,6,17)           -63.087                                          !
 ! D24   D(2,3,6,18)          -178.5752                                         !
 ! D25   D(4,3,6,7)           -174.325                                          !
 ! D26   D(4,3,6,17)            60.8883                                         !
 ! D27   D(4,3,6,18)           -54.5999                                         !
 ! D28   D(8,3,6,7)            -57.8918                                         !
 ! D29   D(8,3,6,17)           177.3216                                         !
 ! D30   D(8,3,6,18)            61.8334                                         !
 ! D31   D(2,3,8,9)            -24.1696                                         !
 ! D32   D(2,3,8,10)           156.4653                                         !
 ! D33   D(4,3,8,9)           -144.0189                                         !
 ! D34   D(4,3,8,10)            36.616                                          !
 ! D35   D(6,3,8,9)             97.5966                                         !
 ! D36   D(6,3,8,10)           -81.7685                                         !
 ! D37   D(3,4,5,16)           -80.5241                                         !
 ! D38   D(14,4,5,16)           43.4553                                         !
 ! D39   D(15,4,5,16)          161.2148                                         !
 ! D40   D(3,6,7,19)           -53.656                                          !
 ! D41   D(17,6,7,19)           67.5194                                         !
 ! D42   D(18,6,7,19)         -174.2447                                         !
 --------------------------------------------------------------------------------
                    Distance matrix (angstroms):
                    1          2          3          4          5
     1  O    0.000000
     2  C    1.405009   0.000000
     3  C    2.475981   1.536704   0.000000
     4  C    3.801020   2.527782   1.537338   0.000000
     5  O    4.330373   2.995942   2.446701   1.396901   0.000000
     6  C    2.944413   2.559723   1.543641   2.528443   3.778747
     7  O    2.733301   3.028224   2.459314   3.781205   4.885075
     8  N    3.029042   2.487150   1.518592   2.461834   2.833313
     9  O    2.723766   2.672007   2.349331   3.512432   3.692810
    10  O    4.228058   3.572920   2.338071   2.683800   2.938307
    11  H    0.971972   1.922228   2.694341   4.093160   4.468758
    12  H    2.015815   1.101907   2.136939   2.694030   3.289548
    13  H    2.087202   1.105150   2.165802   2.755922   2.665748
    14  H    4.618412   3.477280   2.170418   1.104632   2.079915
    15  H    3.981313   2.686211   2.145605   1.102561   2.018398
    16  H    4.758157   3.549215   2.778408   1.935406   0.968316
    17  H    3.250200   2.781045   2.139038   2.723606   4.057192
    18  H    3.976771   3.499912   2.167583   2.710226   3.973869
    19  H    1.948734   2.598875   2.572244   4.009283   4.993321
                    6          7          8          9         10
     6  C    0.000000
     7  O    1.387389   0.000000
     8  N    2.461405   2.875229   0.000000
     9  O    3.194716   3.130114   1.212781   0.000000
    10  O    3.044428   3.605182   1.210286   2.142355   0.000000
    11  H    3.279825   2.898089   2.716695   2.057584   3.910853
    12  H    2.826576   3.458203   3.423315   3.754566   4.399663
    13  H    3.504533   4.009297   2.698692   2.744317   3.697990
    14  H    2.650432   3.952287   2.780864   3.971451   2.566566
    15  H    2.827861   4.123920   3.409648   4.359653   3.761026
    16  H    4.069372   5.088026   2.650563   3.515071   2.422122
    17  H    1.111878   2.087209   3.409461   4.140994   3.996656
    18  H    1.102701   2.012736   2.694295   3.615448   2.820442
    19  H    1.918788   0.974111   3.095054   3.087753   4.056862
                   11         12         13         14         15
    11  H    0.000000
    12  H    2.812956   0.000000
    13  H    2.288984   1.779589   0.000000
    14  H    4.845086   3.659217   3.795931   0.000000
    15  H    4.499195   2.382606   3.011286   1.781307   0.000000
    16  H    4.713752   4.045807   3.188176   2.237849   2.810687
    17  H    3.847321   2.593519   3.785642   2.911485   2.567493
    18  H    4.179281   3.794797   4.316621   2.364712   3.157623
    19  H    2.225997   3.013136   3.593705   4.419704   4.247695
                   16         17         18         19
    16  H    0.000000
    17  H    4.550894   0.000000
    18  H    4.085477   1.786240   0.000000
    19  H    5.295647   2.373930   2.818943   0.000000
 Framework group  C1[X(C4H9NO5)]
 Deg. of freedom    51
                         Standard orientation:                         
 ---------------------------------------------------------------------
 Center     Atomic      Atomic             Coordinates (Angstroms)
 Number     Number       Type             X           Y           Z
 ---------------------------------------------------------------------
      1          8           0        1.812508   -0.994590   -1.091119
      2          6           0        0.499286   -1.301166   -0.696772
      3          6           0       -0.118596   -0.304470    0.296344
      4          6           0       -1.489500   -0.802856    0.781775
      5          8           0       -2.432995   -0.884782   -0.245083
      6          6           0        0.806132   -0.023605    1.500013
      7          8           0        2.022240    0.548322    1.155294
      8          7           0       -0.343112    1.021272   -0.409433
      9          8           0        0.337493    1.276907   -1.380136
     10          8           0       -1.186719    1.760197    0.045661
     11          1           0        1.757173   -0.190567   -1.634456
     12          1           0        0.546936   -2.276810   -0.186824
     13          1           0       -0.177088   -1.412480   -1.563654
     14          1           0       -1.838113   -0.164735    1.613329
     15          1           0       -1.352081   -1.822361    1.178468
     16          1           0       -2.789493    0.001129   -0.405416
     17          1           0        0.921493   -0.991707    2.034562
     18          1           0        0.297300    0.675178    2.184660
     19          1           0        2.431512   -0.022402    0.480266
 ---------------------------------------------------------------------
 Rotational constants (GHZ):           1.6942415           1.1656094           1.0889411
   158 basis functions,   286 primitive gaussians,   168 cartesian basis functions
    40 alpha electrons       40 beta electrons
       nuclear repulsion energy       627.3969104397 Hartrees.
 NAtoms=   19 NActive=   19 NUniq=   19 SFac= 1.00D+00 NAtFMM=   60 NAOKFM=F Big=F
 Nuclear repulsion after empirical dispersion term =      627.3840284894 Hartrees.
   1 Symmetry operations used in ECPInt.
 ECPInt:  NShTT=    3081 NPrTT=   12403 LenC2=    3044 LenP2D=    9522.
 LDataN:  DoStor=T MaxTD1= 4 Len=   56
 Initial guess from the checkpoint file:  "32.chk"
 B after Tr=     0.000000   -0.000000   -0.000000
         Rot=    1.000000    0.000000   -0.000000    0.000000 Ang=   0.00 deg.
 Skip diagonalization as Alpha Fock matrix is already diagonal.
 SCF Done:  E(RwB97XD) =  -587.949069348     A.U. after    1 cycles
            NFock=  1  Conv=0.00D+00     -V/T= 2.0073

 **********************************************************************

            Population analysis using the SCF Density.

 **********************************************************************

 Orbital symmetries:
       Occupied  (A) (A) (A) (A) (A) (A) (A) (A) (A) (A) (A) (A)
                 (A) (A) (A) (A) (A) (A) (A) (A) (A) (A) (A) (A)
                 (A) (A) (A) (A) (A) (A) (A) (A) (A) (A) (A) (A)
                 (A) (A) (A) (A)
       Virtual   (A) (A) (A) (A) (A) (A) (A) (A) (A) (A) (A) (A)
                 (A) (A) (A) (A) (A) (A) (A) (A) (A) (A) (A) (A)
                 (A) (A) (A) (A) (A) (A) (A) (A) (A) (A) (A) (A)
                 (A) (A) (A) (A) (A) (A) (A) (A) (A) (A) (A) (A)
                 (A) (A) (A) (A) (A) (A) (A) (A) (A) (A) (A) (A)
                 (A) (A) (A) (A) (A) (A) (A) (A) (A) (A) (A) (A)
                 (A) (A) (A) (A) (A) (A) (A) (A) (A) (A) (A) (A)
                 (A) (A) (A) (A) (A) (A) (A) (A) (A) (A) (A) (A)
                 (A) (A) (A) (A) (A) (A) (A) (A) (A) (A) (A) (A)
                 (A) (A) (A) (A) (A) (A) (A) (A) (A) (A)
 The electronic state is 1-A.
 Alpha  occ. eigenvalues --  -19.31382 -19.31102 -19.28016 -19.27831 -19.25807
 Alpha  occ. eigenvalues --  -14.70017 -10.37609 -10.37376 -10.37074 -10.36999
 Alpha  occ. eigenvalues --   -1.35869  -1.18200  -1.15131  -1.14351  -1.12583
 Alpha  occ. eigenvalues --   -0.95738  -0.81116  -0.80015  -0.78546  -0.69512
 Alpha  occ. eigenvalues --   -0.66837  -0.65887  -0.64367  -0.62709  -0.61264
 Alpha  occ. eigenvalues --   -0.57908  -0.57117  -0.54905  -0.54329  -0.53108
 Alpha  occ. eigenvalues --   -0.51148  -0.46356  -0.45478  -0.44483  -0.42181
 Alpha  occ. eigenvalues --   -0.41167  -0.40709  -0.39012  -0.37539  -0.36683
 Alpha virt. eigenvalues --   -0.01139   0.11960   0.13043   0.14238   0.15560
 Alpha virt. eigenvalues --    0.18084   0.19795   0.20114   0.20858   0.21858
 Alpha virt. eigenvalues --    0.23800   0.25368   0.27659   0.30024   0.30999
 Alpha virt. eigenvalues --    0.31421   0.35857   0.38432   0.44669   0.50798
 Alpha virt. eigenvalues --    0.52619   0.54487   0.56846   0.57860   0.59373
 Alpha virt. eigenvalues --    0.61699   0.63028   0.63349   0.66615   0.67632
 Alpha virt. eigenvalues --    0.69168   0.70714   0.72681   0.73275   0.74945
 Alpha virt. eigenvalues --    0.76135   0.77182   0.77565   0.78903   0.81492
 Alpha virt. eigenvalues --    0.81598   0.83843   0.91717   0.96055   0.97334
 Alpha virt. eigenvalues --    0.99914   1.00556   1.04205   1.06215   1.07719
 Alpha virt. eigenvalues --    1.10499   1.12372   1.15436   1.16358   1.17044
 Alpha virt. eigenvalues --    1.18921   1.22289   1.25135   1.28329   1.30452
 Alpha virt. eigenvalues --    1.35068   1.38808   1.43478   1.44870   1.49493
 Alpha virt. eigenvalues --    1.55518   1.57824   1.65522   1.70717   1.72015
 Alpha virt. eigenvalues --    1.78870   1.80129   1.83089   1.85820   1.87306
 Alpha virt. eigenvalues --    1.95044   1.97200   2.00949   2.03544   2.08859
 Alpha virt. eigenvalues --    2.12042   2.15039   2.18305   2.19971   2.24776
 Alpha virt. eigenvalues --    2.28521   2.36729   2.44366   2.48309   2.53619
 Alpha virt. eigenvalues --    2.56890   2.63916   2.66204   2.68971   2.69661
 Alpha virt. eigenvalues --    2.70951   2.72703   2.73950   2.78613   2.85567
 Alpha virt. eigenvalues --    2.89888   2.91654   2.94321   3.01951   3.04991
 Alpha virt. eigenvalues --    3.06788   3.07255   3.10483   3.11934   3.14502
 Alpha virt. eigenvalues --    3.22293   3.36572   3.44434   3.46399   3.48473
 Alpha virt. eigenvalues --    3.50762   3.81191   3.84918
          Condensed to atoms (all electrons):
 Mulliken charges:
               1
     1  O   -0.498791
     2  C    0.075555
     3  C   -0.300508
     4  C    0.066521
     5  O   -0.483551
     6  C    0.114711
     7  O   -0.484330
     8  N    0.267335
     9  O   -0.255942
    10  O   -0.247987
    11  H    0.344968
    12  H    0.120155
    13  H    0.134829
    14  H    0.129372
    15  H    0.123141
    16  H    0.334552
    17  H    0.109012
    18  H    0.124063
    19  H    0.326894
 Sum of Mulliken charges =  -0.00000
 Mulliken charges with hydrogens summed into heavy atoms:
               1
     1  O   -0.153823
     2  C    0.330539
     3  C   -0.300508
     4  C    0.319035
     5  O   -0.148998
     6  C    0.347786
     7  O   -0.157436
     8  N    0.267335
     9  O   -0.255942
    10  O   -0.247987
 Electronic spatial extent (au):  <R**2>=           1300.3139
 Charge=              0.0000 electrons
 Dipole moment (field-independent basis, Debye):
    X=             -1.0961    Y=             -2.0685    Z=              0.9129  Tot=              2.5126
 Evaluate density.
 Using the total density.
 Monte-Carlo method of calculating molar volume:
 based on  0.001 e/bohr**3 density envelope.
 Number of points per bohr**3 =  100 CutOff= 1.00D-04
 Using the SCF density.
 There are      1759 points.  Will hold      1759 in memory.
 LenV=  1048246695 MDV=  1048576000.
 Box volume = 5446.137 fraction occupied=0.200
 Integrated density= 6.1765594468701451D+01 error=-1.8234405531298549D+01
 Molar volume = 1089.847 bohr**3/mol ( 97.257 cm**3/mol)
 Recommended a0 for SCRF calculation =  4.22 angstrom (  7.97 bohr)
 1\1\GINC-C386\SP\RwB97XD\def2SVPP\C4H9N1O5\PETERCHAO1\23-Sep-2022\0\\#
 T wB97XD//def2svpp Volume=tight Geom=AllCheckpoint Guess=Read\\Monomer
 \\0,1\O,0,-1.812508,-0.99459,1.091119\C,0,-0.499286,-1.301166,0.696772
 \C,0,0.118596,-0.30447,-0.296344\C,0,1.4895,-0.802856,-0.781775\O,0,2.
 432995,-0.884781,0.245083\C,0,-0.806132,-0.023605,-1.500013\O,0,-2.022
 24,0.548321,-1.155294\N,0,0.343112,1.021272,0.409433\O,0,-0.337493,1.2
 76907,1.380136\O,0,1.186718,1.760197,-0.045661\H,0,-1.757173,-0.190567
 ,1.634456\H,0,-0.546936,-2.27681,0.186824\H,0,0.177088,-1.41248,1.5636
 54\H,0,1.838113,-0.164735,-1.613329\H,0,1.352081,-1.822361,-1.178468\H
 ,0,2.789493,0.00113,0.405416\H,0,-0.921493,-0.991707,-2.034562\H,0,-0.
 2973,0.675178,-2.18466\H,0,-2.431512,-0.022403,-0.480266\\Version=ES64
 L-G16RevB.01\State=1-A\HF=-587.9490693\RMSD=0.000e+00\Dipole=0.4312196
 ,-0.8138061,-0.3591506\Quadrupole=-0.971901,-2.1050903,3.0769913,1.731
 6326,-2.0570776,1.9333255\PG=C01 [X(C4H9N1O5)]\\@


 NO MATTER HOW THIN YOU SLICE IT, IT'S STILL BALONEY

                                   -- ALFRED E. SMITH
 Job cpu time:       0 days  0 hours  0 minutes 26.9 seconds.
 Elapsed time:       0 days  0 hours  0 minutes 15.5 seconds.
 File lengths (MBytes):  RWF=     15 Int=      0 D2E=      0 Chk=      3 Scr=      1
 Normal termination of Gaussian 16 at Fri Sep 23 14:42:35 2022.
