 Entering Gaussian System, Link 0=g16
 Input=gaussian_test.inp
 Output=gaussian_test.log
 Initial command:
 /sw/restricted/lms/sw/Gaussian/g16_B01/g16/l1.exe "/scratch/user/peterchao1/peterchao1/6334981_1664416471000000955192128/Gau-19126.inp" -scrdir="/scratch/user/peterchao1/peterchao1/6334981_1664416471000000955192128/"
 Entering Link 1 = /sw/restricted/lms/sw/Gaussian/g16_B01/g16/l1.exe PID=     19127.
  
 Copyright (c) 1988-2017, Gaussian, Inc.  All Rights Reserved.
  
 This is part of the Gaussian(R) 16 program.  It is based on
 the Gaussian(R) 09 system (copyright 2009, Gaussian, Inc.),
 the Gaussian(R) 03 system (copyright 2003, Gaussian, Inc.),
 the Gaussian(R) 98 system (copyright 1998, Gaussian, Inc.),
 the Gaussian(R) 94 system (copyright 1995, Gaussian, Inc.),
 the Gaussian 92(TM) system (copyright 1992, Gaussian, Inc.),
 the Gaussian 90(TM) system (copyright 1990, Gaussian, Inc.),
 the Gaussian 88(TM) system (copyright 1988, Gaussian, Inc.),
 the Gaussian 86(TM) system (copyright 1986, Carnegie Mellon
 University), and the Gaussian 82(TM) system (copyright 1983,
 Carnegie Mellon University). Gaussian is a federally registered
 trademark of Gaussian, Inc.
  
 This software contains proprietary and confidential information,
 including trade secrets, belonging to Gaussian, Inc.
  
 This software is provided under written license and may be
 used, copied, transmitted, or stored only in accord with that
 written license.
  
 The following legend is applicable only to US Government
 contracts under FAR:
  
                    RESTRICTED RIGHTS LEGEND
  
 Use, reproduction and disclosure by the US Government is
 subject to restrictions as set forth in subparagraphs (a)
 and (c) of the Commercial Computer Software - Restricted
 Rights clause in FAR 52.227-19.
  
 Gaussian, Inc.
 340 Quinnipiac St., Bldg. 40, Wallingford CT 06492
  
  
 ---------------------------------------------------------------
 Warning -- This program may not be used in any manner that
 competes with the business of Gaussian, Inc. or will provide
 assistance to any competitor of Gaussian, Inc.  The licensee
 of this program is prohibited from giving any competitor of
 Gaussian, Inc. access to this program.  By using this program,
 the user acknowledges that Gaussian, Inc. is engaged in the
 business of creating and licensing software in the field of
 computational chemistry and represents and warrants to the
 licensee that it is not a competitor of Gaussian, Inc. and that
 it will not use this program in any manner prohibited above.
 ---------------------------------------------------------------
  

 Cite this work as:
 Gaussian 16, Revision B.01,
 M. J. Frisch, G. W. Trucks, H. B. Schlegel, G. E. Scuseria, 
 M. A. Robb, J. R. Cheeseman, G. Scalmani, V. Barone, 
 G. A. Petersson, H. Nakatsuji, X. Li, M. Caricato, A. V. Marenich, 
 J. Bloino, B. G. Janesko, R. Gomperts, B. Mennucci, H. P. Hratchian, 
 J. V. Ortiz, A. F. Izmaylov, J. L. Sonnenberg, D. Williams-Young, 
 F. Ding, F. Lipparini, F. Egidi, J. Goings, B. Peng, A. Petrone, 
 T. Henderson, D. Ranasinghe, V. G. Zakrzewski, J. Gao, N. Rega, 
 G. Zheng, W. Liang, M. Hada, M. Ehara, K. Toyota, R. Fukuda, 
 J. Hasegawa, M. Ishida, T. Nakajima, Y. Honda, O. Kitao, H. Nakai, 
 T. Vreven, K. Throssell, J. A. Montgomery, Jr., J. E. Peralta, 
 F. Ogliaro, M. J. Bearpark, J. J. Heyd, E. N. Brothers, K. N. Kudin, 
 V. N. Staroverov, T. A. Keith, R. Kobayashi, J. Normand, 
 K. Raghavachari, A. P. Rendell, J. C. Burant, S. S. Iyengar, 
 J. Tomasi, M. Cossi, J. M. Millam, M. Klene, C. Adamo, R. Cammi, 
 J. W. Ochterski, R. L. Martin, K. Morokuma, O. Farkas, 
 J. B. Foresman, and D. J. Fox, Gaussian, Inc., Wallingford CT, 2016.
 
 ******************************************
 Gaussian 16:  ES64L-G16RevB.01 20-Dec-2017
                28-Sep-2022 
 ******************************************
 %nprocshared=8
 Will use up to    8 processors via shared memory.
 %mem=20GB
 %nprocshared=8
 Will use up to    8 processors via shared memory.
 %mem=20GB
 --------------------------------------------------------------
 #T wB97XD/def2svpp freq int(grid=ultrafine) scf=(verytight,qc)
 --------------------------------------------------------------
 -----
 dimer
 -----
 Symbolic Z-matrix:
 Charge =  0 Multiplicity = 1
 35                   0     1.95649   0.19359   1.83563 
 6                    0     2.54412  -0.00263   0.00049 
 35                   0     4.3562   -0.69193  -0.02519 
 35                   0     1.37385  -1.22988  -0.93239 
 35                   0     2.50628   1.72641  -0.87864 
 35                   0    -4.35362   0.60575   0.35018 
 6                    0    -2.5445    0.00208   0.0019 
 35                   0    -1.95815  -1.14322   1.44968 
 35                   0    -2.51259  -0.99371  -1.66283 
 35                   0    -1.36839   1.53309  -0.13685 
 

 GradGradGradGradGradGradGradGradGradGradGradGradGradGradGradGradGradGrad
 Initialization pass.
 Number of steps in this run=      2 maximum allowed number of steps=      2.
 GradGradGradGradGradGradGradGradGradGradGradGradGradGradGradGradGradGrad

                    Distance matrix (angstroms):
                    1          2          3          4          5
     1  Br   0.000000
     2  C    1.936890   0.000000
     3  Br   3.163121   1.938923   0.000000
     4  Br   3.166647   1.935440   3.163354   0.000000
     5  Br   3.165291   1.940071   3.162106   3.166218   0.000000
     6  Br   6.495690   6.933342   8.813957   6.149675   7.058624
     7  C    4.863968   5.088620   6.935562   4.212376   5.409163
     8  Br   4.154567   4.865337   6.499990   4.096827   5.795428
     9  Br   5.798412   5.414716   7.067758   3.961534   5.762209
    10  Br   4.091429   4.205356   6.142807   3.973257   3.949776
                    6          7          8          9         10
     6  Br   0.000000
     7  C    1.938722   0.000000
     8  Br   3.163239   1.936905   0.000000
     9  Br   3.162262   1.940087   3.165042   0.000000
    10  Br   3.163662   1.935575   3.166623   3.165832   0.000000
 Framework group  C1[X(C2Br8)]
 Deg. of freedom    24
                         Standard orientation:                         
 ---------------------------------------------------------------------
 Center     Atomic      Atomic             Coordinates (Angstroms)
 Number     Number       Type             X           Y           Z
 ---------------------------------------------------------------------
      1         35           0        1.956493    0.192211    1.835772
      2          6           0        2.544117   -0.002633    0.000485
      3         35           0        4.356197   -0.691908   -0.025703
      4         35           0        1.373850   -1.229184   -0.933310
      5         35           0        2.506282    1.727064   -0.877350
      6         35           0       -4.353623    0.605489    0.350637
      7          6           0       -2.544501    0.002082    0.001898
      8         35           0       -1.958150   -1.144304    1.448824
      9         35           0       -2.512591   -0.992461   -1.663576
     10         35           0       -1.368392    1.533188   -0.135702
 ---------------------------------------------------------------------
 Rotational constants (GHZ):           0.3195443           0.0866138           0.0866120
   284 basis functions,   690 primitive gaussians,   310 cartesian basis functions
   146 alpha electrons      146 beta electrons
       nuclear repulsion energy      5059.6684637060 Hartrees.
 NAtoms=   10 NActive=   10 NUniq=   10 SFac= 1.00D+00 NAtFMM=   60 NAOKFM=F Big=F
 Nuclear repulsion after empirical dispersion term =     5059.6607439773 Hartrees.
   1 Symmetry operations used in ECPInt.
 ECPInt:  NShTT=    5886 NPrTT=   35326 LenC2=    4741 LenP2D=   16343.
 LDataN:  DoStor=T MaxTD1= 4 Len=   56
 ExpMin= 1.30D-01 ExpMax= 1.13D+05 ExpMxC= 1.70D+04 IAcc=3 IRadAn=         5 AccDes= 0.00D+00
 Harris functional with IExCor= 4639 and IRadAn=       5 diagonalized for initial guess.
 HarFok:  IExCor= 4639 AccDes= 0.00D+00 IRadAn=         5 IDoV= 1 UseB2=F ITyADJ=14
 ICtDFT=  3500011 ScaDFX=  1.000000  1.000000  1.000000  1.000000
 FoFCou: FMM=F IPFlag=           0 FMFlag=      100000 FMFlg1=           0
         NFxFlg=           0 DoJE=T BraDBF=F KetDBF=T FulRan=T
         wScrn=  0.000000 ICntrl=       500 IOpCl=  0 I1Cent=   200000004 NGrid=           0
         NMat0=    1 NMatS0=      1 NMatT0=    0 NMatD0=    1 NMtDS0=    0 NMtDT0=    0
 Petite list used in FoFCou.
     Accept linear search using points  3 and  4.
     Accept linear search using points  2 and  3.
     Minimum is close to point  2 DX=  4.34D-02 DF= -8.75D-06 DXR=  6.75D-02 DFR=  4.58D-03 which will be used.
     Minimum is close to point  2 DX=  4.78D-02 DF= -2.35D-06 DXR=  7.38D-02 DFR=  5.47D-03 which will be used.
     Minimum is close to point  2 DX=  1.74D-03 DF= -1.35D-10 DXR=  1.74D-03 DFR=  3.04D-06 which will be used.
 SCF Done:  E(RwB97XD) =  -20667.2721836     a.u. after    8 cycles
            Convg  =    0.4052D-08                    35 Fock formations.
              S**2 =  0.0000                  -V/T =  2.0011
 DoSCS=F DFT=T ScalE2(SS,OS)=  1.000000  1.000000
 NROrb=    284 NOA=   146 NOB=   146 NVA=   138 NVB=   138
   1 Symmetry operations used in ECPInt.
 ECPInt:  NShTT=    5886 NPrTT=   35326 LenC2=    4741 LenP2D=   16343.
 LDataN:  DoStor=T MaxTD1= 5 Len=  102
 Symmetrizing basis deriv contribution to polar:
 IMax=3 JMax=2 DiffMx= 0.00D+00
 Calling FoFCou, ICntrl=  3107 FMM=F I1Cent=   0 AccDes= 0.00D+00.
 End of G2Drv F.D. properties file   721 does not exist.
 End of G2Drv F.D. properties file   722 does not exist.
 End of G2Drv F.D. properties file   788 does not exist.
          IDoAtm=1111111111
 End of Minotr F.D. properties file   721 does not exist.
 End of Minotr F.D. properties file   722 does not exist.
 End of Minotr F.D. properties file   788 does not exist.

 **********************************************************************

            Population analysis using the SCF Density.

 **********************************************************************

 Orbital symmetries:
       Occupied  (A) (A) (A) (A) (A) (A) (A) (A) (A) (A) (A) (A)
                 (A) (A) (A) (A) (A) (A) (A) (A) (A) (A) (A) (A)
                 (A) (A) (A) (A) (A) (A) (A) (A) (A) (A) (A) (A)
                 (A) (A) (A) (A) (A) (A) (A) (A) (A) (A) (A) (A)
                 (A) (A) (A) (A) (A) (A) (A) (A) (A) (A) (A) (A)
                 (A) (A) (A) (A) (A) (A) (A) (A) (A) (A) (A) (A)
                 (A) (A) (A) (A) (A) (A) (A) (A) (A) (A) (A) (A)
                 (A) (A) (A) (A) (A) (A) (A) (A) (A) (A) (A) (A)
                 (A) (A) (A) (A) (A) (A) (A) (A) (A) (A) (A) (A)
                 (A) (A) (A) (A) (A) (A) (A) (A) (A) (A) (A) (A)
                 (A) (A) (A) (A) (A) (A) (A) (A) (A) (A) (A) (A)
                 (A) (A) (A) (A) (A) (A) (A) (A) (A) (A) (A) (A)
                 (A) (A)
       Virtual   (A) (A) (A) (A) (A) (A) (A) (A) (A) (A) (A) (A)
                 (A) (A) (A) (A) (A) (A) (A) (A) (A) (A) (A) (A)
                 (A) (A) (A) (A) (A) (A) (A) (A) (A) (A) (A) (A)
                 (A) (A) (A) (A) (A) (A) (A) (A) (A) (A) (A) (A)
                 (A) (A) (A) (A) (A) (A) (A) (A) (A) (A) (A) (A)
                 (A) (A) (A) (A) (A) (A) (A) (A) (A) (A) (A) (A)
                 (A) (A) (A) (A) (A) (A) (A) (A) (A) (A) (A) (A)
                 (A) (A) (A) (A) (A) (A) (A) (A) (A) (A) (A) (A)
                 (A) (A) (A) (A) (A) (A) (A) (A) (A) (A) (A) (A)
                 (A) (A) (A) (A) (A) (A) (A) (A) (A) (A) (A) (A)
                 (A) (A) (A) (A) (A) (A) (A) (A) (A) (A) (A) (A)
                 (A) (A) (A) (A) (A) (A)
 The electronic state is 1-A.
 Alpha  occ. eigenvalues -- -483.09005-483.08998-483.08891-483.08890-483.08888
 Alpha  occ. eigenvalues -- -483.08888-483.08864-483.08859 -62.67228 -62.67221
 Alpha  occ. eigenvalues --  -62.67119 -62.67118 -62.67115 -62.67113 -62.67080
 Alpha  occ. eigenvalues --  -62.67075 -56.48044 -56.48037 -56.47935 -56.47935
 Alpha  occ. eigenvalues --  -56.47932 -56.47930 -56.47900 -56.47895 -56.47610
 Alpha  occ. eigenvalues --  -56.47607 -56.47603 -56.47600 -56.47497 -56.47496
 Alpha  occ. eigenvalues --  -56.47496 -56.47496 -56.47494 -56.47494 -56.47492
 Alpha  occ. eigenvalues --  -56.47491 -56.47460 -56.47459 -56.47455 -56.47454
 Alpha  occ. eigenvalues --  -10.50500 -10.50495  -8.84190  -8.84183  -8.84085
 Alpha  occ. eigenvalues --   -8.84084  -8.84077  -8.84075  -8.84039  -8.84034
 Alpha  occ. eigenvalues --   -6.66896  -6.66889  -6.66798  -6.66797  -6.66790
 Alpha  occ. eigenvalues --   -6.66788  -6.66755  -6.66750  -6.65330  -6.65323
 Alpha  occ. eigenvalues --   -6.65320  -6.65313  -6.65218  -6.65217  -6.65216
 Alpha  occ. eigenvalues --   -6.65215  -6.65211  -6.65209  -6.65207  -6.65205
 Alpha  occ. eigenvalues --   -6.65171  -6.65167  -6.65166  -6.65162  -2.77228
 Alpha  occ. eigenvalues --   -2.77221  -2.77128  -2.77128  -2.77121  -2.77119
 Alpha  occ. eigenvalues --   -2.77086  -2.77080  -2.76792  -2.76785  -2.76784
 Alpha  occ. eigenvalues --   -2.76777  -2.76686  -2.76685  -2.76685  -2.76684
 Alpha  occ. eigenvalues --   -2.76679  -2.76677  -2.76676  -2.76674  -2.76642
 Alpha  occ. eigenvalues --   -2.76639  -2.76637  -2.76634  -2.75535  -2.75535
 Alpha  occ. eigenvalues --   -2.75528  -2.75528  -2.75425  -2.75425  -2.75424
 Alpha  occ. eigenvalues --   -2.75424  -2.75417  -2.75417  -2.75415  -2.75415
 Alpha  occ. eigenvalues --   -2.75376  -2.75375  -2.75370  -2.75370  -1.01353
 Alpha  occ. eigenvalues --   -1.01227  -0.89576  -0.89551  -0.89537  -0.89429
 Alpha  occ. eigenvalues --   -0.89406  -0.89352  -0.69981  -0.69705  -0.55148
 Alpha  occ. eigenvalues --   -0.55099  -0.54913  -0.54895  -0.54698  -0.54653
 Alpha  occ. eigenvalues --   -0.43191  -0.42782  -0.42674  -0.42057  -0.41194
 Alpha  occ. eigenvalues --   -0.39834  -0.39802  -0.39771  -0.39745  -0.38162
 Alpha  occ. eigenvalues --   -0.36943  -0.36894  -0.36653  -0.36646  -0.36500
 Alpha  occ. eigenvalues --   -0.36477
 Alpha virt. eigenvalues --   -0.01877  -0.01846   0.04092   0.04220   0.04247
 Alpha virt. eigenvalues --    0.04284   0.04389   0.04627   0.24774   0.31214
 Alpha virt. eigenvalues --    0.36848   0.36921   0.38179   0.40201   0.40396
 Alpha virt. eigenvalues --    0.41366   0.43722   0.44284   0.44546   0.44871
 Alpha virt. eigenvalues --    0.45757   0.46090   0.46232   0.46270   0.46515
 Alpha virt. eigenvalues --    0.46891   0.52610   0.55043   0.55267   0.55727
 Alpha virt. eigenvalues --    0.55785   0.56760   0.56933   0.57631   0.57794
 Alpha virt. eigenvalues --    0.57953   0.58445   0.58575   0.59056   0.59147
 Alpha virt. eigenvalues --    0.59261   0.59327   0.59350   0.59561   0.60184
 Alpha virt. eigenvalues --    0.60709   0.60769   0.60881   0.61003   0.61356
 Alpha virt. eigenvalues --    0.61663   0.62508   0.63280   0.63559   0.64536
 Alpha virt. eigenvalues --    0.67219   0.69508   0.70260   0.70631   0.71177
 Alpha virt. eigenvalues --    0.71804   0.72312   0.72813   0.75427   0.75799
 Alpha virt. eigenvalues --    0.80442   0.82037   0.83816   0.87007   0.87684
 Alpha virt. eigenvalues --    0.89026   0.89129   0.90443   0.90865   1.02744
 Alpha virt. eigenvalues --    1.03016   1.03580   1.03980   1.04279   1.05180
 Alpha virt. eigenvalues --    1.11109   1.12138   1.14471   1.15018   1.15407
 Alpha virt. eigenvalues --    1.15940   1.16456   1.18521   1.78209   1.78280
 Alpha virt. eigenvalues --    1.78373   1.78519   2.07965   2.08189   2.08425
 Alpha virt. eigenvalues --    2.09404   2.09735   2.09820   3.46539   3.46639
 Alpha virt. eigenvalues --    3.46717   3.46869   3.48339   3.48390   3.48486
 Alpha virt. eigenvalues --    3.48591   3.48681   3.49291   3.50243   3.50373
 Alpha virt. eigenvalues --    3.50387   3.50438   3.50514   3.50710   3.52855
 Alpha virt. eigenvalues --    3.52915   3.53150   3.53206   3.59798   3.59940
 Alpha virt. eigenvalues --    3.59981   3.60078   3.60246   3.60413   3.68973
 Alpha virt. eigenvalues --    3.69071   3.69172   3.69225   3.69263   3.69554
 Alpha virt. eigenvalues --    3.86032   3.86477   3.86534   3.86862   3.86893
 Alpha virt. eigenvalues --    3.86949   3.89116   3.89250
          Condensed to atoms (all electrons):
 Mulliken charges:
               1
     1  Br   0.077414
     2  C   -0.302343
     3  Br   0.074334
     4  Br   0.080547
     5  Br   0.070124
     6  Br   0.074378
     7  C   -0.302233
     8  Br   0.077287
     9  Br   0.070089
    10  Br   0.080402
 Sum of Mulliken charges =   0.00000
 Mulliken charges with hydrogens summed into heavy atoms:
               1
     1  Br   0.077414
     2  C   -0.302343
     3  Br   0.074334
     4  Br   0.080547
     5  Br   0.070124
     6  Br   0.074378
     7  C   -0.302233
     8  Br   0.077287
     9  Br   0.070089
    10  Br   0.080402
 APT charges:
               1
     1  Br  -0.240856
     2  C    0.987822
     3  Br  -0.263692
     4  Br  -0.231481
     5  Br  -0.251673
     6  Br  -0.264023
     7  C    0.989581
     8  Br  -0.240424
     9  Br  -0.253356
    10  Br  -0.231897
 Sum of APT charges =   0.00000
 APT charges with hydrogens summed into heavy atoms:
               1
     1  Br  -0.240856
     2  C    0.987822
     3  Br  -0.263692
     4  Br  -0.231481
     5  Br  -0.251673
     6  Br  -0.264023
     7  C    0.989581
     8  Br  -0.240424
     9  Br  -0.253356
    10  Br  -0.231897
 Electronic spatial extent (au):  <R**2>=          10865.3290
 Charge=              0.0000 electrons
 Dipole moment (field-independent basis, Debye):
    X=              0.0011    Y=             -0.0109    Z=              0.0362  Tot=              0.0378
  Exact polarizability: 167.576  -1.853 135.858  -0.542  -0.158 136.407
 Approx polarizability: 186.182  -0.364 180.759  -0.116   0.020 180.680
   1 Symmetry operations used in ECPInt.
 ECPInt:  NShTT=    5886 NPrTT=   35326 LenC2=    4741 LenP2D=   16343.
 LDataN:  DoStor=T MaxTD1= 6 Len=  172
 Calling FoFJK, ICntrl=    100127 FMM=F ISym2X=0 I1Cent= 0 IOpClX= 0 NMat=1 NMatS=1 NMatT=0.
 Full mass-weighted force constant matrix:
 Low frequencies ---   -3.9962   -2.6295   -0.0155   -0.0117   -0.0098    3.6465
 Low frequencies ---   14.6498   20.4660   20.7936
 Diagonal vibrational polarizability:
       13.4465571       8.1308050       8.3285624
 Harmonic frequencies (cm**-1), IR intensities (KM/Mole), Raman scattering
 activities (A**4/AMU), depolarization ratios for plane and unpolarized
 incident light, reduced masses (AMU), force constants (mDyne/A),
 and normal coordinates:
                      1                      2                      3
                      A                      A                      A
 Frequencies --     14.4734                20.4403                20.7548
 Red. masses --     78.8135                77.9919                77.8854
 Frc consts  --      0.0097                 0.0192                 0.0198
 IR Inten    --      0.0003                 0.0224                 0.0020
  Atom  AN      X      Y      Z        X      Y      Z        X      Y      Z
     1  35     0.11  -0.38   0.07     0.07   0.16  -0.03    -0.20   0.16  -0.09
     2   6     0.03   0.00   0.00    -0.05   0.00  -0.06     0.05   0.07  -0.00
     3  35     0.01  -0.03  -0.23    -0.18  -0.32  -0.13    -0.08  -0.28   0.29
     4  35    -0.04   0.23  -0.21    -0.31   0.19   0.04    -0.03   0.32  -0.23
     5  35     0.02   0.20   0.39     0.19  -0.02  -0.11     0.51   0.10   0.03
     6  35    -0.05   0.05  -0.21    -0.10  -0.33  -0.24    -0.01  -0.13   0.29
     7   6    -0.03  -0.00  -0.00     0.06  -0.00   0.06    -0.05  -0.07   0.00
     8  35    -0.06   0.32   0.26     0.00   0.06   0.13     0.21  -0.03  -0.08
     9  35     0.04  -0.37   0.21     0.50   0.05   0.03    -0.28  -0.10   0.01
    10  35    -0.04  -0.01  -0.29    -0.17   0.20   0.31    -0.13  -0.03  -0.23
                      4                      5                      6
                      A                      A                      A
 Frequencies --     27.4149                34.4742                36.3596
 Red. masses --     75.1376                69.3726                70.8840
 Frc consts  --      0.0333                 0.0486                 0.0552
 IR Inten    --      0.0001                 0.0015                 0.0001
  Atom  AN      X      Y      Z        X      Y      Z        X      Y      Z
     1  35     0.35   0.03   0.28    -0.14   0.15   0.05    -0.40  -0.21  -0.07
     2   6    -0.02  -0.02   0.17    -0.24   0.11   0.02    -0.22  -0.10  -0.02
     3  35    -0.05  -0.10  -0.19    -0.30  -0.04  -0.07    -0.16   0.06   0.16
     4  35    -0.25   0.01   0.42    -0.36   0.20   0.05    -0.02  -0.18  -0.18
     5  35    -0.12  -0.03   0.16    -0.12   0.13   0.04    -0.29  -0.09   0.02
     6  35     0.02  -0.15   0.12     0.34   0.19  -0.03     0.17  -0.13   0.13
     7   6     0.02   0.02  -0.17     0.24  -0.12  -0.02     0.22   0.10   0.02
     8  35     0.33   0.06  -0.26     0.04  -0.21  -0.01     0.45   0.22   0.01
     9  35    -0.14   0.05  -0.19     0.08  -0.14  -0.01     0.25   0.07   0.04
    10  35    -0.14   0.13  -0.32     0.45  -0.28  -0.03     0.01   0.26  -0.12
                      7                      8                      9
                      A                      A                      A
 Frequencies --    130.4545               131.4307               132.2126
 Red. masses --     78.9164                78.9066                78.8991
 Frc consts  --      0.7913                 0.8031                 0.8126
 IR Inten    --      0.0002                 0.0360                 0.0052
  Atom  AN      X      Y      Z        X      Y      Z        X      Y      Z
     1  35     0.36  -0.05   0.13     0.01   0.42  -0.04    -0.15   0.18  -0.07
     2   6    -0.00   0.00   0.00    -0.01  -0.00  -0.00     0.01  -0.01  -0.00
     3  35    -0.03  -0.08   0.36    -0.15  -0.36  -0.14    -0.03  -0.11  -0.21
     4  35    -0.03   0.24  -0.28     0.35  -0.23  -0.16     0.15  -0.19   0.07
     5  35    -0.30  -0.11  -0.20    -0.22   0.17   0.33     0.04   0.10   0.21
     6  35    -0.02   0.12  -0.31    -0.10  -0.18  -0.13     0.11   0.40  -0.08
     7   6    -0.00  -0.00  -0.00    -0.01  -0.00   0.00    -0.01   0.01   0.00
     8  35     0.31   0.02  -0.12     0.11   0.20   0.11     0.14  -0.29  -0.30
     9  35    -0.27  -0.18   0.09    -0.20   0.14  -0.08     0.08  -0.36   0.22
    10  35    -0.03   0.05   0.32     0.19  -0.15   0.10    -0.33   0.27   0.15
                     10                     11                     12
                      A                      A                      A
 Frequencies --    133.8534               190.7011               191.1967
 Red. masses --     78.8731                69.3647                69.2976
 Frc consts  --      0.8326                 1.4863                 1.4926
 IR Inten    --      0.0008                 0.1888                 0.0678
  Atom  AN      X      Y      Z        X      Y      Z        X      Y      Z
     1  35     0.30   0.16   0.08     0.01   0.16  -0.27     0.14  -0.25  -0.36
     2   6     0.02   0.00   0.00     0.12  -0.21  -0.09     0.06   0.20  -0.26
     3  35    -0.07  -0.24   0.20     0.35   0.01   0.08    -0.09  -0.17   0.24
     4  35     0.15   0.10  -0.28    -0.26   0.01  -0.05     0.01  -0.13   0.28
     5  35    -0.35  -0.01  -0.00    -0.11  -0.16   0.26    -0.07   0.51  -0.12
     6  35     0.07   0.09   0.33     0.42  -0.03  -0.06     0.07   0.00   0.14
     7   6    -0.02  -0.00   0.00     0.19  -0.19  -0.06    -0.01  -0.03  -0.17
     8  35    -0.33  -0.18  -0.01    -0.08  -0.01   0.29    -0.08   0.20  -0.07
     9  35     0.38   0.02  -0.00    -0.16  -0.03  -0.29     0.02  -0.18  -0.20
    10  35    -0.15   0.06  -0.32    -0.22   0.10   0.06    -0.02  -0.01   0.15
                     13                     14                     15
                      A                      A                      A
 Frequencies --    191.2600               191.8666               192.0747
 Red. masses --     69.3755                69.3034                69.0610
 Frc consts  --      1.4952                 1.5032                 1.5011
 IR Inten    --      0.0178                 0.0253                 0.0439
  Atom  AN      X      Y      Z        X      Y      Z        X      Y      Z
     1  35    -0.07   0.10   0.24     0.12   0.02   0.02    -0.32  -0.12   0.15
     2   6    -0.07  -0.06   0.15    -0.11  -0.02  -0.04     0.23   0.18   0.20
     3  35    -0.04   0.10  -0.13    -0.13   0.10   0.05     0.15  -0.30  -0.18
     4  35     0.05   0.04  -0.15    -0.04  -0.15  -0.09     0.35   0.40   0.25
     5  35     0.07  -0.23   0.01     0.09   0.04   0.03    -0.22  -0.00  -0.25
     6  35     0.05  -0.00   0.30     0.19  -0.36  -0.04     0.20  -0.11  -0.05
     7   6    -0.07   0.00  -0.33     0.26   0.24  -0.05     0.14  -0.00  -0.02
     8  35    -0.16   0.41  -0.22    -0.33  -0.07  -0.15    -0.10  -0.03   0.07
     9  35     0.08  -0.37  -0.33    -0.24  -0.11   0.22    -0.14  -0.02  -0.03
    10  35     0.04  -0.03   0.30     0.31   0.51  -0.03     0.01   0.17   0.01
                     16                     17                     18
                      A                      A                      A
 Frequencies --    192.5337               282.9085               283.1202
 Red. masses --     69.5631                78.9093                78.9124
 Frc consts  --      1.5193                 3.7211                 3.7268
 IR Inten    --      0.0113                 0.0011                 0.0017
  Atom  AN      X      Y      Z        X      Y      Z        X      Y      Z
     1  35    -0.10   0.09  -0.29     0.11  -0.03  -0.32    -0.11   0.04   0.35
     2   6     0.23  -0.14  -0.06     0.00   0.01  -0.00    -0.00  -0.01  -0.00
     3  35     0.44  -0.12   0.05    -0.32   0.12   0.01     0.34  -0.13  -0.01
     4  35    -0.19   0.17   0.09     0.21   0.22   0.17    -0.22  -0.23  -0.18
     5  35    -0.21  -0.11   0.17     0.01  -0.30   0.15    -0.00   0.32  -0.16
     6  35    -0.32  -0.06   0.10     0.34  -0.11  -0.07     0.32  -0.10  -0.06
     7   6    -0.12   0.22  -0.02    -0.00  -0.01  -0.01    -0.00  -0.00  -0.00
     8  35    -0.03   0.08  -0.33    -0.11   0.22  -0.27    -0.10   0.20  -0.26
     9  35     0.10  -0.07   0.23    -0.01   0.19   0.31    -0.00   0.17   0.29
    10  35     0.29  -0.01   0.00    -0.22  -0.29   0.03    -0.21  -0.27   0.02
                     19                     20                     21
                      A                      A                      A
 Frequencies --    697.9072               701.0452               701.8404
 Red. masses --     12.6655                12.6601                12.6628
 Frc consts  --      3.6347                 3.6659                 3.6750
 IR Inten    --     20.0298               108.0450               106.2935
  Atom  AN      X      Y      Z        X      Y      Z        X      Y      Z
     1  35     0.00  -0.01  -0.00    -0.00   0.00  -0.03    -0.02   0.00   0.04
     2   6    -0.12   0.67  -0.05     0.42  -0.36   0.47     0.40   0.08  -0.44
     3  35     0.03  -0.02   0.00    -0.04   0.02  -0.01    -0.03   0.01   0.01
     4  35    -0.01  -0.02  -0.01    -0.02  -0.01  -0.02    -0.01  -0.01   0.00
     5  35     0.00  -0.05   0.02    -0.01   0.04  -0.02    -0.01  -0.02   0.01
     6  35    -0.04   0.02   0.01    -0.04   0.01   0.01    -0.04   0.01  -0.00
     7   6     0.25  -0.56  -0.39     0.52  -0.01  -0.45     0.59  -0.06   0.53
     8  35    -0.01   0.01  -0.00    -0.00  -0.01   0.02    -0.02   0.03  -0.04
     9  35    -0.00   0.03   0.04    -0.01   0.01   0.03    -0.01  -0.01  -0.03
    10  35     0.01   0.02   0.00    -0.02  -0.02   0.01    -0.02  -0.01  -0.01
                     22                     23                     24
                      A                      A                      A
 Frequencies --    706.0700               708.6759               709.7411
 Red. masses --     12.6670                12.6649                12.6630
 Frc consts  --      3.7207                 3.7476                 3.7583
 IR Inten    --     26.4770               115.2851               140.2691
  Atom  AN      X      Y      Z        X      Y      Z        X      Y      Z
     1  35    -0.02   0.00   0.03     0.01  -0.01  -0.05     0.00  -0.01  -0.02
     2   6     0.77   0.13  -0.25     0.22   0.23   0.70     0.08   0.58   0.18
     3  35    -0.05   0.01   0.00    -0.01  -0.00  -0.01     0.01  -0.01  -0.00
     4  35    -0.03  -0.02  -0.01    -0.03  -0.03  -0.03    -0.02  -0.03  -0.02
     5  35    -0.01  -0.01   0.01    -0.00   0.00  -0.01    -0.00  -0.03   0.01
     6  35     0.03  -0.01  -0.00     0.01   0.00  -0.01     0.00  -0.01  -0.00
     7   6    -0.51  -0.05  -0.24    -0.18  -0.29   0.54     0.13   0.77  -0.06
     8  35     0.01  -0.01   0.02    -0.01   0.03  -0.04     0.01  -0.03   0.02
     9  35     0.01   0.01   0.02     0.00  -0.01  -0.03    -0.00  -0.02  -0.02
    10  35     0.02   0.02   0.00     0.02   0.02  -0.01    -0.03  -0.05   0.00
 
 Temperature   298.150 Kelvin.  Pressure   1.00000 Atm.
 Zero-point correction=                           0.015088 (Hartree/Particle)
 Thermal correction to Energy=                    0.030937
 Thermal correction to Enthalpy=                  0.031881
 Thermal correction to Gibbs Free Energy=        -0.038765
 Sum of electronic and zero-point Energies=         -20667.257096
 Sum of electronic and thermal Energies=            -20667.241246
 Sum of electronic and thermal Enthalpies=          -20667.240302
 Sum of electronic and thermal Free Energies=       -20667.310949

 GradGradGradGradGradGradGradGradGradGradGradGradGradGradGradGradGradGrad
 Step number   1 out of a maximum of    2
 All quantities printed in internal units (Hartrees-Bohrs-Radians)
 Second derivative matrix not updated -- analytic derivatives used.
 ITU=  0
     Eigenvalues ---    0.00062   0.00123   0.00127   0.00214   0.00304
     Eigenvalues ---    0.00368   0.05082   0.05158   0.05219   0.05348
     Eigenvalues ---    0.09198   0.09238   0.09278   0.09292   0.09330
     Eigenvalues ---    0.09587   0.23896   0.23934   0.29776   0.29862
     Eigenvalues ---    0.30074   0.30481   0.30537   0.31790
 Angle between quadratic step and forces=  75.66 degrees.
 Linear search not attempted -- first point.
 B after Tr=    -0.000024    0.000004    0.000010
         Rot=    1.000000   -0.000000   -0.000015    0.000005 Ang=  -0.00 deg.
 Variable       Old X    -DE/DX   Delta X   Delta X   Delta X     New X
                                 (Linear)    (Quad)   (Total)
    X1        3.69724  -0.00003   0.00000  -0.00191  -0.00183   3.69541
    Y1        0.36582  -0.00001   0.00000  -0.00572  -0.00576   0.36006
    Z1        3.46883   0.00000   0.00000   0.00117   0.00107   3.46990
    X2        4.80768   0.00004   0.00000   0.00144   0.00142   4.80910
    Y2       -0.00498  -0.00000   0.00000   0.00053   0.00049  -0.00449
    Z2        0.00092   0.00001   0.00000   0.00156   0.00143   0.00235
    X3        8.23202  -0.00000   0.00000   0.00148   0.00144   8.23346
    Y3       -1.30755  -0.00000   0.00000   0.00089   0.00081  -1.30675
    Z3       -0.04759  -0.00000   0.00000   0.00196   0.00172  -0.04587
    X4        2.59620   0.00000   0.00000   0.00290   0.00279   2.59899
    Y4       -2.32414   0.00003   0.00000   0.00381   0.00378  -2.32036
    Z4       -1.76196   0.00001   0.00000  -0.00458  -0.00465  -1.76661
    X5        4.73619  -0.00001   0.00000   0.00231   0.00227   4.73846
    Y5        3.26243  -0.00002   0.00000   0.00343   0.00339   3.26582
    Z5       -1.66039  -0.00000   0.00000   0.00731   0.00718  -1.65322
    X6       -8.22716  -0.00000   0.00000   0.00147   0.00148  -8.22567
    Y6        1.14471   0.00001   0.00000   0.00322   0.00331   1.14801
    Z6        0.66175   0.00001   0.00000   0.00552   0.00578   0.66753
    X7       -4.80841   0.00005   0.00000  -0.00103  -0.00106  -4.80947
    Y7        0.00394   0.00002   0.00000  -0.00060  -0.00054   0.00340
    Z7        0.00358  -0.00005   0.00000  -0.00174  -0.00158   0.00200
    X8       -3.70037   0.00001   0.00000   0.00414   0.00418  -3.69619
    Y8       -2.16037   0.00002   0.00000   0.00363   0.00367  -2.15670
    Z8        2.73950   0.00002   0.00000  -0.00037  -0.00025   2.73925
    X9       -4.74811  -0.00003   0.00000  -0.01082  -0.01096  -4.75907
    Y9       -1.87783   0.00001   0.00000  -0.00621  -0.00616  -1.88399
    Z9       -3.14230   0.00001   0.00000   0.00161   0.00176  -3.14053
   X10       -2.58589  -0.00003   0.00000   0.00025   0.00025  -2.58563
   Y10        2.89711  -0.00005   0.00000  -0.00302  -0.00299   2.89412
   Z10       -0.25861  -0.00001   0.00000  -0.01256  -0.01247  -0.27108
         Item               Value     Threshold  Converged?
 Maximum Force            0.000050     0.000450     YES
 RMS     Force            0.000022     0.000300     YES
 Maximum Displacement     0.012468     0.001800     NO 
 RMS     Displacement     0.004346     0.001200     NO 
 GradGradGradGradGradGradGradGradGradGradGradGradGradGradGradGradGradGrad


 ----------------------------------------------------------------------

 Electric dipole moment (input orientation):
 (Debye = 10**-18 statcoulomb cm , SI units = C m)
                  (au)            (Debye)         (10**-30 SI)
   Tot        0.148716D-01      0.377999D-01      0.126087D+00
   x          0.439870D-03      0.111804D-02      0.372937D-02
   y         -0.426591D-02     -0.108429D-01     -0.361679D-01
   z          0.142399D-01      0.361941D-01      0.120730D+00

 Dipole polarizability, Alpha (input orientation).
 (esu units = cm**3 , SI units = C**2 m**2 J**-1)
 Alpha(0;0):
               (au)            (10**-24 esu)      (10**-40 SI)
   iso        0.146614D+03      0.217259D+02      0.241733D+02
   aniso      0.316261D+02      0.468650D+01      0.521443D+01
   xx         0.167576D+03      0.248322D+02      0.276296D+02
   yx        -0.185334D+01     -0.274636D+00     -0.305574D+00
   yy         0.135858D+03      0.201320D+02      0.223999D+02
   zx        -0.540209D+00     -0.800507D-01     -0.890684D-01
   zy        -0.157690D+00     -0.233673D-01     -0.259996D-01
   zz         0.136407D+03      0.202134D+02      0.224905D+02

 ----------------------------------------------------------------------

 Dipole orientation:
    35          3.59456866          1.36150188          3.32589327
     6          4.80548694          0.01633518          0.14450927
    35          8.22408068         -1.23056497          0.57298504
    35          2.63708153         -2.72061358         -0.94364388
    35          4.79732094          2.66954629         -2.38559992
    35         -8.23809001          1.25075321          0.06194097
     6         -4.80635002         -0.01603989         -0.13991942
    35         -3.78910541         -1.29977736          3.13337338
    35         -4.66118354         -2.72084397         -2.61059348
    35         -2.56452454          2.68994569         -1.15514217

 Electric dipole moment (dipole orientation):
 (Debye = 10**-18 statcoulomb cm , SI units = C m)
                  (au)            (Debye)         (10**-30 SI)
   Tot        0.148716D-01      0.377999D-01      0.126087D+00
   x          0.000000D+00      0.000000D+00      0.000000D+00
   y          0.000000D+00      0.000000D+00      0.000000D+00
   z          0.148716D-01      0.377999D-01      0.126087D+00

 Dipole polarizability, Alpha (dipole orientation).
 (esu units = cm**3 , SI units = C**2 m**2 J**-1)
 Alpha(0;0):
               (au)            (10**-24 esu)      (10**-40 SI)
   iso        0.146614D+03      0.217259D+02      0.241733D+02
   aniso      0.316261D+02      0.468650D+01      0.521443D+01
   xx         0.167564D+03      0.248305D+02      0.276276D+02
   yx        -0.179247D+01     -0.265616D+00     -0.295538D+00
   yy         0.135800D+03      0.201235D+02      0.223904D+02
   zx         0.934798D+00      0.138523D+00      0.154127D+00
   zy        -0.337944D-01     -0.500782D-02     -0.557195D-02
   zz         0.136476D+03      0.202237D+02      0.225019D+02

 ----------------------------------------------------------------------
 1\1\GINC-C003\Freq\RwB97XD\def2SVPP\C2Br8\PETERCHAO1\28-Sep-2022\0\\#T
  wB97XD/def2svpp freq int(grid=ultrafine) scf=(verytight,qc)\\dimer\\0
 ,1\Br,1.956493,0.193585,1.835627\C,2.544117,-0.002633,0.000487\Br,4.35
 6197,-0.691928,-0.025185\Br,1.37385,-1.229883,-0.93239\Br,2.506282,1.7
 26406,-0.878643\Br,-4.353623,0.605752,0.350184\C,-2.544501,0.002084,0.
 001897\Br,-1.95815,-1.143219,1.44968\Br,-2.512591,-0.993706,-1.662832\
 Br,-1.368392,1.533086,-0.13685\\Version=ES64L-G16RevB.01\State=1-A\HF=
 -20667.2721836\RMSD=2.019e-11\RMSF=2.228e-05\ZeroPoint=0.0150879\Therm
 al=0.0309372\Dipole=0.0004399,-0.0042659,0.0142399\DipoleDeriv=-0.1402
 799,0.015958,0.1449406,0.0190516,-0.0765083,-0.0407202,0.1688276,-0.04
 64839,-0.5057808,1.1113582,-0.0202988,-0.0086105,0.0081432,0.9264415,-
 0.0257624,0.013786,-0.0137713,0.9256651,-0.5955689,0.1774332,0.0101202
 ,0.184923,-0.1305251,0.0007533,0.0016851,-0.0001815,-0.0649827,-0.2596
 965,-0.1925121,-0.1443897,-0.2393611,-0.2529789,-0.1353461,-0.1699801,
 -0.1393058,-0.1817678,-0.1160141,0.0194842,-0.0026594,0.023897,-0.4665
 87,0.2045188,-0.0043929,0.1984012,-0.172419,-0.594712,0.1572997,0.0865
 812,0.1588273,-0.1130341,-0.0308426,0.0976058,-0.029858,-0.084323,1.11
 67246,-0.0223711,-0.0030607,0.0141473,0.9080255,0.0151447,-0.005428,0.
 0037559,0.9439916,-0.138885,0.0908323,-0.1142392,0.1064987,-0.2381443,
 0.2094992,-0.1325745,0.2149735,-0.3442414,-0.1208158,0.0140902,0.01180
 78,0.0162759,-0.2017176,-0.2230435,0.013511,-0.2171917,-0.4375344,-0.2
 621106,-0.2399157,0.0195098,-0.2924029,-0.3549717,0.0257988,0.01696,0.
 0296617,-0.0786077\Polar=167.5762986,-1.8533356,135.8576714,-0.540209,
 -0.1576903,136.4068647\Quadrupole=-0.2569679,0.0932255,0.1637424,-0.11
 1479,-0.0334979,-0.0220097\PG=C01 [X(C2Br8)]\NImag=0\\0.04617690,-0.00
 412519,0.03120665,-0.04194931,0.01375487,0.16064211,-0.03165857,0.0027
 8856,0.02584358,0.21190875,0.00278852,-0.02445182,-0.00845564,0.000910
 11,0.21113008,0.02630404,-0.00854957,-0.10329495,0.00007721,0.00118417
 ,0.21249671,-0.01746618,0.00797256,0.01459753,-0.10043195,0.02940137,0
 .00111780,0.15581925,0.00779246,0.00098383,-0.00537512,0.02935544,-0.0
 3439908,-0.00035115,-0.04826150,0.04768106,0.02087644,-0.00782465,-0.0
 0845684,0.00112364,-0.00033604,-0.02321417,-0.00181446,0.00069471,0.02
 928397,0.00331848,-0.00170050,-0.00393929,-0.05647603,-0.03513847,-0.0
 2661700,-0.02963607,-0.00946113,-0.01213275,0.08593178,-0.00358202,-0.
 00344571,-0.01328921,-0.03442373,-0.05964614,-0.02754486,-0.00370656,0
 .00388679,-0.00076872,0.05582686,0.08978250,-0.00921375,-0.01715091,-0
 .02483377,-0.02612457,-0.02755446,-0.04453321,-0.00887933,-0.00192611,
 0.00104213,0.04242873,0.04539624,0.06414588,0.00291670,-0.00458519,0.0
 0618254,-0.02360241,0.00163318,-0.00073502,-0.00823724,0.02069835,-0.0
 0807534,-0.00056983,-0.01479148,0.00131021,0.03154780,-0.00250357,-0.0
 0389785,0.01309359,0.00147886,-0.09217685,0.03528545,0.01463488,-0.018
 20442,0.00824074,-0.01069386,-0.02919522,0.00160184,-0.00245167,0.1431
 7917,0.00479245,0.01955208,-0.02380860,-0.00068951,0.03526176,-0.04117
 506,-0.00494001,0.00692374,0.00134529,-0.00052378,-0.00346789,0.004870
 15,0.00079570,-0.05826743,0.05881255,-0.00007420,0.00004537,0.00004491
 ,0.00050198,-0.00022699,0.00010594,-0.00021455,0.00009421,-0.00001573,
 0.00001702,-0.00010464,-0.00007345,-0.00025806,0.00011197,-0.00001092,
 0.15552278,0.00002016,0.00005129,-0.00006831,-0.00006196,-0.00048099,0
 .00008241,0.00007094,0.00005844,-0.00000641,-0.00006464,0.00023085,0.0
 0005747,-0.00005760,0.00019001,-0.00006699,-0.04225514,0.04335472,0.00
 000228,0.00000520,0.00014836,-0.00004037,-0.00009334,-0.00026768,0.000
 06291,0.00001169,0.00004941,-0.00016213,0.00015319,0.00003223,0.000036
 16,-0.00004082,0.00003693,-0.02443433,0.00816426,0.03400990,0.00031770
 ,-0.00001696,-0.00010487,-0.00108613,-0.00032342,-0.00016395,0.0005342
 5,-0.00005738,0.00001957,0.00186380,-0.00019135,0.00004216,-0.00025213
 ,0.00003968,0.00011679,-0.10038978,0.02570945,0.01491032,0.21072339,0.
 00017534,-0.00031932,0.00026617,-0.00027247,0.00277699,-0.00020924,-0.
 00013736,-0.00043013,-0.00000628,0.00001263,-0.00123319,-0.00048433,0.
 00028068,-0.00116040,0.00041919,0.02577492,-0.03168750,-0.00501186,0.0
 0111067,0.21272596,0.00010827,-0.00008868,-0.00096453,-0.00003654,0.00
 084983,0.00169869,-0.00019696,-0.00017815,-0.00031795,0.00044634,-0.00
 079052,-0.00037303,0.00007573,0.00011808,-0.00024187,0.01491592,-0.004
 99516,-0.02616850,0.00023223,-0.00130216,0.21128542,-0.00234601,-0.000
 85857,-0.00010212,0.00028799,0.00020983,0.00004216,-0.00007915,0.00001
 516,0.00000355,-0.00141320,-0.00013703,0.00071341,0.00003340,-0.000017
 49,-0.00004632,-0.01740065,0.01776297,-0.01345239,-0.03147902,0.016217
 24,-0.02052247,0.04629174,-0.00088579,-0.00027758,-0.00037793,-0.00007
 887,-0.00043708,0.00041957,0.00006603,0.00005307,-0.00006388,0.0000508
 4,0.00020417,0.00002846,0.00007221,0.00031190,-0.00021614,0.01456987,-
 0.00776490,0.00835252,0.01596898,-0.05465102,0.03941674,-0.02566492,0.
 08053762,-0.00030097,-0.00013293,0.00047287,0.00008871,0.00008552,-0.0
 0085563,-0.00001639,0.00000502,0.00014697,0.00093381,0.00009115,-0.000
 51840,-0.00006387,-0.00024826,0.00020214,-0.00805046,0.00588447,0.0002
 0143,-0.02038462,0.03931790,-0.07334184,0.03280766,-0.06438498,0.11163
 640,0.00003327,0.00002411,0.00008704,-0.00028662,0.00036899,0.00014778
 ,-0.00029572,-0.00004495,-0.00007938,-0.00151507,-0.00046209,-0.000623
 42,0.00005657,0.00002419,-0.00000212,-0.00807176,0.01318336,0.01779169
 ,-0.02316472,0.00074211,0.00098962,0.00271716,-0.00061725,-0.00750775,
 0.03126904,-0.00003785,0.00007113,0.00016608,0.00007843,-0.00064647,-0
 .00037039,0.00008254,0.00009771,0.00007705,-0.00027341,0.00050488,0.00
 019755,0.00002396,0.00018659,-0.00002055,0.00973481,-0.00590601,-0.012
 82811,0.00079452,-0.04623457,-0.03819195,0.00044256,0.00516357,0.00513
 552,-0.00137676,0.06699449,0.00002764,0.00013280,0.00044158,-0.0000922
 8,-0.00065135,-0.00073125,0.00005637,0.00010187,0.00012424,-0.00080012
 ,0.00048963,0.00013120,0.00001645,0.00008820,0.00007756,0.01192563,-0.
 01149260,-0.01108656,0.00141046,-0.03825850,-0.08751140,-0.00547487,-0
 .00129957,-0.03284341,-0.00174079,0.06323278,0.13531415,-0.00121810,0.
 00045580,-0.00066001,0.00084300,0.00037689,-0.00027896,0.00000736,-0.0
 0013066,0.00009447,-0.00152088,0.00157205,0.00042001,-0.00163479,-0.00
 062299,0.00050771,-0.02963278,-0.01430755,0.00528586,-0.05706736,-0.04
 390377,0.00398786,0.00338775,-0.00348112,0.00249387,-0.00074215,-0.009
 46880,-0.00532849,0.08757794,0.00035794,0.00007939,0.00028550,0.000225
 63,-0.00166863,0.00005361,-0.00012291,0.00027273,-0.00000651,0.0014416
 8,-0.00108893,-0.00016576,-0.00082244,0.00076707,-0.00011777,-0.007744
 40,0.00195410,0.00128725,-0.04303419,-0.07978682,0.00516197,-0.0079697
 6,-0.02313974,0.01424660,-0.01184171,-0.02023132,-0.01234326,0.0695101
 4,0.12284215,-0.00064710,0.00030179,-0.00034623,-0.00014986,-0.0002904
 5,-0.00012345,0.00001254,0.00009350,-0.00000305,0.00036620,-0.00026901
 ,0.00003681,0.00045744,0.00012860,-0.00011910,0.00559248,0.00244087,0.
 00304446,0.00392191,0.00526910,-0.02406499,0.00603138,0.01812521,-0.00
 510055,-0.00906267,-0.01739798,-0.00391612,-0.00652232,-0.00840164,0.0
 3059222\\0.00003103,0.00000684,-0.00000121,-0.00003761,0.00000401,-0.0
 0000617,0.00000016,0.00000419,0.00000328,-0.00000287,-0.00002893,-0.00
 001141,0.00001176,0.00002496,0.00000042,0.00000305,-0.00000713,-0.0000
 1080,-0.00005040,-0.00001880,0.00004723,-0.00001031,-0.00002217,-0.000
 02107,0.00002503,-0.00001331,-0.00000541,0.00003017,0.00005036,0.00000
 514\\\@


 EVERYTHING'S GOT A MORAL, IF ONLY YOU CAN FIND IT.

                                    -- LEWIS CARROL, ALICE IN WONDERLAND
 Job cpu time:       0 days  0 hours 27 minutes 28.9 seconds.
 Elapsed time:       0 days  0 hours  4 minutes 41.9 seconds.
 File lengths (MBytes):  RWF=    150 Int=      0 D2E=      0 Chk=      6 Scr=      1
 Normal termination of Gaussian 16 at Wed Sep 28 20:59:51 2022.
real 319.11
user 1614.06
sys 34.86
