      -----------------------------------------------------------      
     |                   =====================                   |     
     |                           x T B                           |     
     |                   =====================                   |     
     |                         S. Grimme                         |     
     |          Mulliken Center for Theoretical Chemistry        |     
     |                    University of Bonn                     |     
      -----------------------------------------------------------      

   * xtb version 6.5.1 (b24c23e) compiled by 'conda@728c89f4b128' on 2022-07-12

   xtb is free software: you can redistribute it and/or modify it under
   the terms of the GNU Lesser General Public License as published by
   the Free Software Foundation, either version 3 of the License, or
   (at your option) any later version.
   
   xtb is distributed in the hope that it will be useful,
   but WITHOUT ANY WARRANTY; without even the implied warranty of
   MERCHANTABILITY or FITNESS FOR A PARTICULAR PURPOSE.  See the
   GNU Lesser General Public License for more details.
   
   Cite this work as:
   * C. Bannwarth, E. Caldeweyher, S. Ehlert, A. Hansen, P. Pracht,
     J. Seibert, S. Spicher, S. Grimme, WIREs Comput. Mol. Sci., 2020, 11,
     e01493. DOI: 10.1002/wcms.1493
   
   for GFN2-xTB:
   * C. Bannwarth, S. Ehlert and S. Grimme., J. Chem. Theory Comput., 2019,
     15, 1652-1671. DOI: 10.1021/acs.jctc.8b01176
   for GFN1-xTB:
   * S. Grimme, C. Bannwarth, P. Shushkov, J. Chem. Theory Comput., 2017,
     13, 1989-2009. DOI: 10.1021/acs.jctc.7b00118
   for GFN0-xTB:
   * P. Pracht, E. Caldeweyher, S. Ehlert, S. Grimme, ChemRxiv, 2019, preprint.
     DOI: 10.26434/chemrxiv.8326202.v1
   for GFN-FF:
   * S. Spicher and S. Grimme, Angew. Chem. Int. Ed., 2020, 59, 15665-15673.
     DOI: 10.1002/anie.202004239
   
   for ALPB and GBSA implicit solvation:
   * S. Ehlert, M. Stahn, S. Spicher, S. Grimme, J. Chem. Theory Comput.,
     2021, 17, 4250-4261. DOI: 10.1021/acs.jctc.1c00471
   
   for DFT-D4:
   * E. Caldeweyher, C. Bannwarth and S. Grimme, J. Chem. Phys., 2017,
     147, 034112. DOI: 10.1063/1.4993215
   * E. Caldeweyher, S. Ehlert, A. Hansen, H. Neugebauer, S. Spicher,
     C. Bannwarth and S. Grimme, J. Chem. Phys., 2019, 150, 154122.
     DOI: 10.1063/1.5090222
   * E. Caldeweyher, J.-M. Mewes, S. Ehlert and S. Grimme, Phys. Chem. Chem. Phys.
     2020, 22, 8499-8512. DOI: 10.1039/D0CP00502A
   
   for sTDA-xTB:
   * S. Grimme and C. Bannwarth, J. Chem. Phys., 2016, 145, 054103.
     DOI: 10.1063/1.4959605
   
   in the mass-spec context:
   * V. Asgeirsson, C. Bauer and S. Grimme, Chem. Sci., 2017, 8, 4879.
     DOI: 10.1039/c7sc00601b
   * J. Koopman and S. Grimme, ACS Omega 2019, 4, 12, 15120-15133.
     DOI: 10.1021/acsomega.9b02011
   
   for metadynamics refer to:
   * S. Grimme, J. Chem. Theory Comput., 2019, 155, 2847-2862
     DOI: 10.1021/acs.jctc.9b00143
   
   for SPH calculations refer to:
   * S. Spicher and S. Grimme, J. Chem. Theory Comput., 2021, 17, 1701-1714
     DOI: 10.1021/acs.jctc.0c01306
   
   with help from (in alphabetical order)
   P. Atkinson, C. Bannwarth, F. Bohle, G. Brandenburg, E. Caldeweyher
   M. Checinski, S. Dohm, S. Ehlert, S. Ehrlich, I. Gerasimov, C. Hölzer
   A. Katbashev, J. Koopman, C. Lavigne, S. Lehtola, F. März, M. Müller,
   F. Musil, H. Neugebauer, J. Pisarek, C. Plett, P. Pracht, F. Pultar,
   J. Seibert, P. Shushkov, S. Spicher, M. Stahn, M. Steiner, T. Strunk,
   J. Stückrath, T. Rose, and J. Unsleber
   
 * started run on 2022/08/08 at 16:21:13.843     

           -------------------------------------------------
          |                Calculation Setup                |
           -------------------------------------------------

          program call               : xtb tmpcoord --gfn2 --opt
          hostname                   : c383
          coordinate file            : tmpcoord
          omp threads                :                     1

   ID    Z sym.   atoms
    1   35 br     1, 3-6, 8-10
    2    6 c      2, 7

           -------------------------------------------------
          |                 G F N 2 - x T B                 |
           -------------------------------------------------

        Reference                      10.1021/acs.jctc.8b01176
      * Hamiltonian:
        H0-scaling (s, p, d)           1.850000    2.230000    2.230000
        zeta-weighting                 0.500000
      * Dispersion:
        s8                             2.700000
        a1                             0.520000
        a2                             5.000000
        s9                             5.000000
      * Repulsion:
        kExp                           1.500000    1.000000
        rExp                           1.000000
      * Coulomb:
        alpha                          2.000000
        third order                    shell-resolved
        anisotropic                    true
        a3                             3.000000
        a5                             4.000000
        cn-shift                       1.200000
        cn-exp                         4.000000
        max-rad                        5.000000


          ...................................................
          :                      SETUP                      :
          :.................................................:
          :  # basis functions                  88          :
          :  # atomic orbitals                  80          :
          :  # shells                           28          :
          :  # electrons                        64          :
          :  max. iterations                   250          :
          :  Hamiltonian                  GFN2-xTB          :
          :  restarted?                      false          :
          :  GBSA solvation                  false          :
          :  PC potential                    false          :
          :  electronic temp.          300.0000000     K    :
          :  accuracy                    1.0000000          :
          :  -> integral cutoff          0.2500000E+02      :
          :  -> integral neglect         0.1000000E-07      :
          :  -> SCF convergence          0.1000000E-05 Eh   :
          :  -> wf. convergence          0.1000000E-03 e    :
          :  Broyden damping             0.4000000          :
          ...................................................

 iter      E             dE          RMSdq      gap      omega  full diag
   1    -36.2956082 -0.362956E+02  0.115E+01    2.78       0.0  T
   2    -36.3728202 -0.772120E-01  0.142E+01    1.80       1.0  T
   3    -36.7139766 -0.341156E+00  0.899E+00    1.94       1.0  T
   4    -36.7980649 -0.840883E-01  0.192E+00    2.08       1.0  T
   5    -36.7990447 -0.979799E-03  0.113E+00    2.11       1.0  T
   6    -36.7988227  0.222005E-03  0.582E-01    2.13       1.0  T
   7    -36.7999349 -0.111215E-02  0.317E-01    2.15       1.0  T
   8    -36.8001186 -0.183763E-03  0.224E-01    2.14       1.0  T
   9    -36.8002102 -0.915832E-04  0.137E-01    2.15       1.0  T
  10    -36.8002517 -0.415300E-04  0.883E-02    2.16       1.0  T
  11    -36.8002690 -0.172481E-04  0.568E-02    2.16       1.0  T
  12    -36.8002757 -0.668076E-05  0.430E-02    2.16       1.0  T
  13    -36.8002821 -0.642459E-05  0.260E-02    2.16       1.2  T
  14    -36.8002846 -0.245831E-05  0.165E-02    2.16       1.9  T
  15    -36.8002854 -0.817935E-06  0.117E-02    2.16       2.7  T
  16    -36.8002860 -0.588622E-06  0.651E-03    2.16       4.9  T
  17    -36.8002861 -0.155547E-06  0.392E-03    2.16       8.1  T
  18    -36.8002862 -0.375229E-07  0.240E-03    2.16      13.2  T
  19    -36.8002862 -0.240720E-07  0.103E-03    2.16      30.6  T
  20    -36.8002862 -0.339534E-08  0.578E-04    2.16      54.7  T
  21    -36.8002862 -0.713619E-09  0.308E-04    2.16     102.8  T

   *** convergence criteria satisfied after 21 iterations ***

         #    Occupation            Energy/Eh            Energy/eV
      -------------------------------------------------------------
         1        2.0000           -0.9237340             -25.1361
       ...           ...                  ...                  ...
        26        2.0000           -0.4701985             -12.7948
        27        2.0000           -0.4660229             -12.6811
        28        2.0000           -0.4654862             -12.6665
        29        2.0000           -0.4635273             -12.6132
        30        2.0000           -0.4623908             -12.5823
        31        2.0000           -0.4602698             -12.5246
        32        2.0000           -0.4195437             -11.4164 (HOMO)
        33                         -0.3400939              -9.2544 (LUMO)
        34                         -0.3297666              -8.9734
        35                         -0.2971102              -8.0848
        36                         -0.2708165              -7.3693
        37                         -0.2679752              -7.2920
       ...                                ...                  ...
        80                          0.7360899              20.0300
      -------------------------------------------------------------
                  HL-Gap            0.0794498 Eh            2.1619 eV
             Fermi-level           -0.3798188 Eh          -10.3354 eV

 SCC (total)                   0 d,  0 h,  0 min,  0.051 sec
 SCC setup                      ...        0 min,  0.000 sec (  0.416%)
 Dispersion                     ...        0 min,  0.000 sec (  0.109%)
 classical contributions        ...        0 min,  0.000 sec (  0.045%)
 integral evaluation            ...        0 min,  0.007 sec ( 14.153%)
 iterations                     ...        0 min,  0.030 sec ( 59.739%)
 molecular gradient             ...        0 min,  0.013 sec ( 25.218%)
 printout                       ...        0 min,  0.000 sec (  0.300%)

         :::::::::::::::::::::::::::::::::::::::::::::::::::::
         ::                     SUMMARY                     ::
         :::::::::::::::::::::::::::::::::::::::::::::::::::::
         :: total energy             -36.758049444533 Eh    ::
         :: gradient norm              0.153256967471 Eh/a0 ::
         :: HOMO-LUMO gap              2.161939046392 eV    ::
         ::.................................................::
         :: SCC energy               -36.800286180468 Eh    ::
         :: -> isotropic ES            0.015465795951 Eh    ::
         :: -> anisotropic ES          0.026338712225 Eh    ::
         :: -> anisotropic XC         -0.049743259597 Eh    ::
         :: -> dispersion             -0.023877269765 Eh    ::
         :: repulsion energy           0.042178163841 Eh    ::
         :: add. restraining           0.000000000000 Eh    ::
         :: total charge              -0.000000000000 e     ::
         :::::::::::::::::::::::::::::::::::::::::::::::::::::

      ----------------------------------------------------------- 
     |                   =====================                   |
     |                        A N C O P T                        |
     |                   =====================                   |
     |               Approximate Normal Coordinate               |
     |                Rational Function Optimizer                |
      ----------------------------------------------------------- 

          ...................................................
          :                      SETUP                      :
          :.................................................:
          :   optimization level            normal          :
          :   max. optcycles                   200          :
          :   ANC micro-cycles                  20          :
          :   degrees of freedom                24          :
          :.................................................:
          :   RF solver                   davidson          :
          :   write xtbopt.log                true          :
          :   linear?                        false          :
          :   energy convergence         0.5000000E-05 Eh   :
          :   grad. convergence          0.1000000E-02 Eh/α :
          :   maximium RF displ.         1.0000000          :
          :   Hlow (freq-cutoff)         0.1000000E-01      :
          :   Hmax (freq-cutoff)         5.0000000          :
          :   S6 in model hess.         20.0000000          :
          ...................................................

generating ANC from model Hessian ...
Using Lindh-Hessian (1995)
 Shifting diagonal of input Hessian by    8.8429746455732320E-003
 Lowest  eigenvalues of input Hessian
    0.000000    0.000000    0.000000    0.000000    0.000000    0.000000
    0.010000    0.010265    0.010670    0.011689    0.012575    0.014940
    0.015232    0.015960    0.016188    0.016480    0.017031    0.017584
 Highest eigenvalues
    0.572703    0.574082    0.574199    0.574787    0.576279    0.582156


........................................................................
.............................. CYCLE    1 ..............................
........................................................................
   1    -36.8002862 -0.368003E+02  0.166E-04    2.16       0.0  T
   2    -36.8002862 -0.248690E-11  0.110E-04    2.16     288.2  T
   3    -36.8002862 -0.244285E-10  0.102E-04    2.16     311.0  T
     SCC iter.                  ...        0 min,  0.005 sec
     gradient                   ...        0 min,  0.014 sec
 * total energy  :   -36.7580494 Eh     change       -0.2129852E-09 Eh
   gradient norm :     0.1532571 Eh/α   predicted     0.0000000E+00 (-100.00%)
   displ. norm   :     0.8058140 α      lambda       -0.1209495E+00
   maximum displ.:     0.6935796 α      in ANC's #16, #15, #14, ...

........................................................................
.............................. CYCLE    2 ..............................
........................................................................
   1    -36.8613236 -0.368613E+02  0.374E+00    2.51       0.0  T
   2    -36.8650102 -0.368665E-02  0.242E+00    2.44       1.0  T
   3    -36.8614167  0.359353E-02  0.141E+00    2.42       1.0  T
   4    -36.8670239 -0.560718E-02  0.864E-01    2.41       1.0  T
   5    -36.8680848 -0.106095E-02  0.526E-01    2.41       1.0  T
   6    -36.8684648 -0.379954E-03  0.199E-01    2.40       1.0  T
   7    -36.8684994 -0.346190E-04  0.136E-01    2.40       1.0  T
   8    -36.8685135 -0.140977E-04  0.104E-01    2.41       1.0  T
   9    -36.8685468 -0.333220E-04  0.653E-02    2.40       1.0  T
  10    -36.8685570 -0.101494E-04  0.347E-02    2.40       1.0  T
  11    -36.8685594 -0.247079E-05  0.248E-02    2.40       1.3  T
  12    -36.8685612 -0.174498E-05  0.145E-02    2.40       2.2  T
  13    -36.8685619 -0.678611E-06  0.804E-03    2.40       3.9  T
  14    -36.8685620 -0.162299E-06  0.529E-03    2.40       6.0  T
  15    -36.8685621 -0.103249E-06  0.231E-03    2.40      13.7  T
  16    -36.8685621 -0.115125E-07  0.154E-03    2.40      20.5  T
  17    -36.8685622 -0.627024E-08  0.741E-04    2.40      42.7  T
  18    -36.8685622 -0.127908E-08  0.358E-04    2.40      88.3  T
     SCC iter.                  ...        0 min,  0.026 sec
     gradient                   ...        0 min,  0.013 sec
 * total energy  :   -36.8294300 Eh     change       -0.7138052E-01 Eh
   gradient norm :     0.0443120 Eh/α   predicted    -0.9974321E-01 (  39.73%)
   displ. norm   :     0.7587950 α      lambda       -0.2782741E-01
   maximum displ.:     0.4419801 α      in ANC's #5, #4, #10, ...

........................................................................
.............................. CYCLE    3 ..............................
........................................................................
   1    -36.8877467 -0.368877E+02  0.154E+00    2.72       0.0  T
   2    -36.8881858 -0.439117E-03  0.926E-01    2.71       1.0  T
   3    -36.8866237  0.156216E-02  0.632E-01    2.73       1.0  T
   4    -36.8887574 -0.213369E-02  0.280E-01    2.71       1.0  T
   5    -36.8888256 -0.681822E-04  0.186E-01    2.71       1.0  T
   6    -36.8888663 -0.407503E-04  0.799E-02    2.71       1.0  T
   7    -36.8888741 -0.773925E-05  0.662E-02    2.71       1.0  T
   8    -36.8888844 -0.103834E-04  0.378E-02    2.71       1.0  T
   9    -36.8888872 -0.280285E-05  0.208E-02    2.71       1.5  T
  10    -36.8888881 -0.909462E-06  0.851E-03    2.71       3.7  T
  11    -36.8888883 -0.138074E-06  0.458E-03    2.71       6.9  T
  12    -36.8888883 -0.363145E-07  0.304E-03    2.71      10.4  T
  13    -36.8888883 -0.246976E-07  0.148E-03    2.71      21.3  T
  14    -36.8888884 -0.464667E-08  0.105E-03    2.71      30.2  T
  15    -36.8888884 -0.364637E-08  0.565E-04    2.71      56.0  T
  16    -36.8888884 -0.966857E-09  0.290E-04    2.71     109.1  T
     SCC iter.                  ...        0 min,  0.022 sec
     gradient                   ...        0 min,  0.012 sec
 * total energy  :   -36.8483167 Eh     change       -0.1888674E-01 Eh
   gradient norm :     0.0257233 Eh/α   predicted    -0.2192480E-01 (  16.09%)
   displ. norm   :     0.7098108 α      lambda       -0.1474684E-01
   maximum displ.:     0.4760193 α      in ANC's #5, #16, #4, ...

........................................................................
.............................. CYCLE    4 ..............................
........................................................................
   1    -36.8994598 -0.368995E+02  0.124E+00    2.95       0.0  T
   2    -36.8996261 -0.166356E-03  0.653E-01    2.94       1.0  T
   3    -36.8992403  0.385828E-03  0.339E-01    2.96       1.0  T
   4    -36.8997732 -0.532940E-03  0.172E-01    2.95       1.0  T
   5    -36.8998043 -0.311060E-04  0.892E-02    2.95       1.0  T
   6    -36.8998158 -0.114510E-04  0.506E-02    2.95       1.0  T
   7    -36.8998171 -0.127427E-05  0.415E-02    2.95       1.0  T
   8    -36.8998220 -0.489477E-05  0.281E-02    2.94       1.1  T
   9    -36.8998243 -0.232329E-05  0.150E-02    2.94       2.1  T
  10    -36.8998249 -0.652702E-06  0.788E-03    2.94       4.0  T
  11    -36.8998251 -0.142272E-06  0.424E-03    2.94       7.5  T
  12    -36.8998251 -0.348305E-07  0.251E-03    2.94      12.6  T
  13    -36.8998251 -0.155532E-07  0.126E-03    2.94      25.0  T
  14    -36.8998251 -0.375510E-08  0.698E-04    2.94      45.3  T
  15    -36.8998251 -0.123077E-08  0.364E-04    2.94      86.9  T
     SCC iter.                  ...        0 min,  0.020 sec
     gradient                   ...        0 min,  0.012 sec
 * total energy  :   -36.8586298 Eh     change       -0.1031309E-01 Eh
   gradient norm :     0.0132835 Eh/α   predicted    -0.1108837E-01 (   7.52%)
   displ. norm   :     0.6359142 α      lambda       -0.7362181E-02
   maximum displ.:     0.4414583 α      in ANC's #5, #4, #16, ...

........................................................................
.............................. CYCLE    5 ..............................
........................................................................
   1    -36.9028868 -0.369029E+02  0.106E+00    3.08       0.0  T
   2    -36.9030122 -0.125398E-03  0.517E-01    3.09       1.0  T
   3    -36.9030483 -0.360479E-04  0.169E-01    3.08       1.0  T
   4    -36.9030620 -0.137510E-04  0.144E-01    3.09       1.0  T
   5    -36.9031048 -0.427365E-04  0.908E-02    3.09       1.0  T
   6    -36.9031242 -0.193886E-04  0.485E-02    3.09       1.0  T
   7    -36.9031288 -0.466224E-05  0.274E-02    3.09       1.2  T
   8    -36.9031300 -0.114086E-05  0.210E-02    3.09       1.5  T
   9    -36.9031313 -0.137280E-05  0.956E-03    3.09       3.3  T
  10    -36.9031315 -0.184141E-06  0.526E-03    3.09       6.0  T
  11    -36.9031316 -0.502562E-07  0.267E-03    3.09      11.8  T
  12    -36.9031316 -0.114785E-07  0.155E-03    3.09      20.5  T
  13    -36.9031316 -0.467704E-08  0.802E-04    3.09      39.4  T
  14    -36.9031316 -0.124734E-08  0.334E-04    3.09      94.8  T
     SCC iter.                  ...        0 min,  0.020 sec
     gradient                   ...        0 min,  0.013 sec
 * total energy  :   -36.8631407 Eh     change       -0.4510914E-02 Eh
   gradient norm :     0.0110314 Eh/α   predicted    -0.5169667E-02 (  14.60%)
   displ. norm   :     0.5747126 α      lambda       -0.4536855E-02
   maximum displ.:     0.3715433 α      in ANC's #5, #4, #11, ...

........................................................................
.............................. CYCLE    6 ..............................
........................................................................
   1    -36.9034677 -0.369035E+02  0.965E-01    3.16       0.0  T
   2    -36.9036021 -0.134423E-03  0.482E-01    3.16       1.0  T
   3    -36.9036255 -0.234011E-04  0.211E-01    3.16       1.0  T
   4    -36.9036906 -0.650591E-04  0.173E-01    3.17       1.0  T
   5    -36.9037468 -0.561583E-04  0.121E-01    3.16       1.0  T
   6    -36.9037937 -0.469137E-04  0.504E-02    3.17       1.0  T
   7    -36.9037983 -0.461749E-05  0.262E-02    3.16       1.2  T
   8    -36.9037992 -0.938471E-06  0.204E-02    3.16       1.6  T
   9    -36.9038004 -0.115536E-05  0.115E-02    3.16       2.8  T
  10    -36.9038007 -0.316538E-06  0.730E-03    3.16       4.3  T
  11    -36.9038008 -0.131073E-06  0.404E-03    3.16       7.8  T
  12    -36.9038009 -0.381075E-07  0.211E-03    3.16      15.0  T
  13    -36.9038009 -0.950322E-08  0.925E-04    3.16      34.2  T
  14    -36.9038009 -0.140443E-08  0.369E-04    3.16      85.8  T
     SCC iter.                  ...        0 min,  0.019 sec
     gradient                   ...        0 min,  0.012 sec
 * total energy  :   -36.8647231 Eh     change       -0.1582370E-02 Eh
   gradient norm :     0.0126612 Eh/α   predicted    -0.3017670E-02 (  90.71%)
   displ. norm   :     0.2107331 α      lambda       -0.1689179E-02
   maximum displ.:     0.1005520 α      in ANC's #8, #15, #5, ...

........................................................................
.............................. CYCLE    7 ..............................
........................................................................
   1    -36.9056685 -0.369057E+02  0.430E-01    3.21       0.0  T
   2    -36.9056967 -0.282637E-04  0.240E-01    3.20       1.0  T
   3    -36.9056243  0.723910E-04  0.149E-01    3.21       1.0  T
   4    -36.9057282 -0.103914E-03  0.809E-02    3.21       1.0  T
   5    -36.9057368 -0.859299E-05  0.537E-02    3.21       1.0  T
   6    -36.9057434 -0.657420E-05  0.248E-02    3.21       1.3  T
   7    -36.9057438 -0.377340E-06  0.163E-02    3.21       1.9  T
   8    -36.9057447 -0.885470E-06  0.955E-03    3.21       3.3  T
   9    -36.9057449 -0.176610E-06  0.367E-03    3.21       8.6  T
  10    -36.9057449 -0.212601E-07  0.186E-03    3.21      17.0  T
  11    -36.9057449 -0.612052E-08  0.107E-03    3.21      29.5  T
  12    -36.9057449 -0.232210E-08  0.730E-04    3.21      43.3  T
  13    -36.9057449 -0.164857E-08  0.297E-04    3.21     106.6  T
     SCC iter.                  ...        0 min,  0.017 sec
     gradient                   ...        0 min,  0.012 sec
 * total energy  :   -36.8656231 Eh     change       -0.9000650E-03 Eh
   gradient norm :     0.0068926 Eh/α   predicted    -0.8820945E-03 (  -2.00%)
   displ. norm   :     0.2198318 α      lambda       -0.8938734E-03
   maximum displ.:     0.1000364 α      in ANC's #6, #15, #4, ...

........................................................................
.............................. CYCLE    8 ..............................
........................................................................
   1    -36.9067586 -0.369068E+02  0.435E-01    3.26       0.0  T
   2    -36.9067939 -0.352876E-04  0.234E-01    3.25       1.0  T
   3    -36.9067559  0.379944E-04  0.125E-01    3.25       1.0  T
   4    -36.9068176 -0.617138E-04  0.794E-02    3.24       1.0  T
   5    -36.9068273 -0.970131E-05  0.555E-02    3.24       1.0  T
   6    -36.9068354 -0.805671E-05  0.289E-02    3.24       1.1  T
   7    -36.9068370 -0.168841E-05  0.175E-02    3.24       1.8  T
   8    -36.9068376 -0.543909E-06  0.131E-02    3.24       2.4  T
   9    -36.9068381 -0.560806E-06  0.620E-03    3.24       5.1  T
  10    -36.9068382 -0.831941E-07  0.301E-03    3.24      10.5  T
  11    -36.9068382 -0.165221E-07  0.162E-03    3.24      19.5  T
  12    -36.9068382 -0.422610E-08  0.101E-03    3.24      31.4  T
  13    -36.9068383 -0.221647E-08  0.409E-04    3.24      77.3  T
  14    -36.9068383 -0.298975E-09  0.193E-04    3.24     164.2  T
     SCC iter.                  ...        0 min,  0.019 sec
     gradient                   ...        0 min,  0.012 sec
 * total energy  :   -36.8656691 Eh     change       -0.4596335E-04 Eh
   gradient norm :     0.0069069 Eh/α   predicted    -0.4685348E-03 ( 919.37%)
   displ. norm   :     0.1500081 α      lambda       -0.7033024E-03
   maximum displ.:     0.0742193 α      in ANC's #10, #2, #9, ...

........................................................................
.............................. CYCLE    9 ..............................
........................................................................
   1    -36.9068098 -0.369068E+02  0.315E-01    3.24       0.0  T
   2    -36.9068262 -0.163753E-04  0.163E-01    3.25       1.0  T
   3    -36.9068303 -0.411739E-05  0.768E-02    3.25       1.0  T
   4    -36.9068380 -0.772242E-05  0.652E-02    3.25       1.0  T
   5    -36.9068463 -0.829707E-05  0.470E-02    3.25       1.0  T
   6    -36.9068543 -0.800363E-05  0.211E-02    3.25       1.5  T
   7    -36.9068551 -0.793758E-06  0.121E-02    3.25       2.6  T
   8    -36.9068554 -0.281161E-06  0.836E-03    3.25       3.8  T
   9    -36.9068556 -0.220532E-06  0.372E-03    3.25       8.5  T
  10    -36.9068556 -0.234315E-07  0.166E-03    3.25      19.0  T
  11    -36.9068556 -0.380726E-08  0.966E-04    3.25      32.7  T
  12    -36.9068556 -0.151336E-08  0.566E-04    3.25      55.9  T
     SCC iter.                  ...        0 min,  0.016 sec
     gradient                   ...        0 min,  0.012 sec
 * total energy  :   -36.8660315 Eh     change       -0.3623725E-03 Eh
   gradient norm :     0.0035327 Eh/α   predicted    -0.3595650E-03 (  -0.77%)
   displ. norm   :     0.1420847 α      lambda       -0.2482769E-03
   maximum displ.:     0.0632247 α      in ANC's #5, #6, #4, ...

........................................................................
.............................. CYCLE   10 ..............................
........................................................................
   1    -36.9064038 -0.369064E+02  0.274E-01    3.24       0.0  T
   2    -36.9064102 -0.644828E-05  0.130E-01    3.25       1.0  T
   3    -36.9063955  0.147221E-04  0.628E-02    3.24       1.0  T
   4    -36.9064161 -0.206006E-04  0.291E-02    3.25       1.1  T
   5    -36.9064173 -0.119367E-05  0.151E-02    3.25       2.1  T
   6    -36.9064178 -0.438249E-06  0.847E-03    3.25       3.7  T
   7    -36.9064179 -0.137504E-06  0.460E-03    3.25       6.9  T
   8    -36.9064179 -0.882419E-08  0.357E-03    3.25       8.9  T
   9    -36.9064179 -0.423124E-07  0.176E-03    3.25      17.9  T
  10    -36.9064180 -0.612938E-08  0.107E-03    3.25      29.4  T
  11    -36.9064180 -0.240166E-08  0.535E-04    3.25      59.1  T
  12    -36.9064180 -0.607962E-09  0.268E-04    3.25     117.9  T
     SCC iter.                  ...        0 min,  0.016 sec
     gradient                   ...        0 min,  0.012 sec
 * total energy  :   -36.8660893 Eh     change       -0.5779165E-04 Eh
   gradient norm :     0.0039258 Eh/α   predicted    -0.1266443E-03 ( 119.14%)
   displ. norm   :     0.0952335 α      lambda       -0.1593459E-03
   maximum displ.:     0.0413950 α      in ANC's #4, #6, #2, ...

........................................................................
.............................. CYCLE   11 ..............................
........................................................................
   1    -36.9065606 -0.369066E+02  0.171E-01    3.25       0.0  T
   2    -36.9065645 -0.392290E-05  0.843E-02    3.25       1.0  T
   3    -36.9065648 -0.274660E-06  0.338E-02    3.25       1.0  T
   4    -36.9065669 -0.210567E-05  0.275E-02    3.25       1.1  T
   5    -36.9065683 -0.140585E-05  0.185E-02    3.25       1.7  T
   6    -36.9065693 -0.102099E-05  0.695E-03    3.25       4.5  T
   7    -36.9065693 -0.410147E-07  0.432E-03    3.25       7.3  T
   8    -36.9065694 -0.508985E-07  0.264E-03    3.25      12.0  T
   9    -36.9065694 -0.123697E-07  0.148E-03    3.25      21.3  T
  10    -36.9065694 -0.390116E-08  0.786E-04    3.25      40.2  T
  11    -36.9065694 -0.123978E-08  0.473E-04    3.25      66.9  T
     SCC iter.                  ...        0 min,  0.015 sec
     gradient                   ...        0 min,  0.012 sec
 * total energy  :   -36.8661833 Eh     change       -0.9406999E-04 Eh
   gradient norm :     0.0032181 Eh/α   predicted    -0.8039449E-04 ( -14.54%)
   displ. norm   :     0.1870459 α      lambda       -0.2133768E-03
   maximum displ.:     0.0904519 α      in ANC's #6, #2, #1, ...

........................................................................
.............................. CYCLE   12 ..............................
........................................................................
   1    -36.9068236 -0.369068E+02  0.324E-01    3.26       0.0  T
   2    -36.9068350 -0.114309E-04  0.150E-01    3.26       1.0  T
   3    -36.9068323  0.267098E-05  0.396E-02    3.26       1.0  T
   4    -36.9068383 -0.592555E-05  0.262E-02    3.26       1.2  T
   5    -36.9068396 -0.132451E-05  0.173E-02    3.26       1.8  T
   6    -36.9068402 -0.605986E-06  0.772E-03    3.26       4.1  T
   7    -36.9068402 -0.518712E-07  0.502E-03    3.26       6.3  T
   8    -36.9068403 -0.785784E-07  0.317E-03    3.26      10.0  T
   9    -36.9068403 -0.197347E-07  0.166E-03    3.26      19.1  T
  10    -36.9068404 -0.506119E-08  0.956E-04    3.26      33.1  T
  11    -36.9068404 -0.186547E-08  0.508E-04    3.26      62.3  T
     SCC iter.                  ...        0 min,  0.014 sec
     gradient                   ...        0 min,  0.012 sec
 * total energy  :   -36.8662364 Eh     change       -0.5304754E-04 Eh
   gradient norm :     0.0033739 Eh/α   predicted    -0.1104222E-03 ( 108.16%)
   displ. norm   :     0.1001026 α      lambda       -0.1421770E-03
   maximum displ.:     0.0554707 α      in ANC's #1, #3, #2, ...

........................................................................
.............................. CYCLE   13 ..............................
........................................................................
   1    -36.9069351 -0.369069E+02  0.157E-01    3.26       0.0  T
   2    -36.9069374 -0.226139E-05  0.720E-02    3.26       1.0  T
   3    -36.9069376 -0.257201E-06  0.187E-02    3.26       1.7  T
   4    -36.9069383 -0.689809E-06  0.149E-02    3.26       2.1  T
   5    -36.9069388 -0.435285E-06  0.840E-03    3.26       3.8  T
   6    -36.9069389 -0.177329E-06  0.387E-03    3.26       8.2  T
   7    -36.9069390 -0.276164E-07  0.184E-03    3.26      17.2  T
   8    -36.9069390 -0.489030E-08  0.994E-04    3.26      31.8  T
   9    -36.9069390 -0.132105E-08  0.559E-04    3.26      56.6  T
     SCC iter.                  ...        0 min,  0.012 sec
     gradient                   ...        0 min,  0.012 sec
 * total energy  :   -36.8663400 Eh     change       -0.1036571E-03 Eh
   gradient norm :     0.0024369 Eh/α   predicted    -0.7180204E-04 ( -30.73%)
   displ. norm   :     0.1927295 α      lambda       -0.1337833E-03
   maximum displ.:     0.1160426 α      in ANC's #1, #2, #4, ...

........................................................................
.............................. CYCLE   14 ..............................
........................................................................
   1    -36.9070005 -0.369070E+02  0.261E-01    3.26       0.0  T
   2    -36.9070067 -0.618782E-05  0.118E-01    3.26       1.0  T
   3    -36.9070084 -0.170402E-05  0.166E-02    3.26       1.9  T
   4    -36.9070085 -0.110243E-06  0.132E-02    3.26       2.4  T
   5    -36.9070086 -0.166633E-06  0.105E-02    3.26       3.0  T
   6    -36.9070090 -0.323800E-06  0.343E-03    3.26       9.2  T
   7    -36.9070090 -0.197344E-07  0.179E-03    3.26      17.7  T
   8    -36.9070090 -0.436145E-08  0.135E-03    3.26      23.4  T
   9    -36.9070090 -0.128431E-08  0.108E-03    3.26      29.3  T
  10    -36.9070090 -0.403353E-08  0.486E-04    3.26      65.1  T
  11    -36.9070090 -0.442299E-09  0.222E-04    3.26     142.7  T
     SCC iter.                  ...        0 min,  0.014 sec
     gradient                   ...        0 min,  0.012 sec
 * total energy  :   -36.8664277 Eh     change       -0.8764036E-04 Eh
   gradient norm :     0.0023790 Eh/α   predicted    -0.6937780E-04 ( -20.84%)
   displ. norm   :     0.1557328 α      lambda       -0.7445295E-04
   maximum displ.:     0.1033711 α      in ANC's #1, #2, #3, ...

........................................................................
.............................. CYCLE   15 ..............................
........................................................................
   1    -36.9072300 -0.369072E+02  0.184E-01    3.26       0.0  T
   2    -36.9072329 -0.295088E-05  0.847E-02    3.26       1.0  T
   3    -36.9072312  0.168037E-05  0.252E-02    3.26       1.3  T
   4    -36.9072342 -0.300588E-05  0.125E-02    3.26       2.5  T
   5    -36.9072344 -0.197023E-06  0.798E-03    3.26       4.0  T
   6    -36.9072346 -0.138179E-06  0.366E-03    3.26       8.6  T
   7    -36.9072346 -0.247181E-07  0.204E-03    3.26      15.5  T
   8    -36.9072346 -0.367436E-08  0.160E-03    3.26      19.8  T
   9    -36.9072346 -0.763404E-08  0.949E-04    3.26      33.3  T
  10    -36.9072346 -0.193996E-08  0.503E-04    3.26      62.9  T
     SCC iter.                  ...        0 min,  0.013 sec
     gradient                   ...        0 min,  0.012 sec
 * total energy  :   -36.8664698 Eh     change       -0.4213152E-04 Eh
   gradient norm :     0.0023648 Eh/α   predicted    -0.3812812E-04 (  -9.50%)
   displ. norm   :     0.0917864 α      lambda       -0.5252002E-04
   maximum displ.:     0.0579287 α      in ANC's #1, #2, #7, ...

........................................................................
.............................. CYCLE   16 ..............................
........................................................................
   1    -36.9074903 -0.369075E+02  0.944E-02    3.26       0.0  T
   2    -36.9074914 -0.111649E-05  0.485E-02    3.26       1.0  T
   3    -36.9074885  0.287571E-05  0.298E-02    3.27       1.1  T
   4    -36.9074927 -0.416390E-05  0.146E-02    3.26       2.2  T
   5    -36.9074930 -0.280383E-06  0.994E-03    3.26       3.2  T
   6    -36.9074932 -0.244839E-06  0.511E-03    3.26       6.2  T
   7    -36.9074933 -0.329505E-07  0.320E-03    3.26       9.9  T
   8    -36.9074933 -0.347442E-07  0.185E-03    3.26      17.1  T
   9    -36.9074933 -0.788578E-08  0.863E-04    3.26      36.6  T
  10    -36.9074933 -0.121801E-08  0.449E-04    3.26      70.4  T
     SCC iter.                  ...        0 min,  0.014 sec
     gradient                   ...        0 min,  0.012 sec
 * total energy  :   -36.8664933 Eh     change       -0.2348085E-04 Eh
   gradient norm :     0.0023599 Eh/α   predicted    -0.2648020E-04 (  12.77%)
   displ. norm   :     0.0527242 α      lambda       -0.4230617E-04
   maximum displ.:     0.0259226 α      in ANC's #14, #1, #4, ...

........................................................................
.............................. CYCLE   17 ..............................
........................................................................
   1    -36.9075069 -0.369075E+02  0.890E-02    3.26       0.0  T
   2    -36.9075087 -0.182789E-05  0.453E-02    3.26       1.0  T
   3    -36.9075093 -0.592340E-06  0.170E-02    3.26       1.9  T
   4    -36.9075095 -0.145221E-06  0.141E-02    3.26       2.2  T
   5    -36.9075096 -0.168706E-06  0.118E-02    3.26       2.7  T
   6    -36.9075101 -0.445002E-06  0.401E-03    3.26       7.9  T
   7    -36.9075101 -0.249985E-07  0.169E-03    3.26      18.8  T
   8    -36.9075101 -0.350383E-09  0.126E-03    3.26      25.2  T
   9    -36.9075101 -0.422799E-08  0.780E-04    3.26      40.5  T
  10    -36.9075101 -0.107236E-08  0.348E-04    3.26      91.0  T
     SCC iter.                  ...        0 min,  0.013 sec
     gradient                   ...        0 min,  0.012 sec
 * total energy  :   -36.8665058 Eh     change       -0.1249951E-04 Eh
   gradient norm :     0.0016234 Eh/α   predicted    -0.2121196E-04 (  69.70%)
   displ. norm   :     0.0522742 α      lambda       -0.2989686E-04
   maximum displ.:     0.0201511 α      in ANC's #13, #8, #11, ...

........................................................................
.............................. CYCLE   18 ..............................
........................................................................
   1    -36.9072397 -0.369072E+02  0.107E-01    3.26       0.0  T
   2    -36.9072412 -0.149049E-05  0.580E-02    3.26       1.0  T
   3    -36.9072369  0.427755E-05  0.372E-02    3.26       1.0  T
   4    -36.9072433 -0.634739E-05  0.201E-02    3.26       1.6  T
   5    -36.9072439 -0.632241E-06  0.129E-02    3.26       2.4  T
   6    -36.9072443 -0.443194E-06  0.689E-03    3.26       4.6  T
   7    -36.9072444 -0.282670E-07  0.522E-03    3.26       6.1  T
   8    -36.9072445 -0.102041E-06  0.258E-03    3.26      12.3  T
   9    -36.9072445 -0.138018E-07  0.110E-03    3.26      28.8  T
  10    -36.9072445 -0.160952E-08  0.657E-04    3.26      48.1  T
  11    -36.9072445 -0.833076E-09  0.336E-04    3.26      94.2  T
     SCC iter.                  ...        0 min,  0.014 sec
     gradient                   ...        0 min,  0.012 sec
 * total energy  :   -36.8665115 Eh     change       -0.5667399E-05 Eh
   gradient norm :     0.0012759 Eh/α   predicted    -0.1496555E-04 ( 164.06%)
   displ. norm   :     0.0436486 α      lambda       -0.2164641E-04
   maximum displ.:     0.0232082 α      in ANC's #1, #7, #5, ...

........................................................................
.............................. CYCLE   19 ..............................
........................................................................
   1    -36.9073558 -0.369074E+02  0.885E-02    3.26       0.0  T
   2    -36.9073564 -0.603306E-06  0.414E-02    3.26       1.0  T
   3    -36.9073556  0.830585E-06  0.165E-02    3.26       1.9  T
   4    -36.9073568 -0.127554E-05  0.886E-03    3.26       3.6  T
   5    -36.9073570 -0.135429E-06  0.464E-03    3.26       6.8  T
   6    -36.9073570 -0.464109E-07  0.269E-03    3.26      11.8  T
   7    -36.9073570 -0.653597E-08  0.207E-03    3.26      15.3  T
   8    -36.9073570 -0.129909E-07  0.129E-03    3.26      24.4  T
   9    -36.9073571 -0.401712E-08  0.577E-04    3.26      54.8  T
  10    -36.9073571 -0.581160E-09  0.363E-04    3.26      87.1  T
     SCC iter.                  ...        0 min,  0.013 sec
     gradient                   ...        0 min,  0.012 sec
 * total energy  :   -36.8665267 Eh     change       -0.1521345E-04 Eh
   gradient norm :     0.0007522 Eh/α   predicted    -0.1083406E-04 ( -28.79%)
   displ. norm   :     0.0642203 α      lambda       -0.1385924E-04
   maximum displ.:     0.0418164 α      in ANC's #1, #2, #14, ...

........................................................................
.............................. CYCLE   20 ..............................
........................................................................
   1    -36.9074984 -0.369075E+02  0.112E-01    3.26       0.0  T
   2    -36.9074995 -0.107169E-05  0.526E-02    3.26       1.0  T
   3    -36.9074988  0.684181E-06  0.176E-02    3.26       1.8  T
   4    -36.9075001 -0.128105E-05  0.102E-02    3.26       3.1  T
   5    -36.9075002 -0.160114E-06  0.609E-03    3.26       5.2  T
   6    -36.9075003 -0.898415E-07  0.293E-03    3.26      10.8  T
   7    -36.9075003 -0.170338E-07  0.147E-03    3.26      21.5  T
   8    -36.9075003 -0.254146E-08  0.963E-04    3.26      32.8  T
   9    -36.9075004 -0.211373E-08  0.665E-04    3.26      47.5  T
     SCC iter.                  ...        0 min,  0.012 sec
     gradient                   ...        0 min,  0.012 sec
 * total energy  :   -36.8665339 Eh     change       -0.7205862E-05 Eh
   gradient norm :     0.0009081 Eh/α   predicted    -0.6941003E-05 (  -3.68%)
   displ. norm   :     0.0833756 α      lambda       -0.1449731E-04
   maximum displ.:     0.0446029 α      in ANC's #1, #2, #5, ...
 * RMSD in coord.:     1.0801611 α      energy gain  -0.1084844E+00 Eh

generating ANC from model Hessian ...
Using Lindh-Hessian (1995)
 Shifting diagonal of input Hessian by    9.3034199268340282E-003
 Lowest  eigenvalues of input Hessian
    0.000000    0.000000    0.000000    0.000000    0.000000    0.000000
    0.010000    0.010440    0.010786    0.010868    0.010941    0.011494
    0.015455    0.015611    0.015783    0.016240    0.017029    0.017042
 Highest eigenvalues
    0.568398    0.568456    0.569537    0.570533    0.581816    0.582290


........................................................................
.............................. CYCLE   21 ..............................
........................................................................
   1    -36.9074391 -0.369074E+02  0.171E-01    3.26       0.0  T
   2    -36.9074417 -0.255589E-05  0.794E-02    3.26       1.0  T
   3    -36.9074417  0.176891E-07  0.210E-02    3.26       1.5  T
   4    -36.9074428 -0.116594E-05  0.154E-02    3.26       2.1  T
   5    -36.9074432 -0.406023E-06  0.985E-03    3.26       3.2  T
   6    -36.9074435 -0.258579E-06  0.363E-03    3.26       8.7  T
   7    -36.9074435 -0.858324E-08  0.247E-03    3.26      12.8  T
   8    -36.9074435 -0.166243E-07  0.165E-03    3.26      19.1  T
   9    -36.9074435 -0.612840E-08  0.958E-04    3.26      33.0  T
  10    -36.9074435 -0.195129E-08  0.556E-04    3.26      56.8  T
     SCC iter.                  ...        0 min,  0.013 sec
     gradient                   ...        0 min,  0.012 sec
 * total energy  :   -36.8665420 Eh     change       -0.8108137E-05 Eh
   gradient norm :     0.0014123 Eh/α   predicted     0.0000000E+00 (-100.00%)
   displ. norm   :     0.0903725 α      lambda       -0.5935692E-04
   maximum displ.:     0.0432723 α      in ANC's #11, #12, #7, ...

........................................................................
.............................. CYCLE   22 ..............................
........................................................................
   1    -36.9073072 -0.369073E+02  0.204E-01    3.26       0.0  T
   2    -36.9073137 -0.653490E-05  0.104E-01    3.26       1.0  T
   3    -36.9073168 -0.304783E-05  0.425E-02    3.26       1.0  T
   4    -36.9073174 -0.620258E-06  0.379E-02    3.26       1.0  T
   5    -36.9073202 -0.284033E-05  0.262E-02    3.26       1.2  T
   6    -36.9073222 -0.199827E-05  0.803E-03    3.26       3.9  T
   7    -36.9073223 -0.605452E-07  0.396E-03    3.26       8.0  T
   8    -36.9073223 -0.312513E-08  0.317E-03    3.26      10.0  T
   9    -36.9073223 -0.283840E-07  0.142E-03    3.26      22.3  T
  10    -36.9073223 -0.314948E-08  0.856E-04    3.26      36.9  T
  11    -36.9073223 -0.144221E-08  0.564E-04    3.26      56.1  T
     SCC iter.                  ...        0 min,  0.014 sec
     gradient                   ...        0 min,  0.012 sec
 * total energy  :   -36.8664354 Eh     change        0.1065751E-03 Eh
   gradient norm :     0.0039062 Eh/α   predicted    -0.2978637E-04 (-127.95%)
   displ. norm   :     0.0435428 α      lambda       -0.1646522E-03
   maximum displ.:     0.0225328 α      in ANC's #11, #12, #15, ...

........................................................................
.............................. CYCLE   23 ..............................
........................................................................
   1    -36.9074518 -0.369075E+02  0.102E-01    3.26       0.0  T
   2    -36.9074537 -0.191757E-05  0.540E-02    3.26       1.0  T
   3    -36.9074548 -0.107477E-05  0.246E-02    3.26       1.3  T
   4    -36.9074550 -0.191923E-06  0.218E-02    3.26       1.4  T
   5    -36.9074559 -0.927013E-06  0.150E-02    3.26       2.1  T
   6    -36.9074566 -0.672813E-06  0.436E-03    3.26       7.3  T
   7    -36.9074566 -0.194257E-07  0.196E-03    3.26      16.1  T
   8    -36.9074566 -0.351221E-08  0.105E-03    3.26      30.2  T
   9    -36.9074566 -0.304667E-09  0.791E-04    3.26      40.0  T
  10    -36.9074566 -0.209797E-08  0.433E-04    3.26      73.0  T
     SCC iter.                  ...        0 min,  0.014 sec
     gradient                   ...        0 min,  0.012 sec
 * total energy  :   -36.8665449 Eh     change       -0.1094873E-03 Eh
   gradient norm :     0.0013850 Eh/α   predicted    -0.8248328E-04 ( -24.66%)
   displ. norm   :     0.0725804 α      lambda       -0.5002194E-04
   maximum displ.:     0.0422080 α      in ANC's #7, #10, #2, ...

........................................................................
.............................. CYCLE   24 ..............................
........................................................................
   1    -36.9074352 -0.369074E+02  0.136E-01    3.26       0.0  T
   2    -36.9074371 -0.192779E-05  0.608E-02    3.26       1.0  T
   3    -36.9074378 -0.644743E-06  0.162E-02    3.26       2.0  T
   4    -36.9074377  0.263937E-07  0.140E-02    3.26       2.3  T
   5    -36.9074382 -0.487090E-06  0.854E-03    3.26       3.7  T
   6    -36.9074384 -0.173154E-06  0.432E-03    3.26       7.3  T
   7    -36.9074384 -0.385496E-07  0.210E-03    3.26      15.1  T
   8    -36.9074384  0.208651E-09  0.166E-03    3.26      19.0  T
   9    -36.9074384 -0.909612E-08  0.818E-04    3.26      38.7  T
  10    -36.9074384 -0.133113E-08  0.459E-04    3.26      68.9  T
     SCC iter.                  ...        0 min,  0.013 sec
     gradient                   ...        0 min,  0.012 sec
 * total energy  :   -36.8665360 Eh     change        0.8902809E-05 Eh
   gradient norm :     0.0016591 Eh/α   predicted    -0.2506891E-04 (-381.58%)
   displ. norm   :     0.0566267 α      lambda       -0.5276225E-04
   maximum displ.:     0.0268947 α      in ANC's #10, #2, #7, ...

........................................................................
.............................. CYCLE   25 ..............................
........................................................................
   1    -36.9074582 -0.369075E+02  0.112E-01    3.26       0.0  T
   2    -36.9074594 -0.125261E-05  0.512E-02    3.26       1.0  T
   3    -36.9074598 -0.331941E-06  0.157E-02    3.26       2.0  T
   4    -36.9074599 -0.153697E-06  0.133E-02    3.26       2.4  T
   5    -36.9074603 -0.378219E-06  0.756E-03    3.26       4.2  T
   6    -36.9074604 -0.125740E-06  0.389E-03    3.26       8.1  T
   7    -36.9074605 -0.290535E-07  0.193E-03    3.26      16.4  T
   8    -36.9074605 -0.319673E-09  0.155E-03    3.26      20.5  T
   9    -36.9074605 -0.809741E-08  0.676E-04    3.26      46.8  T
  10    -36.9074605 -0.861014E-09  0.414E-04    3.26      76.4  T
     SCC iter.                  ...        0 min,  0.013 sec
     gradient                   ...        0 min,  0.012 sec
 * total energy  :   -36.8665639 Eh     change       -0.2792992E-04 Eh
   gradient norm :     0.0012287 Eh/α   predicted    -0.2641998E-04 (  -5.41%)
   displ. norm   :     0.0414788 α      lambda       -0.2524981E-04
   maximum displ.:     0.0209036 α      in ANC's #11, #2, #16, ...

........................................................................
.............................. CYCLE   26 ..............................
........................................................................
   1    -36.9074513 -0.369075E+02  0.896E-02    3.26       0.0  T
   2    -36.9074527 -0.141124E-05  0.469E-02    3.26       1.0  T
   3    -36.9074536 -0.890199E-06  0.198E-02    3.26       1.6  T
   4    -36.9074540 -0.403066E-06  0.155E-02    3.26       2.0  T
   5    -36.9074541 -0.153050E-06  0.115E-02    3.26       2.8  T
   6    -36.9074547 -0.582586E-06  0.439E-03    3.26       7.2  T
   7    -36.9074547 -0.295881E-07  0.206E-03    3.26      15.3  T
   8    -36.9074547 -0.605462E-08  0.118E-03    3.26      26.9  T
   9    -36.9074547 -0.100317E-08  0.930E-04    3.26      34.0  T
  10    -36.9074547 -0.265216E-08  0.598E-04    3.26      52.9  T
     SCC iter.                  ...        0 min,  0.013 sec
     gradient                   ...        0 min,  0.012 sec
 * total energy  :   -36.8665655 Eh     change       -0.1547908E-05 Eh
   gradient norm :     0.0013049 Eh/α   predicted    -0.1263602E-04 ( 716.33%)
   displ. norm   :     0.0488932 α      lambda       -0.2992378E-04
   maximum displ.:     0.0261080 α      in ANC's #2, #14, #13, ...

........................................................................
.............................. CYCLE   27 ..............................
........................................................................
   1    -36.9074491 -0.369074E+02  0.108E-01    3.26       0.0  T
   2    -36.9074508 -0.166169E-05  0.540E-02    3.26       1.0  T
   3    -36.9074517 -0.948170E-06  0.212E-02    3.26       1.5  T
   4    -36.9074519 -0.177381E-06  0.185E-02    3.26       1.7  T
   5    -36.9074526 -0.672272E-06  0.132E-02    3.26       2.4  T
   6    -36.9074532 -0.599421E-06  0.507E-03    3.26       6.2  T
   7    -36.9074532 -0.461483E-07  0.254E-03    3.26      12.5  T
   8    -36.9074532 -0.955217E-08  0.157E-03    3.26      20.2  T
   9    -36.9074532 -0.382013E-08  0.116E-03    3.26      27.2  T
  10    -36.9074532 -0.416243E-08  0.678E-04    3.26      46.7  T
  11    -36.9074532 -0.981046E-09  0.379E-04    3.26      83.5  T
     SCC iter.                  ...        0 min,  0.014 sec
     gradient                   ...        0 min,  0.012 sec
 * total energy  :   -36.8665716 Eh     change       -0.6090897E-05 Eh
   gradient norm :     0.0014042 Eh/α   predicted    -0.1497813E-04 ( 145.91%)
   displ. norm   :     0.0451946 α      lambda       -0.2734189E-04
   maximum displ.:     0.0286030 α      in ANC's #2, #5, #12, ...

........................................................................
.............................. CYCLE   28 ..............................
........................................................................
   1    -36.9074635 -0.369075E+02  0.941E-02    3.26       0.0  T
   2    -36.9074647 -0.121497E-05  0.459E-02    3.26       1.0  T
   3    -36.9074654 -0.637054E-06  0.160E-02    3.26       2.0  T
   4    -36.9074657 -0.292914E-06  0.120E-02    3.26       2.6  T
   5    -36.9074659 -0.194990E-06  0.689E-03    3.26       4.6  T
   6    -36.9074661 -0.216589E-06  0.319E-03    3.26       9.9  T
   7    -36.9074661 -0.148010E-07  0.162E-03    3.26      19.5  T
   8    -36.9074661 -0.399939E-08  0.874E-04    3.26      36.2  T
   9    -36.9074661 -0.867026E-09  0.556E-04    3.26      56.9  T
     SCC iter.                  ...        0 min,  0.012 sec
     gradient                   ...        0 min,  0.012 sec
 * total energy  :   -36.8665911 Eh     change       -0.1950669E-04 Eh
   gradient norm :     0.0006132 Eh/α   predicted    -0.1368194E-04 ( -29.86%)
   displ. norm   :     0.0512061 α      lambda       -0.1129563E-04
   maximum displ.:     0.0380958 α      in ANC's #2, #5, #1, ...

........................................................................
.............................. CYCLE   29 ..............................
........................................................................
   1    -36.9074651 -0.369075E+02  0.993E-02    3.26       0.0  T
   2    -36.9074660 -0.893654E-06  0.456E-02    3.26       1.0  T
   3    -36.9074663 -0.318220E-06  0.879E-03    3.26       3.6  T
   4    -36.9074664 -0.383448E-07  0.680E-03    3.26       4.6  T
   5    -36.9074665 -0.106072E-06  0.434E-03    3.26       7.3  T
   6    -36.9074665 -0.596636E-07  0.209E-03    3.26      15.2  T
   7    -36.9074665 -0.859379E-08  0.126E-03    3.26      25.2  T
   8    -36.9074665 -0.234689E-08  0.889E-04    3.26      35.6  T
   9    -36.9074665 -0.206264E-08  0.574E-04    3.26      55.1  T
     SCC iter.                  ...        0 min,  0.012 sec
     gradient                   ...        0 min,  0.012 sec
 * total energy  :   -36.8666002 Eh     change       -0.9135263E-05 Eh
   gradient norm :     0.0007227 Eh/α   predicted    -0.5655345E-05 ( -38.09%)
   displ. norm   :     0.0768386 α      lambda       -0.1643530E-04
   maximum displ.:     0.0566225 α      in ANC's #2, #5, #1, ...

........................................................................
.............................. CYCLE   30 ..............................
........................................................................
   1    -36.9074624 -0.369075E+02  0.150E-01    3.26       0.0  T
   2    -36.9074645 -0.209775E-05  0.692E-02    3.26       1.0  T
   3    -36.9074652 -0.751720E-06  0.138E-02    3.26       2.3  T
   4    -36.9074653 -0.627958E-07  0.114E-02    3.26       2.8  T
   5    -36.9074656 -0.274707E-06  0.702E-03    3.26       4.5  T
   6    -36.9074657 -0.151523E-06  0.224E-03    3.26      14.1  T
   7    -36.9074657 -0.614138E-08  0.118E-03    3.26      26.8  T
   8    -36.9074657 -0.157014E-08  0.733E-04    3.26      43.1  T
   9    -36.9074657 -0.668791E-09  0.535E-04    3.26      59.2  T
     SCC iter.                  ...        0 min,  0.012 sec
     gradient                   ...        0 min,  0.012 sec
 * total energy  :   -36.8666149 Eh     change       -0.1468788E-04 Eh
   gradient norm :     0.0008954 Eh/α   predicted    -0.8238031E-05 ( -43.91%)
   displ. norm   :     0.1308452 α      lambda       -0.2558422E-04
   maximum displ.:     0.0974993 α      in ANC's #2, #5, #1, ...

........................................................................
.............................. CYCLE   31 ..............................
........................................................................
   1    -36.9074122 -0.369074E+02  0.259E-01    3.26       0.0  T
   2    -36.9074178 -0.565249E-05  0.119E-01    3.26       1.0  T
   3    -36.9074192 -0.134024E-05  0.210E-02    3.26       1.5  T
   4    -36.9074198 -0.591097E-06  0.173E-02    3.26       1.8  T
   5    -36.9074204 -0.621807E-06  0.811E-03    3.26       3.9  T
   6    -36.9074205 -0.146559E-06  0.314E-03    3.26      10.1  T
   7    -36.9074205 -0.130703E-07  0.174E-03    3.26      18.2  T
   8    -36.9074205 -0.424550E-08  0.113E-03    3.26      28.0  T
   9    -36.9074205 -0.182629E-08  0.856E-04    3.26      37.0  T
  10    -36.9074205 -0.220890E-08  0.528E-04    3.26      59.9  T
     SCC iter.                  ...        0 min,  0.013 sec
     gradient                   ...        0 min,  0.012 sec
 * total energy  :   -36.8666320 Eh     change       -0.1713151E-04 Eh
   gradient norm :     0.0014317 Eh/α   predicted    -0.1288800E-04 ( -24.77%)
   displ. norm   :     0.1158999 α      lambda       -0.3131541E-04
   maximum displ.:     0.0861643 α      in ANC's #2, #5, #1, ...

........................................................................
.............................. CYCLE   32 ..............................
........................................................................
   1    -36.9073890 -0.369074E+02  0.225E-01    3.26       0.0  T
   2    -36.9073934 -0.442383E-05  0.103E-01    3.26       1.0  T
   3    -36.9073945 -0.113136E-05  0.179E-02    3.26       1.8  T
   4    -36.9073949 -0.361929E-06  0.152E-02    3.26       2.1  T
   5    -36.9073954 -0.512891E-06  0.604E-03    3.26       5.2  T
   6    -36.9073955 -0.863236E-07  0.232E-03    3.26      13.6  T
   7    -36.9073955 -0.705915E-08  0.143E-03    3.26      22.1  T
   8    -36.9073955 -0.143667E-08  0.115E-03    3.26      27.4  T
   9    -36.9073955 -0.367930E-08  0.758E-04    3.26      41.7  T
  10    -36.9073955 -0.172852E-08  0.426E-04    3.26      74.3  T
     SCC iter.                  ...        0 min,  0.013 sec
     gradient                   ...        0 min,  0.012 sec
 * total energy  :   -36.8666712 Eh     change       -0.3920762E-04 Eh
   gradient norm :     0.0008728 Eh/α   predicted    -0.1575011E-04 ( -59.83%)
   displ. norm   :     0.2113118 α      lambda       -0.4337926E-04
   maximum displ.:     0.1604313 α      in ANC's #2, #5, #3, ...

........................................................................
.............................. CYCLE   33 ..............................
........................................................................
   1    -36.9073491 -0.369073E+02  0.408E-01    3.25       0.0  T
   2    -36.9073635 -0.144210E-04  0.186E-01    3.25       1.0  T
   3    -36.9073678 -0.425732E-05  0.305E-02    3.25       1.0  T
   4    -36.9073681 -0.348757E-06  0.267E-02    3.25       1.2  T
   5    -36.9073700 -0.184143E-05  0.103E-02    3.25       3.1  T
   6    -36.9073702 -0.242779E-06  0.395E-03    3.25       8.0  T
   7    -36.9073702 -0.179637E-07  0.257E-03    3.25      12.3  T
   8    -36.9073702 -0.455825E-08  0.203E-03    3.25      15.6  T
   9    -36.9073703 -0.116784E-07  0.126E-03    3.25      25.1  T
  10    -36.9073703 -0.466066E-08  0.689E-04    3.25      45.9  T
  11    -36.9073703 -0.112717E-08  0.343E-04    3.25      92.1  T
     SCC iter.                  ...        0 min,  0.015 sec
     gradient                   ...        0 min,  0.012 sec
 * total energy  :   -36.8667146 Eh     change       -0.4336294E-04 Eh
   gradient norm :     0.0013724 Eh/α   predicted    -0.2211931E-04 ( -48.99%)
   displ. norm   :     0.2307811 α      lambda       -0.5261038E-04
   maximum displ.:     0.1757181 α      in ANC's #2, #5, #3, ...

........................................................................
.............................. CYCLE   34 ..............................
........................................................................
   1    -36.9072520 -0.369073E+02  0.451E-01    3.25       0.0  T
   2    -36.9072693 -0.172834E-04  0.207E-01    3.25       1.0  T
   3    -36.9072736 -0.426930E-05  0.375E-02    3.25       1.0  T
   4    -36.9072754 -0.183809E-05  0.316E-02    3.25       1.0  T
   5    -36.9072776 -0.216721E-05  0.150E-02    3.25       2.1  T
   6    -36.9072782 -0.589819E-06  0.588E-03    3.25       5.4  T
   7    -36.9072782 -0.496681E-07  0.371E-03    3.25       8.5  T
   8    -36.9072782 -0.297480E-07  0.223E-03    3.25      14.2  T
   9    -36.9072783 -0.916809E-08  0.135E-03    3.25      23.4  T
  10    -36.9072783 -0.533248E-08  0.895E-04    3.25      35.3  T
  11    -36.9072783 -0.184509E-08  0.454E-04    3.25      69.7  T
     SCC iter.                  ...        0 min,  0.015 sec
     gradient                   ...        0 min,  0.012 sec
 * total energy  :   -36.8667529 Eh     change       -0.3831707E-04 Eh
   gradient norm :     0.0021928 Eh/α   predicted    -0.2692796E-04 ( -29.72%)
   displ. norm   :     0.0947136 α      lambda       -0.4460285E-04
   maximum displ.:     0.0747679 α      in ANC's #2, #5, #3, ...

........................................................................
.............................. CYCLE   35 ..............................
........................................................................
   1    -36.9073617 -0.369074E+02  0.180E-01    3.25       0.0  T
   2    -36.9073645 -0.273852E-05  0.823E-02    3.25       1.0  T
   3    -36.9073652 -0.713284E-06  0.149E-02    3.25       2.1  T
   4    -36.9073654 -0.233869E-06  0.127E-02    3.25       2.5  T
   5    -36.9073658 -0.364640E-06  0.644E-03    3.25       4.9  T
   6    -36.9073659 -0.108338E-06  0.288E-03    3.25      11.0  T
   7    -36.9073659 -0.135815E-07  0.177E-03    3.25      17.8  T
   8    -36.9073659 -0.250229E-08  0.138E-03    3.25      22.9  T
   9    -36.9073659 -0.595402E-08  0.820E-04    3.25      38.6  T
  10    -36.9073659 -0.186602E-08  0.438E-04    3.25      72.1  T
     SCC iter.                  ...        0 min,  0.013 sec
     gradient                   ...        0 min,  0.012 sec
 * total energy  :   -36.8667857 Eh     change       -0.3281008E-04 Eh
   gradient norm :     0.0018325 Eh/α   predicted    -0.2250022E-04 ( -31.42%)
   displ. norm   :     0.2030936 α      lambda       -0.7608549E-04
   maximum displ.:     0.1676168 α      in ANC's #2, #5, #3, ...

........................................................................
.............................. CYCLE   36 ..............................
........................................................................
   1    -36.9077735 -0.369078E+02  0.383E-01    3.26       0.0  T
   2    -36.9077849 -0.114619E-04  0.175E-01    3.26       1.0  T
   3    -36.9077808  0.413247E-05  0.457E-02    3.26       1.0  T
   4    -36.9077901 -0.931278E-05  0.258E-02    3.26       1.2  T
   5    -36.9077913 -0.120454E-05  0.124E-02    3.26       2.6  T
   6    -36.9077917 -0.351989E-06  0.652E-03    3.26       4.9  T
   7    -36.9077917 -0.744681E-07  0.357E-03    3.26       8.9  T
   8    -36.9077918 -0.243016E-07  0.212E-03    3.26      14.9  T
   9    -36.9077918 -0.564655E-08  0.150E-03    3.26      21.0  T
  10    -36.9077918 -0.575152E-08  0.106E-03    3.26      30.0  T
  11    -36.9077918 -0.291220E-08  0.462E-04    3.26      68.5  T
  12    -36.9077918 -0.406345E-09  0.200E-04    3.26     157.8  T
     SCC iter.                  ...        0 min,  0.016 sec
     gradient                   ...        0 min,  0.012 sec
 * total energy  :   -36.8668576 Eh     change       -0.7190967E-04 Eh
   gradient norm :     0.0008804 Eh/α   predicted    -0.3874050E-04 ( -46.13%)
   displ. norm   :     0.1774349 α      lambda       -0.2828972E-04
   maximum displ.:     0.1469104 α      in ANC's #2, #5, #3, ...

........................................................................
.............................. CYCLE   37 ..............................
........................................................................
   1    -36.9075268 -0.369075E+02  0.346E-01    3.25       0.0  T
   2    -36.9075359 -0.913398E-05  0.160E-01    3.25       1.0  T
   3    -36.9075337  0.226425E-05  0.361E-02    3.25       1.0  T
   4    -36.9075396 -0.596887E-05  0.200E-02    3.25       1.6  T
   5    -36.9075403 -0.705954E-06  0.735E-03    3.25       4.3  T
   6    -36.9075404 -0.102730E-06  0.395E-03    3.25       8.0  T
   7    -36.9075405 -0.216414E-07  0.195E-03    3.25      16.2  T
   8    -36.9075405 -0.196003E-08  0.145E-03    3.25      21.9  T
   9    -36.9075405 -0.543778E-08  0.952E-04    3.25      33.2  T
  10    -36.9075405 -0.204884E-08  0.630E-04    3.25      50.2  T
     SCC iter.                  ...        0 min,  0.013 sec
     gradient                   ...        0 min,  0.012 sec
 * total energy  :   -36.8668815 Eh     change       -0.2386399E-04 Eh
   gradient norm :     0.0010688 Eh/α   predicted    -0.1434267E-04 ( -39.90%)
   displ. norm   :     0.1108011 α      lambda       -0.2383719E-04
   maximum displ.:     0.0924969 α      in ANC's #2, #5, #3, ...

........................................................................
.............................. CYCLE   38 ..............................
........................................................................
   1    -36.9075270 -0.369075E+02  0.224E-01    3.24       0.0  T
   2    -36.9075316 -0.462394E-05  0.104E-01    3.24       1.0  T
   3    -36.9075335 -0.183068E-05  0.251E-02    3.24       1.3  T
   4    -36.9075337 -0.205097E-06  0.220E-02    3.24       1.4  T
   5    -36.9075347 -0.986290E-06  0.157E-02    3.24       2.0  T
   6    -36.9075355 -0.831487E-06  0.650E-03    3.24       4.9  T
   7    -36.9075356 -0.816363E-07  0.348E-03    3.24       9.1  T
   8    -36.9075356 -0.262165E-07  0.165E-03    3.24      19.1  T
   9    -36.9075356 -0.284017E-08  0.977E-04    3.24      32.4  T
  10    -36.9075356 -0.247871E-08  0.652E-04    3.24      48.5  T
     SCC iter.                  ...        0 min,  0.013 sec
     gradient                   ...        0 min,  0.012 sec
 * total energy  :   -36.8668719 Eh     change        0.9549551E-05 Eh
   gradient norm :     0.0017459 Eh/α   predicted    -0.1198327E-04 (-225.49%)
   displ. norm   :     0.0563491 α      lambda       -0.3077048E-04
   maximum displ.:     0.0352955 α      in ANC's #5, #2, #3, ...

........................................................................
.............................. CYCLE   39 ..............................
........................................................................
   1    -36.9079323 -0.369079E+02  0.120E-01    3.26       0.0  T
   2    -36.9079338 -0.151171E-05  0.642E-02    3.26       1.0  T
   3    -36.9079279  0.596683E-05  0.391E-02    3.26       1.0  T
   4    -36.9079360 -0.817303E-05  0.187E-02    3.26       1.7  T
   5    -36.9079366 -0.584194E-06  0.110E-02    3.26       2.9  T
   6    -36.9079369 -0.302525E-06  0.687E-03    3.26       4.6  T
   7    -36.9079370 -0.120895E-06  0.330E-03    3.26       9.6  T
   8    -36.9079371 -0.204564E-07  0.185E-03    3.26      17.1  T
   9    -36.9079371 -0.747863E-08  0.108E-03    3.26      29.3  T
  10    -36.9079371 -0.310161E-08  0.573E-04    3.26      55.2  T
  11    -36.9079371 -0.579803E-09  0.268E-04    3.26     117.9  T
     SCC iter.                  ...        0 min,  0.015 sec
     gradient                   ...        0 min,  0.012 sec
 * total energy  :   -36.8668939 Eh     change       -0.2193786E-04 Eh
   gradient norm :     0.0007442 Eh/α   predicted    -0.1540516E-04 ( -29.78%)
   displ. norm   :     0.0187449 α      lambda       -0.4345290E-05
   maximum displ.:     0.0120742 α      in ANC's #3, #1, #8, ...

........................................................................
.............................. CYCLE   40 ..............................
........................................................................
   1    -36.9077002 -0.369077E+02  0.341E-02    3.25       0.0  T
   2    -36.9077003 -0.849174E-07  0.235E-02    3.25       1.3  T
   3    -36.9076997  0.603879E-06  0.155E-02    3.25       2.0  T
   4    -36.9077010 -0.127571E-05  0.671E-03    3.25       4.7  T
   5    -36.9077010 -0.365963E-07  0.267E-03    3.25      11.8  T
   6    -36.9077010 -0.986199E-08  0.183E-03    3.25      17.3  T
   7    -36.9077010 -0.568195E-08  0.117E-03    3.25      27.0  T
   8    -36.9077010 -0.151704E-08  0.960E-04    3.25      32.9  T
   9    -36.9077010 -0.307853E-08  0.358E-04    3.25      88.3  T
     SCC iter.                  ...        0 min,  0.012 sec
     gradient                   ...        0 min,  0.012 sec
 * total energy  :   -36.8668967 Eh     change       -0.2814972E-05 Eh
   gradient norm :     0.0004022 Eh/α   predicted    -0.2173304E-05 ( -22.79%)
   displ. norm   :     0.0264252 α      lambda       -0.3438805E-05
   maximum displ.:     0.0126269 α      in ANC's #3, #1, #2, ...

   *** GEOMETRY OPTIMIZATION CONVERGED AFTER 40 ITERATIONS ***

------------------------------------------------------------------------
 total energy gain   :        -0.1088473 Eh      -68.3027 kcal/mol
 total RMSD          :         1.2390419 a0        0.6557 Å
 total power (kW/mol):        -7.1444607 (step) -217.8700 (real)
------------------------------------------------------------------------

 ANCopt (total)                0 d,  0 h,  0 min,  1.312 sec
 optimizer setup                ...        0 min,  0.001 sec (  0.048%)
 model hessian                  ...        0 min,  0.001 sec (  0.043%)
 ANC generation                 ...        0 min,  0.000 sec (  0.031%)
 coordinate transformation      ...        0 min,  0.000 sec (  0.008%)
 single point calculation       ...        0 min,  1.304 sec ( 99.403%)
 optimization log               ...        0 min,  0.002 sec (  0.186%)
 hessian update                 ...        0 min,  0.000 sec (  0.016%)
 rational function              ...        0 min,  0.002 sec (  0.165%)

================
 final structure:
================
$coord
        3.62507970983402       -3.13669210092727        0.17108267164999      br
        4.53289538949484        0.39517619009544       -0.19364032161874      c
        7.73806331662583        0.65643758762795       -1.94413357071102      br
        1.96600108473589        2.11698154309598       -2.14342079105431      br
        4.79657904685223        1.95262021187651        3.12138082207843      br
       -7.65147029283640       -1.75881372559271        1.54640313178113      br
       -4.53340674746113       -0.39669867286132        0.19327092832869      c
       -3.21456456765344       -2.67189516736473       -2.35985580495488      br
       -5.15561893272065        2.90137740272735       -1.29413710737688      br
       -2.10352645674225       -0.05850779405111        2.90297081227772      br
$end

 Bond Distances (Angstroems)
 ---------------------------
Br1-C2=1.9394        C2-Br1=1.9394        C2-Br3=1.9375        C2-Br4=1.9339        C2-Br5=1.9432        Br3-C2=1.9375        
Br4-C2=1.9339        Br5-C2=1.9432        Br6-C7=1.9377        C7-Br6=1.9377        C7-Br8=1.9396        C7-Br9=1.9427        
C7-Br10=1.9343       Br8-C7=1.9396        Br9-C7=1.9427        Br10-C7=1.9343       
 Br C  Rav=1.9385 sigma=0.0032  Rmin=1.9339  Rmax=1.9432     8

 selected bond angles (degree)
 --------------------
Br3-C2-Br1=109.46              Br4-C2-Br1=109.46              Br4-C2-Br3=109.04              Br5-C2-Br1=109.67              
Br5-C2-Br3=109.78              Br5-C2-Br4=109.41              Br8-C7-Br6=109.44              Br9-C7-Br6=109.85              
Br9-C7-Br8=109.66              Br10-C7-Br6=109.06             Br10-C7-Br8=109.55             Br10-C7-Br9=109.26             

 selected dihedral angles (degree)
 ---------------------------------

           -------------------------------------------------
          |                Final Singlepoint                |
           -------------------------------------------------

          ...................................................
          :                      SETUP                      :
          :.................................................:
          :  # basis functions                  88          :
          :  # atomic orbitals                  80          :
          :  # shells                           28          :
          :  # electrons                        64          :
          :  max. iterations                   250          :
          :  Hamiltonian                  GFN2-xTB          :
          :  restarted?                      false          :
          :  GBSA solvation                  false          :
          :  PC potential                    false          :
          :  electronic temp.          300.0000000     K    :
          :  accuracy                    1.0000000          :
          :  -> integral cutoff          0.2500000E+02      :
          :  -> integral neglect         0.1000000E-07      :
          :  -> SCF convergence          0.1000000E-05 Eh   :
          :  -> wf. convergence          0.1000000E-03 e    :
          :  Broyden damping             0.4000000          :
          ...................................................

 iter      E             dE          RMSdq      gap      omega  full diag
   1    -36.9077010 -0.369077E+02  0.228E-04    3.25       0.0  T
   2    -36.9077010 -0.129816E-10  0.176E-04    3.25     179.5  T
   3    -36.9077010 -0.484519E-10  0.157E-04    3.25     202.0  T

   *** convergence criteria satisfied after 3 iterations ***

         #    Occupation            Energy/Eh            Energy/eV
      -------------------------------------------------------------
         1        2.0000           -0.9007830             -24.5116
       ...           ...                  ...                  ...
        26        2.0000           -0.4647920             -12.6476
        27        2.0000           -0.4639652             -12.6251
        28        2.0000           -0.4636317             -12.6161
        29        2.0000           -0.4629044             -12.5963
        30        2.0000           -0.4628444             -12.5946
        31        2.0000           -0.4620449             -12.5729
        32        2.0000           -0.4619493             -12.5703 (HOMO)
        33                         -0.3424717              -9.3191 (LUMO)
        34                         -0.3404380              -9.2638
        35                         -0.2727228              -7.4212
        36                         -0.2697207              -7.3395
        37                         -0.2689098              -7.3174
       ...                                ...                  ...
        80                          0.5482359              14.9183
      -------------------------------------------------------------
                  HL-Gap            0.1194775 Eh            3.2511 eV
             Fermi-level           -0.4022105 Eh          -10.9447 eV

 SCC (total)                   0 d,  0 h,  0 min,  0.022 sec
 SCC setup                      ...        0 min,  0.000 sec (  0.485%)
 Dispersion                     ...        0 min,  0.000 sec (  0.134%)
 classical contributions        ...        0 min,  0.000 sec (  0.063%)
 integral evaluation            ...        0 min,  0.006 sec ( 24.866%)
 iterations                     ...        0 min,  0.004 sec ( 18.977%)
 molecular gradient             ...        0 min,  0.012 sec ( 54.922%)
 printout                       ...        0 min,  0.000 sec (  0.516%)

         :::::::::::::::::::::::::::::::::::::::::::::::::::::
         ::                     SUMMARY                     ::
         :::::::::::::::::::::::::::::::::::::::::::::::::::::
         :: total energy             -36.866896699164 Eh    ::
         :: gradient norm              0.000401562406 Eh/a0 ::
         :: HOMO-LUMO gap              3.251149548060 eV    ::
         ::.................................................::
         :: SCC energy               -36.907701014897 Eh    ::
         :: -> isotropic ES            0.019478619141 Eh    ::
         :: -> anisotropic ES          0.019681459326 Eh    ::
         :: -> anisotropic XC         -0.012666095858 Eh    ::
         :: -> dispersion             -0.022381326715 Eh    ::
         :: repulsion energy           0.040747034798 Eh    ::
         :: add. restraining           0.000000000000 Eh    ::
         :: total charge              -0.000000000000 e     ::
         :::::::::::::::::::::::::::::::::::::::::::::::::::::

           -------------------------------------------------
          |                Property Printout                |
           -------------------------------------------------

    * Orbital Energies and Occupations

         #    Occupation            Energy/Eh            Energy/eV
      -------------------------------------------------------------
         1        2.0000           -0.9007830             -24.5116
       ...           ...                  ...                  ...
        20        2.0000           -0.4814088             -13.0998
        21        2.0000           -0.4751102             -12.9284
        22        2.0000           -0.4717340             -12.8365
        23        2.0000           -0.4705235             -12.8036
        24        2.0000           -0.4693189             -12.7708
        25        2.0000           -0.4688297             -12.7575
        26        2.0000           -0.4647920             -12.6476
        27        2.0000           -0.4639652             -12.6251
        28        2.0000           -0.4636317             -12.6161
        29        2.0000           -0.4629044             -12.5963
        30        2.0000           -0.4628444             -12.5946
        31        2.0000           -0.4620449             -12.5729
        32        2.0000           -0.4619493             -12.5703 (HOMO)
        33                         -0.3424717              -9.3191 (LUMO)
        34                         -0.3404380              -9.2638
        35                         -0.2727228              -7.4212
        36                         -0.2697207              -7.3395
        37                         -0.2689098              -7.3174
        38                         -0.2673391              -7.2747
        39                         -0.2664492              -7.2505
        40                         -0.2655425              -7.2258
        41                         -0.0448246              -1.2197
        42                         -0.0439010              -1.1946
        43                         -0.0432699              -1.1774
       ...                                ...                  ...
        80                          0.5482359              14.9183
      -------------------------------------------------------------
                  HL-Gap            0.1194775 Eh            3.2511 eV
             Fermi-level           -0.4022105 Eh          -10.9447 eV

     #   Z          covCN         q      C6AA      α(0)
     1  35 br       1.892    -0.055   186.542    22.022
     2   6 c        3.660     0.217    17.438     5.992
     3  35 br       1.894    -0.054   186.510    22.020
     4  35 br       1.943    -0.052   186.462    22.017
     5  35 br       1.871    -0.057   186.600    22.025
     6  35 br       1.891    -0.054   186.513    22.020
     7   6 c        3.660     0.217    17.439     5.992
     8  35 br       1.889    -0.055   186.544    22.022
     9  35 br       1.874    -0.057   186.595    22.025
    10  35 br       1.943    -0.052   186.467    22.017

 Mol. C6AA /au·bohr⁶  :      13820.143402
 Mol. C8AA /au·bohr⁸  :     834345.851651
 Mol. α(0) /au        :        188.152311


Wiberg/Mayer (AO) data.
largest (>0.10) Wiberg bond orders for each atom

 ---------------------------------------------------------------------------
     #   Z sym  total        # sym  WBO       # sym  WBO       # sym  WBO
 ---------------------------------------------------------------------------
     1  35 br   1.159 --     2 c    0.987
     2   6 c    3.947 --     3 br   0.991     5 br   0.988     1 br   0.987
                             4 br   0.980
     3  35 br   1.153 --     2 c    0.991
     4  35 br   1.166 --     2 c    0.980
     5  35 br   1.159 --     2 c    0.988
     6  35 br   1.153 --     7 c    0.991
     7   6 c    3.947 --     6 br   0.991     9 br   0.989     8 br   0.987
                            10 br   0.980
     8  35 br   1.159 --     7 c    0.987
     9  35 br   1.159 --     7 c    0.989
    10  35 br   1.166 --     7 c    0.980
 ---------------------------------------------------------------------------

Topologies differ in total number of bonds
Writing topology from bond orders to xtbtopo.mol

molecular dipole:
                 x           y           z       tot (Debye)
 q only:        0.001      -0.005      -0.003
   full:       -0.004       0.000       0.003       0.012
molecular quadrupole (traceless):
                xx          xy          yy          xz          yz          zz
 q only:        0.003       0.044      -0.024      -0.122      -0.036       0.021
  q+dip:        2.742       0.184      -1.406       0.346       0.010      -1.336
   full:        2.799       0.208      -1.414       0.304       0.024      -1.385

           -------------------------------------------------
          |                Geometry Summary                 |
           -------------------------------------------------

      molecular mass/u    :      663.2496940
   center of mass at/Å    :        0.0000297       0.0000815       0.0000150
  moments of inertia/u·Å² :        0.1607070E+04   0.5447570E+04   0.5450337E+04
rotational constants/cm⁻¹ :        0.1048967E-01   0.3094523E-02   0.3092952E-02

 * 8 selected distances

     #   Z          #   Z                                           value/Å
     1  35 br       2   6 c                                       1.9393640
     2   6 c        3  35 br                                      1.9375105
     2   6 c        4  35 br                                      1.9338663 (min)
     2   6 c        5  35 br                                      1.9432068 (max)
     6  35 br       7   6 c                                       1.9377316
     7   6 c        8  35 br                                      1.9395859
     7   6 c        9  35 br                                      1.9426526
     7   6 c       10  35 br                                      1.9342978

 * 1 distinct bonds (by element types)

   Z      Z             #   av. dist./Å        max./Å        min./Å
   6 C   35 Br          8     1.9385269     1.9432068     1.9338663


optimized geometry written to: xtbopt.coord


           -------------------------------------------------
          | TOTAL ENERGY              -36.866896699164 Eh   |
          | GRADIENT NORM               0.000401562406 Eh/α |
          | HOMO-LUMO GAP               3.251149548060 eV   |
           -------------------------------------------------

------------------------------------------------------------------------
 * finished run on 2022/08/08 at 16:21:15.257     
------------------------------------------------------------------------
 total:
 * wall-time:     0 d,  0 h,  0 min,  1.414 sec
 *  cpu-time:     0 d,  0 h,  0 min,  1.394 sec
 * ratio c/w:     0.986 speedup
 SCF:
 * wall-time:     0 d,  0 h,  0 min,  0.051 sec
 *  cpu-time:     0 d,  0 h,  0 min,  0.051 sec
 * ratio c/w:     0.996 speedup
 ANC optimizer:
 * wall-time:     0 d,  0 h,  0 min,  1.337 sec
 *  cpu-time:     0 d,  0 h,  0 min,  1.329 sec
 * ratio c/w:     0.994 speedup

