10
 energy: -36.758049444746 gnorm: 0.153257060809 xtb: 6.5.1 (b24c23e)
br           2.52805215601522       -1.87637160009692        0.30534236841748
c            2.15215594248710        0.00000736422851       -0.00000815487430
br           3.69621094757788        0.84440978072550       -0.81094970243575
br           0.62727944388084        0.16901165262673       -1.18384141074164
br           1.75694731398491        0.86297478622546        1.68946134817512
br          -3.51581468562883       -0.75351636968188        1.15240192768061
c           -2.15213629324612       -0.00001641054891       -0.00004118887070
br          -1.90827810743861       -1.14355590944537       -1.54521134874901
br          -2.70152814558162        1.76466851842872       -0.58252673995768
br          -0.48287187644150        0.13238050104125        0.97533097485711
10
 energy: -36.829429960105 gnorm: 0.044313702908 xtb: 6.5.1 (b24c23e)
br           2.52180809920904       -1.87796630098014        0.30629607524020
c            2.17325231677609        0.01047908264641        0.00636256704893
br           3.70210191882389        0.84536050995591       -0.81218728289518
br           0.79083164754622        0.22323586985554       -1.36341426500029
br           1.93057264467630        0.90145019441529        1.75925216883894
br          -3.52859905161682       -0.76117250097155        1.16091020518399
c           -2.20959702427776       -0.02436214385991       -0.03796242484075
br          -2.01187915124937       -1.20528214575894       -1.56972072128253
br          -2.69718804199087        1.77368010529013       -0.58622531699189
br          -0.67128666228746        0.11456964291035        1.13664706819983
10
 energy: -36.848316698574 gnorm: 0.025723932267 xtb: 6.5.1 (b24c23e)
br           2.49626505886982       -1.85849957350859        0.30749952422047
c            2.29932751487022        0.04426905242738       -0.04531313250612
br           3.85839630076075        0.85630339165829       -0.80252881113523
br           0.89760648070476        0.28132996164357       -1.36914481467094
br           2.06266574947029        0.90738338411876        1.72232709291416
br          -3.72518946144723       -0.79961491090213        1.14328551516773
c           -2.33457607713038       -0.05465003435666        0.03365436859151
br          -2.07326683455100       -1.20124775085195       -1.51384083202154
br          -2.70960504899927        1.74549936571947       -0.61638070787897
br          -0.77160698693870        0.07921942755496        1.14039987082016
10
 energy: -36.858629786320 gnorm: 0.013285144424 xtb: 6.5.1 (b24c23e)
br           2.54218656285296       -1.83746882191976        0.24322390679085
c            2.38787609319213        0.07398782804330       -0.04925160682234
br           3.99432913954498        0.76934243780549       -0.82032256207268
br           0.99592108698992        0.38014605838736       -1.35366993436829
br           2.10427675116871        0.97454923032514        1.68231226292642
br          -3.86224359058538       -0.74811973334839        1.09478637233703
c           -2.39137938952376       -0.06559700266212        0.03892247266322
br          -2.08209816860693       -1.25685033657240       -1.47263265660134
br          -2.80607526344546        1.73204134880874       -0.58587864035235
br          -0.88277652597793       -0.02203869536423        1.22246845900068
10
 energy: -36.863140700602 gnorm: 0.011035359922 xtb: 6.5.1 (b24c23e)
br           2.56412027058018       -1.82141560531110        0.24991460397250
c            2.44184512054470        0.08301389771608       -0.09363545663495
br           4.11918667807039        0.70477432877057       -0.81280644312424
br           1.04574949876073        0.52011425683259       -1.36577604717876
br           2.16184378041313        1.02827603010438        1.60276241103705
br          -4.02076936416863       -0.75227352367525        1.07001415952946
c           -2.46547591234402       -0.11240497272871        0.08347608363017
br          -2.08090471773740       -1.26497310204113       -1.44400599460649
br          -2.79347865991712        1.70024311454138       -0.56865438350001
br          -0.97209999859270       -0.08536211070568        1.27866914037646
10
 energy: -36.864723070558 gnorm: 0.012676567335 xtb: 6.5.1 (b24c23e)
br           2.48020545603446       -1.78397086708894        0.21782120696136
c            2.53227315240496        0.15172703928188       -0.09555359912188
br           4.24367266737101        0.66749734768452       -0.87038453088278
br           1.11917197242307        0.55455621721784       -1.33544270262687
br           2.20050615425475        1.07594096625320        1.58476096601883
br          -4.12280477127998       -0.78131269489711        1.00314192289783
c           -2.51145113513312       -0.12074155582335        0.10661975362272
br          -2.11755362259652       -1.29752630781668       -1.39370095678439
br          -2.78398625952908        1.69866811218071       -0.55764342636144
br          -1.04001691834030       -0.16484594348892        1.34033943977780
10
 energy: -36.865623135546 gnorm: 0.006897676909 xtb: 6.5.1 (b24c23e)
br           2.48635660722827       -1.78023610288105        0.22579051006703
c            2.52806710238325        0.14235820281052       -0.10176938696928
br           4.24729083802884        0.65263490584110       -0.85089960813071
br           1.12418557250799        0.60071892123505       -1.33992550901652
br           2.25659227626611        1.10054151712391        1.56475640546184
br          -4.14872958907149       -0.75321113646598        0.98073920156702
c           -2.51353113413798       -0.14140125956751        0.09594320570662
br          -2.12884968345082       -1.31962395341463       -1.39856238940147
br          -2.79390009614336        1.67980061431758       -0.52705763513745
br          -1.05746519800155       -0.18158939549583        1.35094327935412
10
 energy: -36.865669098893 gnorm: 0.006907939419 xtb: 6.5.1 (b24c23e)
br           2.49830920127361       -1.75706295599702        0.22871967563527
c            2.52195037670805        0.15175400556208       -0.08881338145945
br           4.24340170698557        0.61172715800586       -0.86633609606390
br           1.14729297098395        0.64931315565017       -1.35259962567887
br           2.28057144905966        1.11745216962494        1.57298745090002
br          -4.16155783980972       -0.75806628219364        1.00149942600508
c           -2.55250880317994       -0.15525206750440        0.09744539092840
br          -2.12220918763849       -1.31047945844650       -1.39991610682636
br          -2.76291319767407        1.67492431187223       -0.53769458604906
br          -1.09231998109938       -0.22431772307056        1.34466592611005
10
 energy: -36.866031471437 gnorm: 0.003536958586 xtb: 6.5.1 (b24c23e)
br           2.46134714378958       -1.74928998356734        0.24046925599647
c            2.53562824975707        0.16263513136034       -0.10095841921024
br           4.26098942809969        0.61561494977005       -0.87522502410324
br           1.14003885510842        0.66196856919017       -1.33714200216616
br           2.30514769686168        1.12242989443440        1.56442863967797
br          -4.16861624914281       -0.75496105020071        0.97923439125677
c           -2.53924257288382       -0.16433527942903        0.09777881221533
br          -2.14139964842901       -1.31469237055508       -1.40777089245916
br          -2.75864414648754        1.65990217841162       -0.53695790838512
br          -1.09523206106402       -0.23927972591126        1.37610122067855
10
 energy: -36.866089263086 gnorm: 0.003931100160 xtb: 6.5.1 (b24c23e)
br           2.42885666634013       -1.74769053551654        0.23360859541897
c            2.53947292595318        0.16930533479921       -0.09694857182780
br           4.25962942248128        0.61342165844529       -0.88227892285014
br           1.14641715108522        0.67271428236162       -1.33564763362208
br           2.32360513992283        1.14716917458376        1.56314815390353
br          -4.19015284266125       -0.75806261894335        0.94928791827225
c           -2.53752751971182       -0.17146480568642        0.09929738938540
br          -2.14017770741312       -1.33916264170889       -1.39448059842911
br          -2.73721093601413        1.66304380687961       -0.51412091599250
br          -1.09289560437306       -0.24928134171112        1.37809265924268
10
 energy: -36.866183333079 gnorm: 0.003224038289 xtb: 6.5.1 (b24c23e)
br           2.41727190066585       -1.72975662608479        0.23861244978781
c            2.53459140906755        0.18107991947538       -0.10163185297606
br           4.26502707185469        0.59677606328487       -0.88724913985147
br           1.13675909336556        0.69204371328571       -1.33274305352292
br           2.33683125581340        1.14900625878989        1.56703735429328
br          -4.18886889838308       -0.75471678527514        0.94626082480779
c           -2.53831078988125       -0.17654739204370        0.09717396133484
br          -2.14032440302752       -1.34417452524483       -1.39636090606489
br          -2.72452299578707        1.65834776605197       -0.51659026697402
br          -1.09843694807888       -0.27206607873619        1.38544870266683
10
 energy: -36.866236380620 gnorm: 0.003378481630 xtb: 6.5.1 (b24c23e)
br           2.38439875460967       -1.71723621793277        0.24464222218059
c            2.53263531701221        0.18835068226425       -0.09745386850140
br           4.25142734475607        0.57811800935698       -0.90865548898451
br           1.13060571520923        0.73758170219036       -1.31467247999001
br           2.35572312280609        1.16749579079812        1.56936836522784
br          -4.18642483612643       -0.74462908578515        0.94760050111658
c           -2.53572937131554       -0.19371094674212        0.09841160378426
br          -2.13358409955917       -1.33888064269693       -1.41125329019459
br          -2.69412852370186        1.63701401777862       -0.52943238198956
br          -1.10490672808102       -0.31411099572820        1.40140289085201
10
 energy: -36.866340037728 gnorm: 0.002442646757 xtb: 6.5.1 (b24c23e)
br           2.36398685191792       -1.70559869179634        0.24532373612522
c            2.52343295519409        0.19644338886044       -0.09881322295155
br           4.24308754229106        0.56984511654541       -0.91354570312996
br           1.11796815601469        0.74925247285788       -1.30966894574538
br           2.36418128023948        1.17430519337014        1.57310225834000
br          -4.18637829291660       -0.74538947486662        0.93195634829732
c           -2.52727331097706       -0.19805304768331        0.09699995984174
br          -2.13085487713809       -1.35487483980061       -1.40677329920446
br          -2.66862215000423        1.63852944344374       -0.52071157070542
br          -1.09951145901202       -0.32446724742758        1.40208851263369
10
 energy: -36.866427678091 gnorm: 0.002382226911 xtb: 6.5.1 (b24c23e)
br           2.31602757207228       -1.68991143175393        0.24469572183735
c            2.50485045375505        0.20880803996972       -0.09894754883793
br           4.22107440579739        0.55732576141882       -0.92413161992819
br           1.09380950364219        0.77797077358875       -1.29607573345916
br           2.37584757361994        1.18838832260697        1.57910188004180
br          -4.18028710175192       -0.73888150909029        0.91294472206239
c           -2.50701625682823       -0.20761226438405        0.09614177179226
br          -2.11347646382658       -1.37633690396674       -1.40282961165568
br          -2.62558371353150        1.63265617994157       -0.51396196674287
br          -1.08522927733937       -0.35241465482768        1.40302045839125
10
 energy: -36.866469809609 gnorm: 0.002368125331 xtb: 6.5.1 (b24c23e)
br           2.28462993846544       -1.68114166524715        0.24254237641544
c            2.48617947668794        0.21502484745287       -0.09603270691793
br           4.19714722234588        0.54502039244401       -0.93577088314982
br           1.06908097612574        0.80124014270375       -1.27720865669242
br           2.37606778978642        1.19724903187968        1.58318937138478
br          -4.16687252682386       -0.73729604499924        0.90196246993329
c           -2.48566883945918       -0.21540777647684        0.09487646987699
br          -2.09905170354713       -1.38728052551225       -1.40542194243855
br          -2.58834554705601        1.62608269519301       -0.51438984619258
br          -1.07315009091597       -0.36349878393469        1.40621142128202
10
 energy: -36.866493290461 gnorm: 0.002360997254 xtb: 6.5.1 (b24c23e)
br           2.26762216947111       -1.68345785554852        0.24385032830989
c            2.47390657721673        0.21347229670843       -0.09556773985537
br           4.17809254370427        0.54800326592965       -0.94132940093262
br           1.05566040777092        0.81147743449763       -1.26821331599054
br           2.37066066493337        1.19210721086392        1.58374196472154
br          -4.15335457672312       -0.73437933357237        0.90110432416051
c           -2.47134036645764       -0.21263532755311        0.09403301476477
br          -2.07954500349279       -1.39044914136994       -1.40180017174420
br          -2.57877615083465        1.62502518615728       -0.52108538794485
br          -1.06290956997894       -0.36917142260982        1.40522445801210
10
 energy: -36.866505789972 gnorm: 0.001626863551 xtb: 6.5.1 (b24c23e)
br           2.26444611782192       -1.68637398625245        0.23701114953920
c            2.46674520051018        0.21436159507937       -0.09306497837876
br           4.17343740816979        0.54695827370234       -0.94380976388731
br           1.04987940426922        0.80881900369664       -1.26421529485615
br           2.36726104161831        1.18718764000205        1.58672807628635
br          -4.15066112474125       -0.73158014748750        0.90465353235429
c           -2.46407313548914       -0.21429814807079        0.09529116289758
br          -2.06572553639822       -1.38491604895837       -1.40384908720916
br          -2.58186582551985        1.61886437561612       -0.52741009543337
br          -1.05942685463172       -0.35903024382425        1.40862337218856
10
 energy: -36.866511457371 gnorm: 0.001280501110 xtb: 6.5.1 (b24c23e)
br           2.26717724790416       -1.69195250482671        0.23424840808136
c            2.46790419501497        0.21134918906054       -0.09423001547193
br           4.17911689028090        0.54464940842064       -0.94426167033453
br           1.04874087950364        0.81558608286864       -1.25965682123027
br           2.37060824023674        1.18720670266542        1.58118066823817
br          -4.14735636795932       -0.74265033565013        0.90335807450827
c           -2.46798070203753       -0.21102045669079        0.09340221283289
br          -2.06421749708043       -1.38511843414085       -1.39930035128084
br          -2.58405741889457        1.62277126739525       -0.53452967099534
br          -1.06991877135930       -0.35082860559886        1.41974723915346
10
 energy: -36.866526670820 gnorm: 0.000753678272 xtb: 6.5.1 (b24c23e)
br           2.26200542774318       -1.68802528129799        0.23805280419568
c            2.46508057910308        0.21314684439585       -0.09418681195662
br           4.17115116304041        0.54464550022487       -0.95278252606100
br           1.04768951645243        0.82043433835590       -1.26004393806154
br           2.37678807089143        1.17999020508410        1.58694631138723
br          -4.15089566124423       -0.74069020581965        0.89545339719122
c           -2.46529477401022       -0.21199278147558        0.09406460312648
br          -2.05804002913411       -1.38891744282404       -1.39482149155439
br          -2.58061490043295        1.62131666984097       -0.53363874207609
br          -1.06785269679975       -0.34991553298127        1.42091446731027
10
 energy: -36.866533876682 gnorm: 0.000909965135 xtb: 6.5.1 (b24c23e)
br           2.24759201223404       -1.68801633287323        0.22809916492682
c            2.45931945567353        0.21476394582898       -0.09418275245017
br           4.16430330185312        0.54404180561590       -0.95457798208117
br           1.03971542002479        0.82364856209460       -1.25302787638381
br           2.38254299919870        1.17703587906842        1.58981990658215
br          -4.14846378243316       -0.73732831285003        0.89103758386120
c           -2.46004376049393       -0.21366635103775        0.09307394998594
br          -2.03917355162385       -1.39470883846400       -1.38934137606236
br          -2.57723568280461        1.61781122198451       -0.53694165592364
br          -1.06853971601937       -0.34358926586426        1.42599911104627
10
 energy: -36.866541984819 gnorm: 0.001412264592 xtb: 6.5.1 (b24c23e)
br           2.23880676826643       -1.68967939501929        0.21700395526754
c            2.45400671459482        0.21440567214339       -0.09328712245001
br           4.15808571187246        0.53728855306013       -0.96187548126225
br           1.03212800764299        0.83597964608577       -1.24326134865548
br           2.39233084829389        1.17285294521325        1.59343936399849
br          -4.14988780128572       -0.74155948559978        0.87866702028026
c           -2.45432562131172       -0.21182005166262        0.09676375728981
br          -2.02156650509087       -1.39708680065561       -1.37758276780356
br          -2.57938292326962        1.61238289695910       -0.54896606105302
br          -1.07017850410338       -0.33277166702117        1.43905675788946
10
 energy: -36.866435409726 gnorm: 0.003906224391 xtb: 6.5.1 (b24c23e)
br           2.23198474733078       -1.68773099686251        0.22909069247512
c            2.46320206580582        0.21062034103470       -0.10260726224308
br           4.16550868497787        0.54046336395445       -0.97159324982300
br           1.03762541194652        0.84993009760532       -1.23854865649644
br           2.38388099003756        1.15627861396233        1.59048132783222
br          -4.14340165719101       -0.75033456017748        0.88699717368331
c           -2.46018700095279       -0.21355429985126        0.08613507024330
br          -2.01461456257186       -1.40690778171522       -1.37856018417473
br          -2.57563484909062        1.61863329203441       -0.54338718453033
br          -1.08834713468300       -0.31740575648160        1.44195034653488
10
 energy: -36.866544896982 gnorm: 0.001384950629 xtb: 6.5.1 (b24c23e)
br           2.23407744017219       -1.68864383197324        0.22039150002145
c            2.45940526080065        0.21240948000108       -0.09813764169341
br           4.16169807805490        0.53622055084681       -0.96833976537729
br           1.03855627935215        0.84803861216863       -1.24210136771229
br           2.38971947959325        1.16123435584367        1.59402234343482
br          -4.14708297441338       -0.75053007002578        0.88062426362148
c           -2.45816108364821       -0.21273051111048        0.09333276928838
br          -2.01599429793425       -1.40175101479808       -1.37532700394683
br          -2.58067508995970        1.61451222078783       -0.54915695308966
br          -1.08152639640835       -0.31876747823730        1.44464992895460
10
 energy: -36.866535994172 gnorm: 0.001659121932 xtb: 6.5.1 (b24c23e)
br           2.22779255674854       -1.69043476876153        0.20301969369405
c            2.45705880628081        0.21308456712252       -0.09642599583444
br           4.16467078238708        0.53148323822214       -0.95707868959488
br           1.03141065469360        0.84520133649381       -1.23686788581507
br           2.40393414558961        1.16739110562328        1.59383650490536
br          -4.15155299088200       -0.74641665696937        0.87688815784543
c           -2.45855798702428       -0.21296968981465        0.09703117555000
br          -2.00318415908027       -1.40122955364533       -1.36796901639730
br          -2.59676221782653        1.61084838659069       -0.55397225399708
br          -1.07479289527730       -0.31696565135842        1.44149638314518
10
 energy: -36.866563924088 gnorm: 0.001228705625 xtb: 6.5.1 (b24c23e)
br           2.22641294143419       -1.69016055756400        0.20475757185330
c            2.45713623031076        0.21300912522525       -0.09488839632718
br           4.15958475421820        0.52767248467471       -0.96628494598271
br           1.04092144740815        0.85609640319240       -1.24117345420402
br           2.40172791555349        1.15976390366563        1.60002406095123
br          -4.14723953600715       -0.75695980664152        0.87336148609691
c           -2.45608441124449       -0.21114125441578        0.09958253187552
br          -2.00670144839003       -1.40003953399950       -1.36631652187580
br          -2.59668152876309        1.60972239127403       -0.56110779478255
br          -1.07905966891078       -0.30797084190809        1.45200353589654
10
 energy: -36.866565471995 gnorm: 0.001304895752 xtb: 6.5.1 (b24c23e)
br           2.22282804785162       -1.68897642847939        0.20786408777663
c            2.45752399036430        0.21258317432879       -0.09835882314797
br           4.16116167485585        0.52589848755476       -0.96825718353087
br           1.03919332964336        0.86328324924558       -1.23800939907948
br           2.40230105565931        1.15283100003698        1.59997076152389
br          -4.14979553015963       -0.76074431604050        0.87742749641602
c           -2.46109293400027       -0.21477279406591        0.09760369135059
br          -1.99858880347606       -1.40129508250245       -1.36647806100978
br          -2.59260068448967        1.60779284606614       -0.55934602279552
br          -1.08091345063955       -0.29660782264083        1.44754152599774
10
 energy: -36.866571562892 gnorm: 0.001404230566 xtb: 6.5.1 (b24c23e)
br           2.21273657309135       -1.69011499416510        0.20205874843156
c            2.45921910353164        0.21097551090732       -0.09867081528268
br           4.16339416348721        0.52477415494350       -0.96752931181076
br           1.03787338055919        0.86677856508277       -1.23152124180782
br           2.40599527605825        1.15227240391167        1.59903021942645
br          -4.14140683756392       -0.76124492018450        0.87560082473140
c           -2.45592609738981       -0.21090776327089        0.09297245389086
br          -1.99267338309490       -1.40882243111534       -1.36179765099160
br          -2.60492619272200        1.61173435946215       -0.56148512328125
br          -1.08426929034776       -0.29545257206842        1.45129997019511
10
 energy: -36.866591069584 gnorm: 0.000613227005 xtb: 6.5.1 (b24c23e)
br           2.20803695315884       -1.68999547080964        0.19484104083933
c            2.45690514538654        0.21214436843911       -0.09637963799604
br           4.16077278507616        0.51883333224107       -0.96766583710162
br           1.03930449820709        0.87166024253764       -1.23193814798672
br           2.41321229066359        1.15090276756463        1.60349499452956
br          -4.14317562364775       -0.76601256773222        0.87381293610960
c           -2.45604531596264       -0.21159420467754        0.09813085848552
br          -1.98621208015111       -1.40332755305122       -1.35914871269768
br          -2.61060187029586        1.60591661759835       -0.57022303908776
br          -1.08218008682560       -0.28853521860702        1.45503361840706
10
 energy: -36.866600204848 gnorm: 0.000722724393 xtb: 6.5.1 (b24c23e)
br           2.20227746309031       -1.69029734083023        0.19210236414173
c            2.45405938661697        0.21165162539090       -0.09707895249516
br           4.15855794007247        0.51163639673736       -0.96923635004165
br           1.03925242749851        0.88379413023318       -1.22921117114595
br           2.41891272170178        1.14550012436483        1.60579685742106
br          -4.14243612916147       -0.77400821063886        0.86933407506574
c           -2.45582689398693       -0.21164924125591        0.09824537204147
br          -1.97866947494027       -1.40701580774321       -1.35360946143759
br          -2.61492936652479        1.60493426794621       -0.57158587725895
br          -1.08118137875731       -0.27455363070112        1.45520121721057
10
 energy: -36.866614892729 gnorm: 0.000895374074 xtb: 6.5.1 (b24c23e)
br           2.18509537095626       -1.68856944806689        0.18790813673645
c            2.45542747924868        0.21156590158660       -0.09696224528396
br           4.15783586711935        0.50280394633494       -0.97672914551302
br           1.04088538709646        0.89700183610884       -1.22130571013883
br           2.42452662393066        1.13756661739294        1.61023137789136
br          -4.13904430514854       -0.78461324986404        0.86952380841631
c           -2.45568500685871       -0.21286429386509        0.09772704430558
br          -1.96289028530637       -1.40683560337344       -1.35014645496748
br          -2.62276843125831        1.60050841202766       -0.57821117952457
br          -1.08336600417021       -0.25657180477837        1.45792244157942
10
 energy: -36.866632024242 gnorm: 0.001431775166 xtb: 6.5.1 (b24c23e)
br           2.15875319815120       -1.68692617614546        0.18215910975431
c            2.45000247440367        0.21054913721448       -0.09996600028394
br           4.15511658007668        0.48741234180967       -0.97925968250393
br           1.04001847634178        0.92284186848070       -1.21434817628534
br           2.44330866906799        1.12448490848054        1.61409841136203
br          -4.12817625992496       -0.80180382731360        0.87267257005585
c           -2.45306580286329       -0.21233728000263        0.09545188784460
br          -1.93444573341936       -1.40510248332286       -1.34484095898972
br          -2.63976841768449        1.59439073311250       -0.59328485182417
br          -1.09172648853996       -0.23351690881020        1.46727576437158
10
 energy: -36.866671231866 gnorm: 0.000872789161 xtb: 6.5.1 (b24c23e)
br           2.13327714596780       -1.68620350262071        0.17026098977998
c            2.44801588153014        0.20995116945424       -0.09827496428902
br           4.15243163149913        0.47055827227233       -0.98426104016447
br           1.04056066584692        0.94221944264707       -1.20308488897036
br           2.45688256504730        1.11979606634058        1.61799819287739
br          -4.12089440988350       -0.81790858843964        0.86517205403868
c           -2.44824973695265       -0.21055971952272        0.09582246515386
br          -1.91227009313281       -1.40713691142810       -1.33499334029708
br          -2.65766548412358        1.59063656589747       -0.60189781114887
br          -1.09207147018950       -0.21136048109738        1.47321641652117
10
 energy: -36.866714594808 gnorm: 0.001372614769 xtb: 6.5.1 (b24c23e)
br           2.08726956944327       -1.67932601442604        0.15368016834795
c            2.44099612672492        0.21250921383483       -0.09754383792973
br           4.14474926566523        0.43750896569177       -0.99540763459558
br           1.04261279212829        0.97900386840609       -1.19058044299957
br           2.47984570840478        1.10469683316449        1.62790115441111
br          -4.10942008181229       -0.84262188645861        0.84857167000376
c           -2.43758784924780       -0.21059701220894        0.09775220176680
br          -1.86783037003415       -1.41040399515407       -1.31731448860946
br          -2.68833533603382        1.58055435468002       -0.61308339785753
br          -1.09228312962919       -0.17133201402639        1.48598268096354
10
 energy: -36.866752911877 gnorm: 0.002192873816 xtb: 6.5.1 (b24c23e)
br           2.03406848582325       -1.67942470254173        0.13383360622195
c            2.43186623283873        0.20774767933758       -0.09570525170553
br           4.13319459787430        0.40545433931929       -1.00418651105756
br           1.04766680425546        1.02387050694172       -1.17301548747387
br           2.50241637899579        1.09629449199609        1.62997425183466
br          -4.09616856958243       -0.88032116338590        0.83415620925713
c           -2.43074597402920       -0.20641977894279        0.10207423113951
br          -1.81921942020969       -1.40857312672331       -1.29396028209865
br          -2.70801316942581        1.57173221263277       -0.63101129346147
br          -1.09504867093115       -0.13036814513058        1.49779860084514
10
 energy: -36.866785721952 gnorm: 0.001832515731 xtb: 6.5.1 (b24c23e)
br           2.01397976397228       -1.67460390863639        0.12407690548862
c            2.42661415941412        0.20987010727678       -0.09729594138386
br           4.13010947916470        0.38858277485891       -1.00607057962304
br           1.04450527728565        1.04012552751416       -1.16592348450379
br           2.50867297652080        1.09022335547119        1.63180348206924
br          -4.08692636989971       -0.89307252371675        0.83025460233200
c           -2.42476545711842       -0.20775124308401        0.10201951000446
br          -1.80074466557097       -1.40792980892131       -1.28944331128353
br          -2.71137392225610        1.56557345240461       -0.63736699888684
br          -1.10005454590312       -0.11102541966405        1.50790388928804
10
 energy: -36.866857631621 gnorm: 0.000880679696 xtb: 6.5.1 (b24c23e)
br           1.96510715138942       -1.66237656398781        0.11491108495269