 Entering Gaussian System, Link 0=g16
 Input=gaussian_test.inp
 Output=gaussian_test.log
 Initial command:
 /sw/restricted/lms/sw/Gaussian/g16_B01/g16/l1.exe "/scratch/user/peterchao1/peterchao1/8625372_1689034714000000181638694/Gau-136980.inp" -scrdir="/scratch/user/peterchao1/peterchao1/8625372_1689034714000000181638694/"
 Entering Link 1 = /sw/restricted/lms/sw/Gaussian/g16_B01/g16/l1.exe PID=    136988.
  
 Copyright (c) 1988-2017, Gaussian, Inc.  All Rights Reserved.
  
 This is part of the Gaussian(R) 16 program.  It is based on
 the Gaussian(R) 09 system (copyright 2009, Gaussian, Inc.),
 the Gaussian(R) 03 system (copyright 2003, Gaussian, Inc.),
 the Gaussian(R) 98 system (copyright 1998, Gaussian, Inc.),
 the Gaussian(R) 94 system (copyright 1995, Gaussian, Inc.),
 the Gaussian 92(TM) system (copyright 1992, Gaussian, Inc.),
 the Gaussian 90(TM) system (copyright 1990, Gaussian, Inc.),
 the Gaussian 88(TM) system (copyright 1988, Gaussian, Inc.),
 the Gaussian 86(TM) system (copyright 1986, Carnegie Mellon
 University), and the Gaussian 82(TM) system (copyright 1983,
 Carnegie Mellon University). Gaussian is a federally registered
 trademark of Gaussian, Inc.
  
 This software contains proprietary and confidential information,
 including trade secrets, belonging to Gaussian, Inc.
  
 This software is provided under written license and may be
 used, copied, transmitted, or stored only in accord with that
 written license.
  
 The following legend is applicable only to US Government
 contracts under FAR:
  
                    RESTRICTED RIGHTS LEGEND
  
 Use, reproduction and disclosure by the US Government is
 subject to restrictions as set forth in subparagraphs (a)
 and (c) of the Commercial Computer Software - Restricted
 Rights clause in FAR 52.227-19.
  
 Gaussian, Inc.
 340 Quinnipiac St., Bldg. 40, Wallingford CT 06492
  
  
 ---------------------------------------------------------------
 Warning -- This program may not be used in any manner that
 competes with the business of Gaussian, Inc. or will provide
 assistance to any competitor of Gaussian, Inc.  The licensee
 of this program is prohibited from giving any competitor of
 Gaussian, Inc. access to this program.  By using this program,
 the user acknowledges that Gaussian, Inc. is engaged in the
 business of creating and licensing software in the field of
 computational chemistry and represents and warrants to the
 licensee that it is not a competitor of Gaussian, Inc. and that
 it will not use this program in any manner prohibited above.
 ---------------------------------------------------------------
  

 Cite this work as:
 Gaussian 16, Revision B.01,
 M. J. Frisch, G. W. Trucks, H. B. Schlegel, G. E. Scuseria, 
 M. A. Robb, J. R. Cheeseman, G. Scalmani, V. Barone, 
 G. A. Petersson, H. Nakatsuji, X. Li, M. Caricato, A. V. Marenich, 
 J. Bloino, B. G. Janesko, R. Gomperts, B. Mennucci, H. P. Hratchian, 
 J. V. Ortiz, A. F. Izmaylov, J. L. Sonnenberg, D. Williams-Young, 
 F. Ding, F. Lipparini, F. Egidi, J. Goings, B. Peng, A. Petrone, 
 T. Henderson, D. Ranasinghe, V. G. Zakrzewski, J. Gao, N. Rega, 
 G. Zheng, W. Liang, M. Hada, M. Ehara, K. Toyota, R. Fukuda, 
 J. Hasegawa, M. Ishida, T. Nakajima, Y. Honda, O. Kitao, H. Nakai, 
 T. Vreven, K. Throssell, J. A. Montgomery, Jr., J. E. Peralta, 
 F. Ogliaro, M. J. Bearpark, J. J. Heyd, E. N. Brothers, K. N. Kudin, 
 V. N. Staroverov, T. A. Keith, R. Kobayashi, J. Normand, 
 K. Raghavachari, A. P. Rendell, J. C. Burant, S. S. Iyengar, 
 J. Tomasi, M. Cossi, J. M. Millam, M. Klene, C. Adamo, R. Cammi, 
 J. W. Ochterski, R. L. Martin, K. Morokuma, O. Farkas, 
 J. B. Foresman, and D. J. Fox, Gaussian, Inc., Wallingford CT, 2016.
 
 ******************************************
 Gaussian 16:  ES64L-G16RevB.01 20-Dec-2017
                10-Jul-2023 
 ******************************************
 %nprocshared=4
 Will use up to    4 processors via shared memory.
 %mem=8000mb
 %chk=29.chk
 %mem=8000mb
 ----------------------------------------------------------------------
 #T wB97XD/def2svpp opt=tight freq int(grid=ultrafine) scf=(verytight,q
 c)
 ----------------------------------------------------------------------
 -------
 comment
 -------
 Symbolic Z-matrix:
 Charge =  1 Multiplicity = 2
 N                    -1.66384   1.39245  -0.84588 
 C                    -0.45452   0.59318  -1.04793 
 C                    -0.0137   -0.12563   0.24389 
 C                     0.83505  -1.35656  -0.12145 
 N                     2.03843  -1.00923  -0.88481 
 C                     0.80122   0.82708   1.14327 
 O                     1.93422   1.35688   0.5232 
 C                    -1.259    -0.61063   1.02348 
 O                    -2.25632  -1.13259   0.19611 
 H                    -1.93724   1.85067  -1.71447 
 H                    -1.49939   2.13269  -0.16263 
 H                     0.39967   1.18803  -1.42564 
 H                    -0.7006   -0.16608  -1.81146 
 H                     0.18351  -2.09087  -0.63802 
 H                     1.17357  -1.83012   0.81707 
 H                     1.80897  -0.77058  -1.85013 
 H                     2.6868   -1.79475  -0.9191 
 H                     1.05992   0.27914   2.07828 
 H                     0.16873   1.68039   1.4549 
 H                     2.34822   0.61666   0.02625 
 H                    -1.64973   0.22863   1.63636 
 H                    -0.96637  -1.40696   1.73009 
 H                    -2.57574  -0.35841  -0.30861 
 

 GradGradGradGradGradGradGradGradGradGradGradGradGradGradGradGradGradGrad
 Initialization pass.
                           ----------------------------
                           !    Initial Parameters    !
                           ! (Angstroms and Degrees)  !
 --------------------------                            --------------------------
 ! Name  Definition              Value          Derivative Info.                !
 --------------------------------------------------------------------------------
 ! R1    R(1,2)                  1.4636         estimate D2E/DX2                !
 ! R2    R(1,10)                 1.0194         estimate D2E/DX2                !
 ! R3    R(1,11)                 1.0207         estimate D2E/DX2                !
 ! R4    R(2,3)                  1.5427         estimate D2E/DX2                !
 ! R5    R(2,12)                 1.1073         estimate D2E/DX2                !
 ! R6    R(2,13)                 1.1045         estimate D2E/DX2                !
 ! R7    R(3,4)                  1.5392         estimate D2E/DX2                !
 ! R8    R(3,6)                  1.5429         estimate D2E/DX2                !
 ! R9    R(3,8)                  1.5472         estimate D2E/DX2                !
 ! R10   R(4,5)                  1.4668         estimate D2E/DX2                !
 ! R11   R(4,14)                 1.1093         estimate D2E/DX2                !
 ! R12   R(4,15)                 1.1044         estimate D2E/DX2                !
 ! R13   R(5,16)                 1.0205         estimate D2E/DX2                !
 ! R14   R(5,17)                 1.0191         estimate D2E/DX2                !
 ! R15   R(6,7)                  1.396          estimate D2E/DX2                !
 ! R16   R(6,18)                 1.1142         estimate D2E/DX2                !
 ! R17   R(6,19)                 1.1069         estimate D2E/DX2                !
 ! R18   R(7,20)                 0.983          estimate D2E/DX2                !
 ! R19   R(8,9)                  1.397          estimate D2E/DX2                !
 ! R20   R(8,21)                 1.1102         estimate D2E/DX2                !
 ! R21   R(8,22)                 1.1041         estimate D2E/DX2                !
 ! R22   R(9,23)                 0.9778         estimate D2E/DX2                !
 ! A1    A(2,1,10)             110.4537         estimate D2E/DX2                !
 ! A2    A(2,1,11)             110.8136         estimate D2E/DX2                !
 ! A3    A(10,1,11)            106.7132         estimate D2E/DX2                !
 ! A4    A(1,2,3)              112.0219         estimate D2E/DX2                !
 ! A5    A(1,2,12)             113.0235         estimate D2E/DX2                !
 ! A6    A(1,2,13)             106.6623         estimate D2E/DX2                !
 ! A7    A(3,2,12)             108.3921         estimate D2E/DX2                !
 ! A8    A(3,2,13)             108.7983         estimate D2E/DX2                !
 ! A9    A(12,2,13)            107.7786         estimate D2E/DX2                !
 ! A10   A(2,3,4)              109.3568         estimate D2E/DX2                !
 ! A11   A(2,3,6)              110.5694         estimate D2E/DX2                !
 ! A12   A(2,3,8)              109.7557         estimate D2E/DX2                !
 ! A13   A(4,3,6)              109.9332         estimate D2E/DX2                !
 ! A14   A(4,3,8)              108.2244         estimate D2E/DX2                !
 ! A15   A(6,3,8)              108.963          estimate D2E/DX2                !
 ! A16   A(3,4,5)              112.7403         estimate D2E/DX2                !
 ! A17   A(3,4,14)             108.424          estimate D2E/DX2                !
 ! A18   A(3,4,15)             108.074          estimate D2E/DX2                !
 ! A19   A(5,4,14)             113.3446         estimate D2E/DX2                !
 ! A20   A(5,4,15)             106.9972         estimate D2E/DX2                !
 ! A21   A(14,4,15)            106.9731         estimate D2E/DX2                !
 ! A22   A(4,5,16)             111.2961         estimate D2E/DX2                !
 ! A23   A(4,5,17)             110.9123         estimate D2E/DX2                !
 ! A24   A(16,5,17)            106.9465         estimate D2E/DX2                !
 ! A25   A(3,6,7)              113.833          estimate D2E/DX2                !
 ! A26   A(3,6,18)             107.9473         estimate D2E/DX2                !
 ! A27   A(3,6,19)             109.7737         estimate D2E/DX2                !
 ! A28   A(7,6,18)             111.7735         estimate D2E/DX2                !
 ! A29   A(7,6,19)             107.2313         estimate D2E/DX2                !
 ! A30   A(18,6,19)            105.9932         estimate D2E/DX2                !
 ! A31   A(6,7,20)             106.2952         estimate D2E/DX2                !
 ! A32   A(3,8,9)              113.1607         estimate D2E/DX2                !
 ! A33   A(3,8,21)             108.9326         estimate D2E/DX2                !
 ! A34   A(3,8,22)             109.5873         estimate D2E/DX2                !
 ! A35   A(9,8,21)             110.9849         estimate D2E/DX2                !
 ! A36   A(9,8,22)             107.3828         estimate D2E/DX2                !
 ! A37   A(21,8,22)            106.57           estimate D2E/DX2                !
 ! A38   A(8,9,23)             104.069          estimate D2E/DX2                !
 ! D1    D(10,1,2,3)          -179.5893         estimate D2E/DX2                !
 ! D2    D(10,1,2,12)           57.6119         estimate D2E/DX2                !
 ! D3    D(10,1,2,13)          -60.6496         estimate D2E/DX2                !
 ! D4    D(11,1,2,3)            62.3675         estimate D2E/DX2                !
 ! D5    D(11,1,2,12)          -60.4313         estimate D2E/DX2                !
 ! D6    D(11,1,2,13)         -178.6928         estimate D2E/DX2                !
 ! D7    D(1,2,3,4)            156.2969         estimate D2E/DX2                !
 ! D8    D(1,2,3,6)            -82.519          estimate D2E/DX2                !
 ! D9    D(1,2,3,8)             37.7173         estimate D2E/DX2                !
 ! D10   D(12,2,3,4)           -78.3167         estimate D2E/DX2                !
 ! D11   D(12,2,3,6)            42.8674         estimate D2E/DX2                !
 ! D12   D(12,2,3,8)           163.1036         estimate D2E/DX2                !
 ! D13   D(13,2,3,4)            38.6253         estimate D2E/DX2                !
 ! D14   D(13,2,3,6)           159.8094         estimate D2E/DX2                !
 ! D15   D(13,2,3,8)           -79.9543         estimate D2E/DX2                !
 ! D16   D(2,3,4,5)             59.6372         estimate D2E/DX2                !
 ! D17   D(2,3,4,14)           -66.697          estimate D2E/DX2                !
 ! D18   D(2,3,4,15)           177.6845         estimate D2E/DX2                !
 ! D19   D(6,3,4,5)            -61.9318         estimate D2E/DX2                !
 ! D20   D(6,3,4,14)           171.734          estimate D2E/DX2                !
 ! D21   D(6,3,4,15)            56.1155         estimate D2E/DX2                !
 ! D22   D(8,3,4,5)            179.1654         estimate D2E/DX2                !
 ! D23   D(8,3,4,14)            52.8312         estimate D2E/DX2                !
 ! D24   D(8,3,4,15)           -62.7873         estimate D2E/DX2                !
 ! D25   D(2,3,6,7)            -57.6043         estimate D2E/DX2                !
 ! D26   D(2,3,6,18)           177.6913         estimate D2E/DX2                !
 ! D27   D(2,3,6,19)            62.5908         estimate D2E/DX2                !
 ! D28   D(4,3,6,7)             63.2375         estimate D2E/DX2                !
 ! D29   D(4,3,6,18)           -61.4669         estimate D2E/DX2                !
 ! D30   D(4,3,6,19)          -176.5674         estimate D2E/DX2                !
 ! D31   D(8,3,6,7)           -178.314          estimate D2E/DX2                !
 ! D32   D(8,3,6,18)            56.9816         estimate D2E/DX2                !
 ! D33   D(8,3,6,19)           -58.1189         estimate D2E/DX2                !
 ! D34   D(2,3,8,9)             40.4162         estimate D2E/DX2                !
 ! D35   D(2,3,8,21)           -83.5379         estimate D2E/DX2                !
 ! D36   D(2,3,8,22)           160.2261         estimate D2E/DX2                !
 ! D37   D(4,3,8,9)            -78.8606         estimate D2E/DX2                !
 ! D38   D(4,3,8,21)           157.1853         estimate D2E/DX2                !
 ! D39   D(4,3,8,22)            40.9493         estimate D2E/DX2                !
 ! D40   D(6,3,8,9)            161.6239         estimate D2E/DX2                !
 ! D41   D(6,3,8,21)            37.6698         estimate D2E/DX2                !
 ! D42   D(6,3,8,22)           -78.5663         estimate D2E/DX2                !
 ! D43   D(3,4,5,16)           -74.6906         estimate D2E/DX2                !
 ! D44   D(3,4,5,17)           166.3722         estimate D2E/DX2                !
 ! D45   D(14,4,5,16)           48.9604         estimate D2E/DX2                !
 ! D46   D(14,4,5,17)          -69.9767         estimate D2E/DX2                !
 ! D47   D(15,4,5,16)          166.6319         estimate D2E/DX2                !
 ! D48   D(15,4,5,17)           47.6947         estimate D2E/DX2                !
 ! D49   D(3,6,7,20)           -42.1831         estimate D2E/DX2                !
 ! D50   D(18,6,7,20)           80.4458         estimate D2E/DX2                !
 ! D51   D(19,6,7,20)         -163.7996         estimate D2E/DX2                !
 ! D52   D(3,8,9,23)           -67.5232         estimate D2E/DX2                !
 ! D53   D(21,8,9,23)           55.3            estimate D2E/DX2                !
 ! D54   D(22,8,9,23)          171.4126         estimate D2E/DX2                !
 --------------------------------------------------------------------------------
 Number of steps in this run=    124 maximum allowed number of steps=    138.
 GradGradGradGradGradGradGradGradGradGradGradGradGradGradGradGradGradGrad

                    Distance matrix (angstroms):
                    1          2          3          4          5
     1  N    0.000000
     2  C    1.463594   0.000000
     3  C    2.493012   1.542662   0.000000
     4  C    3.785006   2.514525   1.539166   0.000000
     5  N    4.413203   2.968016   2.503189   1.466801   0.000000
     6  C    3.217592   2.536331   1.542930   2.523675   3.002640
     7  O    3.849894   2.959353   2.463783   2.997748   2.755322
     8  C    2.769602   2.527263   1.547175   2.500455   3.830598
     9  O    2.795096   2.787899   2.458782   3.115694   4.430406
    10  H    1.019396   2.055243   3.382446   4.528756   4.967224
    11  H    1.020705   2.060485   2.733590   4.198348   4.786370
    12  H    2.153134   1.107322   2.164236   2.892307   2.793920
    13  H    2.071028   1.104537   2.167474   2.575195   3.011958
    14  H    3.948340   2.789126   2.163061   1.109307   2.161389
    15  H    4.604478   3.464286   2.154863   1.104387   2.078043
    16  H    4.212791   2.761657   2.850086   2.068874   1.020506
    17  H    5.393663   3.947994   3.381002   2.063307   1.019115
    18  H    4.148378   3.487888   2.163676   2.750435   3.375991
    19  H    2.955474   2.799044   2.182092   3.485959   4.025430
    20  H    4.178410   3.001631   2.485364   2.491006   1.889314
    21  H    2.741566   2.960882   2.177394   3.431730   4.635847
    22  H    3.867649   3.461200   2.181323   2.583760   4.003090
    23  H    2.045905   2.439613   2.631259   3.558767   4.695337
                    6          7          8          9         10
     6  C    0.000000
     7  O    1.396022   0.000000
     8  C    2.515123   3.783914   0.000000
     9  O    3.753129   4.885189   1.397011   0.000000
    10  H    4.088228   4.498800   3.743576   3.556959   0.000000
    11  H    2.950048   3.586349   2.998402   3.371005   1.636907
    12  H    2.625046   2.486228   3.461870   3.881964   2.446153
    13  H    3.460100   3.835664   2.923406   2.717486   2.367688
    14  H    3.474046   4.037373   2.651886   2.750787   4.603485
    15  H    2.702914   3.289664   2.728944   3.554757   5.443717
    16  H    3.539565   3.189738   4.206614   4.565601   4.574218
    17  H    3.831806   3.546732   4.554669   5.110435   5.941668
    18  H    1.114182   2.084277   2.698459   4.066082   5.083075
    19  H    1.106931   2.022301   2.733731   3.921514   3.809072
    20  H    1.919699   0.982995   3.938621   4.928544   4.787284
    21  H    2.570683   3.918770   1.110242   2.072483   3.733865
    22  H    2.908546   4.184353   1.104112   2.022952   4.839389
    23  H    3.862284   4.896316   1.889944   0.977813   2.695215
                   11         12         13         14         15
    11  H    0.000000
    12  H    2.468602   0.000000
    13  H    2.939561   1.786917   0.000000
    14  H    4.571278   3.379097   2.421458   0.000000
    15  H    4.879379   3.839001   3.631908   1.779186   0.000000
    16  H    4.714006   2.449997   2.581644   2.419608   2.939439
    17  H    5.789743   3.792693   3.863078   2.536366   2.303342
    18  H    3.873934   3.679607   4.292758   3.709898   2.460192
    19  H    2.367191   2.931432   3.851533   4.313111   3.706776
    20  H    4.139821   2.496260   3.644886   3.529583   2.827000
    21  H    2.623816   3.807406   3.597788   3.730092   3.588962
    22  H    4.049142   4.307977   3.762043   2.719903   2.364744
    23  H    2.717616   3.534452   2.410750   3.274660   4.182157
                   16         17         18         19         20
    16  H    0.000000
    17  H    1.638997   0.000000
    18  H    4.134657   3.991494   0.000000
    19  H    4.429545   4.904396   1.773785   0.000000
    20  H    2.394996   2.612122   2.446322   2.814742   0.000000
    21  H    5.011643   5.424924   2.745911   2.333949   4.327427
    22  H    4.574431   4.529259   2.658953   3.300891   4.240829
    23  H    4.666036   5.489089   4.395654   3.846922   5.030741
                   21         22         23
    21  H    0.000000
    22  H    1.775072   0.000000
    23  H    2.232715   2.801035   0.000000
 Framework group  C1[X(C5H14N2O2)]
 Deg. of freedom    63
                         Standard orientation:                         
 ---------------------------------------------------------------------
 Center     Atomic      Atomic             Coordinates (Angstroms)
 Number     Number       Type             X           Y           Z
 ---------------------------------------------------------------------
      1          7           0       -1.663840    1.392445   -0.845882
      2          6           0       -0.454520    0.593178   -1.047932
      3          6           0       -0.013698   -0.125626    0.243889
      4          6           0        0.835047   -1.356559   -0.121445
      5          7           0        2.038432   -1.009226   -0.884813
      6          6           0        0.801220    0.827080    1.143273
      7          8           0        1.934222    1.356879    0.523195
      8          6           0       -1.258996   -0.610627    1.023476
      9          8           0       -2.256320   -1.132588    0.196106
     10          1           0       -1.937240    1.850671   -1.714472
     11          1           0       -1.499386    2.132689   -0.162630
     12          1           0        0.399671    1.188034   -1.425644
     13          1           0       -0.700603   -0.166076   -1.811462
     14          1           0        0.183509   -2.090870   -0.638017
     15          1           0        1.173571   -1.830116    0.817073
     16          1           0        1.808972   -0.770581   -1.850126
     17          1           0        2.686798   -1.794746   -0.919095
     18          1           0        1.059920    0.279144    2.078282
     19          1           0        0.168729    1.680390    1.454902
     20          1           0        2.348224    0.616660    0.026247
     21          1           0       -1.649725    0.228626    1.636357
     22          1           0       -0.966372   -1.406955    1.730085
     23          1           0       -2.575744   -0.358411   -0.308609
 ---------------------------------------------------------------------
 Rotational constants (GHZ):           2.0159326           1.2427802           1.0781234
   154 basis functions,   281 primitive gaussians,   163 cartesian basis functions
    37 alpha electrons       36 beta electrons
       nuclear repulsion energy       530.7840217744 Hartrees.
 NAtoms=   23 NActive=   23 NUniq=   23 SFac= 1.00D+00 NAtFMM=   60 NAOKFM=F Big=F
 Nuclear repulsion after empirical dispersion term =      530.7660856939 Hartrees.
   1 Symmetry operations used in ECPInt.
 ECPInt:  NShTT=    3403 NPrTT=   13689 LenC2=    3375 LenP2D=   10782.
 LDataN:  DoStor=T MaxTD1= 4 Len=   56
 ExpMin= 1.22D-01 ExpMax= 2.27D+03 ExpMxC= 3.41D+02 IAcc=3 IRadAn=         5 AccDes= 0.00D+00
 Harris functional with IExCor= 4639 and IRadAn=       5 diagonalized for initial guess.
 HarFok:  IExCor= 4639 AccDes= 0.00D+00 IRadAn=         5 IDoV= 1 UseB2=F ITyADJ=14
 ICtDFT=  3500011 ScaDFX=  1.000000  1.000000  1.000000  1.000000
 FoFCou: FMM=F IPFlag=           0 FMFlag=      100000 FMFlg1=           0
         NFxFlg=           0 DoJE=T BraDBF=F KetDBF=T FulRan=T
         wScrn=  0.000000 ICntrl=       500 IOpCl=  0 I1Cent=   200000004 NGrid=           0
         NMat0=    1 NMatS0=      1 NMatT0=    0 NMatD0=    1 NMtDS0=    0 NMtDT0=    0
 Petite list used in FoFCou.
 Initial guess <Sx>= 0.0000 <Sy>= 0.0000 <Sz>= 0.5000 <S**2>= 0.7500 S= 0.5000
     Accept linear search using points  2 and  3.
     Accept linear search using points  2 and  3.
     Accept linear search using points  1 and  2.
     Minimum is close to point  3 DX=  1.21D-01 DF= -6.05D-07 DXR=  7.05D-02 DFR=  4.95D-03 which will be used.
 Incorrect curvature in search direction -- initial direction reversed.
 Incorrect curvature in search direction -- initial direction reversed.
 Incorrect curvature in search direction -- initial direction reversed.
 Incorrect curvature in search direction -- initial direction reversed.
     Minimum is close to point  3 DX= -2.88D-02 DF= -1.28D-06 DXR=  6.11D-02 DFR=  3.74D-03 which will be used.
     Minimum is close to point  2 DX= -2.33D-02 DF= -1.95D-07 DXR=  2.39D-02 DFR=  5.70D-04 which will be used.
     Minimum is close to point  2 DX=  5.12D-03 DF= -5.69D-10 DXR=  5.09D-03 DFR=  2.59D-05 which will be used.
 SCF Done:  E(UwB97XD) =  -458.039941201     a.u. after   17 cycles
            Convg  =    0.6184D-06                   193 Fock formations.
              S**2 =  0.7546                  -V/T =  2.0088
 <Sx>= 0.0000 <Sy>= 0.0000 <Sz>= 0.5000 <S**2>= 0.7546 S= 0.5023
 <L.S>=  0.00000000000    
 Annihilation of the first spin contaminant:
 S**2 before annihilation     0.7546,   after     0.7500

 **********************************************************************

            Population analysis using the SCF Density.

 **********************************************************************

 Orbital symmetries:
 Alpha Orbitals:
       Occupied  (A) (A) (A) (A) (A) (A) (A) (A) (A) (A) (A) (A)
                 (A) (A) (A) (A) (A) (A) (A) (A) (A) (A) (A) (A)
                 (A) (A) (A) (A) (A) (A) (A) (A) (A) (A) (A) (A)
                 (A)
       Virtual   (A) (A) (A) (A) (A) (A) (A) (A) (A) (A) (A) (A)
                 (A) (A) (A) (A) (A) (A) (A) (A) (A) (A) (A) (A)
                 (A) (A) (A) (A) (A) (A) (A) (A) (A) (A) (A) (A)
                 (A) (A) (A) (A) (A) (A) (A) (A) (A) (A) (A) (A)
                 (A) (A) (A) (A) (A) (A) (A) (A) (A) (A) (A) (A)
                 (A) (A) (A) (A) (A) (A) (A) (A) (A) (A) (A) (A)
                 (A) (A) (A) (A) (A) (A) (A) (A) (A) (A) (A) (A)
                 (A) (A) (A) (A) (A) (A) (A) (A) (A) (A) (A) (A)
                 (A) (A) (A) (A) (A) (A) (A) (A) (A) (A) (A) (A)
                 (A) (A) (A) (A) (A) (A) (A) (A) (A)
 Beta  Orbitals:
       Occupied  (A) (A) (A) (A) (A) (A) (A) (A) (A) (A) (A) (A)
                 (A) (A) (A) (A) (A) (A) (A) (A) (A) (A) (A) (A)
                 (A) (A) (A) (A) (A) (A) (A) (A) (A) (A) (A) (A)
       Virtual   (A) (A) (A) (A) (A) (A) (A) (A) (A) (A) (A) (A)
                 (A) (A) (A) (A) (A) (A) (A) (A) (A) (A) (A) (A)
                 (A) (A) (A) (A) (A) (A) (A) (A) (A) (A) (A) (A)
                 (A) (A) (A) (A) (A) (A) (A) (A) (A) (A) (A) (A)
                 (A) (A) (A) (A) (A) (A) (A) (A) (A) (A) (A) (A)
                 (A) (A) (A) (A) (A) (A) (A) (A) (A) (A) (A) (A)
                 (A) (A) (A) (A) (A) (A) (A) (A) (A) (A) (A) (A)
                 (A) (A) (A) (A) (A) (A) (A) (A) (A) (A) (A) (A)
                 (A) (A) (A) (A) (A) (A) (A) (A) (A) (A) (A) (A)
                 (A) (A) (A) (A) (A) (A) (A) (A) (A) (A)
 The electronic state is 2-A.
 Alpha  occ. eigenvalues --  -19.45391 -19.42834 -14.66473 -14.63013 -10.52954
 Alpha  occ. eigenvalues --  -10.51753 -10.51562 -10.51440 -10.50752  -1.31507
 Alpha  occ. eigenvalues --   -1.29284  -1.20208  -1.17520  -1.08359  -0.95734
 Alpha  occ. eigenvalues --   -0.94839  -0.93020  -0.84427  -0.80663  -0.79927
 Alpha  occ. eigenvalues --   -0.78734  -0.76872  -0.74325  -0.73484  -0.71677
 Alpha  occ. eigenvalues --   -0.70753  -0.69243  -0.67181  -0.66008  -0.64875
 Alpha  occ. eigenvalues --   -0.62521  -0.61475  -0.59424  -0.55550  -0.54804
 Alpha  occ. eigenvalues --   -0.53316  -0.52768
 Alpha virt. eigenvalues --   -0.04165  -0.03588  -0.00859   0.00747   0.02436
 Alpha virt. eigenvalues --    0.03003   0.03622   0.03685   0.05602   0.06956
 Alpha virt. eigenvalues --    0.07469   0.07830   0.09107   0.09856   0.10730
 Alpha virt. eigenvalues --    0.11421   0.11697   0.14270   0.15729   0.17845
 Alpha virt. eigenvalues --    0.18324   0.22616   0.33869   0.35200   0.36581
 Alpha virt. eigenvalues --    0.38980   0.41146   0.41742   0.44203   0.46322
 Alpha virt. eigenvalues --    0.47477   0.48876   0.50151   0.51895   0.52487
 Alpha virt. eigenvalues --    0.54290   0.55522   0.56774   0.57713   0.58313
 Alpha virt. eigenvalues --    0.60176   0.60538   0.61608   0.62412   0.63628
 Alpha virt. eigenvalues --    0.64127   0.64900   0.65381   0.67783   0.69214
 Alpha virt. eigenvalues --    0.74181   0.76149   0.77001   0.77245   0.82029
 Alpha virt. eigenvalues --    0.85714   0.87477   0.91457   0.94969   0.98127
 Alpha virt. eigenvalues --    0.99246   1.03414   1.04454   1.05612   1.07732
 Alpha virt. eigenvalues --    1.11148   1.15219   1.19742   1.25670   1.29963
 Alpha virt. eigenvalues --    1.31190   1.38525   1.46363   1.51799   1.55771
 Alpha virt. eigenvalues --    1.61971   1.63959   1.69159   1.70981   1.71838
 Alpha virt. eigenvalues --    1.81208   1.81549   1.85397   1.86255   1.89791
 Alpha virt. eigenvalues --    1.93645   1.94082   1.98429   2.01913   2.05291
 Alpha virt. eigenvalues --    2.06766   2.10058   2.16950   2.19143   2.21470
 Alpha virt. eigenvalues --    2.26924   2.30750   2.36368   2.39510   2.42552
 Alpha virt. eigenvalues --    2.49796   2.51465   2.54208   2.56000   2.58271
 Alpha virt. eigenvalues --    2.61298   2.66198   2.76783   2.79054   2.82946
 Alpha virt. eigenvalues --    2.86400   2.89205   2.91374   2.93089   2.95454
 Alpha virt. eigenvalues --    3.30079   3.31651
  Beta  occ. eigenvalues --  -19.44867 -19.42506 -14.65996 -14.62718 -10.52867
  Beta  occ. eigenvalues --  -10.51747 -10.51404 -10.51373 -10.50764  -1.30300
  Beta  occ. eigenvalues --   -1.28525  -1.19249  -1.16897  -1.07559  -0.95222
  Beta  occ. eigenvalues --   -0.94351  -0.92475  -0.83678  -0.80290  -0.79165
  Beta  occ. eigenvalues --   -0.78153  -0.76478  -0.73854  -0.72860  -0.71224
  Beta  occ. eigenvalues --   -0.70269  -0.67990  -0.66337  -0.64953  -0.63123
  Beta  occ. eigenvalues --   -0.60985  -0.60393  -0.58107  -0.53559  -0.51154
  Beta  occ. eigenvalues --   -0.49031
  Beta virt. eigenvalues --   -0.34556  -0.03971  -0.03455  -0.00762   0.00866
  Beta virt. eigenvalues --    0.02578   0.03307   0.03826   0.03993   0.05814
  Beta virt. eigenvalues --    0.07153   0.07709   0.08098   0.09273   0.10078
  Beta virt. eigenvalues --    0.10990   0.11696   0.11974   0.14662   0.16272
  Beta virt. eigenvalues --    0.18212   0.18796   0.22917   0.34177   0.35380
  Beta virt. eigenvalues --    0.36795   0.39239   0.41330   0.42163   0.44618
  Beta virt. eigenvalues --    0.46587   0.47718   0.49231   0.50341   0.52277
  Beta virt. eigenvalues --    0.52973   0.54536   0.55768   0.57097   0.58124
  Beta virt. eigenvalues --    0.58456   0.60677   0.60868   0.61857   0.62820
  Beta virt. eigenvalues --    0.63944   0.64389   0.65136   0.65561   0.68089
  Beta virt. eigenvalues --    0.69446   0.74624   0.76616   0.77682   0.77843
  Beta virt. eigenvalues --    0.82335   0.86047   0.87941   0.91808   0.95326
  Beta virt. eigenvalues --    0.98416   0.99767   1.03940   1.04821   1.06457
  Beta virt. eigenvalues --    1.08342   1.11526   1.15674   1.20233   1.26051
  Beta virt. eigenvalues --    1.30286   1.31606   1.39037   1.46736   1.52157
  Beta virt. eigenvalues --    1.55997   1.62505   1.64377   1.69525   1.71408
  Beta virt. eigenvalues --    1.72406   1.81591   1.81972   1.85793   1.86484
  Beta virt. eigenvalues --    1.90180   1.94127   1.94577   1.98790   2.02190
  Beta virt. eigenvalues --    2.05620   2.07078   2.10332   2.17851   2.19848
  Beta virt. eigenvalues --    2.22250   2.27593   2.31490   2.37544   2.40141
  Beta virt. eigenvalues --    2.43406   2.50890   2.52822   2.55044   2.56830
  Beta virt. eigenvalues --    2.59032   2.61849   2.66770   2.77612   2.79563
  Beta virt. eigenvalues --    2.83737   2.87240   2.90265   2.92145   2.94107
  Beta virt. eigenvalues --    2.96093   3.30854   3.32142
          Condensed to atoms (all electrons):
          Atomic-Atomic Spin Densities.
 Mulliken charges and spin densities:
               1          2
     1  N   -0.491302   0.153999
     2  C   -0.093666  -0.007452
     3  C   -0.426085   0.098943
     4  C   -0.076778  -0.003495
     5  N   -0.477632   0.246383
     6  C    0.077588   0.048722
     7  O   -0.377540   0.216514
     8  C    0.075033   0.021990
     9  O   -0.411127   0.136896
    10  H    0.288452  -0.003207
    11  H    0.273273  -0.001920
    12  H    0.171379   0.034448
    13  H    0.164800   0.014809
    14  H    0.209016   0.052093
    15  H    0.164585  -0.000328
    16  H    0.290668  -0.007025
    17  H    0.305305  -0.004806
    18  H    0.159393   0.004885
    19  H    0.156608   0.008490
    20  H    0.354195  -0.011622
    21  H    0.143788  -0.001728
    22  H    0.161609   0.009541
    23  H    0.358436  -0.006130
 Sum of Mulliken charges =   1.00000   1.00000
 Mulliken charges and spin densities with hydrogens summed into heavy atoms:
               1          2
     1  N    0.070423   0.148871
     2  C    0.242512   0.041805
     3  C   -0.426085   0.098943
     4  C    0.296824   0.048269
     5  N    0.118341   0.234553
     6  C    0.393590   0.062098
     7  O   -0.023344   0.204892
     8  C    0.380431   0.029804
     9  O   -0.052691   0.130765
 Electronic spatial extent (au):  <R**2>=           1257.5675
 Charge=              1.0000 electrons
 Dipole moment (field-independent basis, Debye):
    X=              1.7021    Y=             -0.3135    Z=             -2.3044  Tot=              2.8820
                          Isotropic Fermi Contact Couplings
        Atom                 a.u.       MegaHertz       Gauss      10(-4) cm-1
     1  N(14)              0.11437      36.95249      13.18557      12.32602
     2  C(13)             -0.01480     -16.64203      -5.93829      -5.55118
     3  C(13)             -0.00257      -2.88987      -1.03118      -0.96396
     4  C(13)             -0.01224     -13.75908      -4.90958      -4.58953
     5  N(14)              0.15042      48.60181      17.34233      16.21182
     6  C(13)             -0.00326      -3.66154      -1.30653      -1.22136
     7  O(17)              0.06529     -39.57896     -14.12276     -13.20212
     8  C(13)             -0.00811      -9.12209      -3.25499      -3.04280
     9  O(17)              0.04241     -25.70777      -9.17317      -8.57519
    10  H(1)              -0.00074      -3.32057      -1.18486      -1.10762
    11  H(1)               0.00020       0.91505       0.32651       0.30523
    12  H(1)               0.01611      72.00859      25.69446      24.01948
    13  H(1)               0.00618      27.63083       9.85937       9.21665
    14  H(1)               0.02278     101.83163      36.33606      33.96738
    15  H(1)               0.00000       0.01314       0.00469       0.00438
    16  H(1)              -0.00245     -10.96499      -3.91258      -3.65753
    17  H(1)              -0.00074      -3.30053      -1.17771      -1.10094
    18  H(1)               0.00255      11.41407       4.07282       3.80732
    19  H(1)               0.00455      20.33520       7.25610       6.78309
    20  H(1)              -0.00170      -7.57845      -2.70418      -2.52790
    21  H(1)              -0.00029      -1.29636      -0.46257      -0.43242
    22  H(1)               0.00499      22.29908       7.95687       7.43817
    23  H(1)              -0.00132      -5.92143      -2.11291      -1.97518
 --------------------------------------------------------
       Center         ----  Spin Dipole Couplings  ----
                      3XX-RR        3YY-RR        3ZZ-RR
 --------------------------------------------------------
     1   Atom        0.083001      0.037131     -0.120133
     2   Atom        0.014739     -0.003394     -0.011346
     3   Atom       -0.025572      0.141944     -0.116372
     4   Atom       -0.013542      0.032324     -0.018781
     5   Atom       -0.073102      0.244553     -0.171451
     6   Atom       -0.024485      0.005754      0.018731
     7   Atom       -0.144462     -0.113779      0.258241
     8   Atom        0.016648     -0.021347      0.004698
     9   Atom        0.111165     -0.147333      0.036167
    10   Atom       -0.005097     -0.005413      0.010510
    11   Atom       -0.008633      0.004876      0.003757
    12   Atom        0.002454     -0.002038     -0.000416
    13   Atom       -0.001462     -0.001462      0.002924
    14   Atom        0.002821      0.000725     -0.003546
    15   Atom       -0.001782      0.001448      0.000334
    16   Atom       -0.017034     -0.009823      0.026857
    17   Atom        0.009813      0.012963     -0.022776
    18   Atom       -0.006022     -0.000112      0.006134
    19   Atom        0.004146      0.000783     -0.004929
    20   Atom       -0.000567      0.021074     -0.020507
    21   Atom       -0.001142      0.000703      0.000438
    22   Atom       -0.000763     -0.000188      0.000952
    23   Atom       -0.001395      0.014182     -0.012786
 --------------------------------------------------------
                        XY            XZ            YZ
 --------------------------------------------------------
     1   Atom        0.215267     -0.096917     -0.090996
     2   Atom        0.014071     -0.004482     -0.005654
     3   Atom        0.143080      0.016060      0.021683
     4   Atom        0.018420      0.002575      0.021722
     5   Atom        0.315146      0.138059      0.226323
     6   Atom        0.050744      0.049354      0.074465
     7   Atom        0.328066      0.460773      0.490025
     8   Atom        0.026925     -0.041779     -0.021820
     9   Atom        0.233958     -0.348413     -0.209719
    10   Atom       -0.001664      0.009254     -0.013464
    11   Atom        0.002839      0.000639      0.014183
    12   Atom        0.002449      0.000552     -0.003985
    13   Atom       -0.001703      0.000329      0.002192
    14   Atom        0.004905      0.004040      0.004752
    15   Atom       -0.001310      0.000488     -0.004747
    16   Atom        0.001471      0.011650     -0.009343
    17   Atom       -0.023763      0.002856      0.004307
    18   Atom        0.000057      0.002317     -0.006933
    19   Atom       -0.007846     -0.002413      0.005075
    20   Atom       -0.035331     -0.016245      0.031713
    21   Atom       -0.000853     -0.003123      0.003066
    22   Atom       -0.002020      0.001586     -0.005831
    23   Atom       -0.015743      0.007295     -0.017853
 --------------------------------------------------------


 ---------------------------------------------------------------------------------
              Anisotropic Spin Dipole Couplings in Principal Axis System
 ---------------------------------------------------------------------------------

       Atom             a.u.   MegaHertz   Gauss  10(-4) cm-1        Axes

              Baa    -0.1619    -6.245    -2.228    -2.083 -0.1056  0.5057  0.8562
     1 N(14)  Bbb    -0.1551    -5.980    -2.134    -1.995  0.6960 -0.5774  0.4269
              Bcc     0.3170    12.225     4.362     4.078  0.7103  0.6410 -0.2909
 
              Baa    -0.0147    -1.974    -0.704    -0.659 -0.1668  0.5987  0.7834
     2 C(13)  Bbb    -0.0090    -1.203    -0.429    -0.401 -0.4910  0.6386 -0.5926
              Bcc     0.0237     3.178     1.134     1.060  0.8550  0.4835 -0.1875
 
              Baa    -0.1193   -16.010    -5.713    -5.340 -0.2621  0.0636  0.9630
     3 C(13)  Bbb    -0.1068   -14.327    -5.112    -4.779  0.8275 -0.4986  0.2581
              Bcc     0.2261    30.337    10.825    10.119  0.4965  0.8645  0.0780
 
              Baa    -0.0283    -3.801    -1.356    -1.268  0.3658 -0.4103  0.8354
     4 C(13)  Bbb    -0.0176    -2.357    -0.841    -0.786  0.8832 -0.1299 -0.4506
              Bcc     0.0459     6.158     2.197     2.054  0.2934  0.9026  0.3149
 
              Baa    -0.2709   -10.446    -3.727    -3.484  0.0582 -0.4310  0.9005
     5 N(14)  Bbb    -0.2669   -10.293    -3.673    -3.433  0.8693 -0.4216 -0.2579
              Bcc     0.5377    20.739     7.400     6.918  0.4908  0.7978  0.3502
 
              Baa    -0.0647    -8.688    -3.100    -2.898 -0.4717  0.7780 -0.4151
     6 C(13)  Bbb    -0.0565    -7.586    -2.707    -2.530  0.7662  0.1286 -0.6296
              Bcc     0.1213    16.274     5.807     5.428  0.4365  0.6150  0.6567
 
              Baa    -0.4584    33.170    11.836    11.064 -0.5839  0.7943 -0.1677
     7 O(17)  Bbb    -0.4436    32.101    11.455    10.708 -0.6580 -0.3421  0.6708
              Bcc     0.9020   -65.271   -23.290   -21.772  0.4755  0.5020  0.7224
 
              Baa    -0.0353    -4.738    -1.691    -1.580 -0.4451  0.8952  0.0234
     8 C(13)  Bbb    -0.0312    -4.190    -1.495    -1.398  0.5513  0.2533  0.7949
              Bcc     0.0665     8.928     3.186     2.978  0.7057  0.3667 -0.6062
 
              Baa    -0.2863    20.717     7.392     6.910 -0.3203  0.9142  0.2484
     9 O(17)  Bbb    -0.2768    20.026     7.146     6.680  0.6590  0.0267  0.7516
              Bcc     0.5631   -40.742   -14.538   -13.590  0.6805  0.4045 -0.6110
 
              Baa    -0.0145    -7.737    -2.761    -2.581 -0.4067  0.7331  0.5451
    10 H(1)   Bbb    -0.0067    -3.579    -1.277    -1.194  0.8548  0.5159 -0.0561
              Bcc     0.0212    11.316     4.038     3.775  0.3223 -0.4432  0.8365
 
              Baa    -0.0110    -5.844    -2.085    -1.949 -0.5804  0.5987 -0.5520
    11 H(1)   Bbb    -0.0078    -4.153    -1.482    -1.385  0.8092  0.3484 -0.4730
              Bcc     0.0187     9.997     3.567     3.335  0.0908  0.7212  0.6867
 
              Baa    -0.0059    -3.152    -1.125    -1.051 -0.2635  0.7680  0.5838
    12 H(1)   Bbb     0.0019     0.995     0.355     0.332  0.6420 -0.3121  0.7003
              Bcc     0.0040     2.156     0.769     0.719  0.7200  0.5593 -0.4109
 
              Baa    -0.0037    -1.964    -0.701    -0.655  0.6106  0.7420 -0.2767
    13 H(1)   Bbb    -0.0002    -0.094    -0.034    -0.031  0.7887 -0.5383  0.2970
              Bcc     0.0039     2.058     0.734     0.686 -0.0714  0.3996  0.9139
 
              Baa    -0.0067    -3.582    -1.278    -1.195 -0.1253 -0.4742  0.8715
    14 H(1)   Bbb    -0.0029    -1.571    -0.560    -0.524  0.7226 -0.6455 -0.2473
              Bcc     0.0097     5.152     1.838     1.719  0.6798  0.5987  0.4235
 
              Baa    -0.0040    -2.141    -0.764    -0.714  0.2388  0.6690  0.7038
    15 H(1)   Bbb    -0.0019    -1.003    -0.358    -0.335  0.9564 -0.0367 -0.2896
              Bcc     0.0059     3.144     1.122     1.049 -0.1680  0.7423 -0.6487
 
              Baa    -0.0213   -11.362    -4.054    -3.790  0.8945 -0.3456 -0.2835
    16 H(1)   Bbb    -0.0103    -5.499    -1.962    -1.834  0.3880  0.9153  0.1085
              Bcc     0.0316    16.861     6.016     5.624  0.2220 -0.2070  0.9528
 
              Baa    -0.0248   -13.252    -4.729    -4.420 -0.2616 -0.2700  0.9266
    17 H(1)   Bbb    -0.0104    -5.544    -1.978    -1.849  0.6834  0.6262  0.3754
              Bcc     0.0352    18.796     6.707     6.270 -0.6816  0.7315  0.0208
 
              Baa    -0.0070    -3.710    -1.324    -1.237  0.8711 -0.3531 -0.3413
    18 H(1)   Bbb    -0.0039    -2.071    -0.739    -0.691  0.4778  0.7701  0.4226
              Bcc     0.0108     5.780     2.063     1.928  0.1136 -0.5312  0.8396
 
              Baa    -0.0084    -4.472    -1.596    -1.492 -0.2469 -0.6226  0.7426
    19 H(1)   Bbb    -0.0037    -1.948    -0.695    -0.650  0.6508  0.4613  0.6031
              Bcc     0.0120     6.420     2.291     2.142  0.7180 -0.6322 -0.2913
 
              Baa    -0.0380   -20.270    -7.233    -6.761 -0.1397 -0.5320  0.8351
    20 H(1)   Bbb    -0.0242   -12.925    -4.612    -4.311  0.8389  0.3845  0.3853
              Bcc     0.0622    33.195    11.845    11.073 -0.5261  0.7544  0.3925
 
              Baa    -0.0040    -2.133    -0.761    -0.712  0.6504 -0.3286  0.6848
    21 H(1)   Bbb    -0.0010    -0.524    -0.187    -0.175  0.6243  0.7448 -0.2355
              Bcc     0.0050     2.657     0.948     0.886 -0.4327  0.5807  0.6896
 
              Baa    -0.0055    -2.946    -1.051    -0.983  0.1017  0.7514  0.6520
    22 H(1)   Bbb    -0.0015    -0.822    -0.293    -0.274  0.9458  0.1301 -0.2975
              Bcc     0.0071     3.767     1.344     1.257  0.3083 -0.6469  0.6974
 
              Baa    -0.0217   -11.574    -4.130    -3.861  0.0358  0.4578  0.8883
    23 H(1)   Bbb    -0.0104    -5.533    -1.974    -1.846  0.8871  0.3948 -0.2392
              Bcc     0.0321    17.107     6.104     5.706 -0.4603  0.7966 -0.3920
 

 ---------------------------------------------------------------------------------

   1 Symmetry operations used in ECPInt.
 ECPInt:  NShTT=    3403 NPrTT=   13689 LenC2=    3375 LenP2D=   10782.
 LDataN:  DoStor=T MaxTD1= 5 Len=  102
 Calling FoFJK, ICntrl=      2127 FMM=F ISym2X=0 I1Cent= 0 IOpClX= 1 NMat=1 NMatS=1 NMatT=0.

 GradGradGradGradGradGradGradGradGradGradGradGradGradGradGradGradGradGrad
 FormGI is forming the generalized inverse of G from B-inverse, IUseBI=4.
 Internal  Forces:  Max     0.015261028 RMS     0.005492352
 Step number   1 out of a maximum of  124
 All quantities printed in internal units (Hartrees-Bohrs-Radians)
 Mixed Optimization -- RFO/linear search
 Second derivative matrix not updated -- first step.
 ITU=  0
     Eigenvalues ---    0.00230   0.00230   0.00230   0.00248   0.00808
     Eigenvalues ---    0.00851   0.01731   0.01744   0.04049   0.04075
     Eigenvalues ---    0.04162   0.04230   0.04522   0.04612   0.04690
     Eigenvalues ---    0.04739   0.04959   0.05514   0.05516   0.05817
     Eigenvalues ---    0.05859   0.09250   0.09348   0.11783   0.11824
     Eigenvalues ---    0.12780   0.12873   0.14060   0.14108   0.14307
     Eigenvalues ---    0.14459   0.16000   0.16000   0.16000   0.16000
     Eigenvalues ---    0.16000   0.16000   0.21956   0.21969   0.22013
     Eigenvalues ---    0.22022   0.27893   0.28261   0.28284   0.28593
     Eigenvalues ---    0.32161   0.32574   0.32674   0.32885   0.32927
     Eigenvalues ---    0.33185   0.33202   0.33231   0.36126   0.36518
     Eigenvalues ---    0.44226   0.44257   0.44435   0.44480   0.46120
     Eigenvalues ---    0.46286   0.50807   0.51812
 Linear search not attempted -- first point.
 Iteration  1 RMS(Cart)=  0.12061042 RMS(Int)=  0.00517906
 Iteration  2 RMS(Cart)=  0.00714494 RMS(Int)=  0.00094615
 Iteration  3 RMS(Cart)=  0.00002838 RMS(Int)=  0.00094605
 Iteration  4 RMS(Cart)=  0.00000004 RMS(Int)=  0.00094605
 Variable       Old X    -DE/DX   Delta X   Delta X   Delta X     New X
                                 (Linear)    (Quad)   (Total)
    R1        2.76579  -0.01015   0.00000  -0.02604  -0.02604   2.73976
    R2        1.92638   0.00231   0.00000   0.00493   0.00493   1.93131
    R3        1.92885   0.00212   0.00000   0.00455   0.00455   1.93340
    R4        2.91521  -0.00071   0.00000  -0.00230  -0.00230   2.91291
    R5        2.09254   0.00101   0.00000   0.00285   0.00285   2.09538
    R6        2.08727  -0.00085   0.00000  -0.00238  -0.00238   2.08489
    R7        2.90860  -0.00490   0.00000  -0.01579  -0.01579   2.89281
    R8        2.91571   0.01225   0.00000   0.03986   0.03986   2.95557
    R9        2.92374   0.00992   0.00000   0.03268   0.03268   2.95642
   R10        2.77185  -0.00786   0.00000  -0.02036  -0.02036   2.75149
   R11        2.09629   0.00041   0.00000   0.00117   0.00117   2.09745
   R12        2.08699  -0.00098   0.00000  -0.00275  -0.00275   2.08424
   R13        1.92848   0.00318   0.00000   0.00681   0.00681   1.93529
   R14        1.92585   0.00409   0.00000   0.00871   0.00871   1.93456
   R15        2.63810  -0.01493   0.00000  -0.03062  -0.03062   2.60748
   R16        2.10550  -0.00285   0.00000  -0.00824  -0.00824   2.09726
   R17        2.09180  -0.00128   0.00000  -0.00363  -0.00363   2.08817
   R18        1.85759   0.01343   0.00000   0.02521   0.02521   1.88281
   R19        2.63997  -0.01362   0.00000  -0.02803  -0.02803   2.61193
   R20        2.09805  -0.00179   0.00000  -0.00511  -0.00511   2.09294
   R21        2.08647  -0.00048   0.00000  -0.00134  -0.00134   2.08513
   R22        1.84780   0.00695   0.00000   0.01280   0.01280   1.86060
    A1        1.92778   0.00441   0.00000   0.03898   0.03701   1.96479
    A2        1.93406   0.00771   0.00000   0.05672   0.05478   1.98884
    A3        1.86250  -0.00141   0.00000   0.02205   0.01874   1.88123
    A4        1.95515   0.00058   0.00000   0.00514   0.00512   1.96027
    A5        1.97263  -0.00139   0.00000  -0.00774  -0.00788   1.96475
    A6        1.86161  -0.00063   0.00000  -0.00694  -0.00698   1.85462
    A7        1.89180   0.00208   0.00000   0.01807   0.01806   1.90986
    A8        1.89889   0.00053   0.00000   0.00483   0.00485   1.90374
    A9        1.88109  -0.00124   0.00000  -0.01433  -0.01444   1.86665
   A10        1.90864  -0.00267   0.00000  -0.00562  -0.00592   1.90272
   A11        1.92980   0.00929   0.00000   0.04764   0.04727   1.97707
   A12        1.91560  -0.00312   0.00000   0.00364   0.00328   1.91887
   A13        1.91870  -0.00892   0.00000  -0.07546  -0.07431   1.84439
   A14        1.88887   0.01090   0.00000   0.07239   0.07092   1.95980
   A15        1.90176  -0.00547   0.00000  -0.04217  -0.04097   1.86079
   A16        1.96769  -0.00839   0.00000  -0.03832  -0.03862   1.92908
   A17        1.89236   0.00357   0.00000   0.00787   0.00688   1.89924
   A18        1.88625   0.00247   0.00000   0.01961   0.01981   1.90606
   A19        1.97824  -0.00037   0.00000  -0.02163  -0.02206   1.95617
   A20        1.86745   0.00381   0.00000   0.02631   0.02672   1.89417
   A21        1.86703  -0.00057   0.00000   0.01096   0.01091   1.87795
   A22        1.94248   0.00617   0.00000   0.05112   0.04828   1.99077
   A23        1.93579   0.00824   0.00000   0.06244   0.05961   1.99540
   A24        1.86657  -0.00219   0.00000   0.02224   0.01766   1.88423
   A25        1.98676  -0.01467   0.00000  -0.06708  -0.06760   1.91916
   A26        1.88404   0.00624   0.00000   0.02512   0.02452   1.90856
   A27        1.91591  -0.00245   0.00000  -0.01903  -0.01885   1.89706
   A28        1.95082   0.00118   0.00000  -0.01269  -0.01306   1.93775
   A29        1.87154   0.00911   0.00000   0.04603   0.04518   1.91672
   A30        1.84993   0.00151   0.00000   0.03396   0.03387   1.88380
   A31        1.85520   0.01526   0.00000   0.08265   0.08265   1.93785
   A32        1.97503  -0.00755   0.00000  -0.03415  -0.03433   1.94069
   A33        1.90123   0.00448   0.00000   0.02439   0.02455   1.92578
   A34        1.91266  -0.00322   0.00000  -0.02597  -0.02606   1.88660
   A35        1.93705   0.00087   0.00000   0.00128   0.00143   1.93848
   A36        1.87418   0.00498   0.00000   0.02016   0.01942   1.89361
   A37        1.86000   0.00080   0.00000   0.01639   0.01648   1.87648
   A38        1.81635   0.01147   0.00000   0.06213   0.06213   1.87848
    D1       -3.13442   0.00375   0.00000   0.05850   0.05930  -3.07512
    D2        1.00552   0.00160   0.00000   0.03651   0.03740   1.04292
    D3       -1.05854   0.00432   0.00000   0.06294   0.06371  -0.99483
    D4        1.08852  -0.00210   0.00000  -0.02880  -0.02964   1.05888
    D5       -1.05473  -0.00424   0.00000  -0.05080  -0.05155  -1.10627
    D6       -3.11878  -0.00153   0.00000  -0.02436  -0.02524   3.13917
    D7        2.72790   0.00434   0.00000   0.00538   0.00487   2.73276
    D8       -1.44023  -0.00257   0.00000  -0.06177  -0.06208  -1.50231
    D9        0.65829  -0.00548   0.00000  -0.08159  -0.08087   0.57742
   D10       -1.36688   0.00448   0.00000   0.01225   0.01180  -1.35509
   D11        0.74818  -0.00243   0.00000  -0.05490  -0.05515   0.69303
   D12        2.84670  -0.00534   0.00000  -0.07473  -0.07393   2.77276
   D13        0.67414   0.00443   0.00000   0.00780   0.00732   0.68146
   D14        2.78920  -0.00247   0.00000  -0.05935  -0.05963   2.72957
   D15       -1.39547  -0.00538   0.00000  -0.07917  -0.07842  -1.47388
   D16        1.04087  -0.00149   0.00000  -0.06507  -0.06487   0.97600
   D17       -1.16408   0.00232   0.00000  -0.01526  -0.01508  -1.17916
   D18        3.10118  -0.00016   0.00000  -0.04256  -0.04255   3.05863
   D19       -1.08091  -0.00563   0.00000  -0.07256  -0.07353  -1.15444
   D20        2.99732  -0.00181   0.00000  -0.02274  -0.02374   2.97359
   D21        0.97940  -0.00430   0.00000  -0.05005  -0.05121   0.92819
   D22        3.12703  -0.00037   0.00000  -0.02120  -0.02022   3.10680
   D23        0.92208   0.00344   0.00000   0.02862   0.02957   0.95165
   D24       -1.09584   0.00096   0.00000   0.00131   0.00209  -1.09375
   D25       -1.00539  -0.00337   0.00000  -0.09867  -0.09882  -1.10421
   D26        3.10130   0.00061   0.00000  -0.05438  -0.05422   3.04708
   D27        1.09242  -0.00332   0.00000  -0.09843  -0.09793   0.99448
   D28        1.10370  -0.00653   0.00000  -0.12422  -0.12597   0.97773
   D29       -1.07280  -0.00255   0.00000  -0.07993  -0.08137  -1.15417
   D30       -3.08168  -0.00647   0.00000  -0.12397  -0.12508   3.07642
   D31       -3.11217  -0.00179   0.00000  -0.10581  -0.10486   3.06616
   D32        0.99452   0.00219   0.00000  -0.06152  -0.06026   0.93425
   D33       -1.01437  -0.00174   0.00000  -0.10557  -0.10398  -1.11834
   D34        0.70540  -0.00273   0.00000  -0.03980  -0.03954   0.66586
   D35       -1.45801  -0.00190   0.00000  -0.03571  -0.03517  -1.49318
   D36        2.79647  -0.00360   0.00000  -0.05468  -0.05387   2.74260
   D37       -1.37638  -0.00418   0.00000  -0.07827  -0.07936  -1.45574
   D38        2.74340  -0.00336   0.00000  -0.07419  -0.07500   2.66841
   D39        0.71470  -0.00505   0.00000  -0.09315  -0.09370   0.62100
   D40        2.82087   0.00333   0.00000  -0.00544  -0.00544   2.81543
   D41        0.65746   0.00416   0.00000  -0.00136  -0.00107   0.65639
   D42       -1.37124   0.00246   0.00000  -0.02032  -0.01977  -1.39101
   D43       -1.30360   0.00279   0.00000   0.02408   0.02475  -1.27884
   D44        2.90374  -0.00390   0.00000  -0.07819  -0.07970   2.82405
   D45        0.85452   0.00060   0.00000  -0.01300  -0.01150   0.84302
   D46       -1.22132  -0.00609   0.00000  -0.11526  -0.11595  -1.33728
   D47        2.90827   0.00215   0.00000   0.00516   0.00626   2.91454
   D48        0.83243  -0.00454   0.00000  -0.09711  -0.09819   0.73424
   D49       -0.73623  -0.00765   0.00000  -0.15154  -0.15263  -0.88887
   D50        1.40404  -0.00953   0.00000  -0.17882  -0.17843   1.22562
   D51       -2.85884  -0.00168   0.00000  -0.11747  -0.11677  -2.97561
   D52       -1.17850  -0.00660   0.00000  -0.12298  -0.12320  -1.30170
   D53        0.96517  -0.00559   0.00000  -0.11504  -0.11508   0.85009
   D54        2.99171  -0.00128   0.00000  -0.08302  -0.08277   2.90895
         Item               Value     Threshold  Converged?
 Maximum Force            0.015261     0.000015     NO 
 RMS     Force            0.005492     0.000010     NO 
 Maximum Displacement     0.583113     0.000060     NO 
 RMS     Displacement     0.120875     0.000040     NO 
 GradGradGradGradGradGradGradGradGradGradGradGradGradGradGradGradGradGrad

                    Distance matrix (angstroms):
                    1          2          3          4          5
     1  N    0.000000
     2  C    1.449816   0.000000
     3  C    2.484983   1.541443   0.000000
     4  C    3.764022   2.501455   1.530811   0.000000
     5  N    4.304677   2.868179   2.454911   1.456027   0.000000
     6  C    3.308107   2.593783   1.564021   2.466444   2.921851
     7  O    3.979379   3.004436   2.413179   2.777328   2.487196
     8  C    2.747718   2.543370   1.564471   2.570515   3.852536
     9  O    2.661623   2.744300   2.433404   3.200395   4.452233
    10  H    1.022006   2.069801   3.391460   4.522683   4.877330
    11  H    1.023113   2.086414   2.757943   4.213552   4.737888
    12  H    2.136728   1.108828   2.177734   2.888571   2.695943
    13  H    2.053056   1.103278   2.169079   2.569411   2.910094
    14  H    3.939176   2.788587   2.161355   1.109925   2.137041
    15  H    4.604307   3.460418   2.161215   1.102931   2.087360
    16  H    4.096170   2.665897   2.822757   2.093990   1.024111
    17  H    5.316847   3.878675   3.361005   2.096696   1.023725
    18  H    4.205867   3.536947   2.197331   2.742369   3.395696
    19  H    3.035783   2.805844   2.185189   3.432801   3.889442
    20  H    4.423537   3.207018   2.541898   2.312666   1.704320
    21  H    2.796905   3.011863   2.208779   3.479128   4.628337
    22  H    3.839702   3.452480   2.176539   2.622733   4.030360
    23  H    1.969160   2.518861   2.706411   3.731850   4.798218
                    6          7          8          9         10
     6  C    0.000000
     7  O    1.379817   0.000000
     8  C    2.508599   3.737551   0.000000
     9  O    3.724649   4.816860   1.382176   0.000000
    10  H    4.208331   4.689696   3.721761   3.412898   0.000000
    11  H    3.098281   3.835190   2.937752   3.180608   1.652295
    12  H    2.690450   2.581606   3.478172   3.843699   2.471493
    13  H    3.499666   3.820261   2.980883   2.750849   2.356016
    14  H    3.439992   3.844244   2.755953   2.906054   4.597156
    15  H    2.614901   3.006084   2.825085   3.677953   5.453416
    16  H    3.502104   3.018109   4.239391   4.591042   4.471027
    17  H    3.705210   3.155810   4.641670   5.240599   5.877478
    18  H    1.109820   2.057772   2.671704   4.027074   5.166699
    19  H    1.105011   2.039341   2.750784   3.896201   3.905190
    20  H    1.970607   0.996338   3.957680   4.952034   5.107137
    21  H    2.569547   3.914881   1.107537   2.058536   3.782876
    22  H    2.885685   4.088122   1.103401   2.023741   4.805931
    23  H    3.916796   4.952542   1.924605   0.984589   2.600402
                   11         12         13         14         15
    11  H    0.000000
    12  H    2.512480   0.000000
    13  H    2.950159   1.777660   0.000000
    14  H    4.587943   3.382744   2.428182   0.000000
    15  H    4.911023   3.833222   3.635597   1.785674   0.000000
    16  H    4.659886   2.348816   2.475657   2.429112   2.969877
    17  H    5.754501   3.687104   3.815706   2.598260   2.341042
    18  H    3.973103   3.753084   4.331999   3.699201   2.422655
    19  H    2.501733   2.896008   3.860198   4.297516   3.657608
    20  H    4.481260   2.808600   3.777448   3.372328   2.498107
    21  H    2.609723   3.836681   3.687652   3.822569   3.650133
    22  H    4.010419   4.312479   3.772508   2.767210   2.455969
    23  H    2.528404   3.597033   2.597020   3.520804   4.363751
                   16         17         18         19         20
    16  H    0.000000
    17  H    1.656297   0.000000
    18  H    4.177427   3.969751   0.000000
    19  H    4.311136   4.737420   1.791088   0.000000
    20  H    2.399281   2.205722   2.417976   2.883257   0.000000
    21  H    5.020814   5.459949   2.695154   2.376929   4.375614
    22  H    4.605229   4.628888   2.626517   3.337114   4.156253
    23  H    4.781691   5.684100   4.417297   3.866885   5.213613
                   21         22         23
    21  H    0.000000
    22  H    1.783163   0.000000
    23  H    2.233542   2.829993   0.000000
 Framework group  C1[X(C5H14N2O2)]
 Deg. of freedom    63
                         Standard orientation:                         
 ---------------------------------------------------------------------
 Center     Atomic      Atomic             Coordinates (Angstroms)
 Number     Number       Type             X           Y           Z
 ---------------------------------------------------------------------
      1          7           0       -1.739760    1.366062   -0.737252
      2          6           0       -0.490189    0.677027   -0.993710
      3          6           0       -0.020711   -0.153679    0.216895
      4          6           0        0.911013   -1.265471   -0.272176
      5          7           0        2.022993   -0.704742   -1.026562
      6          6           0        0.814237    0.674227    1.248204
      7          8           0        1.978544    1.123260    0.659431
      8          6           0       -1.258766   -0.714929    0.991354
      9          8           0       -2.260858   -1.099131    0.120370
     10          1           0       -2.086559    1.867858   -1.557268
     11          1           0       -1.696102    2.029904    0.040031
     12          1           0        0.320384    1.367011   -1.304183
     13          1           0       -0.679570   -0.000025   -1.843978
     14          1           0        0.321159   -1.988211   -0.873551
     15          1           0        1.316304   -1.808330    0.598169
     16          1           0        1.766442   -0.364627   -1.957855
     17          1           0        2.822900   -1.335180   -1.130059
     18          1           0        1.033834    0.043439    2.134535
     19          1           0        0.208472    1.534931    1.584785
     20          1           0        2.465297    0.376419    0.214471
     21          1           0       -1.629102    0.033247    1.719175
     22          1           0       -0.932823   -1.600877    1.562626
     23          1           0       -2.688264   -0.280892   -0.222011
 ---------------------------------------------------------------------
 Rotational constants (GHZ):           2.1750655           1.1940223           1.1081508
   154 basis functions,   281 primitive gaussians,   163 cartesian basis functions
    37 alpha electrons       36 beta electrons
       nuclear repulsion energy       534.1991873315 Hartrees.
 NAtoms=   23 NActive=   23 NUniq=   23 SFac= 1.00D+00 NAtFMM=   60 NAOKFM=F Big=F
 Nuclear repulsion after empirical dispersion term =      534.1813144906 Hartrees.
   1 Symmetry operations used in ECPInt.
 ECPInt:  NShTT=    3403 NPrTT=   13689 LenC2=    3377 LenP2D=   10783.
 LDataN:  DoStor=T MaxTD1= 4 Len=   56
 Initial guess from the checkpoint file:  "29.chk"
 B after Tr=    -0.000000    0.000000   -0.000000
         Rot=    0.998192   -0.059214   -0.005659   -0.008601 Ang=  -6.89 deg.
 Initial guess <Sx>= 0.0000 <Sy>= 0.0000 <Sz>= 0.5000 <S**2>= 0.7545 S= 0.5022
 ExpMin= 1.22D-01 ExpMax= 2.27D+03 ExpMxC= 3.41D+02 IAcc=3 IRadAn=         5 AccDes= 0.00D+00
 Harris functional with IExCor= 4639 and IRadAn=       5 diagonalized for initial guess.
 HarFok:  IExCor= 4639 AccDes= 0.00D+00 IRadAn=         5 IDoV= 1 UseB2=F ITyADJ=14
 ICtDFT=  3500011 ScaDFX=  1.000000  1.000000  1.000000  1.000000
 FoFCou: FMM=F IPFlag=           0 FMFlag=      100000 FMFlg1=           0
         NFxFlg=           0 DoJE=T BraDBF=F KetDBF=T FulRan=T
         wScrn=  0.000000 ICntrl=       500 IOpCl=  0 I1Cent=   200000004 NGrid=           0
         NMat0=    1 NMatS0=      1 NMatT0=    0 NMatD0=    1 NMtDS0=    0 NMtDT0=    0
 Petite list used in FoFCou.
     Accept linear search using points  3 and  4.
     Minimum is close to point  4 DX= -1.60D-02 DF= -5.31D-07 DXR=  1.35D-02 DFR=  2.85D-05 which will be used.
     Minimum is close to point  2 DX=  2.30D-02 DF= -8.83D-07 DXR=  2.25D-02 DFR=  5.06D-04 which will be used.
     Accept linear search using points  1 and  2.
     Minimum is close to point  2 DX= -2.56D-02 DF= -5.77D-07 DXR=  2.93D-02 DFR=  6.91D-04 which will be used.
     Minimum is close to point  2 DX=  3.05D-02 DF= -4.81D-07 DXR=  3.28D-02 DFR=  1.08D-03 which will be used.
     Minimum is close to point  2 DX=  9.56D-02 DF= -2.45D-06 DXR=  9.60D-02 DFR=  9.31D-03 which will be used.
     Minimum is close to point  2 DX=  8.82D-02 DF= -1.14D-06 DXR=  8.10D-02 DFR=  6.61D-03 which will be used.
     Accept linear search using points  1 and  2.
     Minimum is close to point  2 DX= -3.27D-02 DF= -1.35D-07 DXR=  3.38D-02 DFR=  1.14D-03 which will be used.
     Accept linear search using points  1 and  2.
     Accept linear search using points  1 and  2.
     Accept linear search using points  1 and  2.
     Minimum is close to point  2 DX= -5.54D-03 DF= -2.55D-08 DXR=  5.57D-03 DFR=  3.14D-05 which will be used.
     Minimum is close to point  2 DX=  1.87D-02 DF= -5.32D-09 DXR=  1.84D-02 DFR=  3.39D-04 which will be used.
 SCF Done:  E(UwB97XD) =  -458.049989796     a.u. after   15 cycles
            Convg  =    0.1997D-06                    81 Fock formations.
              S**2 =  0.7550                  -V/T =  2.0087
 <Sx>= 0.0000 <Sy>= 0.0000 <Sz>= 0.5000 <S**2>= 0.7550 S= 0.5025
 <L.S>=  0.00000000000    
 Annihilation of the first spin contaminant:
 S**2 before annihilation     0.7550,   after     0.7500
   1 Symmetry operations used in ECPInt.
 ECPInt:  NShTT=    3403 NPrTT=   13689 LenC2=    3377 LenP2D=   10783.
 LDataN:  DoStor=T MaxTD1= 5 Len=  102
 Calling FoFJK, ICntrl=      2127 FMM=F ISym2X=0 I1Cent= 0 IOpClX= 1 NMat=1 NMatS=1 NMatT=0.

 GradGradGradGradGradGradGradGradGradGradGradGradGradGradGradGradGradGrad
 Using GEDIIS/GDIIS optimizer.
 FormGI is forming the generalized inverse of G from B-inverse, IUseBI=4.
 Internal  Forces:  Max     0.021286172 RMS     0.004566765
 Step number   2 out of a maximum of  124
 All quantities printed in internal units (Hartrees-Bohrs-Radians)
 Mixed Optimization -- RFO/linear search
 Trust test= 5.93D-01 RLast= 6.03D-01 DXMaxT set to 5.05D-01
 ITU=  1  0
 Use linear search instead of GDIIS.
     Eigenvalues ---    0.00230   0.00230   0.00246   0.00307   0.00834
     Eigenvalues ---    0.00849   0.01734   0.01989   0.03155   0.03576
     Eigenvalues ---    0.04085   0.04163   0.04341   0.04754   0.04914
     Eigenvalues ---    0.05204   0.05359   0.05446   0.05704   0.05900
     Eigenvalues ---    0.05986   0.08997   0.09392   0.11082   0.11484
     Eigenvalues ---    0.12607   0.12774   0.13792   0.13902   0.14229
     Eigenvalues ---    0.14952   0.15567   0.16000   0.16000   0.16000
     Eigenvalues ---    0.16000   0.16945   0.21397   0.21944   0.22014
     Eigenvalues ---    0.25835   0.27304   0.28249   0.28291   0.32129
     Eigenvalues ---    0.32556   0.32665   0.32880   0.32912   0.33137
     Eigenvalues ---    0.33192   0.33216   0.33632   0.35744   0.36963
     Eigenvalues ---    0.43998   0.44243   0.44340   0.44502   0.44888
     Eigenvalues ---    0.46201   0.50405   0.51873
 Quartic linear search produced a step of -0.18741.
 Iteration  1 RMS(Cart)=  0.08125906 RMS(Int)=  0.00413017
 Iteration  2 RMS(Cart)=  0.00526832 RMS(Int)=  0.00057117
 Iteration  3 RMS(Cart)=  0.00003790 RMS(Int)=  0.00057051
 Iteration  4 RMS(Cart)=  0.00000001 RMS(Int)=  0.00057051
 Variable       Old X    -DE/DX   Delta X   Delta X   Delta X     New X
                                 (Linear)    (Quad)   (Total)
    R1        2.73976   0.00140   0.00488  -0.01561  -0.01073   2.72903
    R2        1.93131  -0.00212  -0.00092  -0.00018  -0.00110   1.93021
    R3        1.93340  -0.00193  -0.00085  -0.00013  -0.00098   1.93242
    R4        2.91291   0.00018   0.00043  -0.00115  -0.00072   2.91219
    R5        2.09538   0.00046  -0.00053   0.00310   0.00256   2.09794
    R6        2.08489   0.00003   0.00045  -0.00162  -0.00117   2.08372
    R7        2.89281   0.01117   0.00296   0.01851   0.02147   2.91428
    R8        2.95557   0.01627  -0.00747   0.07231   0.06484   3.02041
    R9        2.95642  -0.00049  -0.00613   0.02197   0.01585   2.97227
   R10        2.75149  -0.00425   0.00382  -0.02354  -0.01972   2.73177
   R11        2.09745  -0.00032  -0.00022   0.00009  -0.00013   2.09732
   R12        2.08424   0.00004   0.00052  -0.00187  -0.00135   2.08289
   R13        1.93529  -0.00130  -0.00128   0.00258   0.00130   1.93659
   R14        1.93456   0.00052  -0.00163   0.00711   0.00547   1.94003
   R15        2.60748  -0.00774   0.00574  -0.03472  -0.02898   2.57850
   R16        2.09726  -0.00132   0.00154  -0.00901  -0.00746   2.08979
   R17        2.08817  -0.00102   0.00068  -0.00496  -0.00428   2.08389
   R18        1.88281   0.00302  -0.00473   0.02256   0.01783   1.90064
   R19        2.61193  -0.00637   0.00525  -0.03063  -0.02538   2.58656
   R20        2.09294  -0.00037   0.00096  -0.00453  -0.00357   2.08937
   R21        2.08513   0.00050   0.00025   0.00019   0.00044   2.08556
   R22        1.86060  -0.00158  -0.00240   0.00675   0.00435   1.86496
    A1        1.96479  -0.00084  -0.00694   0.02109   0.01416   1.97895
    A2        1.98884  -0.00140  -0.01027   0.03122   0.02095   2.00980
    A3        1.88123   0.00077  -0.00351   0.01339   0.00988   1.89111
    A4        1.96027   0.00394  -0.00096   0.01847   0.01747   1.97774
    A5        1.96475  -0.00221   0.00148  -0.01660  -0.01510   1.94966
    A6        1.85462   0.00134   0.00131   0.01210   0.01341   1.86804
    A7        1.90986  -0.00087  -0.00339   0.00639   0.00305   1.91291
    A8        1.90374  -0.00291  -0.00091  -0.00899  -0.01006   1.89368
    A9        1.86665   0.00054   0.00271  -0.01294  -0.01020   1.85645
   A10        1.90272   0.00382   0.00111   0.03621   0.03735   1.94007
   A11        1.97707  -0.00694  -0.00886   0.00511  -0.00426   1.97281
   A12        1.91887   0.00476  -0.00061   0.01144   0.01071   1.92958
   A13        1.84439   0.00795   0.01393   0.00374   0.01668   1.86107
   A14        1.95980  -0.00923  -0.01329  -0.00595  -0.01917   1.94062
   A15        1.86079  -0.00087   0.00768  -0.05283  -0.04536   1.81543
   A16        1.92908   0.02129   0.00724   0.05144   0.05828   1.98736
   A17        1.89924  -0.00907  -0.00129  -0.03458  -0.03492   1.86432
   A18        1.90606  -0.00177  -0.00371   0.02726   0.02275   1.92881
   A19        1.95617  -0.00550   0.00413  -0.03754  -0.03280   1.92337
   A20        1.89417  -0.00800  -0.00501  -0.00244  -0.00930   1.88487
   A21        1.87795   0.00262  -0.00205  -0.00378  -0.00586   1.87208
   A22        1.99077   0.00404  -0.00905   0.06335   0.05217   2.04294
   A23        1.99540  -0.00177  -0.01117   0.04443   0.03112   2.02651
   A24        1.88423   0.00046  -0.00331   0.02972   0.02338   1.90761
   A25        1.91916   0.01063   0.01267  -0.01361  -0.00155   1.91762
   A26        1.90856  -0.00624  -0.00460   0.00638   0.00167   1.91023
   A27        1.89706  -0.00186   0.00353  -0.03526  -0.03256   1.86450
   A28        1.93775   0.00310   0.00245   0.03826   0.04077   1.97852
   A29        1.91672  -0.00959  -0.00847  -0.03900  -0.04811   1.86861
   A30        1.88380   0.00369  -0.00635   0.04274   0.03683   1.92063
   A31        1.93785   0.00743  -0.01549   0.09367   0.07818   2.01603
   A32        1.94069  -0.00320   0.00643  -0.03552  -0.02929   1.91140
   A33        1.92578  -0.00270  -0.00460   0.00688   0.00245   1.92823
   A34        1.88660   0.00175   0.00488  -0.01922  -0.01474   1.87186
   A35        1.93848   0.00558  -0.00027   0.03931   0.03909   1.97757
   A36        1.89361  -0.00153  -0.00364  -0.00517  -0.00938   1.88423
   A37        1.87648   0.00014  -0.00309   0.01355   0.01043   1.88690
   A38        1.87848  -0.00379  -0.01164   0.02695   0.01531   1.89379
    D1       -3.07512   0.00054  -0.01111   0.06619   0.05497  -3.02015
    D2        1.04292   0.00035  -0.00701   0.05617   0.04916   1.09208
    D3       -0.99483   0.00006  -0.01194   0.07330   0.06146  -0.93337
    D4        1.05888   0.00127   0.00555   0.00668   0.01213   1.07101
    D5       -1.10627   0.00109   0.00966  -0.00334   0.00632  -1.09995
    D6        3.13917   0.00080   0.00473   0.01378   0.01862  -3.12540
    D7        2.73276  -0.00287  -0.00091   0.02511   0.02452   2.75728
    D8       -1.50231   0.00535   0.01163   0.05689   0.06853  -1.43378
    D9        0.57742   0.00301   0.01516   0.00105   0.01578   0.59320
   D10       -1.35509  -0.00355  -0.00221   0.02180   0.01995  -1.33513
   D11        0.69303   0.00467   0.01033   0.05359   0.06396   0.75700
   D12        2.77276   0.00233   0.01386  -0.00225   0.01122   2.78398
   D13        0.68146  -0.00504  -0.00137   0.00476   0.00377   0.68523
   D14        2.72957   0.00318   0.01117   0.03654   0.04779   2.77736
   D15       -1.47388   0.00084   0.01470  -0.01929  -0.00496  -1.47884
   D16        0.97600  -0.00101   0.01216  -0.00893   0.00300   0.97900
   D17       -1.17916  -0.00197   0.00283   0.02768   0.03087  -1.14829
   D18        3.05863   0.00103   0.00797   0.03649   0.04532   3.10395
   D19       -1.15444   0.00053   0.01378  -0.03700  -0.02390  -1.17834
   D20        2.97359  -0.00043   0.00445  -0.00039   0.00397   2.97756
   D21        0.92819   0.00257   0.00960   0.00842   0.01843   0.94662
   D22        3.10680   0.00158   0.00379   0.02697   0.02998   3.13679
   D23        0.95165   0.00062  -0.00554   0.06358   0.05785   1.00950
   D24       -1.09375   0.00361  -0.00039   0.07239   0.07231  -1.02144
   D25       -1.10421   0.00488   0.01852   0.07223   0.09078  -1.01343
   D26        3.04708  -0.00175   0.01016   0.02927   0.03957   3.08665
   D27        0.99448  -0.00158   0.01835  -0.00546   0.01325   1.00773
   D28        0.97773   0.01083   0.02361   0.12192   0.14572   1.12345
   D29       -1.15417   0.00420   0.01525   0.07896   0.09451  -1.05966
   D30        3.07642   0.00437   0.02344   0.04423   0.06819  -3.13858
   D31        3.06616   0.00375   0.01965   0.09090   0.10990  -3.10713
   D32        0.93425  -0.00289   0.01129   0.04794   0.05869   0.99294
   D33       -1.11834  -0.00272   0.01949   0.01320   0.03236  -1.08598
   D34        0.66586   0.00579   0.00741   0.08447   0.09166   0.75751
   D35       -1.49318   0.00281   0.00659   0.05414   0.06062  -1.43257
   D36        2.74260   0.00312   0.01010   0.04524   0.05536   2.79796
   D37       -1.45574   0.00382   0.01487   0.03426   0.04950  -1.40624
   D38        2.66841   0.00084   0.01405   0.00393   0.01846   2.68686
   D39        0.62100   0.00116   0.01756  -0.00497   0.01320   0.63420
   D40        2.81543  -0.00038   0.00102   0.06428   0.06480   2.88023
   D41        0.65639  -0.00336   0.00020   0.03395   0.03376   0.69015
   D42       -1.39101  -0.00304   0.00371   0.02505   0.02850  -1.36251
   D43       -1.27884   0.00432  -0.00464   0.10744   0.10364  -1.17520
   D44        2.82405   0.00171   0.01494  -0.02690  -0.01241   2.81163
   D45        0.84302   0.00396   0.00216   0.07364   0.07608   0.91910
   D46       -1.33728   0.00135   0.02173  -0.06070  -0.03997  -1.37725
   D47        2.91454  -0.00129  -0.00117   0.04471   0.04434   2.95888
   D48        0.73424  -0.00391   0.01840  -0.08963  -0.07171   0.66253
   D49       -0.88887  -0.00108   0.02860  -0.14833  -0.11931  -1.00817
   D50        1.22562   0.00022   0.03344  -0.12428  -0.09046   1.13516
   D51       -2.97561   0.00059   0.02188  -0.07220  -0.05112  -3.02673
   D52       -1.30170   0.00106   0.02309  -0.08038  -0.05698  -1.35869
   D53        0.85009  -0.00072   0.02157  -0.06876  -0.04737   0.80271
   D54        2.90895   0.00177   0.01551  -0.03247  -0.01708   2.89187
         Item               Value     Threshold  Converged?
 Maximum Force            0.021286     0.000015     NO 
 RMS     Force            0.004567     0.000010     NO 
 Maximum Displacement     0.476916     0.000060     NO 
 RMS     Displacement     0.084139     0.000040     NO 
 GradGradGradGradGradGradGradGradGradGradGradGradGradGradGradGradGradGrad

                    Distance matrix (angstroms):
                    1          2          3          4          5
     1  N    0.000000
     2  C    1.444140   0.000000
     3  C    2.494427   1.541063   0.000000
     4  C    3.806421   2.543375   1.542170   0.000000
     5  N    4.410849   2.982199   2.504417   1.445592   0.000000
     6  C    3.299454   2.618599   1.598333   2.518714   3.037144
     7  O    3.868952   2.972461   2.428805   2.908145   2.726591
     8  C    2.791205   2.559491   1.572858   2.570148   3.878387
     9  O    2.778797   2.766346   2.405350   3.133605   4.419446
    10  H    1.021423   2.073597   3.400740   4.566162   5.002008
    11  H    1.022593   2.094419   2.792467   4.267464   4.856119
    12  H    2.122268   1.110185   2.180664   2.925987   2.828997
    13  H    2.057709   1.102658   2.160811   2.612206   3.008759
    14  H    3.955192   2.792133   2.144872   1.109854   2.104650
    15  H    4.643036   3.502820   2.187334   1.102216   2.071014
    16  H    4.223120   2.795023   2.873928   2.118362   1.024799
    17  H    5.427009   3.997993   3.414106   2.109501   1.026622
    18  H    4.221154   3.557294   2.225904   2.749809   3.422095
    19  H    2.988034   2.807233   2.188894   3.461463   4.019452
    20  H    4.418154   3.265380   2.666041   2.572354   2.003947
    21  H    2.794913   2.999520   2.216578   3.486007   4.673021
    22  H    3.881874   3.466486   2.172872   2.603137   4.006361
    23  H    2.124652   2.563241   2.713332   3.705533   4.828705
                    6          7          8          9         10
     6  C    0.000000
     7  O    1.364482   0.000000
     8  C    2.499260   3.722671   0.000000
     9  O    3.711809   4.790413   1.368746   0.000000
    10  H    4.222356   4.605251   3.749434   3.502738   0.000000
    11  H    3.093422   3.692613   3.006769   3.322503   1.657334
    12  H    2.732558   2.549138   3.496909   3.863767   2.482003
    13  H    3.530338   3.830585   2.991468   2.749051   2.352403
    14  H    3.474226   3.948840   2.744877   2.805341   4.601368
    15  H    2.693601   3.204834   2.805351   3.571884   5.492192
    16  H    3.578734   3.136763   4.305064   4.631259   4.621629
    17  H    3.819590   3.433852   4.660654   5.193323   6.010163
    18  H    1.105871   2.069160   2.681115   4.014034   5.194249
    19  H    1.102748   1.990203   2.687889   3.851833   3.892512
    20  H    2.013816   1.005774   4.081361   5.059836   5.109561
    21  H    2.551053   3.858559   1.105649   2.072061   3.770549
    22  H    2.840988   4.074503   1.103633   2.005737   4.836979
    23  H    3.954722   4.953318   1.924818   0.986893   2.712043
                   11         12         13         14         15
    11  H    0.000000
    12  H    2.509140   0.000000
    13  H    2.960993   1.771516   0.000000
    14  H    4.616216   3.379360   2.434280   0.000000
    15  H    4.969873   3.887129   3.669667   1.781203   0.000000
    16  H    4.778487   2.461219   2.623790   2.455875   2.980922
    17  H    5.872549   3.828398   3.932177   2.601301   2.330924
    18  H    4.006344   3.777787   4.352079   3.711012   2.459934
    19  H    2.463685   2.949141   3.857623   4.292213   3.706103
    20  H    4.433027   2.798740   3.893044   3.623085   2.829535
    21  H    2.645862   3.838343   3.667942   3.810340   3.656153
    22  H    4.066425   4.318480   3.796523   2.775565   2.400215
    23  H    2.719914   3.655525   2.587129   3.433309   4.307652
                   16         17         18         19         20
    16  H    0.000000
    17  H    1.673187   0.000000
    18  H    4.182898   3.989903   0.000000
    19  H    4.410816   4.866266   1.809682   0.000000
    20  H    2.518588   2.543974   2.465196   2.887233   0.000000
    21  H    5.084977   5.497612   2.729889   2.293489   4.446782
    22  H    4.633367   4.594929   2.587013   3.244535   4.287567
    23  H    4.873128   5.700430   4.457373   3.877517   5.335595
                   21         22         23
    21  H    0.000000
    22  H    1.788610   0.000000
    23  H    2.253550   2.823423   0.000000
 Framework group  C1[X(C5H14N2O2)]
 Deg. of freedom    63
                         Standard orientation:                         
 ---------------------------------------------------------------------
 Center     Atomic      Atomic             Coordinates (Angstroms)
 Number     Number       Type             X           Y           Z
 ---------------------------------------------------------------------
      1          7           0       -1.725761    1.341801   -0.860528
      2          6           0       -0.501636    0.602543   -1.061914
      3          6           0       -0.021974   -0.138821    0.201090
      4          6           0        0.917358   -1.306760   -0.162039
      5          7           0        2.064824   -0.911967   -0.947658
      6          6           0        0.786310    0.801816    1.209330
      7          8           0        1.867098    1.341329    0.574795
      8          6           0       -1.249618   -0.638737    1.047764
[...]
 00037963,-0.00116888,-0.00013754,0.00098697,0.00005017,-0.00001091,0.0
 0002899,-0.00004311,0.00007384,-0.00020357,-0.00079013,-0.00039730,-0.
 00043422,0.00050368,-0.00040293,0.00008907,0.11800646,0.17368060,-0.00
 003453,-0.00007010,0.00008769,0.00052593,0.00090109,0.00014040,-0.0065
 9504,-0.00648546,-0.00602467,-0.09214214,-0.08945175,-0.11941430,0.024
 49216,0.02344874,0.01024964,0.00240905,-0.00199578,-0.00054166,-0.0004
 1652,0.00020318,0.00062213,-0.00153686,-0.00237493,-0.00098438,-0.0007
 9885,0.00089278,0.00084522,-0.00001392,0.00001429,0.00003094,0.0000363
 2,0.00002365,-0.00012585,0.00008443,-0.00014299,0.00146421,-0.00002528
 ,-0.00013877,0.00023673,0.08272602,0.08844937,0.12344359,-0.00104212,0
 .00084971,-0.00034094,0.00046486,0.00258542,0.00141739,-0.00669499,0.0
 0548104,-0.01192467,-0.13229337,0.07282228,-0.11058224,0.01148223,-0.0
 1731098,0.02577456,0.00038413,-0.00126657,-0.00052587,0.00018352,-0.00
 001660,-0.00008007,0.00021285,0.00049579,-0.00133115,-0.00011527,-0.00
 044731,0.00058284,0.00017059,0.00020894,0.00005089,-0.00007872,-0.0000
 4324,-0.00004960,-0.00439968,-0.00125774,0.00355081,0.00004150,-0.0002
 0351,-0.00009429,-0.00640373,0.01094480,-0.01113795,0.13553754,0.00107
 947,-0.00078230,0.00055540,0.00095196,-0.00246259,-0.00210417,0.011509
 45,-0.01111784,0.01639447,0.06529799,-0.11246352,0.09008871,0.00465449
 ,-0.00563742,0.00761729,0.00037235,0.00033319,0.00210419,-0.00028926,0
 .00029507,-0.00048276,-0.00056766,0.00046619,0.00035053,-0.00019593,-0
 .00035717,0.00014247,-0.00021592,-0.00024510,0.00003478,0.00012355,0.0
 0005522,0.00014049,-0.00092000,-0.00078940,0.00148444,0.00020768,-0.00
 018312,0.00018818,-0.00887368,0.01282293,-0.01467017,-0.07346470,0.119
 51075,0.00059766,-0.00053117,0.00060848,0.00055879,-0.00197452,-0.0008
 0083,0.00637615,-0.00610450,0.01084902,-0.09895155,0.09010175,-0.18454
 891,-0.00927763,0.01275263,-0.01910836,0.00042516,-0.00076226,0.001560
 66,0.00006282,0.00025544,-0.00010440,-0.00043312,-0.00010117,0.0010705
 8,-0.00031309,-0.00013541,-0.00002732,-0.00011174,-0.00017470,0.000079
 24,0.00009618,0.00001744,-0.00003512,0.00403860,0.00039918,-0.00140097
 ,0.00012142,-0.00006508,0.00003638,-0.00546856,0.00714493,-0.00712042,
 0.10354889,-0.10088696,0.19991397,0.00010846,0.00012806,-0.00001019,-0
 .00062058,-0.00034724,0.00065262,-0.00267685,-0.00181951,0.00195263,-0
 .00868146,0.01535011,0.00652117,-0.15981901,0.13231067,0.08295445,-0.0
 0089192,-0.00043600,0.00049774,-0.00029341,-0.00206798,-0.00245940,-0.
 00005717,0.00128409,0.00039048,0.00022579,-0.00019376,-0.00023428,-0.0
 0000893,0.00004740,0.00003219,-0.00006449,0.00010641,-0.00006463,-0.00
 750867,0.00967304,0.01087432,-0.00016835,0.00008373,0.00009678,-0.0003
 8074,0.00036156,-0.00062117,0.00097340,-0.00000991,-0.00050448,0.15873
 340,-0.00017473,-0.00018111,-0.00011444,0.00124813,0.00004623,0.000028
 51,-0.00214369,-0.00251960,0.00310977,-0.00731838,0.01699841,0.0053510
 9,0.13207295,-0.24393152,-0.11699991,-0.00041161,-0.00036095,-0.000194
 31,-0.00049052,-0.00059315,-0.00082380,-0.00033696,0.00128605,0.000532
 34,-0.00011640,-0.00022805,-0.00015225,0.00003997,0.00001037,-0.000033
 75,-0.00002735,-0.00003845,0.00005247,0.00469501,-0.00955015,-0.009575
 70,0.00013992,-0.00002164,-0.00016507,-0.00035923,0.00053629,-0.000106
 75,0.00019576,0.00032574,0.00035710,-0.14146603,0.24905179,-0.00015289
 ,0.00081266,0.00028808,-0.00185708,0.00016183,0.00077447,0.00201643,0.
 00393248,-0.00254878,0.00979740,-0.01716620,-0.00864906,0.08316412,-0.
 11887761,-0.13631098,-0.00019135,0.00009700,0.00026732,-0.00068362,-0.
 00062936,-0.00064397,0.00047913,-0.00140656,-0.00023748,-0.00023941,0.
 00003102,0.00008538,0.00012357,-0.00006056,0.00004710,0.00002882,-0.00
 007677,-0.00023374,-0.00966088,0.01662982,0.01878759,-0.00004725,-0.00
 000130,0.00009213,-0.00063375,0.00017139,0.00136298,-0.00045680,-0.000
 27371,-0.00044845,-0.09306573,0.12374996,0.13328030,0.00009029,-0.0005
 1064,-0.00012614,0.00050060,0.00108265,-0.00038184,-0.00023167,0.00013
 783,0.00008455,-0.01616036,-0.01569570,-0.00693744,-0.17503517,-0.1138
 3086,-0.08552143,-0.00061786,0.00273513,0.00259050,-0.00851317,-0.0019
 7453,0.00003910,-0.00017948,-0.00082852,-0.00010675,0.00000675,0.00029
 331,0.00013129,-0.00012161,0.00007842,-0.00001386,-0.00003842,0.000250
 09,0.00027947,-0.01018233,-0.01233165,-0.00666064,0.00024109,-0.000174
 20,-0.00007535,-0.00111809,-0.00081194,0.00332269,0.00140813,0.0006877
 4,-0.00053069,0.02049715,0.01437817,0.01081758,0.18765035,0.00004539,-
 0.00164067,-0.00075288,0.00018508,0.00061711,-0.00078068,0.00092559,0.
 00222643,0.00073516,-0.01256230,-0.00773331,-0.00031491,-0.11265000,-0
 .19032297,-0.08800300,0.00711883,0.00578782,-0.00168574,-0.00435195,-0
 .00595342,0.00192633,0.00040707,-0.00056514,-0.00060940,-0.00034163,-0
 .00056092,-0.00017569,-0.00017508,-0.00014119,-0.00000217,0.00081779,-
 0.00059698,0.00052942,0.01052077,0.02028023,0.00852979,-0.00050506,0.0
 0012815,0.00016559,-0.00036484,0.00049353,0.00092542,0.00066268,-0.000
 35712,-0.00072241,-0.01259051,-0.01075892,-0.00696039,0.12813516,0.190
 86094,-0.00000649,-0.00076399,-0.00097386,0.00100646,0.00057319,-0.000
 62317,0.00026341,0.00048895,0.00211205,0.01630455,0.01815339,0.0174231
 0,-0.08351604,-0.08846392,-0.11940383,0.00868008,0.00318464,-0.0044178
 1,-0.00404315,0.00231183,0.00041893,0.00034225,0.00046843,-0.00019746,
 -0.00018403,-0.00080354,-0.00054165,-0.00025445,-0.00007160,0.00005239
 ,0.00039245,-0.00037628,0.00112040,-0.01551164,-0.01497393,-0.00971896
 ,-0.00021176,0.00016407,-0.00011633,0.00352228,0.00158563,-0.00506985,
 -0.00004087,0.00090344,-0.00005888,-0.00651768,-0.00491245,-0.00550917
 ,0.08504032,0.08428477,0.12419057,-0.00000591,-0.00041818,-0.00020917,
 -0.00161299,-0.00287400,-0.00165834,-0.00582386,0.01148674,-0.01327825
 ,0.00019604,0.00046778,0.00122399,0.00044252,0.00022898,0.00040885,-0.
 08158562,0.05326175,-0.06991063,0.00017012,-0.02342818,0.03362542,-0.0
 0020401,0.00085166,-0.00218863,0.00019936,-0.00015870,0.00075804,0.000
 10716,-0.00008646,-0.00004448,-0.00063166,0.00004213,0.00030945,-0.000
 49731,0.00019488,-0.00004032,-0.00017811,0.00056958,-0.00087058,-0.000
 05584,0.00002177,0.00013445,0.00044985,-0.00032919,-0.00000730,0.00009
 715,0.00000358,0.00004029,-0.00002483,-0.00109866,-0.00062324,0.089892
 62,0.00033944,0.00059529,0.00109889,-0.00217838,-0.00329367,-0.0016048
 8,-0.00614126,0.00976133,-0.01511412,-0.00070533,0.00145980,-0.0005719
 0,0.00022281,0.00010688,0.00012894,0.05261175,-0.13772683,0.10745075,-
 0.00678196,-0.00402913,0.01133938,-0.00027663,0.00049876,-0.00075442,0
 .00006255,0.00006597,-0.00011246,-0.00001403,0.00016252,0.00007848,-0.
 00010485,0.00023036,-0.00062204,-0.00012063,-0.00001845,-0.00005856,-0
 .00029355,0.00056832,-0.00070682,-0.00008171,0.00011349,0.00013783,0.0
 0014598,-0.00026338,0.00007449,0.00008172,0.00000628,-0.00002925,-0.00
 000806,-0.00063204,-0.00059419,-0.04545571,0.14355906,0.00017873,0.000
 09442,0.00089414,-0.00200139,-0.00363979,-0.00090414,-0.00826758,0.011
 13979,-0.01525078,0.00020571,0.00175472,0.00008331,0.00008123,-0.00066
 641,0.00010186,-0.06397447,0.10629443,-0.19701823,0.00643054,0.0122855
 3,-0.01475021,0.00073053,0.00095483,-0.00034751,0.00059298,-0.00016048
 ,0.00047522,0.00000458,0.00003982,0.00007985,0.00040971,-0.00018062,-0
 .00020711,-0.00021328,0.00020234,0.00013640,-0.00011856,0.00064580,-0.
 00080976,-0.00001001,-0.00011147,0.00045376,0.00047629,-0.00104699,-0.
 00032711,-0.00005582,-0.00001378,-0.00007039,-0.00014452,0.00100610,0.
 00031017,0.06329389,-0.12074011,0.21544807,-0.00035994,0.00017921,-0.0
 0078898,0.00081552,0.00013076,0.00021188,0.01157397,-0.01460401,-0.006
 07777,-0.00304563,-0.00250698,-0.00237972,0.00033532,0.00074234,0.0007
 7669,-0.11640823,0.10325568,0.04167644,-0.02519430,0.01388182,0.019745
 74,0.00097468,-0.00054416,-0.00051899,0.00000044,0.00015027,0.00008625
 ,-0.00005153,-0.00002925,-0.00008348,-0.00015165,0.00026604,0.00030562
 ,-0.00011649,-0.00000781,-0.00002792,-0.00001315,-0.00008461,0.0001346
 7,0.00063925,-0.00087341,-0.00064962,-0.00007429,0.00007129,0.00003707
 ,0.00015374,0.00008361,0.00003038,-0.00041345,-0.00159996,-0.00170108,
 -0.00209927,0.00884979,0.00269669,0.13375830,0.00042705,0.00057156,0.0
 0148749,0.00007251,-0.00085176,0.00082316,0.00882272,-0.01299079,-0.00
 528231,-0.00331548,-0.00183260,-0.00172218,0.00028231,0.00063168,0.000
 28542,0.10744753,-0.22228370,-0.07334656,-0.01331613,0.01676548,0.0098
 9013,0.00103994,-0.00048186,-0.00067952,-0.00023875,0.00061906,0.00039
 143,-0.00001718,0.00016394,0.00017892,0.00017485,0.00013469,0.00041869
 ,0.00009500,-0.00012627,0.00003569,-0.00000491,-0.00000860,-0.00003161
 ,0.00076410,-0.00053331,-0.00069858,-0.00023057,0.00050745,0.00003213,
 0.00002793,0.00009868,-0.00000249,-0.00039080,-0.00086711,-0.00064287,
 0.00728986,-0.01084006,-0.00656345,-0.10866037,0.23017332,0.00015468,0
 .00078103,0.00108106,0.00060781,-0.00142242,0.00047788,0.00979366,-0.0
 1659631,-0.00671441,-0.00319686,-0.00177586,-0.00170782,-0.00048277,0.
 00035919,-0.00019565,0.04076692,-0.06614506,-0.08279433,0.01797995,-0.
 01081646,-0.00925401,0.00062160,0.00018469,0.00000800,-0.00000321,0.00
 040906,-0.00001567,-0.00004933,0.00031834,0.00029160,0.00069043,0.0004
 7652,-0.00217941,0.00047083,-0.00035598,0.00013800,0.00003807,0.000028
 84,0.00008944,0.00076267,-0.00087497,-0.00022181,0.00009182,-0.0001213
 7,0.00007044,-0.00010315,-0.00000048,-0.00007002,0.00019064,0.00089066
 ,0.00081330,-0.01219245,0.01908997,0.01070801,-0.05467484,0.07545694,0
 .08880997,0.00003554,0.00009740,0.00039095,0.00043766,0.00000582,0.000
 39047,-0.00405420,-0.00106609,0.00499784,-0.00018521,-0.00030257,0.000
 58243,0.00028574,0.00285635,0.00221269,-0.02028664,-0.01725437,-0.0211
 0731,-0.19813149,-0.15019460,-0.13869229,-0.00011465,-0.00074991,-0.00
 142662,-0.00029429,-0.00000264,0.00034473,0.00005045,0.00018844,0.0000
 0275,-0.00068348,0.00018610,-0.00094440,-0.00003017,-0.00012269,-0.000
 26945,0.00007277,-0.00002884,-0.00003563,-0.00009319,0.00009953,0.0000
 1088,0.00002952,-0.00008494,-0.00009418,0.00060571,0.00028329,0.000236
 70,0.00204702,-0.00285473,-0.00307688,0.00186803,0.00024699,-0.0001875
 6,0.00035019,0.00073255,-0.00100224,0.21817825,0.00053732,-0.00076399,
 0.00001050,-0.00007250,0.00045172,-0.00013907,-0.00159490,-0.00040668,
 0.00225333,0.00032393,0.00058618,-0.00007765,0.00037922,-0.00106200,-0
 .00074768,-0.00765537,-0.00707522,-0.00791067,-0.16022641,-0.14111027,
 -0.14216479,-0.00031614,0.00005966,-0.00074196,0.00004107,0.00002477,0
 .00022610,-0.00000902,0.00003143,-0.00000989,0.00027608,0.00106603,0.0
 0053257,-0.00009345,0.00014155,-0.00012435,0.00006237,-0.00015198,0.00
 007483,-0.00002209,-0.00002597,0.00012922,0.00003056,-0.00021892,0.000
 00105,-0.00023022,-0.00011037,-0.00026838,-0.00140048,-0.00033471,-0.0
 0041010,0.00053795,-0.00010752,-0.00080692,0.00141505,0.00115488,0.000
 02998,0.16804817,0.14799285,0.00007702,0.00015243,0.00007605,-0.000170
 13,-0.00020291,-0.00009239,0.00329077,0.00139265,-0.00252578,0.0003713
 8,0.00010467,-0.00036485,0.00051147,-0.00120182,-0.00072949,0.01744715
 ,0.01483638,0.01437506,-0.17894958,-0.16775204,-0.21661571,0.00029332,
 0.00034095,0.00092567,0.00044996,0.00027731,-0.00020038,-0.00002404,0.
 00002285,0.00004488,-0.00057545,-0.00030371,-0.00037980,0.00021978,0.0
 0002055,0.00028903,-0.00001545,0.00004561,0.00003856,-0.00004623,0.000
 00995,0.00004956,-0.00005415,-0.00000081,0.00004926,-0.00047526,-0.000
 26091,-0.00007957,-0.00186277,0.00123893,0.00052000,0.00079992,0.00131
 861,-0.00000562,0.00103164,-0.00015790,0.00007898,0.15771873,0.1500500
 6,0.20442863,0.00026880,-0.00046539,-0.00011194,0.00121774,0.00095236,
 -0.00197624,-0.01439315,0.01812682,0.00789181,-0.00214114,-0.00340352,
 0.00135446,-0.00110080,0.00098660,0.00138716,-0.00040929,0.00141670,0.
 00083500,0.00060637,-0.00053995,-0.00045320,-0.14050168,0.11358009,0.0
 4709456,0.01331014,-0.02360449,-0.01325184,-0.00004750,-0.00007981,0.0
 0005615,-0.00009624,0.00000402,0.00006521,-0.00032829,0.00034034,-0.00
 019142,-0.00002198,-0.00016927,0.00043073,-0.00007880,-0.00014158,0.00
 002663,0.00011681,-0.00018785,-0.00012396,-0.00021513,-0.00038407,0.00
 029165,0.00020453,0.00036479,0.00013348,0.00003486,-0.00009104,0.00003
 709,-0.00059525,-0.00092185,-0.00024680,-0.00005343,0.00001012,-0.0000
 3055,0.14575785,-0.00003133,0.00029788,-0.00017186,-0.00031322,0.00072
 305,-0.00010580,-0.00758840,0.00993914,0.00514600,-0.00172357,-0.00151
 121,0.00104973,-0.00075337,0.00089910,0.00076096,-0.00013410,0.0004959
 7,0.00018230,-0.00005670,0.00013453,0.00013122,0.11206238,-0.19584199,
 -0.05695696,-0.00004768,-0.02023163,-0.01600017,0.00010336,0.00001056,
 -0.00007969,-0.00003650,0.00002023,0.00000315,-0.00007370,0.00012247,-
 0.00013378,0.00006877,-0.00010159,0.00003242,-0.00029913,-0.00005868,0
 .00036439,-0.00014721,0.00010009,0.00000301,-0.00025261,-0.00015792,0.
 00019116,0.00007291,0.00001091,-0.00008843,-0.00002724,-0.00007790,-0.
 00016227,-0.00020562,0.00006009,0.00002414,0.00007703,-0.00001459,-0.0
 0002761,-0.11302701,0.21430827,-0.00025513,0.00036460,0.00039217,0.000
 06988,-0.00165960,0.00063900,0.01286303,-0.01196809,-0.00711801,0.0014
 7922,0.00225196,-0.00085214,0.00070652,-0.00063550,-0.00046401,-0.0004
 2380,-0.00060548,-0.00008723,-0.00033312,0.00019825,0.00007446,0.04060
 678,-0.05453586,-0.07714750,0.00603293,-0.02418984,-0.01066757,0.00007
 089,0.00005926,-0.00011522,0.00007546,0.00004394,0.00003835,0.00023010
 ,-0.00032896,0.00014544,-0.00000437,-0.00011700,-0.00020091,-0.0005091
 2,0.00006971,0.00019535,0.00028014,-0.00015772,-0.00004883,0.00015019,
 0.00016828,-0.00022365,-0.00010382,-0.00017131,-0.00008975,0.00011810,
 0.00018749,0.00004094,-0.00003277,0.00013465,0.00056595,-0.00000574,0.
 00006196,0.00002932,-0.04724661,0.07127109,0.08471960,0.00063454,-0.00
 110829,0.00001335,-0.00353877,-0.00068106,0.00213660,0.00792366,-0.013
 74214,0.01930420,0.00071797,-0.00048324,0.00029645,0.00009303,0.000347
 19,-0.00070893,0.00047712,-0.00072814,0.00140913,0.00011110,0.00023672
 ,-0.00019582,-0.08352132,0.04953107,-0.06016090,-0.01055083,-0.0015206
 0,-0.02374642,-0.00012721,-0.00014012,-0.00001375,-0.00002254,0.000125
 45,0.00026733,0.00050605,-0.00039432,0.00009064,0.00020017,-0.00020778
 ,-0.00003985,-0.00031191,0.00018050,0.00014860,-0.00023497,0.00017953,
 -0.00006554,-0.00000129,0.00004386,-0.00006343,0.00005757,-0.00004552,
 -0.00000404,-0.00063984,-0.00034168,-0.00013135,-0.00009180,-0.0000611
 5,-0.00017055,0.00002952,0.00002871,-0.00005755,-0.00371754,0.01133834
 ,-0.01440137,0.09131124,0.00026191,-0.00064482,-0.00047184,-0.00319606
 ,0.00025963,0.00289679,0.00500996,-0.00560670,0.00752868,0.00020232,0.
 00022486,-0.00082885,-0.00043482,0.00029500,-0.00029440,0.00016209,-0.
 00053223,0.00153950,0.00008151,0.00036189,-0.00081680,0.04892183,-0.12
 596402,0.10186281,-0.01499569,0.01241060,-0.02689012,-0.00008529,0.000
 01464,-0.00013110,0.00008685,0.00008897,0.00030487,0.00054468,-0.00035
 669,-0.00004355,0.00015352,-0.00015647,-0.00042907,-0.00020011,0.00002
 147,0.00008439,-0.00019919,0.00034937,0.00021524,-0.00002593,0.0000031
 2,-0.00004544,0.00009033,0.00007690,0.00012662,-0.00112327,-0.00015312
 ,-0.00030451,0.00010138,0.00002669,0.00003817,-0.00000683,-0.00011648,
 0.00004497,0.00712117,-0.00961551,0.01840203,-0.04336324,0.12797545,-0
 .00022807,0.00095391,0.00026185,0.00283981,-0.00019148,-0.00166956,-0.
 00503437,0.01094152,-0.01297539,-0.00069548,0.00057792,-0.00048418,0.0
 0034558,-0.00047602,0.00082929,-0.00120337,-0.00021382,-0.00060654,0.0
 0002204,-0.00067905,0.00067555,-0.06213855,0.09790732,-0.19296686,-0.0
 1636110,-0.00157421,-0.02043209,0.00011829,0.00003650,0.00001372,-0.00
 005979,-0.00001362,-0.00024902,-0.00061848,0.00029634,0.00003611,-0.00
 027994,-0.00024935,0.00053249,-0.00023147,0.00003740,0.00004036,0.0007
 3093,-0.00033782,-0.00026466,0.00000145,-0.00001061,0.00000512,-0.0000
 7049,0.00001880,-0.00011794,0.00036393,-0.00003960,0.00091828,0.000161
 01,-0.00003250,-0.00001640,0.00004441,0.00008816,0.00000717,0.00404710
 ,-0.00436747,0.00991885,0.07727149,-0.10266319,0.21687275,-0.00000960,
 0.00046348,0.00004057,0.00020792,0.00002336,-0.00024659,-0.00052591,-0
 .00111025,-0.00322630,-0.00004116,-0.00017930,0.00002104,0.00021968,-0
 .00006027,-0.00022094,-0.00046017,-0.00032128,0.00077569,0.00016457,0.
 00003472,-0.00027089,-0.01837780,-0.00558890,0.01164209,-0.34131100,-0
 .13936465,0.17240210,0.00012617,-0.00002537,0.00000432,-0.00000383,-0.
 00000896,-0.00006000,-0.00007266,0.00003800,0.00005244,0.00010006,-0.0
 0015328,0.00036181,-0.00016512,-0.00015758,0.00005471,-0.00011781,0.00
 000356,0.00001908,-0.00000681,0.00004474,0.00002612,-0.00006703,-0.000
 04293,0.00000605,-0.00009846,0.00003379,-0.00003342,0.00001356,-0.0000
 1917,-0.00004688,-0.00006365,-0.00006998,0.00005003,0.00218313,0.00099
 460,0.00063262,0.00069603,0.00089289,0.00097504,0.35760988,0.00008199,
 -0.00001187,0.00000974,0.00002112,0.00006627,-0.00072013,-0.00215987,-
 0.00332206,-0.00354433,0.00061142,0.00011816,-0.00073351,0.00053841,-0
 .00003518,0.00016257,-0.00074232,0.00010123,0.00101438,-0.00021013,-0.
 00024386,-0.00026964,-0.02336548,-0.01096347,0.01336392,-0.11932762,-0
 .05992506,0.04243284,-0.00006230,-0.00004946,0.00008918,-0.00005180,-0
 .00000669,-0.00000496,-0.00016314,0.00007319,0.00006011,-0.00008809,-0
 .00003352,0.00014976,-0.00061736,0.00058734,0.00056093,0.00016467,0.00
 011189,0.00010380,-0.00001502,0.00008888,0.00002072,0.00001563,-0.0000
 1753,-0.00014365,0.00004291,0.00001405,-0.00002100,-0.00001109,-0.0000
 9145,0.00002138,-0.00015347,-0.00001038,0.00005180,0.00011284,0.000488
 72,0.00115615,0.00080592,0.00103744,-0.00000913,0.14457278,0.07202338,
 0.00011100,0.00021003,0.00006322,0.00014444,0.00015923,-0.00000964,-0.
 00225889,-0.00247529,-0.00339593,0.00029889,-0.00029027,-0.00010188,0.
 00011815,0.00019872,0.00006317,-0.00043306,-0.00012681,0.00078412,-0.0
 0038556,-0.00028404,-0.00017357,-0.02808696,-0.01292654,0.01000133,0.2
 1466925,0.07013991,-0.14994647,0.00006400,0.00001611,0.00000427,-0.000
 01679,0.00005998,-0.00003265,0.00001829,-0.00004638,0.00002710,0.00032
 011,-0.00024706,0.00028083,-0.00044667,0.00052117,0.00028037,0.0001140
 3,0.00007811,0.00005623,-0.00001223,0.00001468,0.00003479,0.00003960,-
 0.00007238,-0.00012223,-0.00005297,0.00004353,0.00004084,0.00004109,0.
 00002532,0.00003687,-0.00009028,-0.00005630,0.00008142,-0.00001846,-0.
 00106555,0.00025536,-0.00117830,-0.00012521,-0.00032893,-0.18295868,-0
 .05375094,0.14210137\\0.00000006,-0.00000036,0.00000205,0.00000023,0.0
 0000151,-0.00000066,0.00000247,-0.00000201,-0.00000023,-0.00000128,0.0
 0000037,0.00000177,-0.00000213,-0.00000004,-0.00000157,-0.00000013,-0.
 00000021,0.00000090,0.00000115,-0.00000144,-0.00000100,-0.00000018,0.0
 0000059,-0.00000054,-0.00000036,0.00000104,-0.00000105,0.00000170,0.00
 000153,0.00000093,0.00000160,0.00000039,0.00000036,-0.00000086,0.00000
 084,-0.00000152,-0.00000004,0.00000164,0.00000019,-0.00000084,0.000000
 48,-0.00000086,-0.00000116,-0.00000095,-0.00000080,-0.00000101,-0.0000
 0094,-0.00000054,0.00000110,-0.00000010,0.00000138,-0.00000004,-0.0000
 0163,-0.00000016,0.00000106,-0.00000096,0.00000055,0.00000103,-0.00000
 160,0.00000106,-0.00000022,0.00000059,0.00000016,-0.00000052,-0.000000
 21,-0.00000010,-0.00000163,0.00000145,-0.00000033\\\@


 Where a calculator on the ENIAC is equipped with 18,000
 vacuum tubes and weighs 30 tons, computers inthe future
 may  have only 1,000 vacuum tubes and weigh only 1 1/2 tons.
              ---Popular Mechanics, March 1949
 Job cpu time:       0 days  0 hours 16 minutes 27.9 seconds.
 Elapsed time:       0 days  0 hours  4 minutes 11.1 seconds.
 File lengths (MBytes):  RWF=    137 Int=      0 D2E=      0 Chk=      4 Scr=      1
 Normal termination of Gaussian 16 at Mon Jul 10 21:31:23 2023.
real 7969.54
user 29720.82
sys 79.10
