 Entering Gaussian System, Link 0=g16
 Input=gaussian_test.inp
 Output=gaussian_test.log
 Initial command:
 /sw/restricted/lms/sw/Gaussian/g16_B01/g16/l1.exe "/scratch/user/peterchao1/peterchao1/6949359_1675443008000000562373434/Gau-178005.inp" -scrdir="/scratch/user/peterchao1/peterchao1/6949359_1675443008000000562373434/"
 Entering Link 1 = /sw/restricted/lms/sw/Gaussian/g16_B01/g16/l1.exe PID=    178009.
  
 Copyright (c) 1988-2017, Gaussian, Inc.  All Rights Reserved.
  
 This is part of the Gaussian(R) 16 program.  It is based on
 the Gaussian(R) 09 system (copyright 2009, Gaussian, Inc.),
 the Gaussian(R) 03 system (copyright 2003, Gaussian, Inc.),
 the Gaussian(R) 98 system (copyright 1998, Gaussian, Inc.),
 the Gaussian(R) 94 system (copyright 1995, Gaussian, Inc.),
 the Gaussian 92(TM) system (copyright 1992, Gaussian, Inc.),
 the Gaussian 90(TM) system (copyright 1990, Gaussian, Inc.),
 the Gaussian 88(TM) system (copyright 1988, Gaussian, Inc.),
 the Gaussian 86(TM) system (copyright 1986, Carnegie Mellon
 University), and the Gaussian 82(TM) system (copyright 1983,
 Carnegie Mellon University). Gaussian is a federally registered
 trademark of Gaussian, Inc.
  
 This software contains proprietary and confidential information,
 including trade secrets, belonging to Gaussian, Inc.
  
 This software is provided under written license and may be
 used, copied, transmitted, or stored only in accord with that
 written license.
  
 The following legend is applicable only to US Government
 contracts under FAR:
  
                    RESTRICTED RIGHTS LEGEND
  
 Use, reproduction and disclosure by the US Government is
 subject to restrictions as set forth in subparagraphs (a)
 and (c) of the Commercial Computer Software - Restricted
 Rights clause in FAR 52.227-19.
  
 Gaussian, Inc.
 340 Quinnipiac St., Bldg. 40, Wallingford CT 06492
  
  
 ---------------------------------------------------------------
 Warning -- This program may not be used in any manner that
 competes with the business of Gaussian, Inc. or will provide
 assistance to any competitor of Gaussian, Inc.  The licensee
 of this program is prohibited from giving any competitor of
 Gaussian, Inc. access to this program.  By using this program,
 the user acknowledges that Gaussian, Inc. is engaged in the
 business of creating and licensing software in the field of
 computational chemistry and represents and warrants to the
 licensee that it is not a competitor of Gaussian, Inc. and that
 it will not use this program in any manner prohibited above.
 ---------------------------------------------------------------
  

 Cite this work as:
 Gaussian 16, Revision B.01,
 M. J. Frisch, G. W. Trucks, H. B. Schlegel, G. E. Scuseria, 
 M. A. Robb, J. R. Cheeseman, G. Scalmani, V. Barone, 
 G. A. Petersson, H. Nakatsuji, X. Li, M. Caricato, A. V. Marenich, 
 J. Bloino, B. G. Janesko, R. Gomperts, B. Mennucci, H. P. Hratchian, 
 J. V. Ortiz, A. F. Izmaylov, J. L. Sonnenberg, D. Williams-Young, 
 F. Ding, F. Lipparini, F. Egidi, J. Goings, B. Peng, A. Petrone, 
 T. Henderson, D. Ranasinghe, V. G. Zakrzewski, J. Gao, N. Rega, 
 G. Zheng, W. Liang, M. Hada, M. Ehara, K. Toyota, R. Fukuda, 
 J. Hasegawa, M. Ishida, T. Nakajima, Y. Honda, O. Kitao, H. Nakai, 
 T. Vreven, K. Throssell, J. A. Montgomery, Jr., J. E. Peralta, 
 F. Ogliaro, M. J. Bearpark, J. J. Heyd, E. N. Brothers, K. N. Kudin, 
 V. N. Staroverov, T. A. Keith, R. Kobayashi, J. Normand, 
 K. Raghavachari, A. P. Rendell, J. C. Burant, S. S. Iyengar, 
 J. Tomasi, M. Cossi, J. M. Millam, M. Klene, C. Adamo, R. Cammi, 
 J. W. Ochterski, R. L. Martin, K. Morokuma, O. Farkas, 
 J. B. Foresman, and D. J. Fox, Gaussian, Inc., Wallingford CT, 2016.
 
 ******************************************
 Gaussian 16:  ES64L-G16RevB.01 20-Dec-2017
                 3-Feb-2023 
 ******************************************
 %nprocshared=4
 Will use up to    4 processors via shared memory.
 %mem=8000mb
 %chk=39.chk
 %nprocshared=4
 Will use up to    4 processors via shared memory.
 %mem=8000mb
 ----------------------------------------------------------------------
 #T wB97XD/def2svpp opt=tight freq int(grid=ultrafine) scf=(verytight,q
 c) Volume=tight
 ----------------------------------------------------------------------
 -----
 Dimer
 -----
 Symbolic Z-matrix:
 Charge =  0 Multiplicity = 1
 C                     3.82079   0.69049   0.52318 
 C                     2.64532  -0.13905  -0.00265 
 C                     3.17302  -1.30008  -0.85885 
 N                     1.86418  -0.59316   1.14414 
 C                     1.70401   0.73653  -0.86364 
 N                     0.97723   1.74993  -0.11443 
 H                     4.37375   1.13478  -0.30093 
 H                     4.49909   0.0624    1.09704 
 H                     3.46052   1.48079   1.17755 
 H                     3.70957  -0.92476  -1.72702 
 H                     2.34623  -1.91929  -1.20227 
 H                     3.85093  -1.92213  -0.27632 
 H                     1.08244  -1.16624   0.83421 
 H                     2.43937  -1.16126   1.75638 
 H                     0.95914   0.08375  -1.32887 
 H                     2.27056   1.2225   -1.66075 
 H                     1.60319   2.51052   0.13223 
 H                     0.68637   1.31801   0.76057 
 C                    -3.15689   1.30783   0.86028 
 C                    -2.64415   0.14011   0.00413 
 C                    -3.82936  -0.68394  -0.50817 
 N                    -1.86989   0.58525  -1.1509 
 C                    -1.70113  -0.73851   0.86024 
 N                    -0.98242  -1.75496   0.10733 
 H                    -3.6865    0.93946   1.73565 
 H                    -3.83733   1.93091   0.2818 
 H                    -2.32325   1.9241    1.19224 
 H                    -4.37846  -1.12044   0.32266 
 H                    -3.47976  -1.47993  -1.16144 
 H                    -4.50821  -0.05417  -1.07954 
 H                    -2.44728   1.15335  -1.76109 
 H                    -1.08344   1.15628  -0.84917 
 H                    -2.26493  -1.22193   1.66083 
 H                    -0.95114  -0.08851   1.32098 
 H                    -0.69517  -1.32457  -0.76964 
 H                    -1.6126   -2.51336  -0.13531 
 
 Add virtual bond connecting atoms N24        and H13        Dist= 4.28D+00.
 Add virtual bond connecting atoms H32        and N6         Dist= 4.28D+00.
 Add virtual bond connecting atoms H32        and H15        Dist= 4.45D+00.
 Add virtual bond connecting atoms H34        and H13        Dist= 4.45D+00.
 Add virtual bond connecting atoms H34        and H18        Dist= 4.21D+00.

 GradGradGradGradGradGradGradGradGradGradGradGradGradGradGradGradGradGrad
 Initialization pass.
                           ----------------------------
                           !    Initial Parameters    !
                           ! (Angstroms and Degrees)  !
 --------------------------                            --------------------------
 ! Name  Definition              Value          Derivative Info.                !
 --------------------------------------------------------------------------------
 ! R1    R(1,2)                  1.5318         estimate D2E/DX2                !
 ! R2    R(1,7)                  1.0873         estimate D2E/DX2                !
 ! R3    R(1,8)                  1.0881         estimate D2E/DX2                !
 ! R4    R(1,9)                  1.0875         estimate D2E/DX2                !
 ! R5    R(2,3)                  1.5361         estimate D2E/DX2                !
 ! R6    R(2,4)                  1.46           estimate D2E/DX2                !
 ! R7    R(2,5)                  1.5473         estimate D2E/DX2                !
 ! R8    R(3,10)                 1.0874         estimate D2E/DX2                !
 ! R9    R(3,11)                 1.0885         estimate D2E/DX2                !
 ! R10   R(3,12)                 1.089          estimate D2E/DX2                !
 ! R11   R(4,13)                 1.0176         estimate D2E/DX2                !
 ! R12   R(4,14)                 1.0141         estimate D2E/DX2                !
 ! R13   R(5,6)                  1.4548         estimate D2E/DX2                !
 ! R14   R(5,15)                 1.0943         estimate D2E/DX2                !
 ! R15   R(5,16)                 1.092          estimate D2E/DX2                !
 ! R16   R(6,17)                 1.0155         estimate D2E/DX2                !
 ! R17   R(6,18)                 1.0182         estimate D2E/DX2                !
 ! R18   R(6,32)                 2.2669         estimate D2E/DX2                !
 ! R19   R(13,24)                2.2668         estimate D2E/DX2                !
 ! R20   R(13,34)                2.3524         estimate D2E/DX2                !
 ! R21   R(15,32)                2.3564         estimate D2E/DX2                !
 ! R22   R(18,34)                2.2302         estimate D2E/DX2                !
 ! R23   R(19,20)                1.5361         estimate D2E/DX2                !
 ! R24   R(19,25)                1.0874         estimate D2E/DX2                !
 ! R25   R(19,26)                1.089          estimate D2E/DX2                !
 ! R26   R(19,27)                1.0885         estimate D2E/DX2                !
 ! R27   R(20,21)                1.5317         estimate D2E/DX2                !
 ! R28   R(20,22)                1.46           estimate D2E/DX2                !
 ! R29   R(20,23)                1.5473         estimate D2E/DX2                !
 ! R30   R(21,28)                1.0873         estimate D2E/DX2                !
 ! R31   R(21,29)                1.0875         estimate D2E/DX2                !
 ! R32   R(21,30)                1.0881         estimate D2E/DX2                !
 ! R33   R(22,31)                1.0141         estimate D2E/DX2                !
 ! R34   R(22,32)                1.0177         estimate D2E/DX2                !
 ! R35   R(23,24)                1.4548         estimate D2E/DX2                !
 ! R36   R(23,33)                1.092          estimate D2E/DX2                !
 ! R37   R(23,34)                1.0942         estimate D2E/DX2                !
 ! R38   R(24,35)                1.0182         estimate D2E/DX2                !
 ! R39   R(24,36)                1.0155         estimate D2E/DX2                !
 ! A1    A(2,1,7)              110.57           estimate D2E/DX2                !
 ! A2    A(2,1,8)              110.2933         estimate D2E/DX2                !
 ! A3    A(2,1,9)              110.2367         estimate D2E/DX2                !
 ! A4    A(7,1,8)              108.5764         estimate D2E/DX2                !
 ! A5    A(7,1,9)              109.1235         estimate D2E/DX2                !
 ! A6    A(8,1,9)              107.9789         estimate D2E/DX2                !
 ! A7    A(1,2,3)              109.6968         estimate D2E/DX2                !
 ! A8    A(1,2,4)              108.0222         estimate D2E/DX2                !
 ! A9    A(1,2,5)              110.5741         estimate D2E/DX2                !
 ! A10   A(3,2,4)              112.739          estimate D2E/DX2                !
 ! A11   A(3,2,5)              109.0596         estimate D2E/DX2                !
 ! A12   A(4,2,5)              106.7147         estimate D2E/DX2                !
 ! A13   A(2,3,10)             110.7101         estimate D2E/DX2                !
 ! A14   A(2,3,11)             110.1741         estimate D2E/DX2                !
 ! A15   A(2,3,12)             110.331          estimate D2E/DX2                !
 ! A16   A(10,3,11)            108.6164         estimate D2E/DX2                !
 ! A17   A(10,3,12)            108.4866         estimate D2E/DX2                !
 ! A18   A(11,3,12)            108.4606         estimate D2E/DX2                !
 ! A19   A(2,4,13)             110.3003         estimate D2E/DX2                !
 ! A20   A(2,4,14)             110.1811         estimate D2E/DX2                !
 ! A21   A(13,4,14)            107.7042         estimate D2E/DX2                !
 ! A22   A(2,5,6)              114.3016         estimate D2E/DX2                !
 ! A23   A(2,5,15)             108.2474         estimate D2E/DX2                !
 ! A24   A(2,5,16)             110.0226         estimate D2E/DX2                !
 ! A25   A(6,5,15)             107.1234         estimate D2E/DX2                !
 ! A26   A(6,5,16)             108.9714         estimate D2E/DX2                !
 ! A27   A(15,5,16)            107.9567         estimate D2E/DX2                !
 ! A28   A(5,6,17)             109.8089         estimate D2E/DX2                !
 ! A29   A(5,6,18)             106.8441         estimate D2E/DX2                !
 ! A30   A(5,6,32)              96.015          estimate D2E/DX2                !
 ! A31   A(17,6,18)            106.5628         estimate D2E/DX2                !
 ! A32   A(17,6,32)            146.6415         estimate D2E/DX2                !
 ! A33   A(18,6,32)             84.7082         estimate D2E/DX2                !
 ! A34   A(4,13,24)            160.6742         estimate D2E/DX2                !
 ! A35   A(4,13,34)            110.0629         estimate D2E/DX2                !
 ! A36   A(24,13,34)            52.9795         estimate D2E/DX2                !
 ! A37   A(5,15,32)            103.4137         estimate D2E/DX2                !
 ! A38   A(6,18,34)            133.8836         estimate D2E/DX2                !
 ! A39   A(20,19,25)           110.7155         estimate D2E/DX2                !
 ! A40   A(20,19,26)           110.3317         estimate D2E/DX2                !
 ! A41   A(20,19,27)           110.1642         estimate D2E/DX2                !
 ! A42   A(25,19,26)           108.4899         estimate D2E/DX2                !
 ! A43   A(25,19,27)           108.62           estimate D2E/DX2                !
 ! A44   A(26,19,27)           108.4575         estimate D2E/DX2                !
 ! A45   A(19,20,21)           109.7007         estimate D2E/DX2                !
 ! A46   A(19,20,22)           112.7166         estimate D2E/DX2                !
 ! A47   A(19,20,23)           109.0702         estimate D2E/DX2                !
 ! A48   A(21,20,22)           108.045          estimate D2E/DX2                !
 ! A49   A(21,20,23)           110.5568         estimate D2E/DX2                !
 ! A50   A(22,20,23)           106.7165         estimate D2E/DX2                !
 ! A51   A(20,21,28)           110.5576         estimate D2E/DX2                !
 ! A52   A(20,21,29)           110.2397         estimate D2E/DX2                !
 ! A53   A(20,21,30)           110.304          estimate D2E/DX2                !
 ! A54   A(28,21,29)           109.1185         estimate D2E/DX2                !
 ! A55   A(28,21,30)           108.5736         estimate D2E/DX2                !
 ! A56   A(29,21,30)           107.9858         estimate D2E/DX2                !
 ! A57   A(20,22,31)           110.173          estimate D2E/DX2                !
 ! A58   A(20,22,32)           110.2632         estimate D2E/DX2                !
 ! A59   A(31,22,32)           107.7022         estimate D2E/DX2                !
 ! A60   A(20,23,24)           114.2972         estimate D2E/DX2                !
 ! A61   A(20,23,33)           110.0203         estimate D2E/DX2                !
 ! A62   A(20,23,34)           108.2635         estimate D2E/DX2                !
 ! A63   A(24,23,33)           108.976          estimate D2E/DX2                !
 ! A64   A(24,23,34)           107.118          estimate D2E/DX2                !
 ! A65   A(33,23,34)           107.9475         estimate D2E/DX2                !
 ! A66   A(13,24,23)            95.8887         estimate D2E/DX2                !
 ! A67   A(13,24,35)            84.8035         estimate D2E/DX2                !
 ! A68   A(13,24,36)           146.7064         estimate D2E/DX2                !
 ! A69   A(23,24,35)           106.8439         estimate D2E/DX2                !
 ! A70   A(23,24,36)           109.8087         estimate D2E/DX2                !
 ! A71   A(35,24,36)           106.5559         estimate D2E/DX2                !
 ! A72   A(6,32,15)             52.9293         estimate D2E/DX2                !
 ! A73   A(6,32,22)            161.0086         estimate D2E/DX2                !
 ! A74   A(15,32,22)           110.7401         estimate D2E/DX2                !
 ! A75   A(13,34,18)            66.5598         estimate D2E/DX2                !
 ! A76   A(13,34,23)           103.4881         estimate D2E/DX2                !
 ! A77   A(18,34,23)           140.5436         estimate D2E/DX2                !
 ! D1    D(7,1,2,3)             62.5199         estimate D2E/DX2                !
 ! D2    D(7,1,2,4)           -174.2359         estimate D2E/DX2                !
 ! D3    D(7,1,2,5)            -57.8015         estimate D2E/DX2                !
 ! D4    D(8,1,2,3)            -57.5828         estimate D2E/DX2                !
 ! D5    D(8,1,2,4)             65.6614         estimate D2E/DX2                !
 ! D6    D(8,1,2,5)           -177.9042         estimate D2E/DX2                !
 ! D7    D(9,1,2,3)           -176.7307         estimate D2E/DX2                !
 ! D8    D(9,1,2,4)            -53.4865         estimate D2E/DX2                !
 ! D9    D(9,1,2,5)             62.9479         estimate D2E/DX2                !
 ! D10   D(1,2,3,10)           -62.2028         estimate D2E/DX2                !
 ! D11   D(1,2,3,11)           177.6317         estimate D2E/DX2                !
 ! D12   D(1,2,3,12)            57.9027         estimate D2E/DX2                !
 ! D13   D(4,2,3,10)           177.3766         estimate D2E/DX2                !
 ! D14   D(4,2,3,11)            57.2112         estimate D2E/DX2                !
 ! D15   D(4,2,3,12)           -62.5178         estimate D2E/DX2                !
 ! D16   D(5,2,3,10)            59.0349         estimate D2E/DX2                !
 ! D17   D(5,2,3,11)           -61.1305         estimate D2E/DX2                !
 ! D18   D(5,2,3,12)           179.1405         estimate D2E/DX2                !
 ! D19   D(1,2,4,13)          -178.8093         estimate D2E/DX2                !
 ! D20   D(1,2,4,14)           -60.0314         estimate D2E/DX2                !
 ! D21   D(3,2,4,13)           -57.4329         estimate D2E/DX2                !
 ! D22   D(3,2,4,14)            61.345          estimate D2E/DX2                !
 ! D23   D(5,2,4,13)            62.273          estimate D2E/DX2                !
 ! D24   D(5,2,4,14)          -178.9491         estimate D2E/DX2                !
 ! D25   D(1,2,5,6)            -68.3155         estimate D2E/DX2                !
 ! D26   D(1,2,5,15)           172.4072         estimate D2E/DX2                !
 ! D27   D(1,2,5,16)            54.6546         estimate D2E/DX2                !
 ! D28   D(3,2,5,6)            170.9828         estimate D2E/DX2                !
 ! D29   D(3,2,5,15)            51.7054         estimate D2E/DX2                !
 ! D30   D(3,2,5,16)           -66.0471         estimate D2E/DX2                !
 ! D31   D(4,2,5,6)             48.9271         estimate D2E/DX2                !
 ! D32   D(4,2,5,15)           -70.3502         estimate D2E/DX2                !
 ! D33   D(4,2,5,16)           171.8972         estimate D2E/DX2                !
 ! D34   D(2,4,13,24)          -87.9475         estimate D2E/DX2                !
 ! D35   D(2,4,13,34)         -114.3719         estimate D2E/DX2                !
 ! D36   D(14,4,13,24)         151.7736         estimate D2E/DX2                !
 ! D37   D(14,4,13,34)         125.3493         estimate D2E/DX2                !
 ! D38   D(2,5,6,17)            74.7322         estimate D2E/DX2                !
 ! D39   D(2,5,6,18)           -40.4583         estimate D2E/DX2                !
 ! D40   D(2,5,6,32)          -126.7318         estimate D2E/DX2                !
 ! D41   D(15,5,6,17)         -165.3593         estimate D2E/DX2                !
 ! D42   D(15,5,6,18)           79.4501         estimate D2E/DX2                !
 ! D43   D(15,5,6,32)           -6.8234         estimate D2E/DX2                !
 ! D44   D(16,5,6,17)          -48.8055         estimate D2E/DX2                !
 ! D45   D(16,5,6,18)         -163.996          estimate D2E/DX2                !
 ! D46   D(16,5,6,32)          109.7304         estimate D2E/DX2                !
 ! D47   D(2,5,15,32)          130.4216         estimate D2E/DX2                !
 ! D48   D(6,5,15,32)            6.7105         estimate D2E/DX2                !
 ! D49   D(16,5,15,32)        -110.5114         estimate D2E/DX2                !
 ! D50   D(5,6,18,34)          -77.9539         estimate D2E/DX2                !
 ! D51   D(17,6,18,34)         164.6948         estimate D2E/DX2                !
 ! D52   D(32,6,18,34)          16.7446         estimate D2E/DX2                !
 ! D53   D(5,6,32,15)            3.789          estimate D2E/DX2                !
 ! D54   D(5,6,32,22)           37.5534         estimate D2E/DX2                !
 ! D55   D(17,6,32,15)         145.0276         estimate D2E/DX2                !
 ! D56   D(17,6,32,22)         178.7919         estimate D2E/DX2                !
 ! D57   D(18,6,32,15)        -102.6419         estimate D2E/DX2                !
 ! D58   D(18,6,32,22)         -68.8776         estimate D2E/DX2                !
 ! D59   D(4,13,24,23)         -35.3842         estimate D2E/DX2                !
 ! D60   D(4,13,24,35)          71.0626         estimate D2E/DX2                !
 ! D61   D(4,13,24,36)        -176.4326         estimate D2E/DX2                !
 ! D62   D(34,13,24,23)         -3.8137         estimate D2E/DX2                !
 ! D63   D(34,13,24,35)        102.6331         estimate D2E/DX2                !
 ! D64   D(34,13,24,36)       -144.8621         estimate D2E/DX2                !
 ! D65   D(4,13,34,18)          34.9704         estimate D2E/DX2                !
 ! D66   D(4,13,34,23)         174.5608         estimate D2E/DX2                !
 ! D67   D(24,13,34,18)       -134.4002         estimate D2E/DX2                !
 ! D68   D(24,13,34,23)          5.1903         estimate D2E/DX2                !
 ! D69   D(5,15,32,6)           -5.1535         estimate D2E/DX2                !
 ! D70   D(5,15,32,22)        -174.0024         estimate D2E/DX2                !
 ! D71   D(6,18,34,13)          93.9309         estimate D2E/DX2                !
 ! D72   D(6,18,34,23)          11.212          estimate D2E/DX2                !
 ! D73   D(25,19,20,21)         62.3168         estimate D2E/DX2                !
 ! D74   D(25,19,20,22)       -177.2458         estimate D2E/DX2                !
 ! D75   D(25,19,20,23)        -58.9087         estimate D2E/DX2                !
 ! D76   D(26,19,20,21)        -57.7968         estimate D2E/DX2                !
 ! D77   D(26,19,20,22)         62.6405         estimate D2E/DX2                !
 ! D78   D(26,19,20,23)       -179.0223         estimate D2E/DX2                !
 ! D79   D(27,19,20,21)       -177.5162         estimate D2E/DX2                !
 ! D80   D(27,19,20,22)        -57.0788         estimate D2E/DX2                !
 ! D81   D(27,19,20,23)         61.2584         estimate D2E/DX2                !
 ! D82   D(19,20,21,28)        -62.4547         estimate D2E/DX2                !
 ! D83   D(19,20,21,29)        176.8083         estimate D2E/DX2                !
 ! D84   D(19,20,21,30)         57.6433         estimate D2E/DX2                !
 ! D85   D(22,20,21,28)        174.3115         estimate D2E/DX2                !
 ! D86   D(22,20,21,29)         53.5746         estimate D2E/DX2                !
 ! D87   D(22,20,21,30)        -65.5904         estimate D2E/DX2                !
 ! D88   D(23,20,21,28)         57.8714         estimate D2E/DX2                !
 ! D89   D(23,20,21,29)        -62.8656         estimate D2E/DX2                !
 ! D90   D(23,20,21,30)        177.9694         estimate D2E/DX2                !
 ! D91   D(19,20,22,31)        -61.4564         estimate D2E/DX2                !
 ! D92   D(19,20,22,32)         57.2909         estimate D2E/DX2                !
 ! D93   D(21,20,22,31)         59.9264         estimate D2E/DX2                !
 ! D94   D(21,20,22,32)        178.6737         estimate D2E/DX2                !
 ! D95   D(23,20,22,31)        178.8366         estimate D2E/DX2                !
 ! D96   D(23,20,22,32)        -62.4161         estimate D2E/DX2                !
 ! D97   D(19,20,23,24)       -170.6834         estimate D2E/DX2                !
 ! D98   D(19,20,23,33)         66.3453         estimate D2E/DX2                !
 ! D99   D(19,20,23,34)        -51.4044         estimate D2E/DX2                !
 ! D100  D(21,20,23,24)         68.6141         estimate D2E/DX2                !
 ! D101  D(21,20,23,33)        -54.3572         estimate D2E/DX2                !
 ! D102  D(21,20,23,34)       -172.1069         estimate D2E/DX2                !
 ! D103  D(22,20,23,24)        -48.6475         estimate D2E/DX2                !
 ! D104  D(22,20,23,33)       -171.6188         estimate D2E/DX2                !
 ! D105  D(22,20,23,34)         70.6316         estimate D2E/DX2                !
 ! D106  D(20,22,32,6)          85.8707         estimate D2E/DX2                !
 ! D107  D(20,22,32,15)        114.1766         estimate D2E/DX2                !
 ! D108  D(31,22,32,6)        -153.8833         estimate D2E/DX2                !
 ! D109  D(31,22,32,15)       -125.5774         estimate D2E/DX2                !
 ! D110  D(20,23,24,13)        126.7833         estimate D2E/DX2                !
 ! D111  D(20,23,24,35)         40.4474         estimate D2E/DX2                !
 ! D112  D(20,23,24,36)        -74.7348         estimate D2E/DX2                !
 ! D113  D(33,23,24,13)       -109.6815         estimate D2E/DX2                !
 ! D114  D(33,23,24,35)        163.9826         estimate D2E/DX2                !
 ! D115  D(33,23,24,36)         48.8004         estimate D2E/DX2                !
 ! D116  D(34,23,24,13)          6.861          estimate D2E/DX2                !
 ! D117  D(34,23,24,35)        -79.4749         estimate D2E/DX2                !
 ! D118  D(34,23,24,36)        165.3429         estimate D2E/DX2                !
 ! D119  D(20,23,34,13)       -130.4748         estimate D2E/DX2                !
 ! D120  D(20,23,34,18)        -61.1021         estimate D2E/DX2                !
 ! D121  D(24,23,34,13)         -6.7627         estimate D2E/DX2                !
 ! D122  D(24,23,34,18)         62.6099         estimate D2E/DX2                !
 ! D123  D(33,23,34,13)        110.4572         estimate D2E/DX2                !
 ! D124  D(33,23,34,18)        179.8298         estimate D2E/DX2                !
 --------------------------------------------------------------------------------
 Number of steps in this run=    216 maximum allowed number of steps=    216.
 GradGradGradGradGradGradGradGradGradGradGradGradGradGradGradGradGradGrad

                    Distance matrix (angstroms):
                    1          2          3          4          5
     1  C    0.000000
     2  C    1.531783   0.000000
     3  C    2.508383   1.536080   0.000000
     4  N    2.421096   1.459980   2.494954   0.000000
     5  C    2.531036   1.547259   2.511134   2.413491   0.000000
     6  N    3.100774   2.522551   3.831216   2.803702   1.454823
     7  H    1.087341   2.167734   2.771563   3.372236   2.757308
     8  H    1.088072   2.164801   2.727698   2.715652   3.480113
     9  H    1.087464   2.163633   3.458734   2.617384   2.793873
    10  H    2.772144   2.173341   1.087412   3.429141   2.743641
    11  H    3.458675   2.167439   1.088545   2.737999   2.753270
    12  H    2.732379   2.169738   1.088970   2.780477   3.467375
    13  H    3.323063   2.048914   2.693490   1.017638   2.624802
    14  H    2.618802   2.044881   2.719736   1.014113   3.317666
    15  H    3.462265   2.156782   2.652766   2.719021   1.094260
    16  H    2.730534   2.177974   2.796588   3.365890   1.092026
    17  H    2.895356   2.850336   4.238779   3.274885   2.036897
    18  H    3.205420   2.557929   3.957314   2.277476   2.002945
    19  C    7.013047   6.041837   7.058641   5.376379   5.189095
    20  C    6.509054   5.296835   6.054611   4.707684   4.473842
    21  C    7.840768   6.517209   7.038179   5.929146   5.723843
    22  N    5.932747   4.714895   5.391726   4.538627   3.588620
    23  C    5.713785   4.471646   5.198846   3.579548   4.091768
    24  N    5.405927   3.972884   4.290469   3.244671   3.790420
    25  H    7.608647   6.654083   7.668113   5.788677   5.987916
    26  H    7.761689   6.811055   7.802913   6.294582   5.783176
    27  H    6.302273   5.510990   6.694120   4.886042   4.675018
    28  H    8.399250   7.099469   7.645461   6.318491   6.469323
    29  H    7.800433   6.376316   6.662088   5.887252   5.645611
    30  H    8.514434   7.234638   7.784751   6.770718   6.266068
    31  H    6.687368   5.540490   6.198481   5.484463   4.267601
    32  H    5.113879   4.037092   4.914390   3.965127   2.818916
    33  H    6.479784   5.296259   5.993844   4.208540   5.095199
    34  H    4.900476   3.832634   4.819569   2.865648   3.535973
    35  H    5.111343   3.626660   3.869301   3.278386   3.164348
    36  H    6.341925   4.876972   4.989761   4.172785   4.700235
                    6          7          8          9         10
     6  N    0.000000
     7  H    3.456814   0.000000
     8  H    4.088877   1.766356   0.000000
     9  H    2.812187   1.771902   1.759810   0.000000
    10  H    4.149710   2.591631   3.094048   3.779581   0.000000
    11  H    4.064569   3.774991   3.721386   4.297176   1.767240
    12  H    4.665660   3.101394   2.498920   3.721025   1.766146
    13  H    3.068389   4.173241   3.640350   3.574899   3.676956
    14  H    3.756705   3.639531   2.484867   2.891063   3.715296
    15  H    2.061882   3.717650   4.291475   3.806679   2.956432
    16  H    2.083745   2.506041   3.730631   3.088482   2.585707
    17  H    1.015460   3.123507   3.912843   2.367004   4.437878
    18  H    1.018227   3.841502   4.028222   2.810030   4.511966
    19  C    4.270419   7.621612   7.760234   6.627271   7.669869
    20  C    3.964840   7.094600   7.226781   6.359350   6.670873
    21  C    5.402048   8.404868   8.514512   7.789106   7.640621
    22  N    3.246051   6.325148   6.774256   5.885320   5.808823
    23  C    3.783645   6.462336   6.256225   5.627495   6.000358
    24  N    4.021653   6.099662   5.859125   5.599574   5.105767
    25  H    5.082326   8.315857   8.257176   7.189188   8.376587
    26  H    4.834232   8.270149   8.582071   7.366390   8.315406
    27  H    3.553992   6.906691   7.072431   5.800751   7.282371
    28  H    6.092083   9.059585   8.989421   8.303423   8.345999
    29  H    5.602946   8.321950   8.434550   7.899638   7.232883
    30  H    5.854599   8.994953   9.267290   8.423262   8.289097
    31  H    3.846386   6.975596   7.590203   6.606436   6.498197
    32  H    2.266850   5.484701   6.012397   4.986027   5.298516
    33  H    4.742901   7.312637   6.907919   6.349727   6.874623
    34  H    3.026363   5.699254   5.456918   4.684659   5.631323
    35  H    3.560732   5.653505   5.691099   5.378796   4.525284
    36  H    4.988318   7.012328   6.745815   6.588885   5.777774
                   11         12         13         14         15
    11  H    0.000000
    12  H    1.766777   0.000000
    13  H    2.512268   3.077200   0.000000
    14  H    3.055631   2.589069   1.640634   0.000000
    15  H    2.439715   3.673399   2.501311   3.641414   0.000000
    16  H    3.175969   3.781925   3.652742   4.169850   1.768258
    17  H    4.685740   4.986742   3.779214   4.101099   2.904966
    18  H    4.133759   4.646293   2.516695   3.195529   2.442041
    19  C    6.704685   7.799618   4.908526   6.182033   4.820006
    20  C    5.531763   6.820372   4.035223   5.532277   3.842358
    21  C    6.336073   7.782912   5.114724   6.682292   4.918600
    22  N    4.904187   6.307109   3.965429   5.483823   2.878641
    23  C    4.693541   5.789480   2.816364   4.257410   3.541939
    24  N    3.580780   4.851431   2.266850   3.844541   3.035319
    25  H    7.293670   8.309601   5.290493   6.476086   5.630758
    26  H    7.433907   8.617817   5.839660   7.150727   5.386316
    27  H    6.504561   7.420954   4.612706   5.702650   4.529559
    28  H    6.941545   8.290010   5.484997   6.967063   5.715553
    29  H    5.842681   7.397161   4.989458   6.606914   4.709240
    30  H    7.104728   8.602888   6.012863   7.585314   5.474771
    31  H    5.721118   7.164538   4.957317   6.450534   3.596466
    32  H    4.620220   5.844033   3.594280   4.956817   2.356386
    33  H    5.472332   6.453408   3.448372   4.705656   4.586685
    34  H    4.537749   5.382689   2.352420   3.582724   3.271162
    35  H    3.129059   4.611668   2.399441   4.028997   2.243400
    36  H    4.142905   5.497230   3.165114   4.671733   3.844915
                   16         17         18         19         20
    16  H    0.000000
    17  H    2.306330   0.000000
    18  H    2.895097   1.630167   0.000000
    19  C    5.984990   4.963355   3.844571   0.000000
    20  C    5.300729   4.865709   3.612758   1.536062   0.000000
    21  C    6.493998   6.334615   5.099941   2.508400   1.531749
    22  N    4.220112   4.173172   3.274928   2.494667   1.460042
    23  C    5.096598   4.690923   3.152683   2.511328   1.547313
    24  N    4.751136   4.988019   3.557352   3.830924   2.522555
    25  H    6.863104   5.746304   4.496231   1.087407   2.173388
    26  H    6.448389   5.473358   4.590077   1.088976   2.169735
    27  H    5.452966   4.109065   3.100241   1.088549   2.167301
    28  H    7.323437   7.000017   5.638289   2.770878   2.167552
    29  H    6.373275   6.590421   5.373943   3.458789   2.163637
    30  H    6.922388   6.737604   5.679140   2.728379   2.164908
    31  H    4.719415   4.672569   4.025629   2.720109   2.044847
    32  H    3.451427   3.164660   2.397842   2.691541   2.048542
    33  H    6.130155   5.588392   3.996490   2.799320   2.177987
    34  H    4.581354   3.833101   2.230201   2.650916   2.156996
    35  H    4.009643   4.561115   3.351636   3.955536   2.557833
    36  H    5.600228   5.970949   4.557112   4.239998   2.850342
                   21         22         23         24         25
    21  C    0.000000
    22  N    2.421466   0.000000
    23  C    2.530787   2.413611   0.000000
    24  N    3.103385   2.801313   1.454848   0.000000
    25  H    2.773189   3.428952   2.742920   4.150103   0.000000
    26  H    2.731586   2.781054   3.467529   4.665470   1.766184
    27  H    3.458564   2.736484   2.754408   4.063291   1.767280
    28  H    1.087346   3.372491   2.757339   3.461511   2.592007
    29  H    1.087459   2.618545   2.792916   2.814626   3.780116
    30  H    1.088076   2.715643   3.480051   4.090545   3.096418
    31  H    2.618319   1.014123   3.317716   3.754343   3.715989
    32  H    3.323072   1.017656   2.625614   3.066010   3.674807
    33  H    2.727904   3.365681   1.092019   2.083819   2.588063
    34  H    3.461863   2.721810   1.094202   2.061791   2.951417
    35  H    3.209659   2.274368   2.002978   1.018246   4.511134
    36  H    2.898248   3.270939   2.036918   1.015463   4.441115
                   26         27         28         29         30
    26  H    0.000000
    27  H    1.766750   0.000000
    28  H    3.099224   3.774820   0.000000
    29  H    3.720832   4.297059   1.771847   0.000000
    30  H    2.498773   3.721372   1.766332   1.759886   0.000000
    31  H    2.590410   3.054760   3.638897   2.891325   2.483960
    32  H    3.076212   2.508783   4.172983   3.576239   3.639693
    33  H    3.783463   3.181273   2.503598   3.083435   3.729024
    34  H    3.672610   2.439232   3.715914   3.806882   4.291438
    35  H    4.645089   4.129583   3.847257   2.816304   4.031033
    36  H    4.987480   4.685986   3.130489   2.367957   3.914559
                   31         32         33         34         35
    31  H    0.000000
    32  H    1.640636   0.000000
    33  H    4.169502   3.654023   0.000000
    34  H    3.644144   2.505299   1.768101   0.000000
    35  H    3.192641   2.512310   2.895142   2.442141   0.000000
    36  H    4.096906   3.775694   2.306391   2.904858   1.630111
                   36
    36  H    0.000000
 Framework group  C1[X(C8H24N4)]
 Deg. of freedom   102
                         Standard orientation:                         
 ---------------------------------------------------------------------
 Center     Atomic      Atomic             Coordinates (Angstroms)
 Number     Number       Type             X           Y           Z
 ---------------------------------------------------------------------
      1          6           0        3.817610   -0.718090   -0.508344
      2          6           0        2.645571    0.132755   -0.009603
      3          6           0        3.178398    1.322699    0.802597
      4          7           0        1.862210    0.547003   -1.169899
      5          6           0        1.704695   -0.708849    0.885086
      6          7           0        0.973431   -1.746906    0.175016
      7          1           0        4.371888   -1.133632    0.329756
      8          1           0        4.495724   -0.112802   -1.106413
      9          1           0        3.453644   -1.530654   -1.132720
     10          1           0        3.716551    0.977711    1.682278
     11          1           0        2.354031    1.955916    1.125687
     12          1           0        3.856080    1.921645    0.196078
     13          1           0        1.082692    1.132799   -0.878725
     14          1           0        2.436969    1.091211   -1.803867
     15          1           0        0.962663   -0.037872    1.328463
     16          1           0        2.272382   -1.167054    1.697675
     17          1           0        1.596921   -2.517423   -0.045717
     18          1           0        0.681081   -1.346194   -0.714224
     19          6           0       -3.162418   -1.330333   -0.803603
     20          6           0       -2.644530   -0.133667    0.008350
     21          6           0       -3.826366    0.711233    0.493800
     22          7           0       -1.868015   -0.538637    1.176574
     23          6           0       -1.701928    0.711152   -0.881571
     24          7           0       -0.978718    1.752411   -0.167897
     25          1           0       -3.693666   -0.992559   -1.690247
     26          1           0       -3.842653   -1.930439   -0.201090
     27          1           0       -2.331155   -1.960210   -1.115363
     28          1           0       -4.376816    1.118735   -0.350753
     29          1           0       -3.473060    1.529464    1.116888
     30          1           0       -4.505043    0.104172    1.089438
     31          1           0       -2.444981   -1.082909    1.808495
     32          1           0       -1.083752   -1.122100    0.893505
     33          1           0       -2.266881    1.166676   -1.697556
     34          1           0       -0.954760    0.043106   -1.320582
     35          1           0       -0.689968    1.353310    0.723263
     36          1           0       -1.606440    2.520608    0.048905
 ---------------------------------------------------------------------
 Rotational constants (GHZ):           1.5728340           0.3979496           0.3693962
   216 basis functions,   396 primitive gaussians,   228 cartesian basis functions
    50 alpha electrons       50 beta electrons
       nuclear repulsion energy       813.5471040908 Hartrees.
 NAtoms=   36 NActive=   36 NUniq=   36 SFac= 1.00D+00 NAtFMM=   60 NAOKFM=F Big=F
 Nuclear repulsion after empirical dispersion term =      813.5161001041 Hartrees.
   1 Symmetry operations used in ECPInt.
 ECPInt:  NShTT=    7260 NPrTT=   29148 LenC2=    7048 LenP2D=   20660.
 LDataN:  DoStor=T MaxTD1= 4 Len=   56
 ExpMin= 1.22D-01 ExpMax= 1.71D+03 ExpMxC= 2.58D+02 IAcc=3 IRadAn=         5 AccDes= 0.00D+00
 Harris functional with IExCor= 4639 and IRadAn=       5 diagonalized for initial guess.
 HarFok:  IExCor= 4639 AccDes= 0.00D+00 IRadAn=         5 IDoV= 1 UseB2=F ITyADJ=14
 ICtDFT=  3500011 ScaDFX=  1.000000  1.000000  1.000000  1.000000
 FoFCou: FMM=F IPFlag=           0 FMFlag=      100000 FMFlg1=           0
         NFxFlg=           0 DoJE=T BraDBF=F KetDBF=T FulRan=T
         wScrn=  0.000000 ICntrl=       500 IOpCl=  0 I1Cent=   200000004 NGrid=           0
         NMat0=    1 NMatS0=      1 NMatT0=    0 NMatD0=    1 NMtDS0=    0 NMtDT0=    0
 Petite list used in FoFCou.
     Accept linear search using points  2 and  3.
     Accept linear search using points  1 and  2.
     Minimum is close to point  2 DX=  2.34D-04 DF= -1.59D-12 DXR=  2.34D-04 DFR=  5.42D-08 which will be used.
 SCF Done:  E(RwB97XD) =  -537.704747466     a.u. after    7 cycles
            Convg  =    0.1237D-08                    33 Fock formations.
              S**2 =  0.0000                  -V/T =  2.0096

 **********************************************************************

            Population analysis using the SCF Density.

 **********************************************************************

 Orbital symmetries:
       Occupied  (A) (A) (A) (A) (A) (A) (A) (A) (A) (A) (A) (A)
                 (A) (A) (A) (A) (A) (A) (A) (A) (A) (A) (A) (A)
                 (A) (A) (A) (A) (A) (A) (A) (A) (A) (A) (A) (A)
                 (A) (A) (A) (A) (A) (A) (A) (A) (A) (A) (A) (A)
                 (A) (A)
       Virtual   (A) (A) (A) (A) (A) (A) (A) (A) (A) (A) (A) (A)
                 (A) (A) (A) (A) (A) (A) (A) (A) (A) (A) (A) (A)
                 (A) (A) (A) (A) (A) (A) (A) (A) (A) (A) (A) (A)
                 (A) (A) (A) (A) (A) (A) (A) (A) (A) (A) (A) (A)
                 (A) (A) (A) (A) (A) (A) (A) (A) (A) (A) (A) (A)
                 (A) (A) (A) (A) (A) (A) (A) (A) (A) (A) (A) (A)
                 (A) (A) (A) (A) (A) (A) (A) (A) (A) (A) (A) (A)
                 (A) (A) (A) (A) (A) (A) (A) (A) (A) (A) (A) (A)
                 (A) (A) (A) (A) (A) (A) (A) (A) (A) (A) (A) (A)
                 (A) (A) (A) (A) (A) (A) (A) (A) (A) (A) (A) (A)
                 (A) (A) (A) (A) (A) (A) (A) (A) (A) (A) (A) (A)
                 (A) (A) (A) (A) (A) (A) (A) (A) (A) (A) (A) (A)
                 (A) (A) (A) (A) (A) (A) (A) (A) (A) (A) (A) (A)
                 (A) (A) (A) (A) (A) (A) (A) (A) (A) (A)
 The electronic state is 1-A.
 Alpha  occ. eigenvalues --  -14.40842 -14.40820 -14.39918 -14.39912 -10.31878
 Alpha  occ. eigenvalues --  -10.31867 -10.30179 -10.30157 -10.27250 -10.27243
 Alpha  occ. eigenvalues --  -10.27015 -10.27005  -0.99673  -0.99144  -0.94909
 Alpha  occ. eigenvalues --   -0.94447  -0.84165  -0.84065  -0.77723  -0.77711
 Alpha  occ. eigenvalues --   -0.74473  -0.74283  -0.63959  -0.63757  -0.60142
 Alpha  occ. eigenvalues --   -0.57961  -0.57569  -0.55938  -0.53689  -0.53621
 Alpha  occ. eigenvalues --   -0.52395  -0.52316  -0.50891  -0.50856  -0.47425
 Alpha  occ. eigenvalues --   -0.47398  -0.46510  -0.46459  -0.45112  -0.44468
 Alpha  occ. eigenvalues --   -0.44076  -0.44067  -0.42841  -0.42610  -0.41126
 Alpha  occ. eigenvalues --   -0.40474  -0.31945  -0.31801  -0.30647  -0.30352
 Alpha virt. eigenvalues --    0.11960   0.13692   0.15258   0.17216   0.17609
 Alpha virt. eigenvalues --    0.17714   0.18759   0.18852   0.19602   0.20800
 Alpha virt. eigenvalues --    0.21888   0.22071   0.22143   0.22785   0.25048
 Alpha virt. eigenvalues --    0.25224   0.25919   0.26124   0.26567   0.27581
 Alpha virt. eigenvalues --    0.28531   0.29228   0.29457   0.29840   0.30916
 Alpha virt. eigenvalues --    0.30958   0.32255   0.33169   0.34082   0.34266
 Alpha virt. eigenvalues --    0.35402   0.36017   0.37727   0.37841   0.48758
 Alpha virt. eigenvalues --    0.50078   0.52277   0.52365   0.53454   0.55857
 Alpha virt. eigenvalues --    0.56971   0.57597   0.59259   0.59521   0.63712
 Alpha virt. eigenvalues --    0.64098   0.64484   0.66125   0.66184   0.69091
 Alpha virt. eigenvalues --    0.69553   0.72666   0.72966   0.73784   0.74185
 Alpha virt. eigenvalues --    0.74980   0.77045   0.77165   0.78959   0.79384
 Alpha virt. eigenvalues --    0.80314   0.80391   0.80588   0.81182   0.81464
 Alpha virt. eigenvalues --    0.81831   0.82071   0.82247   0.82287   0.83443
 Alpha virt. eigenvalues --    0.84233   0.84270   0.84723   0.84946   0.85556
 Alpha virt. eigenvalues --    0.85835   0.86732   0.88048   0.89232   0.89440
 Alpha virt. eigenvalues --    0.90755   0.91629   0.92352   0.93775   0.97966
 Alpha virt. eigenvalues --    0.99106   1.00525   1.02902   1.04446   1.05718
 Alpha virt. eigenvalues --    1.07193   1.08804   1.12158   1.12786   1.15898
 Alpha virt. eigenvalues --    1.16827   1.22246   1.25605   1.26567   1.29009
 Alpha virt. eigenvalues --    1.32876   1.34987   1.38523   1.42497   1.45579
 Alpha virt. eigenvalues --    1.45897   1.53455   1.58613   1.58817   1.59000
 Alpha virt. eigenvalues --    1.78588   1.78657   1.82566   1.85531   1.89813
 Alpha virt. eigenvalues --    1.90391   1.92212   1.93409   1.94567   1.94653
 Alpha virt. eigenvalues --    1.98135   1.99729   2.05743   2.06105   2.12540
 Alpha virt. eigenvalues --    2.12802   2.14815   2.15735   2.18083   2.18849
 Alpha virt. eigenvalues --    2.24020   2.24501   2.25065   2.25516   2.25706
 Alpha virt. eigenvalues --    2.26470   2.34699   2.36205   2.36451   2.36482
 Alpha virt. eigenvalues --    2.40636   2.41312   2.44367   2.44708   2.45796
 Alpha virt. eigenvalues --    2.46884   2.53338   2.53394   2.57500   2.58253
 Alpha virt. eigenvalues --    2.61419   2.63518   2.75031   2.75822   2.78128
 Alpha virt. eigenvalues --    2.79551   2.81278   2.81415   2.83137   2.87232
 Alpha virt. eigenvalues --    2.88721   2.88970   3.08264   3.08609   3.13373
 Alpha virt. eigenvalues --    3.14528
          Condensed to atoms (all electrons):
 Mulliken charges:
               1
     1  C   -0.248878
     2  C   -0.175722
     3  C   -0.231678
     4  N   -0.524396
     5  C   -0.059304
     6  N   -0.517075
     7  H    0.105353
     8  H    0.106662
     9  H    0.104047
    10  H    0.102132
    11  H    0.110640
    12  H    0.102595
    13  H    0.246585
    14  H    0.213195
    15  H    0.097873
    16  H    0.097412
    17  H    0.220318
    18  H    0.250740
    19  C   -0.231742
    20  C   -0.175477
    21  C   -0.248735
    22  N   -0.524682
    23  C   -0.059630
    24  N   -0.516822
    25  H    0.102125
    26  H    0.102538
    27  H    0.110557
    28  H    0.105353
    29  H    0.104012
    30  H    0.106604
    31  H    0.213191
    32  H    0.246584
    33  H    0.097311
    34  H    0.097920
    35  H    0.250170
    36  H    0.220224
 Sum of Mulliken charges =   0.00000
 Mulliken charges with hydrogens summed into heavy atoms:
               1
     1  C    0.067185
     2  C   -0.175722
     3  C    0.083689
     4  N   -0.064616
     5  C    0.135980
     6  N   -0.046017
    19  C    0.083479
    20  C   -0.175477
    21  C    0.067234
    22  N   -0.064907
    23  C    0.135601
    24  N   -0.046428
 Electronic spatial extent (au):  <R**2>=           3314.9822
 Charge=              0.0000 electrons
 Dipole moment (field-independent basis, Debye):
    X=              0.0098    Y=             -0.0089    Z=             -0.0035  Tot=              0.0137
 Evaluate density.
 Using the total density.
 Monte-Carlo method of calculating molar volume:
 based on  0.001 e/bohr**3 density envelope.
 Number of points per bohr**3 =  100 CutOff= 1.00D-04
 Using the SCF density.
 There are      2009 points.  Will hold      2009 in memory.
 LenV=  1048060370 MDV=  1048576000.
 Box volume = 8109.035 fraction occupied=0.220
 Integrated density= 7.5331246230201927D+01 error=-2.4668753769798073D+01
 Molar volume = 1784.068 bohr**3/mol (159.208 cm**3/mol)
 Recommended a0 for SCRF calculation =  4.88 angstrom (  9.23 bohr)
   1 Symmetry operations used in ECPInt.
 ECPInt:  NShTT=    7260 NPrTT=   29148 LenC2=    7048 LenP2D=   20660.
 LDataN:  DoStor=T MaxTD1= 5 Len=  102
 Calling FoFJK, ICntrl=      2127 FMM=F ISym2X=0 I1Cent= 0 IOpClX= 0 NMat=1 NMatS=1 NMatT=0.

 GradGradGradGradGradGradGradGradGradGradGradGradGradGradGradGradGradGrad
 FormGI is forming the generalized inverse of G from B-inverse, IUseBI=4.
 Internal  Forces:  Max     0.012139380 RMS     0.002976902
 Step number   1 out of a maximum of  216
 All quantities printed in internal units (Hartrees-Bohrs-Radians)
 Mixed Optimization -- RFO/linear search
 Second derivative matrix not updated -- first step.
 ITU=  0
     Eigenvalues ---    0.00289   0.00289   0.00346   0.00346   0.00451
     Eigenvalues ---    0.00525   0.00539   0.00841   0.01036   0.01442
     Eigenvalues ---    0.01647   0.01717   0.01906   0.02021   0.02448
     Eigenvalues ---    0.02560   0.02979   0.03258   0.03582   0.03950
     Eigenvalues ---    0.04214   0.04386   0.04505   0.04621   0.04761
     Eigenvalues ---    0.04835   0.04876   0.05423   0.05552   0.05552
     Eigenvalues ---    0.05586   0.05587   0.05610   0.05611   0.05664
     Eigenvalues ---    0.05665   0.05776   0.06113   0.06465   0.06820
     Eigenvalues ---    0.06871   0.07455   0.07763   0.08026   0.08341
     Eigenvalues ---    0.09168   0.09963   0.10165   0.10728   0.11278
     Eigenvalues ---    0.11832   0.12850   0.14148   0.14848   0.15449
     Eigenvalues ---    0.15642   0.16000   0.16000   0.16000   0.16000
     Eigenvalues ---    0.16000   0.16000   0.16000   0.16000   0.16000
     Eigenvalues ---    0.16000   0.16000   0.16000   0.25114   0.26591
     Eigenvalues ---    0.28699   0.28869   0.28871   0.29259   0.29263
     Eigenvalues ---    0.31446   0.32027   0.33672   0.34388   0.34580
     Eigenvalues ---    0.34580   0.34931   0.34932   0.34981   0.34981
     Eigenvalues ---    0.35036   0.35036   0.35107   0.35108   0.35113
     Eigenvalues ---    0.35114   0.35121   0.35122   0.35476   0.40898
     Eigenvalues ---    0.41599   0.42821   0.44619   0.45070   0.45070
     Eigenvalues ---    0.45289   0.45291
 Linear search not attempted -- first point.
 Iteration  1 RMS(Cart)=  0.02518573 RMS(Int)=  0.00031609
 Iteration  2 RMS(Cart)=  0.00041896 RMS(Int)=  0.00008207
 Iteration  3 RMS(Cart)=  0.00000012 RMS(Int)=  0.00008207
 Variable       Old X    -DE/DX   Delta X   Delta X   Delta X     New X
                                 (Linear)    (Quad)   (Total)
    R1        2.89465   0.00132   0.00000   0.00440   0.00440   2.89905
    R2        2.05478   0.01133   0.00000   0.03158   0.03158   2.08635
    R3        2.05616   0.01131   0.00000   0.03160   0.03160   2.08776
    R4        2.05501   0.01049   0.00000   0.02925   0.02925   2.08426
    R5        2.90277   0.00133   0.00000   0.00450   0.00450   2.90727
    R6        2.75896   0.00391   0.00000   0.01021   0.01017   2.76913
    R7        2.92390   0.00172   0.00000   0.00459   0.00456   2.92846
    R8        2.05491   0.01213   0.00000   0.03383   0.03383   2.08874
    R9        2.05705   0.01079   0.00000   0.03020   0.03020   2.08726
   R10        2.05785   0.01057   0.00000   0.02961   0.02961   2.08747
   R11        1.92306   0.00666   0.00000   0.01523   0.01522   1.93828
   R12        1.91640   0.00512   0.00000   0.01111   0.01111   1.92751
   R13        2.74922   0.00221   0.00000   0.00597   0.00598   2.75519
   R14        2.06785   0.00645   0.00000   0.01829   0.01829   2.08615
   R15        2.06363   0.00750   0.00000   0.02122   0.02122   2.08485
   R16        1.91894   0.00369   0.00000   0.00805   0.00805   1.92699
   R17        1.92417   0.00461   0.00000   0.01049   0.01054   1.93471
   R18        4.28373  -0.00073   0.00000  -0.01572  -0.01579   4.26794
   R19        4.28372  -0.00036   0.00000  -0.00268  -0.00269   4.28104
   R20        4.44543   0.00027   0.00000   0.00550   0.00548   4.45091
   R21        4.45292   0.00005   0.00000  -0.01054  -0.01056   4.44236
   R22        4.21447   0.00108   0.00000   0.03658   0.03666   4.25113
   R23        2.90274   0.00133   0.00000   0.00450   0.00450   2.90724
   R24        2.05490   0.01214   0.00000   0.03385   0.03385   2.08875
   R25        2.05787   0.01056   0.00000   0.02961   0.02961   2.08748
   R26        2.05706   0.01078   0.00000   0.03019   0.03019   2.08724
   R27        2.89459   0.00131   0.00000   0.00438   0.00438   2.89896
   R28        2.75908   0.00397   0.00000   0.01056   0.01052   2.76960
   R29        2.92400   0.00177   0.00000   0.00638   0.00644   2.93044
   R30        2.05479   0.01131   0.00000   0.03154   0.03154   2.08633
   R31        2.05500   0.01051   0.00000   0.02931   0.02931   2.08431
   R32        2.05617   0.01131   0.00000   0.03161   0.03161   2.08777
   R33        1.91641   0.00511   0.00000   0.01110   0.01110   1.92752
   R34        1.92309   0.00699   0.00000   0.01532   0.01525   1.93834
   R35        2.74926   0.00307   0.00000   0.00881   0.00883   2.75810
   R36        2.06362   0.00750   0.00000   0.02123   0.02123   2.08485
   R37        2.06774   0.00712   0.00000   0.02021   0.02028   2.08802
   R38        1.92421   0.00451   0.00000   0.00994   0.00994   1.93415
   R39        1.91895   0.00369   0.00000   0.00806   0.00806   1.92700
    A1        1.92981   0.00155   0.00000   0.00955   0.00953   1.93934
    A2        1.92498   0.00109   0.00000   0.00551   0.00550   1.93048
    A3        1.92399   0.00032   0.00000   0.00265   0.00263   1.92662
    A4        1.89502  -0.00154   0.00000  -0.01056  -0.01057   1.88444
    A5        1.90456  -0.00073   0.00000  -0.00243  -0.00246   1.90211
    A6        1.88459  -0.00080   0.00000  -0.00534  -0.00535   1.87924
    A7        1.91457   0.00062   0.00000   0.00478   0.00481   1.91938
    A8        1.88534   0.00029   0.00000   0.00202   0.00194   1.88728
    A9        1.92988  -0.00049   0.00000  -0.00385  -0.00385   1.92603
   A10        1.96767  -0.00044   0.00000  -0.00134  -0.00133   1.96633
   A11        1.90345  -0.00026   0.00000  -0.00552  -0.00559   1.89786
   A12        1.86252   0.00026   0.00000   0.00378   0.00388   1.86640
   A13        1.93226   0.00235   0.00000   0.01534   0.01530   1.94755
   A14        1.92290   0.00033   0.00000   0.00130   0.00128   1.92418
   A15        1.92564   0.00056   0.00000   0.00271   0.00269   1.92833
   A16        1.89571  -0.00123   0.00000  -0.00617  -0.00620   1.88951
   A17        1.89345  -0.00134   0.00000  -0.00673  -0.00678   1.88667
   A18        1.89299  -0.00078   0.00000  -0.00714  -0.00714   1.88586
   A19        1.92510   0.00025   0.00000   0.02150   0.02172   1.94682
   A20        1.92302   0.00193   0.00000   0.01534   0.01509   1.93811
   A21        1.87979  -0.00122   0.00000  -0.00580  -0.00618   1.87361
   A22        1.99494   0.00139   0.00000   0.01761   0.01771   2.01264
   A23        1.88927  -0.00028   0.00000  -0.00300  -0.00316   1.88611
   A24        1.92026  -0.00019   0.00000  -0.00294  -0.00320   1.91705
   A25        1.86966   0.00017   0.00000   0.00547   0.00534   1.87500
   A26        1.90191  -0.00014   0.00000   0.00324   0.00323   1.90513
   A27        1.88420  -0.00108   0.00000  -0.02266  -0.02266   1.86154
   A28        1.91653   0.00148   0.00000   0.01673   0.01682   1.93335
   A29        1.86478  -0.00106   0.00000  -0.01185  -0.01179   1.85299
   A30        1.67578  -0.00003   0.00000  -0.00278  -0.00282   1.67296
   A31        1.85987  -0.00033   0.00000  -0.00455  -0.00451   1.85536
   A32        2.55938  -0.00144   0.00000  -0.01278  -0.01280   2.54657
   A33        1.47844   0.00084   0.00000   0.00862   0.00859   1.48703
   A34        2.80429   0.00020   0.00000  -0.00096  -0.00105   2.80324
   A35        1.92096  -0.00216   0.00000  -0.01207  -0.01212   1.90884
   A36        0.92467   0.00234   0.00000   0.01025   0.01022   0.93488
   A37        1.80491  -0.00189   0.00000  -0.01006  -0.01006   1.79485
   A38        2.33671  -0.00088   0.00000  -0.01088  -0.01092   2.32579
   A39        1.93235   0.00235   0.00000   0.01528   0.01524   1.94759
   A40        1.92565   0.00056   0.00000   0.00277   0.00274   1.92840
   A41        1.92273   0.00032   0.00000   0.00125   0.00124   1.92396
   A42        1.89351  -0.00134   0.00000  -0.00675  -0.00680   1.88671
   A43        1.89578  -0.00123   0.00000  -0.00617  -0.00620   1.88957
   A44        1.89294  -0.00077   0.00000  -0.00707  -0.00706   1.88588
   A45        1.91464   0.00069   0.00000   0.00460   0.00464   1.91928
   A46        1.96728  -0.00065   0.00000  -0.00446  -0.00449   1.96279
   A47        1.90363  -0.00037   0.00000  -0.00841  -0.00843   1.89520
   A48        1.88574   0.00037   0.00000   0.00392   0.00386   1.88960
   A49        1.92958  -0.00048   0.00000  -0.00196  -0.00203   1.92755
   A50        1.86255   0.00042   0.00000   0.00636   0.00647   1.86903
   A51        1.92959   0.00156   0.00000   0.00961   0.00959   1.93918
   A52        1.92405   0.00032   0.00000   0.00257   0.00255   1.92660
   A53        1.92517   0.00109   0.00000   0.00549   0.00548   1.93065
   A54        1.90448  -0.00073   0.00000  -0.00242  -0.00245   1.90203
   A55        1.89497  -0.00154   0.00000  -0.01049  -0.01051   1.88446
   A56        1.88471  -0.00080   0.00000  -0.00539  -0.00539   1.87932
   A57        1.92288   0.00183   0.00000   0.01546   0.01532   1.93820
   A58        1.92446   0.00004   0.00000   0.01496   0.01500   1.93945
   A59        1.87976  -0.00113   0.00000  -0.00319  -0.00350   1.87626
   A60        1.99486   0.00156   0.00000   0.02435   0.02437   2.01923
   A61        1.92022   0.00011   0.00000  -0.00379  -0.00412   1.91610
   A62        1.88955  -0.00096   0.00000  -0.00725  -0.00749   1.88207
   A63        1.90199  -0.00060   0.00000  -0.00372  -0.00362   1.89837
   A64        1.86956   0.00087   0.00000   0.01362   0.01341   1.88297
   A65        1.88404  -0.00111   0.00000  -0.02576  -0.02582   1.85822
   A66        1.67357  -0.00062   0.00000  -0.00513  -0.00525   1.66832
   A67        1.48010   0.00134   0.00000   0.01592   0.01597   1.49607
   A68        2.56051  -0.00157   0.00000  -0.01364  -0.01359   2.54692
   A69        1.86478   0.00018   0.00000   0.00362   0.00363   1.86840
   A70        1.91652   0.00203   0.00000   0.01563   0.01569   1.93221
   A71        1.85975  -0.00127   0.00000  -0.01341  -0.01345   1.84631
   A72        0.92379   0.00184   0.00000   0.00968   0.00969   0.93348
   A73        2.81013  -0.00038   0.00000  -0.00713  -0.00711   2.80302
   A74        1.93278  -0.00221   0.00000  -0.01529  -0.01526   1.91752
   A75        1.16169   0.00248   0.00000   0.02301   0.02305   1.18474
   A76        1.80621  -0.00253   0.00000  -0.01500  -0.01502   1.79119
   A77        2.45295   0.00034   0.00000   0.00499   0.00516   2.45811
    D1        1.09118  -0.00050   0.00000  -0.02758  -0.02760   1.06358
    D2       -3.04099  -0.00048   0.00000  -0.02495  -0.02498  -3.06597
    D3       -1.00883  -0.00027   0.00000  -0.02135  -0.02131  -1.03013
    D4       -1.00501  -0.00028   0.00000  -0.02413  -0.02416  -1.02917
    D5        1.14601  -0.00026   0.00000  -0.02151  -0.02153   1.12447
    D6       -3.10501  -0.00005   0.00000  -0.01791  -0.01787  -3.12288
    D7       -3.08453  -0.00019   0.00000  -0.02265  -0.02266  -3.10720
    D8       -0.93352  -0.00016   0.00000  -0.02002  -0.02004  -0.95355
    D9        1.09865   0.00005   0.00000  -0.01642  -0.01637   1.08228
   D10       -1.08564   0.00035   0.00000   0.00898   0.00896  -1.07668
   D11        3.10026   0.00016   0.00000   0.00594   0.00592   3.10618
   D12        1.01059   0.00056   0.00000   0.01226   0.01226   1.02285
   D13        3.09581  -0.00016   0.00000   0.00397   0.00402   3.09983
   D14        0.99852  -0.00035   0.00000   0.00094   0.00098   0.99951
   D15       -1.09114   0.00005   0.00000   0.00725   0.00732  -1.08382
   D16        1.03035  -0.00003   0.00000   0.00374   0.00369   1.03404
   D17       -1.06693  -0.00022   0.00000   0.00070   0.00065  -1.06628
   D18        3.12659   0.00018   0.00000   0.00702   0.00699   3.13358
   D19       -3.12081   0.00029   0.00000   0.01178   0.01162  -3.10919
   D20       -1.04775   0.00014   0.00000   0.02758   0.02769  -1.02006
   D21       -1.00239   0.00099   0.00000   0.01833   0.01816  -0.98423
   D22        1.07067   0.00084   0.00000   0.03413   0.03423   1.10490
   D23        1.08687   0.00058   0.00000   0.01322   0.01304   1.09990
   D24       -3.12325   0.00043   0.00000   0.02902   0.02910  -3.09415
   D25       -1.19233   0.00043   0.00000   0.01103   0.01099  -1.18134
   D26        3.00907  -0.00046   0.00000  -0.00489  -0.00490   3.00417
   D27        0.95390   0.00111   0.00000   0.02582   0.02582   0.97972
   D28        2.98421   0.00014   0.00000   0.01107   0.01101   2.99522
   D29        0.90243  -0.00076   0.00000  -0.00486  -0.00489   0.89754
   D30       -1.15274   0.00082   0.00000   0.02586   0.02584  -1.12690
   D31        0.85394   0.00066   0.00000   0.01358   0.01349   0.86743
   D32       -1.22784  -0.00023   0.00000  -0.00235  -0.00240  -1.23025
   D33        3.00017   0.00134   0.00000   0.02837   0.02832   3.02849
   D34       -1.53497   0.00149   0.00000   0.01923   0.01910  -1.51588
   D35       -1.99617   0.00123   0.00000   0.02388   0.02375  -1.97242
   D36        2.64895  -0.00025   0.00000  -0.00846  -0.00849   2.64046
   D37        2.18776  -0.00051   0.00000  -0.00382  -0.00384   2.18392
   D38        1.30432   0.00051   0.00000   0.00796   0.00787   1.31219
   D39       -0.70613   0.00072   0.00000   0.01128   0.01121  -0.69492
   D40       -2.21189  -0.00006   0.00000   0.00409   0.00405  -2.20784
   D41       -2.88606   0.00113   0.00000   0.01883   0.01882  -2.86724
   D42        1.38667   0.00134   0.00000   0.02216   0.02216   1.40883
   D43       -0.11909   0.00056   0.00000   0.01497   0.01501  -0.10409
   D44       -0.85182  -0.00012   0.00000  -0.00322  -0.00331  -0.85513
   D45       -2.86227   0.00009   0.00000   0.00011   0.00003  -2.86224
   D46        1.91516  -0.00069   0.00000  -0.00708  -0.00713   1.90803
   D47        2.27629   0.00099   0.00000   0.00766   0.00772   2.28400
   D48        0.11712  -0.00063   0.00000  -0.01512  -0.01510   0.10202
   D49       -1.92879   0.00000   0.00000  -0.01014  -0.01005  -1.93884
   D50       -1.36055   0.00019   0.00000   0.00821   0.00835  -1.35221
   D51        2.87447  -0.00083   0.00000  -0.00304  -0.00307   2.87140
   D52        0.29225   0.00048   0.00000   0.00865   0.00864   0.30089
   D53        0.06613  -0.00020   0.00000  -0.00814  -0.00818   0.05795
   D54        0.65543  -0.00066   0.00000  -0.00498  -0.00497   0.65046
   D55        2.53121   0.00082   0.00000   0.00439   0.00431   2.53552
   D56        3.12051   0.00036   0.00000   0.00754   0.00751   3.12802
   D57       -1.79144   0.00080   0.00000   0.00291   0.00281  -1.78863
   D58       -1.20214   0.00034   0.00000   0.00607   0.00602  -1.19612
   D59       -0.61757   0.00042   0.00000   0.02122   0.02121  -0.59636
   D60        1.24028   0.00075   0.00000   0.02647   0.02644   1.26671
   D61       -3.07933  -0.00034   0.00000   0.01940   0.01939  -3.05994
   D62       -0.06656   0.00013   0.00000   0.01344   0.01348  -0.05308
   D63        1.79129   0.00046   0.00000   0.01869   0.01870   1.80999
   D64       -2.52832  -0.00063   0.00000   0.01162   0.01166  -2.51666
   D65        0.61035  -0.00110   0.00000  -0.02457  -0.02454   0.58581
   D66        3.04666  -0.00009   0.00000  -0.01649  -0.01642   3.03024
   D67       -2.34573  -0.00145   0.00000  -0.02727  -0.02716  -2.37289
   D68        0.09059  -0.00044   0.00000  -0.01918  -0.01904   0.07154
   D69       -0.08995   0.00052   0.00000   0.01187   0.01182  -0.07813
   D70       -3.03691   0.00044   0.00000   0.01575   0.01571  -3.02120
   D71        1.63940  -0.00104   0.00000  -0.00505  -0.00491   1.63449
   D72        0.19569   0.00024   0.00000  -0.00634  -0.00629   0.18940
   D73        1.08763  -0.00036   0.00000  -0.00918  -0.00918   1.07845
   D74       -3.09352   0.00016   0.00000  -0.00395  -0.00403  -3.09755
   D75       -1.02815   0.00004   0.00000  -0.00434  -0.00425  -1.03240
   D76       -1.00875  -0.00057   0.00000  -0.01244  -0.01245  -1.02120
   D77        1.09328  -0.00005   0.00000  -0.00721  -0.00730   1.08598
   D78       -3.12453  -0.00017   0.00000  -0.00760  -0.00753  -3.13206
   D79       -3.09824  -0.00018   0.00000  -0.00622  -0.00622  -3.10446
   D80       -0.99621   0.00035   0.00000  -0.00100  -0.00106  -0.99728
   D81        1.06916   0.00023   0.00000  -0.00138  -0.00129   1.06787
   D82       -1.09004   0.00048   0.00000   0.02752   0.02754  -1.06250
   D83        3.08589   0.00017   0.00000   0.02260   0.02260   3.10849
   D84        1.00607   0.00027   0.00000   0.02420   0.02421   1.03027
   D85        3.04231   0.00061   0.00000   0.02763   0.02767   3.06998
   D86        0.93505   0.00030   0.00000   0.02271   0.02274   0.95779
   D87       -1.14477   0.00040   0.00000   0.02430   0.02434  -1.12043
   D88        1.01005   0.00015   0.00000   0.01880   0.01876   1.02880
   D89       -1.09721  -0.00016   0.00000   0.01387   0.01382  -1.08339
   D90        3.10615  -0.00006   0.00000   0.01547   0.01543   3.12158
   D91       -1.07262  -0.00083   0.00000  -0.02498  -0.02506  -1.09767
   D92        0.99991  -0.00106   0.00000  -0.01000  -0.00995   0.98997
   D93        1.04591  -0.00012   0.00000  -0.01934  -0.01943   1.02648
   D94        3.11844  -0.00036   0.00000  -0.00436  -0.00432   3.11412
   D95        3.12129  -0.00027   0.00000  -0.01618  -0.01626   3.10502
   D96       -1.08937  -0.00050   0.00000  -0.00119  -0.00116  -1.09052
   D97       -2.97899  -0.00051   0.00000  -0.03635  -0.03629  -3.01528
   D98        1.15794  -0.00094   0.00000  -0.04623  -0.04621   1.11173
   D99       -0.89718   0.00090   0.00000  -0.00881  -0.00883  -0.90600
   D100       1.19754  -0.00082   0.00000  -0.03542  -0.03539   1.16215
   D101      -0.94871  -0.00125   0.00000  -0.04530  -0.04531  -0.99402
   D102      -3.00383   0.00059   0.00000  -0.00788  -0.00792  -3.01176
   D103      -0.84906  -0.00126   0.00000  -0.04271  -0.04266  -0.89172
   D104      -2.99531  -0.00169   0.00000  -0.05260  -0.05258  -3.04789
   D105       1.23275   0.00016   0.00000  -0.01518  -0.01520   1.21755
   D106       1.49873  -0.00106   0.00000  -0.01407  -0.01404   1.48469
   D107       1.99276  -0.00113   0.00000  -0.01071  -0.01059   1.98217
   D108      -2.68577   0.00049   0.00000   0.01152   0.01146  -2.67431
   D109      -2.19174   0.00042   0.00000   0.01487   0.01491  -2.17683
   D110       2.21279  -0.00004   0.00000  -0.00846  -0.00824   2.20455
   D111       0.70594  -0.00127   0.00000  -0.02393  -0.02372   0.68222
   D112      -1.30437  -0.00090   0.00000  -0.01798  -0.01781  -1.32217
   D113      -1.91430   0.00076   0.00000   0.00105   0.00110  -1.91320
   D114       2.86204  -0.00048   0.00000  -0.01441  -0.01438   2.84766
   D115       0.85173  -0.00011   0.00000  -0.00847  -0.00847   0.84326
   D116       0.11975  -0.00040   0.00000  -0.02384  -0.02398   0.09576
   D117      -1.38710  -0.00163   0.00000  -0.03931  -0.03947  -1.42656
   D118       2.88578  -0.00126   0.00000  -0.03336  -0.03355   2.85222
   D119      -2.27721  -0.00137   0.00000  -0.00925  -0.00921  -2.28642
   D120      -1.06643  -0.00056   0.00000   0.00813   0.00817  -1.05826
   D121      -0.11803   0.00047   0.00000   0.02408   0.02409  -0.09394
   D122       1.09275   0.00129   0.00000   0.04146   0.04147   1.13422
   D123       1.92784  -0.00035   0.00000   0.01364   0.01349   1.94133
   D124       3.13862   0.00046   0.00000   0.03102   0.03087  -3.11369
         Item               Value     Threshold  Converged?
 Maximum Force            0.012139     0.000015     NO 
 RMS     Force            0.002977     0.000010     NO 
 Maximum Displacement     0.163496     0.000060     NO 
 RMS     Displacement     0.025276     0.000040     NO 
 GradGradGradGradGradGradGradGradGradGradGradGradGradGradGradGradGradGrad

                    Distance matrix (angstroms):
                    1          2          3          4          5
     1  C    0.000000
     2  C    1.534110   0.000000
     3  C    2.516475   1.538460   0.000000
     4  N    2.429010   1.465362   2.500282   0.000000
     5  C    2.531548   1.549673   2.510023   2.423192   0.000000
     6  N    3.113286   2.541555   3.843664   2.841172   1.457986
     7  H    1.104051   2.189242   2.782659   3.400362   2.781436
     8  H    1.104794   2.183389   2.759228   2.724934   3.499429
     9  H    1.102941   2.179188   3.481352   2.641841   2.794345
    10  H    2.797527   2.199956   1.105311   3.458429   2.763248
    11  H    3.480777   2.182430   1.104528   2.750240   2.758034
    12  H    2.755546   2.185538   1.104640   2.790714   3.483089
    13  H    3.346048   2.074420   2.711927   1.025692   2.661689
    14  H    2.628909   2.064261   2.754148   1.019994   3.337029
    15  H    3.470512   2.163615   2.647934   2.731504   1.103941
    16  H    2.742692   2.186120   2.783765   3.385277   1.103256
    17  H    2.930715   2.889655   4.270133   3.331021   2.054298
    18  H    3.205728   2.569197   3.970763   2.309852   2.001307
    19  C    7.015908   6.040248   7.050354   5.377069   5.187746
    20  C    6.509427   5.292831   6.041803   4.706624   4.471593
    21  C    7.839111   6.510475   7.019396   5.924761   5.720916
    22  N    5.927499   4.707824   5.376142   4.538406   3.580741
    23  C    5.716448   4.471702   5.194779   3.577537   4.096743
    24  N    5.433222   4.000819   4.309363   3.250845   3.844983
    25  H    7.631958   6.674633   7.684132   5.808853   6.009688
    26  H    7.769564   6.816428   7.801381   6.305997   5.785279
    27  H    6.297222   5.504803   6.685402   4.882161   4.669607
    28  H    8.425298   7.121608   7.658721   6.341031   6.493512
    29  H    7.795418   6.365360   6.634069   5.876038   5.645771
    30  H    8.522499   7.236251   7.769442   6.780515   6.267549
    31  H    6.687166   5.536390   6.178904   5.491692   4.261369
    32  H    5.109967   4.035015   4.906372   3.975747   2.810366
    33  H    6.483564   5.305126   6.010870   4.210589   5.107091
    34  H    4.897025   3.829048   4.817335   2.863906   3.532610
    35  H    5.163022   3.670870   3.879970   3.303547   3.247096
    36  H    6.373226   4.911400   5.017546   4.178171   4.769080
                    6          7          8          9         10
     6  N    0.000000
     7  H    3.488339   0.000000
     8  H    4.116961   1.786661   0.000000
     9  H    2.817082   1.796553   1.782380   0.000000
    10  H    4.175583   2.608560   3.142790   3.816570   0.000000
    11  H    4.081275   3.803289   3.766182   4.331293   1.790752
    12  H    4.698202   3.122211   2.536403   3.763090   1.789003
    13  H    3.128169   4.219359   3.661264   3.611176   3.721440
    14  H    3.793095   3.667056   2.488827   2.912019   3.767504
    15  H    2.075722   3.745843   4.317735   3.819231   2.969845
    16  H    2.097274   2.532796   3.761344   3.105304   2.580787
    17  H    1.019720   3.172659   3.961365   2.389570   4.479491
    18  H    1.023805   3.863853   4.040809   2.801093   4.541486
    19  C    4.281474   7.652488   7.768637   6.629532   7.682818
    20  C    3.978493   7.120582   7.235582   6.363285   6.677673
    21  C    5.415588   8.427270   8.521453   7.793754   7.639141
    22  N    3.243933   6.343702   6.782671   5.880419   5.809811
    23  C    3.810681   6.490524   6.263643   5.636397   6.018369
    24  N    4.095897   6.156159   5.883499   5.636707   5.153104
    25  H    5.117730   8.367490   8.282839   7.211554   8.414717
    26  H    4.840655   8.304197   8.598574   7.370460   8.331907
    27  H    3.557165   6.930978   7.071551   5.790628   7.296017
    28  H    6.131550   9.109919   9.022238   8.334687   8.376996
    29  H    5.624156   8.340335   8.436777   7.905216   7.222184
    30  H    5.871784   9.024595   9.286420   8.437827   8.286931
    31  H    3.847426   6.996509   7.604604   6.608108   6.490793
    32  H    2.258496   5.503090   6.023833   4.979035   5.305451
    33  H    4.765120   7.343134   6.914563   6.352795   6.913401
    34  H    3.043928   5.721449   5.458607   4.684006   5.650890
    35  H    3.671647   5.733145   5.739030   5.447807   4.565447
    36  H    5.073151   7.075595   6.770055   6.629356   5.836148
                   11         12         13         14         15
    11  H    0.000000
    12  H    1.787839   0.000000
    13  H    2.530331   3.089701   0.000000
    14  H    3.102141   2.623651   1.648150   0.000000
    15  H    2.429878   3.683581   2.538179   3.668620   0.000000
    16  H    3.166528   3.789761   3.694215   4.198317   1.770351
    17  H    4.721269   5.041018   3.851540   4.154042   2.928398
    18  H    4.155153   4.676761   2.572547   3.222093   2.458179
    19  C    6.687147   7.802322   4.911386   6.180788   4.816676
    20  C    5.507380   6.816736   4.037534   5.535957   3.835332
    21  C    6.301774   7.770152   5.109910   6.684985   4.908066
    22  N    4.879093   6.303976   3.980224   5.492319   2.866560
    23  C    4.681852   5.790229   2.811812   4.259065   3.546568
    24  N    3.589478   4.858342   2.265428   3.849222   3.094659
    25  H    7.301161   8.334058   5.308564   6.490911   5.652233
    26  H    7.423287   8.629642   5.857442   7.161992   5.387034
    27  H    6.491913   7.424134   4.616191   5.693001   4.528228
    28  H    6.940493   8.307788   5.503102   6.994572   5.734181
    29  H    5.795594   7.370248   4.976485   6.603913   4.699857
    30  H    7.071708   8.596958   6.024362   7.602940   5.465513
    31  H    5.688731   7.159259   4.978455   6.465902   3.581492
    32  H    4.608684   5.851816   3.627084   4.973979   2.350798
    33  H    5.489289   6.472908   3.449310   4.708682   4.606725
    34  H    4.534344   5.389179   2.355319   3.582061   3.273142
    35  H    3.109948   4.610636   2.415272   4.051710   2.322505
    36  H    4.162020   5.504313   3.162132   4.671540   3.921783
                   16         17         18         19         20
    16  H    0.000000
    17  H    2.334725   0.000000
    18  H    2.907675   1.635295   0.000000
    19  C    5.998638   4.975304   3.855114   0.000000
    20  C    5.306501   4.881597   3.631888   1.538445   0.000000
    21  C    6.494111   6.350318   5.121638   2.516338   1.534065
    22  N    4.216108   4.171432   3.280882   2.497518   1.465611
    23  C    5.110222   4.722548   3.183748   2.508470   1.550723
    24  N    4.810173   5.065816   3.626594   3.848497   2.549022
    25  H    6.899957   5.781691   4.530469   1.105320   2.199973
    26  H    6.462203   5.476013   4.599771   1.104644   2.185577
    27  H    5.467146   4.111061   3.095914   1.104522   2.182253
    28  H    7.351502   7.041249   5.685163   2.781861   2.189080
    29  H    6.373083   6.615086   5.402814   3.481276   2.179151
    30  H    6.923498   6.755561   5.708812   2.759731   2.183475
    31  H    4.712799   4.672214   4.038874   2.747576   2.064544
    32  H    3.447787   3.155169   2.400426   2.704585   2.069688
    33  H    6.152006   5.611460   4.017522   2.773526   2.186340
    34  H    4.590897   3.855481   2.249602   2.646201   2.162216
    35  H    4.090790   4.676287   3.456891   3.997546   2.588841
    36  H    5.675177   6.058171   4.632404   4.272257   2.901508
                   21         22         23         24         25
    21  C    0.000000
    22  N    2.431209   0.000000
    23  C    2.533707   2.426596   0.000000
    24  N    3.112550   2.865605   1.459523   0.000000
    25  H    2.798236   3.456520   2.760130   4.171970   0.000000
    26  H    2.754692   2.788219   3.482288   4.705421   1.789038
    27  H    3.480531   2.745460   2.756282   4.090228   1.790795
    28  H    1.104037   3.402109   2.782976   3.479285   2.608618
    29  H    1.102968   2.646394   2.797137   2.815989   3.816815
    30  H    1.104803   2.725712   3.501392   4.119745   3.144801
    31  H    2.634624   1.019997   3.340166   3.818251   3.762871
    32  H    3.344918   1.025728   2.655237   3.148791   3.712938
    33  H    2.750922   3.388399   1.103252   2.093689   2.567201
    34  H    3.471489   2.725942   1.104935   2.083674   2.969956
    35  H    3.200192   2.353366   2.013421   1.023509   4.557503
    36  H    2.936586   3.369012   2.054889   1.019726   4.467790
                   26         27         28         29         30
    26  H    0.000000
    27  H    1.787852   0.000000
    28  H    3.120037   3.802947   0.000000
    29  H    3.762822   4.331074   1.796512   0.000000
    30  H    2.536158   3.766049   1.786668   1.782460   0.000000
    31  H    2.616497   3.091592   3.670999   2.922671   2.493309
    32  H    3.086596   2.519819   4.216099   3.612694   3.661829
    33  H    3.781371   3.153562   2.541105   3.118325   3.767315
    34  H    3.681335   2.426741   3.749317   3.819921   4.317474
    35  H    4.705115   4.192830   3.850516   2.780438   4.041813
    36  H    5.048065   4.726603   3.160233   2.404003   3.972386
                   31         32         33         34         35
    31  H    0.000000
    32  H    1.649787   0.000000
    33  H    4.201007   3.684074   0.000000
    34  H    3.661235   2.520644   1.768954   0.000000
    35  H    3.263693   2.626010   2.911508   2.484607   0.000000
    36  H    4.195909   3.882436   2.325215   2.932812   1.629497
                   36
    36  H    0.000000
 Framework group  C1[X(C8H24N4)]
 Deg. of freedom   102
                         Standard orientation:                         
 ---------------------------------------------------------------------
 Center     Atomic      Atomic             Coordinates (Angstroms)
 Number     Number       Type             X           Y           Z
 ---------------------------------------------------------------------
      1          6           0        3.821420   -0.700027   -0.524268
      2          6           0        2.644117    0.137183   -0.008000
      3          6           0        3.165451    1.310668    0.839350
      4          7           0        1.858290    0.579979   -1.162857
      5          6           0        1.707727   -0.732467    0.868565
      6          7           0        0.981398   -1.777864    0.157710
      7          1           0        4.404519   -1.124385    0.311701
      8          1           0        4.502109   -0.079308   -1.134136
      9          1           0        3.457239   -1.523039   -1.161845
     10          1           0        3.719027    0.956215    1.727961
     11          1           0        2.323547    1.937446    1.183339
     12          1           0        3.844230    1.946378    0.243228
     13          1           0        1.071063    1.172539   -0.877917
     14          1           0        2.430578    1.124187   -1.808389
     15          1           0        0.959250   -0.067636    1.333828
     16          1           0        2.282492   -1.187523    1.693030
     17          1           0        1.599287   -2.556236   -0.070715
     18          1           0        0.693176   -1.368094   -0.735147
     19          6           0       -3.160596   -1.319839   -0.824697
     20          6           0       -2.641412   -0.139805    0.014814
     21          6           0       -3.820186    0.699978    0.523353
     22          7           0       -1.856784   -0.578555    1.172343
     23          6           0       -1.704443    0.722206   -0.870494
     24          7           0       -0.993096    1.794589   -0.181881
[...]
 0.00003479,-0.00152316,0.00012313,0.00071482,-0.01905333,0.01641767,-0
 .02168105,-0.00073790,-0.00073049,0.00146211,-0.13372867,0.11840807,-0
 .18663152,0.00501442,0.00026658,-0.00356943,-0.00008913,-0.00117976,0.
 00108057,0.00015253,-0.00014561,0.00074873,0.00086196,-0.00077219,-0.0
 0034121,0.00002547,-0.00002761,-0.00014614,-0.00003139,-0.00054616,-0.
 00007669,0.00012881,-0.00034207,-0.00001551,0.00072163,0.00045376,0.00
 054297,0.15465425,-0.14001890,0.21507607,0.00000102,-0.00027067,0.0002
 9821,0.00014617,0.00053477,-0.00067343,0.00024071,-0.00014945,0.000507
 92,-0.00011292,-0.00081084,0.00043812,-0.00486698,0.00286162,0.0012330
 4,0.00040000,0.00300138,0.00081866,-0.00003315,0.00000568,-0.00005488,
 0.00019203,-0.00008021,0.00008285,-0.00024658,-0.00004606,-0.00028662,
 -0.00002898,0.00004632,-0.00001683,-0.00002510,-0.00000526,-0.00007138
 ,0.00013440,-0.00021404,-0.00003336,0.00058696,0.00031723,0.00001328,0
 .00008401,-0.00022468,-0.00005098,-0.00148391,0.00069698,0.00021569,0.
 00035166,-0.00005179,-0.00017896,0.00193395,-0.00129282,0.00112643,-0.
 00000114,0.00045408,-0.00114913,0.00094570,0.00091641,-0.00266444,-0.0
 1568451,-0.01338427,-0.00069750,-0.00029656,-0.00018624,0.00214884,-0.
 20766040,-0.14739115,-0.07578769,0.00208600,0.00016767,0.00007218,-0.0
 0189159,0.00050679,-0.00066514,0.00091319,-0.00025299,-0.00091537,-0.0
 0043695,0.00014639,0.00020236,0.00008693,0.00037867,0.00079326,0.00025
 447,-0.00046069,-0.00043168,0.00000475,-0.00020858,-0.00005549,0.00012
 198,0.00008075,0.00009791,-0.01258397,-0.01253457,-0.00532671,0.235354
 27,-0.00013968,0.00017581,-0.00005570,0.00034361,-0.00072935,-0.000495
 92,0.00012251,-0.00006720,0.00015101,-0.00017158,-0.00016849,-0.000080
 53,0.00118308,0.00175199,0.00195964,0.00129236,-0.00302035,0.00096282,
 0.00000204,-0.00001165,0.00000851,-0.00005697,-0.00004622,-0.00004396,
 -0.00008590,-0.00003051,-0.00010902,-0.00000966,0.00000785,0.00001451,
 -0.00002847,-0.00006741,-0.00003022,-0.00000921,-0.00006502,-0.0000499
 0,0.00031727,-0.00016270,0.00011079,-0.00006733,0.00000406,0.00002096,
 0.00161327,-0.00166054,-0.00101540,-0.00028053,-0.00033941,-0.00020911
 ,-0.00072610,-0.00005047,-0.00042216,0.00077160,0.00047090,-0.00002300
 ,0.00130416,0.00144673,0.00025246,-0.00396365,-0.00906963,-0.00652567,
 -0.00063799,-0.00044984,0.00222120,-0.18748551,-0.18680107,-0.05411811
 ,-0.00079565,-0.00030112,-0.00054807,0.00062477,-0.00026685,0.00032848
 ,0.00005136,-0.00029678,-0.00014663,0.00020305,-0.00002969,0.00006288,
 -0.00013999,0.00034346,-0.00044005,-0.00082057,0.00021481,-0.00025435,
 0.00019597,0.00029438,0.00014078,-0.00015280,0.00011184,-0.00018881,0.
 01978682,0.01327474,0.00641279,0.16771040,0.18635497,-0.00007935,0.000
 10133,-0.00004671,0.00004504,-0.00056139,-0.00030364,0.00012044,-0.000
 06596,0.00010269,0.00011112,-0.00011281,-0.00007490,0.00029205,0.00124
 675,0.00168352,0.00163657,0.00181527,-0.00384554,0.00002468,0.00000892
 ,-0.00001158,-0.00002493,-0.00004589,-0.00002521,-0.00008348,-0.000030
 17,-0.00009817,0.00003624,0.00000522,-0.00002377,-0.00002989,-0.000034
 31,0.00000497,0.00000768,-0.00006174,-0.00003688,0.00001330,0.00011079
 ,0.00005002,0.00004389,-0.00002552,-0.00004067,0.00065382,-0.00116767,
 -0.00001568,0.00026377,-0.00011620,-0.00020858,0.00125023,-0.00075804,
 0.00022243,-0.00270357,0.00020913,-0.00124634,0.00098054,0.00115943,0.
 00139601,0.02547117,0.01966917,0.01064288,0.00277324,0.00193065,-0.004
 99342,-0.09732810,-0.05563479,-0.09610465,0.00099626,0.00066434,0.0018
 3270,-0.00007632,-0.00008417,-0.00025787,-0.00035672,-0.00006292,-0.00
 000876,-0.00019629,-0.00014107,-0.00006077,-0.00003268,-0.00073143,-0.
 00099707,0.00147147,0.00106283,0.00070434,-0.00019948,0.00009248,-0.00
 006586,0.00009439,-0.00024094,-0.00000988,-0.01508210,-0.01924086,-0.0
 0705555,0.08077860,0.05202037,0.09992278,-0.00000505,0.00001108,0.0000
 0363,0.00011543,0.00002070,-0.00008229,0.00002063,0.00002474,0.0000149
 4,-0.00035604,0.00017312,-0.00040945,0.00017633,0.00001795,0.00001053,
 -0.00008037,-0.00027109,0.00002472,-0.00001009,-0.00000897,0.00000432,
 -0.00002005,0.00001228,-0.00000911,0.00001620,-0.00000697,0.00000714,-
 0.00001502,-0.00000436,0.00001279,0.00001503,-0.00002855,-0.00001780,-
 0.00002725,0.00000318,-0.00001273,0.00035165,-0.00028058,0.00026370,-0
 .00025280,0.00006900,0.00014692,-0.00001392,0.00003419,-0.00011854,-0.
 00007287,-0.00003038,0.00000749,-0.00012684,0.00001352,0.00005955,0.00
 035244,0.00024298,0.00016403,0.00043469,-0.00028709,-0.00015114,0.0101
 6066,0.00789702,-0.01411155,0.00109044,0.00030127,-0.00055357,-0.00186
 889,0.00203718,-0.00350747,-0.11810762,-0.05705949,0.10066404,-0.00760
 011,-0.00536578,0.01242749,-0.00005706,0.00030510,0.00004207,0.0001040
 8,-0.00026303,-0.00007091,-0.00006573,0.00002640,0.00010377,-0.0002770
 7,-0.00000324,0.00000331,-0.00008819,-0.00010800,-0.00006089,0.0002486
 1,0.00001276,0.00018969,0.00076347,0.00082288,-0.00080782,-0.00028562,
 0.00023180,-0.00021822,0.12480972,-0.00000948,0.00002675,-0.00000403,0
 .00006057,-0.00002684,-0.00001974,-0.00005730,-0.00002983,-0.00004189,
 -0.00024041,0.00024052,-0.00011563,0.00012305,-0.00021061,-0.00017154,
 -0.00037742,-0.00010605,-0.00000754,0.00000231,-0.00000532,0.00000125,
 -0.00001585,0.00000942,-0.00000620,0.00002288,0.00000794,0.00002177,0.
 00001042,0.00001071,0.00001263,-0.00000358,0.00001733,0.00002095,0.000
 00133,0.00002191,0.00000689,-0.00005178,-0.00033942,-0.00011622,-0.000
 10828,0.00006809,0.00007051,0.00006647,-0.00006107,-0.00001721,-0.0000
 3038,0.00001709,0.00002362,-0.00012551,0.00002406,0.00008240,0.0003742
 8,0.00013529,0.00018366,-0.00047178,-0.00014055,0.00051373,-0.01193265
 ,-0.00562399,0.01014622,-0.00070729,0.00048922,-0.00079018,0.00337226,
 -0.00162476,0.00330751,-0.06097746,-0.10226217,0.08937952,0.01602704,0
 .00925640,-0.02485723,0.00078326,-0.00047801,-0.00029215,0.00010191,0.
 00019061,-0.00030148,0.00004113,0.00003134,0.00008010,0.00038928,0.000
 35868,-0.00006067,0.00012337,-0.00000913,0.00003818,-0.00000027,-0.000
 02874,-0.00019531,-0.00045360,-0.00066933,0.00086648,0.00019196,0.0005
 0029,-0.00038929,0.05744794,0.10811840,0.00000153,-0.00001249,0.000015
 08,0.00003118,0.00003092,-0.00004849,-0.00004507,-0.00003719,-0.000013
 76,-0.00008834,0.00015297,0.00002027,-0.00004459,-0.00015114,-0.000140
 40,0.00000341,-0.00001471,0.00009689,-0.00000052,-0.00000010,-0.000002
 17,0.00001144,-0.00000105,0.00000800,-0.00000062,0.00001044,0.00000252
 ,0.00000656,0.00001341,0.00000676,-0.00000820,0.00003169,0.00001991,0.
 00002023,0.00000246,0.00001255,-0.00017894,-0.00020911,-0.00020859,-0.
 00001669,0.00002381,0.00001877,-0.00001920,0.00003798,0.00004007,0.000
 00749,0.00002362,0.00002049,-0.00002518,-0.00000986,0.00007071,0.00016
 184,0.00008167,0.00003358,0.00033670,-0.00059930,0.00010851,0.01103108
 ,0.00656687,-0.01273404,0.00132049,-0.00015123,0.00031278,-0.00318884,
 0.00205247,-0.00225194,0.09723531,0.08208418,-0.19324055,0.00922252,0.
 00535250,-0.01506708,-0.00017068,0.00008896,0.00061054,-0.00023486,-0.
 00013686,0.00014676,-0.00012079,-0.00003937,0.00001467,-0.00091267,-0.
 00021271,0.00004982,0.00004810,0.00002336,-0.00005460,-0.00002244,-0.0
 0013594,0.00041195,0.00059421,0.00087795,-0.00059201,-0.00015963,-0.00
 009825,-0.00008114,-0.11067197,-0.08809206,0.21213370,0.00004227,0.000
 01358,-0.00013483,-0.00018542,-0.00032807,0.00049856,0.00010516,0.0001
 2059,-0.00015498,-0.00128291,0.00037331,0.00017111,0.00008832,-0.00018
 155,-0.00012122,-0.00090308,-0.00039461,0.00040000,0.00006021,0.000030
 26,-0.00000618,-0.00001707,-0.00000634,0.00000160,0.00000907,0.0000207
 2,-0.00000174,0.00005019,-0.00004145,-0.00007697,-0.00001442,0.0000096
 1,0.00003804,-0.00000776,0.00000349,0.00002202,-0.00148416,0.00161291,
 0.00065362,0.00030283,0.00009195,-0.00012426,0.00011315,0.00007346,-0.
 00001486,-0.00001390,0.00006651,-0.00001915,-0.00012750,-0.00002725,0.
 00007192,0.00028638,-0.00112444,0.00031122,0.00009900,-0.00108370,-0.0
 0030734,-0.01591905,-0.01155997,-0.00752878,-0.00163994,0.00351866,-0.
 00230849,0.00124451,0.00001433,0.00159218,-0.18094436,-0.11209972,-0.0
 7430042,0.01407978,0.01532637,0.00735914,-0.00008219,0.00000591,-0.000
 01964,0.00044731,0.00009169,0.00023625,-0.00001935,0.00126066,0.000189
 96,0.00034839,0.00018167,0.00011348,0.00019338,-0.00001989,0.00007205,
 -0.00090518,-0.00057923,-0.00080757,0.00008663,-0.00004601,0.00003833,
 0.00023994,0.00044789,-0.00070341,-0.00924818,-0.00729991,-0.00648038,
 0.19504013,-0.00002602,-0.00000568,0.00013835,0.00013927,0.00056424,-0
 .00072039,-0.00017925,-0.00017712,0.00015709,-0.00093047,-0.00005934,0
 .00088473,-0.00006314,0.00005555,-0.00020372,-0.00035404,-0.00076613,0
 .00033253,-0.00005298,-0.00003367,0.00001384,0.00002776,0.00000333,-0.
 00000486,0.00000061,0.00002614,-0.00001776,-0.00002394,0.00008659,0.00
 012247,0.00002686,0.00003162,0.00002354,0.00001591,-0.00001489,-0.0000
 1363,0.00069708,-0.00166056,-0.00116773,-0.00016957,-0.00003439,0.0000
 7797,0.00007338,-0.00001752,-0.00000143,0.00003420,-0.00006107,0.00003
 799,-0.00009092,-0.00001428,0.00003697,-0.00077667,0.00017902,-0.00000
 040,0.00108481,0.00112475,0.00100092,0.01406973,0.00859174,0.00775977,
 0.00198595,-0.00216369,0.00191237,0.00002735,0.00112239,-0.00104558,-0
 .10848786,-0.13238123,-0.05603607,-0.00782684,-0.02395415,-0.01216602,
 -0.00005441,0.00002984,-0.00014590,-0.00014144,0.00020891,-0.00002236,
 0.00014307,-0.00040250,0.00009151,0.00009913,-0.00001885,-0.00012787,-
 0.00007937,0.00003499,0.00015413,0.00092132,0.00073309,0.00043480,0.00
 001033,0.00019133,-0.00019706,-0.00015433,-0.00003514,-0.00001369,-0.0
 0876019,-0.00657656,-0.00522906,0.10847710,0.15742500,-0.00001176,0.00
 003831,-0.00004661,0.00021603,-0.00014164,-0.00005011,-0.00003624,0.00
 002881,-0.00009193,-0.00044521,0.00062623,-0.00064793,0.00036270,-0.00
 027757,-0.00020417,-0.00026344,-0.00020171,0.00004776,0.00000307,-0.00
 000335,0.00000541,-0.00003262,0.00001809,-0.00001886,0.00005709,0.0000
 0341,0.00005386,0.00001787,0.00000143,0.00001251,0.00002045,-0.0000012
 3,0.00002035,-0.00003368,0.00002686,0.00000320,0.00021575,-0.00101546,
 -0.00001574,-0.00033561,0.00014349,0.00015549,-0.00001489,-0.00000147,
 -0.00011639,-0.00011856,-0.00001722,0.00004005,-0.00031986,-0.00000226
 ,0.00015886,0.00097167,0.00045072,0.00081110,0.00110056,-0.00110396,0.
 00040501,-0.01711446,-0.01054428,-0.00834343,-0.00111191,0.00300346,-0
 .00146389,0.00023295,-0.00065147,0.00135855,-0.07112009,-0.05459956,-0
 .09239547,-0.00630176,-0.01795712,-0.00543880,0.00002553,0.00018815,-0
 .00001006,0.00031519,0.00007464,-0.00010840,0.00017264,0.00042088,0.00
 053246,-0.00022784,-0.00007442,0.00019744,0.00023372,-0.00007629,0.000
 06845,-0.00097112,-0.00058954,-0.00024273,0.00021217,-0.00007390,0.000
 20779,-0.00032851,0.00066228,-0.00082028,0.01697483,0.01397796,0.01147
 934,0.07821069,0.06957125,0.09793586,-0.00000455,-0.00007169,0.0001459
 9,-0.00031699,-0.00003623,-0.00029840,-0.00040879,-0.00035561,-0.00022
 810,-0.00051238,-0.00036070,0.00124291,-0.00082968,-0.00166501,-0.0015
 9708,-0.00108684,0.00091247,0.00020337,0.00000735,0.00000084,-0.000034
 45,0.00007738,0.00000381,0.00005717,0.00001819,0.00008729,0.00006226,0
 .00015864,0.00012510,0.00002583,-0.00005158,0.00030177,0.00023308,0.00
 022294,0.00007384,0.00011597,-0.00000095,0.00077168,-0.00270309,0.0004
 1066,0.00019534,-0.00002536,0.00028155,-0.00077876,0.00097202,0.000352
 23,0.00037413,0.00016173,0.00004694,0.00002649,0.00026071,0.00028628,-
 0.00012833,0.00001734,0.00028709,-0.00024618,0.00051230,-0.00006732,-0
 .00000488,0.00220681,-0.00067345,0.00037181,0.00026701,-0.00157787,-0.
 00193512,-0.00012601,-0.00742461,-0.00221500,0.02392346,-0.02450232,-0
 .01193163,0.01260739,0.00016153,-0.00001386,-0.00023757,0.00010034,-0.
 00019562,-0.00020146,-0.00006894,-0.00016784,-0.00012556,0.00035978,-0
 .00007539,-0.00021085,-0.00104466,-0.00044471,-0.00034829,0.00026377,-
 0.00024930,-0.00014186,-0.00002973,-0.00051345,-0.00029779,0.00157987,
 -0.00068363,-0.00000319,-0.00151001,0.00363574,0.00236227,0.00001015,-
 0.00042915,-0.00063438,0.04050236,0.00009307,-0.00024254,0.00011647,-0
 .00003938,0.00064445,-0.00019805,0.00021102,0.00008043,0.00027115,-0.0
 0012844,-0.00049878,0.00002504,-0.00071289,-0.00060516,-0.00054518,0.0
 0055813,0.00016231,0.00023720,-0.00004181,-0.00000533,-0.00000452,0.00
 009402,0.00001672,0.00006224,-0.00004758,-0.00002228,-0.00006417,-0.00
 009420,-0.00004816,-0.00001015,-0.00000326,-0.00000457,-0.00009929,0.0
 0001968,-0.00008804,-0.00002786,0.00045414,0.00047081,0.00020912,0.000
 04158,-0.00006107,0.00004208,-0.00112465,0.00017952,0.00045048,0.00024
 287,0.00013521,0.00008162,0.00011383,-0.00001002,0.00011500,-0.0001283
 4,0.00012120,-0.00019028,-0.00075975,-0.00019082,0.00076920,0.00386352
 ,-0.00013242,-0.00252278,0.00010630,-0.00014304,0.00081772,-0.00201986
 ,0.00083999,-0.00172370,0.00561795,0.01240747,-0.02756647,-0.02928838,
 -0.10384353,0.11014811,-0.00034981,0.00032442,0.00037516,0.00008794,-0
 .00010365,-0.00003355,0.00000339,-0.00001656,-0.00013078,-0.00031128,-
 0.00015871,-0.00001228,-0.00002815,0.00006709,-0.00018282,0.00015456,-
 0.00005639,-0.00001532,-0.00086445,0.00173341,0.00131534,-0.00015226,-
 0.00144016,-0.00052411,0.00282875,-0.00359579,-0.00271581,-0.00021285,
 -0.00069486,-0.00041706,0.02313229,0.10395247,0.00004169,0.00004773,-0
 .00009349,-0.00050622,-0.00033022,0.00027587,-0.00005740,0.00000463,-0
 .00017724,0.00013974,-0.00000062,0.00026382,0.00006933,0.00008953,-0.0
 0043660,-0.00024904,0.00001531,-0.00016584,0.00005073,0.00003109,-0.00
 000915,-0.00001616,-0.00001160,0.00000264,-0.00000685,0.00000010,0.000
 01219,0.00010809,0.00003844,-0.00003250,-0.00007769,0.00004988,0.00017
 631,-0.00000500,-0.00000227,-0.00000230,-0.00114890,-0.00002302,-0.001
 24585,0.00022248,0.00013169,-0.00003478,0.00031138,-0.00000036,0.00081
 120,0.00016403,0.00018365,0.00003359,0.00002381,-0.00000850,-0.0000084
 0,0.00001735,-0.00019024,-0.00004093,0.00027711,0.00046189,-0.00076334
 ,-0.00104833,0.00191621,0.00004471,0.00004883,0.00030264,-0.00011854,-
 0.00145244,0.00052285,-0.00049856,0.00477971,0.00398830,-0.02197196,0.
 06214335,0.10977458,-0.36401036,0.00006419,-0.00025594,-0.00002372,-0.
 00009705,0.00012915,0.00023124,-0.00000462,0.00003160,-0.00000046,0.00
 003033,-0.00002826,-0.00003926,0.00000604,-0.00011501,0.00021232,-0.00
 003225,0.00004860,0.00002270,-0.00015249,-0.00012580,0.00007214,0.0005
 3295,-0.00021084,0.00006455,-0.00012003,-0.00285271,-0.00121701,0.0004
 1930,-0.00038771,-0.00070452,-0.06016975,-0.10969932,0.38288214,-0.000
 09319,0.00004327,0.00012247,0.00034550,0.00002356,-0.00043426,-0.00007
 505,-0.00001325,0.00001315,-0.00106777,0.00018767,-0.00076950,0.000272
 98,0.00023899,0.00043155,-0.00002566,-0.00010906,-0.00001180,-0.000048
 73,-0.00004701,0.00001772,-0.00001993,0.00000887,-0.00003041,0.0000329
 0,0.00002459,0.00001871,-0.00001017,0.00005617,0.00005395,0.00008272,-
 0.00010824,0.00000296,-0.00008137,0.00000777,-0.00003112,0.00193379,-0
 .00072616,0.00125008,-0.00047383,-0.00035899,-0.00010383,-0.00012749,-
 0.00009093,-0.00031985,-0.00012683,-0.00012552,-0.00002518,-0.00004525
 ,0.00000302,-0.00003039,0.00004694,0.00011384,0.00002382,-0.00055912,0
 .00005859,-0.00037764,0.00004395,0.00236715,0.00129540,-0.00025588,0.0
 0023045,-0.00006219,-0.00025517,-0.00018572,0.00013496,0.00667539,0.02
 191388,0.00019137,-0.15583272,-0.21179296,0.00911123,0.00002852,-0.000
 01116,0.00003764,-0.00018148,0.00011756,0.00008392,0.00001176,-0.00012
 182,-0.00007900,-0.00012571,-0.00002178,0.00013132,-0.00106168,0.00053
 522,-0.00087956,0.00004860,-0.00028560,0.00002466,0.00008642,-0.000010
 82,-0.00005182,-0.00001967,0.00005327,0.00005326,0.00142937,0.00008775
 ,-0.00000475,-0.00005231,0.00076673,0.00007904,-0.00501640,-0.00131569
 ,-0.00430626,0.15451658,0.00003593,-0.00000100,-0.00004243,-0.00015217
 ,-0.00003572,0.00015803,0.00003046,0.00000135,0.00000380,0.00077184,0.
 00023845,0.00047650,0.00001411,0.00001539,0.00000407,0.00008141,-0.000
 01083,0.00001046,0.00001856,0.00001717,-0.00000601,0.00000449,-0.00000
 419,0.00000836,-0.00000969,-0.00000705,-0.00000747,0.00000467,-0.00001
 680,-0.00001585,-0.00004258,0.00004317,-0.00000918,0.00003150,-0.00000
 177,0.00001614,-0.00129266,-0.00005038,-0.00075798,0.00018106,0.000097
 70,0.00003839,-0.00002723,-0.00001429,-0.00000223,0.00001353,0.0000240
 6,-0.00000985,0.00000302,0.00000519,0.00000757,0.00002649,-0.00001002,
 -0.00000850,0.00029166,0.00004897,0.00014942,-0.00093136,-0.00140317,-
 0.00040162,0.00016978,-0.00036613,-0.00066683,0.00080538,0.00023229,0.
 00032634,-0.01686864,-0.02054347,-0.00185114,-0.16774338,-0.29733297,-
 0.01965416,-0.00002979,-0.00002736,-0.00004585,0.00013282,0.00002050,-
 0.00003605,0.00004688,0.00019348,0.00010713,0.00000627,0.00001425,0.00
 010756,0.00051322,0.00031103,0.00095381,-0.00014698,0.00043154,0.00023
 095,0.00002349,-0.00021666,-0.00012462,-0.00014620,0.00015773,-0.00005
 371,-0.00005613,0.00226412,0.00039096,0.00326432,-0.00133692,-0.001486
 47,-0.00751049,-0.00917362,-0.00352546,0.18848638,0.32643596,0.0000009
 8,-0.00004907,0.00006588,0.00001946,0.00013577,-0.00021412,-0.00002804
 ,-0.00004237,0.00000837,-0.00075437,0.00000219,-0.00023375,-0.00010109
 ,-0.00028354,-0.00039030,-0.00018895,0.00008624,0.00008687,-0.00002227
 ,-0.00001316,0.00000267,0.00001087,0.00001206,0.00000859,0.00001039,0.
 00001407,0.00000600,0.00000044,0.00003198,0.00001921,-0.00001540,0.000
 02615,0.00005942,-0.00001255,-0.00000129,-0.00000624,0.00112620,-0.000
 42216,0.00022238,-0.00021582,-0.00012606,-0.00000903,0.00007173,0.0000
 3691,0.00015887,0.00005953,0.00008238,0.00007071,-0.00003040,0.0000075
 7,0.00008564,0.00026077,0.00011504,-0.00000842,-0.00020922,-0.00016706
 ,0.00011508,0.00046562,0.00085729,-0.00074665,-0.00030815,0.00042181,0
 .00082355,-0.00146708,0.00096677,-0.00074277,-0.01606045,-0.01757959,-
 0.00355004,-0.00164593,-0.03600978,-0.05372517,0.00002261,0.00000994,0
 .00001305,0.00010523,0.00001047,0.00003216,0.00005152,0.00010188,-0.00
 000965,0.00015970,-0.00011098,-0.00016232,-0.00051929,0.00021079,-0.00
 037488,0.00019848,-0.00011647,-0.00012149,-0.00012721,0.00034383,0.000
 24569,0.00018745,-0.00026379,-0.00019398,-0.00020147,-0.00040231,0.000
 01808,0.00271075,-0.00524899,-0.00277416,0.02200556,0.03164757,0.00648
 942,-0.00555963,0.02571591,0.05473135\\0.00000016,0.00000033,0.0000006
 8,0.00000003,0.00000055,-0.00000015,0.00000044,0.00000117,-0.00000148,
 -0.00000057,0.00000041,-0.00000056,0.00000050,0.00000016,-0.00000021,-
 0.00000131,0.00000136,0.00000143,-0.00000022,0.00000111,0.00000088,-0.
 00000006,-0.00000035,-0.00000012,-0.00000028,-0.00000050,0.00000132,0.
 00000011,0.00000238,-0.00000088,0.00000031,0.00000157,-0.00000181,0.00
 000032,0.00000100,-0.00000180,0.00000104,-0.00000123,-0.00000092,0.000
 00027,-0.00000155,-0.00000097,-0.00000028,0.00000148,0.00000061,-0.000
 00034,0.00000205,0.00000119,-0.00000032,0.00000023,0.00000274,-0.00000
 017,-0.00000101,0.00000162,-0.00000048,-0.00000114,0.00000184,0.000000
 94,0.00000004,-0.00000164,-0.00000012,-0.00000043,-0.00000056,-0.00000
 122,0.00000023,0.00000215,-0.00000097,0.00000053,0.00000227,0.00000335
 ,-0.00000182,-0.00000190,-0.00000012,-0.00000236,0.00000086,-0.0000003
 4,-0.00000098,0.00000179,-0.00000027,-0.00000159,0.00000175,0.00000019
 ,-0.00000105,-0.00000093,0.00000024,0.00000047,-0.00000138,0.,0.000000
 31,0.00000003,-0.00000016,0.00000118,0.00000113,0.00000035,0.00000073,
 0.00000051,-0.00000003,-0.00000195,-0.00000162,0.00000030,-0.00000180,
 -0.00000107,-0.00000088,0.00000059,-0.00000202,-0.00000039,-0.00000009
 ,-0.00000278\\\@


 HERE WE GO......
 SLIDING DOWN THE RAZOR BLADE OF LIFE......
                                 TOM LEHRER
 File lengths (MBytes):  RWF=    207 Int=      0 D2E=      0 Chk=      6 Scr=      1
 Normal termination of Gaussian 16 at Fri Feb  3 11:54:19 2023.
real 3848.71
user 15104.86
sys 25.31
