 Entering Gaussian System, Link 0=g16
 Input=gaussian_test.inp
 Output=gaussian_test.log
 Initial command:
 /sw/restricted/lms/sw/Gaussian/g16_B01/g16/l1.exe "/scratch/user/peterchao1/peterchao1/6113305_1660079070000000356980185/Gau-46476.inp" -scrdir="/scratch/user/peterchao1/peterchao1/6113305_1660079070000000356980185/"
 Entering Link 1 = /sw/restricted/lms/sw/Gaussian/g16_B01/g16/l1.exe PID=     46477.
  
 Copyright (c) 1988-2017, Gaussian, Inc.  All Rights Reserved.
  
 This is part of the Gaussian(R) 16 program.  It is based on
 the Gaussian(R) 09 system (copyright 2009, Gaussian, Inc.),
 the Gaussian(R) 03 system (copyright 2003, Gaussian, Inc.),
 the Gaussian(R) 98 system (copyright 1998, Gaussian, Inc.),
 the Gaussian(R) 94 system (copyright 1995, Gaussian, Inc.),
 the Gaussian 92(TM) system (copyright 1992, Gaussian, Inc.),
 the Gaussian 90(TM) system (copyright 1990, Gaussian, Inc.),
 the Gaussian 88(TM) system (copyright 1988, Gaussian, Inc.),
 the Gaussian 86(TM) system (copyright 1986, Carnegie Mellon
 University), and the Gaussian 82(TM) system (copyright 1983,
 Carnegie Mellon University). Gaussian is a federally registered
 trademark of Gaussian, Inc.
  
 This software contains proprietary and confidential information,
 including trade secrets, belonging to Gaussian, Inc.
  
 This software is provided under written license and may be
 used, copied, transmitted, or stored only in accord with that
 written license.
  
 The following legend is applicable only to US Government
 contracts under FAR:
  
                    RESTRICTED RIGHTS LEGEND
  
 Use, reproduction and disclosure by the US Government is
 subject to restrictions as set forth in subparagraphs (a)
 and (c) of the Commercial Computer Software - Restricted
 Rights clause in FAR 52.227-19.
  
 Gaussian, Inc.
 340 Quinnipiac St., Bldg. 40, Wallingford CT 06492
  
  
 ---------------------------------------------------------------
 Warning -- This program may not be used in any manner that
 competes with the business of Gaussian, Inc. or will provide
 assistance to any competitor of Gaussian, Inc.  The licensee
 of this program is prohibited from giving any competitor of
 Gaussian, Inc. access to this program.  By using this program,
 the user acknowledges that Gaussian, Inc. is engaged in the
 business of creating and licensing software in the field of
 computational chemistry and represents and warrants to the
 licensee that it is not a competitor of Gaussian, Inc. and that
 it will not use this program in any manner prohibited above.
 ---------------------------------------------------------------
  

 Cite this work as:
 Gaussian 16, Revision B.01,
 M. J. Frisch, G. W. Trucks, H. B. Schlegel, G. E. Scuseria, 
 M. A. Robb, J. R. Cheeseman, G. Scalmani, V. Barone, 
 G. A. Petersson, H. Nakatsuji, X. Li, M. Caricato, A. V. Marenich, 
 J. Bloino, B. G. Janesko, R. Gomperts, B. Mennucci, H. P. Hratchian, 
 J. V. Ortiz, A. F. Izmaylov, J. L. Sonnenberg, D. Williams-Young, 
 F. Ding, F. Lipparini, F. Egidi, J. Goings, B. Peng, A. Petrone, 
 T. Henderson, D. Ranasinghe, V. G. Zakrzewski, J. Gao, N. Rega, 
 G. Zheng, W. Liang, M. Hada, M. Ehara, K. Toyota, R. Fukuda, 
 J. Hasegawa, M. Ishida, T. Nakajima, Y. Honda, O. Kitao, H. Nakai, 
 T. Vreven, K. Throssell, J. A. Montgomery, Jr., J. E. Peralta, 
 F. Ogliaro, M. J. Bearpark, J. J. Heyd, E. N. Brothers, K. N. Kudin, 
 V. N. Staroverov, T. A. Keith, R. Kobayashi, J. Normand, 
 K. Raghavachari, A. P. Rendell, J. C. Burant, S. S. Iyengar, 
 J. Tomasi, M. Cossi, J. M. Millam, M. Klene, C. Adamo, R. Cammi, 
 J. W. Ochterski, R. L. Martin, K. Morokuma, O. Farkas, 
 J. B. Foresman, and D. J. Fox, Gaussian, Inc., Wallingford CT, 2016.
 
 ******************************************
 Gaussian 16:  ES64L-G16RevB.01 20-Dec-2017
                 9-Aug-2022 
 ******************************************
 %nprocshared=4
 Will use up to    4 processors via shared memory.
 %mem=8000mb
 ----------------------------------------------------------------------
 #T wB97XD/def2svpp opt=tight freq int(grid=ultrafine) scf=(verytight,q
 c)
 ----------------------------------------------------------------------
 -----
 dimer
 -----
 Symbolic Z-matrix:
 Charge =  0 Multiplicity = 1
 O                    -1.91482  -1.95828  -1.08002 
 C                    -2.42421  -0.66267  -1.2761 
 C                    -2.77929   0.09059   0.03205 
 C                    -3.66312  -0.79718   0.9359 
 O                    -2.98686  -1.9444    1.39458 
 C                    -1.54164   0.57167   0.81383 
 O                    -0.75648  -0.47463   1.34177 
 C                    -3.58299   1.33371  -0.37861 
 O                    -4.72915   0.97519  -1.03466 
 F                    -3.92653   2.06189   0.75134 
 H                    -0.94822  -1.92044  -0.98711 
 H                    -3.35037  -0.78161  -1.84647 
 H                    -1.73149  -0.04895  -1.86226 
 H                    -4.56598  -1.0738    0.37919 
 H                    -3.95918  -0.23481   1.82581 
 H                    -2.71884  -2.43963   0.5987 
 H                    -1.87855   1.21773   1.63487 
 H                    -0.8924    1.15972   0.15789 
 H                    -1.38612  -1.14337   1.68772 
 H                    -2.95183   2.02123  -0.97154 
 H                    -5.27045   1.75756  -1.20049 
 O                     4.83741   1.34837  -0.55916 
 C                     3.7385    0.78844  -1.22919 
 C                     2.81856  -0.04579  -0.31044 
 C                     3.57972  -1.26619   0.25285 
 O                     4.72782  -0.91627   0.98138 
 C                     2.27926   0.83557   0.8397 
 O                     3.29058   1.29509   1.70144 
 C                     1.65402  -0.58311  -1.15919 
 O                     0.83048  -1.47111  -0.54274 
 F                     0.89444   0.50233  -1.60591 
 H                     5.32892   0.61368  -0.15229 
 H                     4.07844   0.15364  -2.0609 
 H                     3.17547   1.62776  -1.6479 
 H                     3.92165  -1.89764  -0.57318 
 H                     2.89233  -1.85836   0.87182 
 H                     4.43872  -0.33111   1.70353 
 H                     1.59107   0.26399   1.46943 
 H                     1.73223   1.68428   0.40621 
 H                     3.91943   1.80381   1.16159 
 H                     2.03351  -1.06369  -2.07209 
 H                     0.3878   -1.06238   0.2492 
 
 Add virtual bond connecting atoms H42        and O7         Dist= 3.19D+00.

 GradGradGradGradGradGradGradGradGradGradGradGradGradGradGradGradGradGrad
 Initialization pass.
                           ----------------------------
                           !    Initial Parameters    !
                           ! (Angstroms and Degrees)  !
 --------------------------                            --------------------------
 ! Name  Definition              Value          Derivative Info.                !
 --------------------------------------------------------------------------------
 ! R1    R(1,2)                  1.4059         estimate D2E/DX2                !
 ! R2    R(1,11)                 0.9718         estimate D2E/DX2                !
 ! R3    R(2,3)                  1.5507         estimate D2E/DX2                !
 ! R4    R(2,12)                 1.0942         estimate D2E/DX2                !
 ! R5    R(2,13)                 1.0955         estimate D2E/DX2                !
 ! R6    R(3,4)                  1.5447         estimate D2E/DX2                !
 ! R7    R(3,6)                  1.5409         estimate D2E/DX2                !
 ! R8    R(3,8)                  1.5362         estimate D2E/DX2                !
 ! R9    R(4,5)                  1.4085         estimate D2E/DX2                !
 ! R10   R(4,14)                 1.0962         estimate D2E/DX2                !
 ! R11   R(4,15)                 1.0936         estimate D2E/DX2                !
 ! R12   R(5,16)                 0.9749         estimate D2E/DX2                !
 ! R13   R(6,7)                  1.4106         estimate D2E/DX2                !
 ! R14   R(6,17)                 1.0977         estimate D2E/DX2                !
 ! R15   R(6,18)                 1.0943         estimate D2E/DX2                !
 ! R16   R(7,19)                 0.9815         estimate D2E/DX2                !
 ! R17   R(7,42)                 1.6878         estimate D2E/DX2                !
 ! R18   R(8,9)                  1.3684         estimate D2E/DX2                !
 ! R19   R(8,10)                 1.3875         estimate D2E/DX2                !
 ! R20   R(8,20)                 1.1057         estimate D2E/DX2                !
 ! R21   R(9,21)                 0.9657         estimate D2E/DX2                !
 ! R22   R(22,23)                1.4036         estimate D2E/DX2                !
 ! R23   R(22,32)                0.9731         estimate D2E/DX2                !
 ! R24   R(23,24)                1.5448         estimate D2E/DX2                !
 ! R25   R(23,33)                1.1001         estimate D2E/DX2                !
 ! R26   R(23,34)                1.094          estimate D2E/DX2                !
 ! R27   R(24,25)                1.5447         estimate D2E/DX2                !
 ! R28   R(24,27)                1.5461         estimate D2E/DX2                !
 ! R29   R(24,29)                1.5379         estimate D2E/DX2                !
 ! R30   R(25,26)                1.404          estimate D2E/DX2                !
 ! R31   R(25,35)                1.0945         estimate D2E/DX2                !
 ! R32   R(25,36)                1.0983         estimate D2E/DX2                !
 ! R33   R(26,37)                0.9734         estimate D2E/DX2                !
 ! R34   R(27,28)                1.4059         estimate D2E/DX2                !
 ! R35   R(27,38)                1.094          estimate D2E/DX2                !
 ! R36   R(27,39)                1.0988         estimate D2E/DX2                !
 ! R37   R(28,40)                0.9725         estimate D2E/DX2                !
 ! R38   R(29,30)                1.359          estimate D2E/DX2                !
 ! R39   R(29,31)                1.3981         estimate D2E/DX2                !
 ! R40   R(29,41)                1.0993         estimate D2E/DX2                !
 ! R41   R(30,42)                0.9951         estimate D2E/DX2                !
 ! A1    A(2,1,11)             109.7459         estimate D2E/DX2                !
 ! A2    A(1,2,3)              114.3906         estimate D2E/DX2                !
 ! A3    A(1,2,12)             106.2133         estimate D2E/DX2                !
 ! A4    A(1,2,13)             111.2103         estimate D2E/DX2                !
 ! A5    A(3,2,12)             107.3808         estimate D2E/DX2                !
 ! A6    A(3,2,13)             108.9069         estimate D2E/DX2                !
 ! A7    A(12,2,13)            108.4946         estimate D2E/DX2                !
 ! A8    A(2,3,4)              110.2082         estimate D2E/DX2                !
 ! A9    A(2,3,6)              113.3111         estimate D2E/DX2                !
 ! A10   A(2,3,8)              106.7            estimate D2E/DX2                !
 ! A11   A(4,3,6)              110.0062         estimate D2E/DX2                !
 ! A12   A(4,3,8)              108.7923         estimate D2E/DX2                !
 ! A13   A(6,3,8)              107.65           estimate D2E/DX2                !
 ! A14   A(3,4,5)              112.578          estimate D2E/DX2                !
 ! A15   A(3,4,14)             108.61           estimate D2E/DX2                !
 ! A16   A(3,4,15)             109.6032         estimate D2E/DX2                !
 ! A17   A(5,4,14)             110.8121         estimate D2E/DX2                !
 ! A18   A(5,4,15)             106.4896         estimate D2E/DX2                !
 ! A19   A(14,4,15)            108.6675         estimate D2E/DX2                !
 ! A20   A(4,5,16)             106.253          estimate D2E/DX2                !
 ! A21   A(3,6,7)              113.9143         estimate D2E/DX2                !
 ! A22   A(3,6,17)             108.4635         estimate D2E/DX2                !
 ! A23   A(3,6,18)             109.8878         estimate D2E/DX2                !
 ! A24   A(7,6,17)             109.1133         estimate D2E/DX2                !
 ! A25   A(7,6,18)             107.0186         estimate D2E/DX2                !
 ! A26   A(17,6,18)            108.3083         estimate D2E/DX2                !
 ! A27   A(6,7,19)             106.273          estimate D2E/DX2                !
 ! A28   A(6,7,42)             113.1653         estimate D2E/DX2                !
 ! A29   A(19,7,42)            115.2031         estimate D2E/DX2                !
 ! A30   A(3,8,9)              110.753          estimate D2E/DX2                !
 ! A31   A(3,8,10)             109.6655         estimate D2E/DX2                !
 ! A32   A(3,8,20)             110.3572         estimate D2E/DX2                !
 ! A33   A(9,8,10)             108.6966         estimate D2E/DX2                !
 ! A34   A(9,8,20)             112.5767         estimate D2E/DX2                !
 ! A35   A(10,8,20)            104.5793         estimate D2E/DX2                !
 ! A36   A(8,9,21)             109.8488         estimate D2E/DX2                !
 ! A37   A(23,22,32)           107.0899         estimate D2E/DX2                !
 ! A38   A(22,23,24)           113.439          estimate D2E/DX2                !
 ! A39   A(22,23,33)           110.4357         estimate D2E/DX2                !
 ! A40   A(22,23,34)           106.2355         estimate D2E/DX2                !
 ! A41   A(24,23,33)           108.7866         estimate D2E/DX2                !
 ! A42   A(24,23,34)           109.6012         estimate D2E/DX2                !
 ! A43   A(33,23,34)           108.2025         estimate D2E/DX2                !
 ! A44   A(23,24,25)           110.4931         estimate D2E/DX2                !
 ! A45   A(23,24,27)           110.0172         estimate D2E/DX2                !
 ! A46   A(23,24,29)           108.1427         estimate D2E/DX2                !
 ! A47   A(25,24,27)           110.5474         estimate D2E/DX2                !
 ! A48   A(25,24,29)           107.358          estimate D2E/DX2                !
 ! A49   A(27,24,29)           110.2173         estimate D2E/DX2                !
 ! A50   A(24,25,26)           113.2815         estimate D2E/DX2                !
 ! A51   A(24,25,35)           109.544          estimate D2E/DX2                !
 ! A52   A(24,25,36)           108.8497         estimate D2E/DX2                !
 ! A53   A(26,25,35)           106.2555         estimate D2E/DX2                !
 ! A54   A(26,25,36)           110.7153         estimate D2E/DX2                !
 ! A55   A(35,25,36)           108.0466         estimate D2E/DX2                !
 ! A56   A(25,26,37)           106.9725         estimate D2E/DX2                !
 ! A57   A(24,27,28)           113.0407         estimate D2E/DX2                !
 ! A58   A(24,27,38)           110.4744         estimate D2E/DX2                !
 ! A59   A(24,27,39)           108.691          estimate D2E/DX2                !
 ! A60   A(28,27,38)           105.6909         estimate D2E/DX2                !
 ! A61   A(28,27,39)           110.3322         estimate D2E/DX2                !
 ! A62   A(38,27,39)           108.5086         estimate D2E/DX2                !
 ! A63   A(27,28,40)           107.2104         estimate D2E/DX2                !
 ! A64   A(24,29,30)           115.902          estimate D2E/DX2                !
 ! A65   A(24,29,31)           108.45           estimate D2E/DX2                !
 ! A66   A(24,29,41)           110.4662         estimate D2E/DX2                !
 ! A67   A(30,29,31)           108.8449         estimate D2E/DX2                !
 ! A68   A(30,29,41)           107.4727         estimate D2E/DX2                !
 ! A69   A(31,29,41)           105.1663         estimate D2E/DX2                !
 ! A70   A(29,30,42)           111.2361         estimate D2E/DX2                !
 ! A71   A(7,42,30)            163.709          estimate D2E/DX2                !
 ! D1    D(11,1,2,3)           -89.243          estimate D2E/DX2                !
 ! D2    D(11,1,2,12)          152.5001         estimate D2E/DX2                !
 ! D3    D(11,1,2,13)           34.6471         estimate D2E/DX2                !
 ! D4    D(1,2,3,4)            -50.2456         estimate D2E/DX2                !
 ! D5    D(1,2,3,6)             73.5049         estimate D2E/DX2                !
 ! D6    D(1,2,3,8)           -168.2031         estimate D2E/DX2                !
 ! D7    D(12,2,3,4)            67.3463         estimate D2E/DX2                !
 ! D8    D(12,2,3,6)          -168.9033         estimate D2E/DX2                !
 ! D9    D(12,2,3,8)           -50.6112         estimate D2E/DX2                !
 ! D10   D(13,2,3,4)          -175.3594         estimate D2E/DX2                !
 ! D11   D(13,2,3,6)           -51.609          estimate D2E/DX2                !
 ! D12   D(13,2,3,8)            66.683          estimate D2E/DX2                !
 ! D13   D(2,3,4,5)             65.1979         estimate D2E/DX2                !
 ! D14   D(2,3,4,14)           -57.898          estimate D2E/DX2                !
 ! D15   D(2,3,4,15)          -176.4815         estimate D2E/DX2                !
 ! D16   D(6,3,4,5)            -60.4484         estimate D2E/DX2                !
 ! D17   D(6,3,4,14)           176.4557         estimate D2E/DX2                !
 ! D18   D(6,3,4,15)            57.8721         estimate D2E/DX2                !
 ! D19   D(8,3,4,5)           -178.1414         estimate D2E/DX2                !
 ! D20   D(8,3,4,14)            58.7627         estimate D2E/DX2                !
 ! D21   D(8,3,4,15)           -59.8209         estimate D2E/DX2                !
 ! D22   D(2,3,6,7)            -66.6731         estimate D2E/DX2                !
 ! D23   D(2,3,6,17)           171.6127         estimate D2E/DX2                !
 ! D24   D(2,3,6,18)            53.3857         estimate D2E/DX2                !
 ! D25   D(4,3,6,7)             57.1877         estimate D2E/DX2                !
 ! D26   D(4,3,6,17)           -64.5264         estimate D2E/DX2                !
 ! D27   D(4,3,6,18)           177.2466         estimate D2E/DX2                !
 ! D28   D(8,3,6,7)            175.5866         estimate D2E/DX2                !
 ! D29   D(8,3,6,17)            53.8725         estimate D2E/DX2                !
 ! D30   D(8,3,6,18)           -64.3546         estimate D2E/DX2                !
 ! D31   D(2,3,8,9)             60.4502         estimate D2E/DX2                !
 ! D32   D(2,3,8,10)          -179.5862         estimate D2E/DX2                !
 ! D33   D(2,3,8,20)           -64.8954         estimate D2E/DX2                !
 ! D34   D(4,3,8,9)            -58.4339         estimate D2E/DX2                !
 ! D35   D(4,3,8,10)            61.5297         estimate D2E/DX2                !
 ! D36   D(4,3,8,20)           176.2205         estimate D2E/DX2                !
 ! D37   D(6,3,8,9)           -177.6107         estimate D2E/DX2                !
 ! D38   D(6,3,8,10)           -57.6471         estimate D2E/DX2                !
 ! D39   D(6,3,8,20)            57.0437         estimate D2E/DX2                !
 ! D40   D(3,4,5,16)           -59.458          estimate D2E/DX2                !
 ! D41   D(14,4,5,16)           62.3983         estimate D2E/DX2                !
 ! D42   D(15,4,5,16)         -179.592          estimate D2E/DX2                !
 ! D43   D(3,6,7,19)           -40.9538         estimate D2E/DX2                !
 ! D44   D(3,6,7,42)            86.4484         estimate D2E/DX2                !
 ! D45   D(17,6,7,19)           80.4001         estimate D2E/DX2                !
 ! D46   D(17,6,7,42)         -152.1976         estimate D2E/DX2                !
 ! D47   D(18,6,7,19)         -162.6151         estimate D2E/DX2                !
 ! D48   D(18,6,7,42)          -35.2129         estimate D2E/DX2                !
 ! D49   D(6,7,42,30)          -61.4707         estimate D2E/DX2                !
 ! D50   D(19,7,42,30)          61.0927         estimate D2E/DX2                !
 ! D51   D(3,8,9,21)           173.8012         estimate D2E/DX2                !
 ! D52   D(10,8,9,21)           53.2597         estimate D2E/DX2                !
 ! D53   D(20,8,9,21)          -62.1131         estimate D2E/DX2                !
 ! D54   D(32,22,23,24)         57.3991         estimate D2E/DX2                !
 ! D55   D(32,22,23,33)        -65.0211         estimate D2E/DX2                !
 ! D56   D(32,22,23,34)        177.8685         estimate D2E/DX2                !
 ! D57   D(22,23,24,25)        -63.4638         estimate D2E/DX2                !
 ! D58   D(22,23,24,27)         58.8764         estimate D2E/DX2                !
 ! D59   D(22,23,24,29)        179.302          estimate D2E/DX2                !
 ! D60   D(33,23,24,25)         59.8656         estimate D2E/DX2                !
 ! D61   D(33,23,24,27)       -177.7942         estimate D2E/DX2                !
 ! D62   D(33,23,24,29)        -57.3686         estimate D2E/DX2                !
 ! D63   D(34,23,24,25)        177.9901         estimate D2E/DX2                !
 ! D64   D(34,23,24,27)        -59.6697         estimate D2E/DX2                !
 ! D65   D(34,23,24,29)         60.7559         estimate D2E/DX2                !
 ! D66   D(23,24,25,26)         58.3633         estimate D2E/DX2                !
 ! D67   D(23,24,25,35)        -60.0684         estimate D2E/DX2                !
 ! D68   D(23,24,25,36)       -178.0086         estimate D2E/DX2                !
 ! D69   D(27,24,25,26)        -63.6656         estimate D2E/DX2                !
 ! D70   D(27,24,25,35)        177.9027         estimate D2E/DX2                !
 ! D71   D(27,24,25,36)         59.9625         estimate D2E/DX2                !
 ! D72   D(29,24,25,26)        176.0805         estimate D2E/DX2                !
 ! D73   D(29,24,25,35)         57.6489         estimate D2E/DX2                !
 ! D74   D(29,24,25,36)        -60.2913         estimate D2E/DX2                !
 ! D75   D(23,24,27,28)        -64.3471         estimate D2E/DX2                !
 ! D76   D(23,24,27,38)        177.4555         estimate D2E/DX2                !
 ! D77   D(23,24,27,39)         58.5063         estimate D2E/DX2                !
 ! D78   D(25,24,27,28)         57.961          estimate D2E/DX2                !
 ! D79   D(25,24,27,38)        -60.2364         estimate D2E/DX2                !
 ! D80   D(25,24,27,39)       -179.1855         estimate D2E/DX2                !
 ! D81   D(29,24,27,28)        176.4877         estimate D2E/DX2                !
 ! D82   D(29,24,27,38)         58.2903         estimate D2E/DX2                !
 ! D83   D(29,24,27,39)        -60.6588         estimate D2E/DX2                !
 ! D84   D(23,24,29,30)        172.513          estimate D2E/DX2                !
 ! D85   D(23,24,29,31)        -64.7658         estimate D2E/DX2                !
 ! D86   D(23,24,29,41)         49.9988         estimate D2E/DX2                !
 ! D87   D(25,24,29,30)         53.2767         estimate D2E/DX2                !
 ! D88   D(25,24,29,31)        175.9978         estimate D2E/DX2                !
 ! D89   D(25,24,29,41)        -69.2375         estimate D2E/DX2                !
 ! D90   D(27,24,29,30)        -67.1865         estimate D2E/DX2                !
 ! D91   D(27,24,29,31)         55.5346         estimate D2E/DX2                !
 ! D92   D(27,24,29,41)        170.2993         estimate D2E/DX2                !
 ! D93   D(24,25,26,37)         57.9565         estimate D2E/DX2                !
 ! D94   D(35,25,26,37)        178.2754         estimate D2E/DX2                !
 ! D95   D(36,25,26,37)        -64.6428         estimate D2E/DX2                !
 ! D96   D(24,27,28,40)         58.742          estimate D2E/DX2                !
 ! D97   D(38,27,28,40)        179.6928         estimate D2E/DX2                !
 ! D98   D(39,27,28,40)        -63.1948         estimate D2E/DX2                !
 ! D99   D(24,29,30,42)         61.1883         estimate D2E/DX2                !
 ! D100  D(31,29,30,42)        -61.3246         estimate D2E/DX2                !
 ! D101  D(41,29,30,42)       -174.7306         estimate D2E/DX2                !
 ! D102  D(29,30,42,7)         119.6354         estimate D2E/DX2                !
 --------------------------------------------------------------------------------
 Number of steps in this run=    224 maximum allowed number of steps=    252.
 GradGradGradGradGradGradGradGradGradGradGradGradGradGradGradGradGradGrad

                    Distance matrix (angstroms):
                    1          2          3          4          5
     1  O    0.000000
     2  C    1.405888   0.000000
     3  C    2.486339   1.550727   0.000000
     4  C    2.910090   2.538883   1.544741   0.000000
     5  O    2.696874   3.015289   2.457797   1.408485   0.000000
     6  C    3.182221   2.582696   1.540903   2.527707   2.959143
     7  O    3.067253   3.109652   2.475196   2.952509   2.671632
     8  C    3.756589   2.476652   1.536205   2.505003   3.774334
     9  O    4.065425   2.837886   2.392137   2.856708   4.178605
    10  F    4.854133   3.713585   2.391558   2.877102   4.164984
    11  H    0.971789   1.960626   2.904441   3.511459   3.135138
    12  H    2.008178   1.094180   2.148421   2.799933   3.462462
    13  H    2.071482   1.095490   2.169283   3.481484   3.971867
    14  H    3.152817   2.737921   2.160693   1.096181   2.069442
    15  H    3.948875   3.487271   2.171541   1.093554   2.013471
    16  H    1.922565   2.599860   2.593600   1.924319   0.974944
    17  H    4.178396   3.508193   2.156572   2.780849   3.359343
    18  H    3.507091   2.779189   2.172381   3.480181   3.943574
    19  H    2.933252   3.176936   2.490944   2.422765   1.813821
    20  H    4.113837   2.752176   2.182739   3.476738   4.618011
    21  H    5.008214   3.736885   3.240962   3.697890   5.064950
    22  O    7.536428   7.568973   7.742455   8.893677   8.710833
    23  C    6.287025   6.331420   6.675273   7.873098   7.719004
    24  C    5.162819   5.366529   5.609972   6.643044   6.341506
    25  C    5.696093   6.224876   6.505889   7.290074   6.699513
    26  O    7.032764   7.504133   7.633587   8.391903   7.793848
    27  C    5.392702   5.370661   5.176510   6.163361   5.980652
    28  O    6.739220   6.734789   6.409443   7.301884   7.070692
    29  C    3.825439   4.080683   4.639740   5.719019   5.469246
    30  O    2.839489   3.432845   3.974891   4.778388   4.306895
    31  F    3.771349   3.532625   4.043361   5.377812   5.482148
    32  H    7.742573   7.937448   8.127160   9.166867   8.836789
    33  H    6.429738   6.600514   7.170283   8.355635   8.140067
    34  H    6.252458   6.061415   6.375290   7.702120   7.745412
    35  H    5.858751   6.503016   7.015840   7.811342   7.183442
    36  H    5.189253   5.857374   6.055649   6.641090   5.903011
    37  H    7.124834   7.489186   7.421004   8.151453   7.605087
    38  H    4.871287   4.951679   4.603929   5.386762   5.083308
    39  H    5.364519   5.061061   4.799339   5.962214   6.034404
    40  H    7.294970   7.229636   7.005985   8.019421   7.861312
    41  H    4.168191   4.545957   5.378001   6.447530   6.164223
    42  H    2.805621   3.223927   3.377419   4.117259   3.671267
                    6          7          8          9         10
     6  C    0.000000
     7  O    1.410649   0.000000
     8  C    2.483897   3.770806   0.000000
     9  O    3.706742   4.850923   1.368434   0.000000
    10  F    2.812897   4.102653   1.387462   2.239401   0.000000
    11  H    3.131476   2.747880   4.231054   4.762596   5.267972
    12  H    3.489989   4.121572   2.585209   2.376215   3.894364
    13  H    2.753663   3.376044   2.746095   3.274100   4.013075
    14  H    3.470322   3.974655   2.708625   2.494781   3.221794
    15  H    2.742080   3.247935   2.731527   3.199878   2.535817
    16  H    3.240365   2.874757   3.992491   4.286040   4.663204
    17  H    1.097735   2.051593   2.640584   3.912944   2.384840
    18  H    1.094343   2.022662   2.749074   4.022049   3.220570
    19  H    1.931117   0.981499   3.902804   4.803688   4.195733
    20  H    2.697672   4.049730   1.105723   2.063264   1.979906
    21  H    4.400896   5.641074   1.924229   0.965724   2.389226
    22  O    6.571195   6.182915   8.422348   9.585631   8.890061
    23  C    5.665752   5.330102   7.390875   8.471938   8.018532
    24  C    4.544946   3.961640   6.548854   7.650797   7.146041
    25  C    5.469983   4.540367   7.646088   8.701648   8.226081
    26  O    6.445782   5.513842   8.716739   9.852724   9.155332
    27  C    3.830094   3.344314   6.008201   7.256070   6.326419
    28  O    4.966036   4.431697   7.181509   8.479656   7.319655
    29  C    3.929191   3.475209   5.631148   6.571807   6.464420
    30  O    3.411767   2.657592   5.231894   6.093917   6.065138
    31  F    3.434304   3.516933   4.716450   5.672274   5.588442
    32  H    6.938283   6.359934   8.943820  10.103170   9.411553
    33  H    6.326465   5.945536   7.932231   8.905155   8.696538
    34  H    5.424628   5.368280   6.882907   7.955183   7.508881
    35  H    6.153764   5.251374   8.173077   9.127015   8.889670
    36  H    5.056527   3.930569   7.326847   8.351679   7.866368
    37  H    6.113202   5.209754   8.453093   9.656802   8.752743
    38  H    3.215328   2.464313   5.597363   6.835305   5.847393
    39  H    3.481709   3.424887   5.384278   6.657953   5.681841
    40  H    5.609136   5.204602   7.673303   8.961476   7.860919
    41  H    4.876952   4.448092   6.337238   7.139109   7.298164
    42  H    2.590686   1.687764   4.680021   5.655361   5.350391
                   11         12         13         14         15
    11  H    0.000000
    12  H    2.793874   0.000000
    13  H    2.209500   1.777019   0.000000
    14  H    3.958759   2.552776   3.756166   0.000000
    15  H    4.451939   3.762353   4.312659   1.779000   0.000000
    16  H    2.432988   3.021045   3.570230   2.307727   2.811668
    17  H    4.193860   4.275903   3.722371   3.748357   2.544672
    18  H    3.286575   3.718579   2.499194   4.304980   3.759233
    19  H    2.819629   4.059507   3.730869   3.439274   2.732248
    20  H    4.421709   2.963149   2.562863   3.742889   3.732246
    21  H    5.679340   3.248290   4.028108   3.317875   3.853246
    22  O    6.658962   8.557661   6.841122   9.755571   9.250646
    23  C    5.418671   7.286841   5.569807   8.661364   8.344714
    24  C    4.261553   6.399718   4.807396   7.487578   7.108937
    25  C    4.740021   7.257273   5.845023   8.148952   7.770000
    26  O    6.091038   8.559900   7.110637   9.314622   8.754504
    27  C    4.620554   6.443873   4.916209   7.121459   6.405957
    28  O    5.961158   7.810408   6.302981   8.311771   7.410466
    29  C    2.930828   5.055260   3.498761   6.426184   6.367067
    30  O    1.887636   4.433353   3.213624   5.489049   5.484462
    31  F    3.106146   4.441255   2.695392   6.020055   5.989802
    32  H    6.820650   8.952492   7.294690  10.051827   9.534235
    33  H    5.542764   7.490519   5.816857   9.065693   8.936487
    34  H    5.480080   6.959242   5.189950   8.446163   8.151017
    35  H    4.887488   7.466527   6.085835   8.580540   8.404027
    36  H    4.267237   6.893455   5.668234   7.515625   7.105572
    37  H    6.227733   8.571771   7.132036   9.131818   8.399337
    38  H    4.153838   6.042041   4.715667   6.394341   5.583998
    39  H    4.703212   6.081772   4.488585   6.875701   6.171735
    40  H    6.494693   8.281470   6.671529   8.994168   8.165147
    41  H    3.286633   5.395983   3.904995   7.040046   7.196740
    42  H    2.012384   4.294710   3.158590   4.955502   4.697532
                   16         17         18         19         20
    16  H    0.000000
    17  H    3.893075   0.000000
    18  H    4.060238   1.776890   0.000000
    19  H    2.154617   2.412486   2.808626   0.000000
    20  H    4.734895   2.931030   2.501815   4.420161   0.000000
    21  H    5.231082   4.453731   4.622766   5.643153   2.344769
    22  O    8.531494   7.066463   5.777578   7.070327   7.829114
    23  C    7.447065   6.319677   4.848403   6.204992   6.807838
    24  C    6.100798   5.238656   3.929855   4.782952   6.164981
    25  C    6.416259   6.154066   5.088604   5.170443   7.414002
    26  O    7.610503   6.973169   6.047700   6.158794   8.451023
    27  C    5.980470   4.250382   3.260273   4.250927   5.661339
    28  O    7.160812   5.170133   4.460735   5.274256   6.829333
    29  C    5.065445   4.850654   3.355057   4.202526   5.294497
    30  O    3.852091   4.394393   3.221872   3.161594   5.165870
    31  F    5.154727   4.324807   2.595372   4.330967   4.183698
    32  H    8.640204   7.450266   6.252935   7.180854   8.439388
    33  H    7.746069   7.090612   5.535747   6.752470   7.355227
    34  H    7.505583   6.040515   4.475208   6.293938   6.177064
    35  H    6.764849   6.944305   5.749522   5.818337   7.922185
    36  H    5.647801   5.727641   4.893126   4.413845   7.252823
    37  H    7.543016   6.504727   5.747380   5.881220   8.204252
    38  H    5.161688   3.602115   2.947896   3.300298   5.448321
    39  H    6.070889   3.842526   2.688029   4.400226   4.894096
    40  H    7.898748   5.846712   4.957414   6.091925   7.198040
    41  H    5.622382   5.852411   4.298529   5.082953   5.965036
    42  H    3.416162   3.500764   2.566124   2.285321   4.706593
                   21         22         23         24         25
    21  H    0.000000
    22  O   10.136446   0.000000
    23  C    9.060969   1.403586   0.000000
    24  C    8.335244   2.466028   1.544772   0.000000
    25  C    9.464712   3.012817   2.538337   1.544684   0.000000
    26  O   10.577111   2.741138   2.961650   2.464104   1.404041
    27  C    7.874685   2.960384   2.532169   1.546110   2.540269
    28  O    9.051316   2.739682   3.007643   2.463420   2.956717
    29  C    7.309498   3.771547   2.496214   1.537927   2.483698
    30  O    6.933854   4.899503   3.746104   2.457218   2.869362
    31  F    6.304434   4.166345   2.883128   2.383460   3.713940
    32  H   10.712326   0.973088   1.928653   2.600357   2.599571
    33  H    9.524426   2.063641   1.100128   2.165918   2.760092
    34  H    8.458760   2.006350   1.093976   2.171857   3.485864
    35  H    9.912051   3.372737   2.771083   2.171452   1.094521
    36  H    9.165170   4.014245   3.483647   2.165320   1.098315
    37  H   10.347167   2.845943   3.216293   2.600466   1.927882
    38  H    7.512637   3.978668   3.488418   2.184182   2.788595
    39  H    7.185014   3.269081   2.739005   2.164907   3.484537
    40  H    9.488705   2.002775   2.603754   2.607647   3.219645
    41  H    7.878265   3.996099   2.654780   2.180787   2.799484
    42  H    6.486099   5.124857   4.103453   2.693553   3.198420
                   26         27         28         29         30
    26  O    0.000000
    27  C    3.014036   0.000000
    28  O    2.733907   1.405885   0.000000
    29  C    3.760482   2.529649   3.793302   0.000000
    30  O    4.221372   3.054644   4.329000   1.358956   0.000000
    31  F    4.837481   2.830159   4.160351   1.398104   2.242512
    32  H    1.996813   3.214607   2.838221   3.993875   4.973402
    33  H    3.289658   3.480742   4.009847   2.689556   3.936225
    34  H    3.974288   2.760239   3.367792   2.727931   4.040216
    35  H    2.007398   3.487707   3.970603   2.685802   3.120606
    36  H    2.066051   2.762995   3.284985   2.699012   2.530246
    37  H    0.973393   2.602034   1.990667   4.001648   4.400530
    38  H    3.386799   1.094021   2.001331   2.762462   2.763673
    39  H    4.008390   1.098850   2.063382   2.756380   3.416153
    40  H    2.843374   1.931644   0.972466   4.026844   4.813668
    41  H    4.074884   3.485129   4.624244   1.099259   1.988011
    42  H    4.403770   2.743819   4.011583   1.953603   0.995081
                   31         32         33         34         35
    31  F    0.000000
    32  H    4.667979   0.000000
    33  H    3.235191   2.327688   0.000000
    34  H    2.543908   2.811151   1.777348   0.000000
    35  H    3.998794   2.909343   2.538827   3.760354   0.000000
    36  H    3.962771   3.618948   3.749120   4.310712   1.774567
    37  H    4.920255   2.264768   3.812578   4.082289   2.811546
    38  H    3.162253   4.089479   4.320011   3.753397   3.778433
    39  H    2.479421   3.793981   3.732853   2.511074   4.310789
    40  H    4.301568   2.264810   3.623922   2.911652   4.087806
    41  H    1.991790   4.166406   2.379867   2.954310   2.550933
    42  H    2.479198   5.233074   4.520633   4.313580   3.723181
                   36         37         38         39         40
    36  H    0.000000
    37  H    2.327135   0.000000
    38  H    2.560235   2.918570   0.000000
    39  H    3.756718   3.615233   1.779775   0.000000
    40  H    3.814499   2.263016   2.808395   2.317053   0.000000
    41  H    3.167915   4.536190   3.808007   3.712694   4.715503
    42  H    2.700723   4.365750   2.167047   3.062073   4.638957
                   41         42
    41  H    0.000000
    42  H    2.845481   0.000000
 Framework group  C1[X(C10H22F2O8)]
 Deg. of freedom   120
                         Standard orientation:                         
 ---------------------------------------------------------------------
 Center     Atomic      Atomic             Coordinates (Angstroms)
 Number     Number       Type             X           Y           Z
 ---------------------------------------------------------------------
      1          8           0       -1.944745    1.910823    1.124163
      2          6           0       -2.449590    0.608815    1.286732
      3          6           0       -2.799691   -0.112633   -0.040558
      4          6           0       -3.685358    0.794296   -0.923337
      5          8           0       -3.012660    1.955188   -1.351866
      6          6           0       -1.558961   -0.569303   -0.832027
      7          8           0       -0.776868    0.492840   -1.332140
      8          6           0       -3.599396   -1.368656    0.337333
      9          8           0       -4.747965   -1.030991    1.000195
     10          9           0       -3.938344   -2.069466   -0.811158
     11          1           0       -0.977861    1.878927    1.032011
     12          1           0       -3.377121    0.709940    1.858300
     13          1           0       -1.755535   -0.016873    1.858483
     14          1           0       -4.590169    1.053484   -0.361420
     15          1           0       -3.977843    0.253381   -1.827617
     16          1           0       -2.747806    2.431241   -0.543324
     17          1           0       -1.892093   -1.195771   -1.669632
     18          1           0       -0.908594   -1.171253   -0.189947
     19          1           0       -1.408445    1.167726   -1.662261
     20          1           0       -2.966633   -2.068522    0.913894
     21          1           0       -5.286599   -1.819293    1.145375
     22          8           0        4.820691   -1.356601    0.532086
     23          6           0        3.718589   -0.817777    1.214062
     24          6           0        2.797033    0.035866    0.314979
     25          6           0        3.554534    1.272860   -0.216139
     26          8           0        4.705134    0.945625   -0.951234
     27          6           0        2.262944   -0.818292   -0.857888
     28          8           0        3.277389   -1.252247   -1.729150
     29          6           0        1.629098    0.547354    1.174937
     30          8           0        0.803247    1.447505    0.579573
     31          9           0        0.872865   -0.551781    1.592919
     32          1           0        5.310114   -0.610097    0.144662
     33          1           0        4.054783   -0.202833    2.062059
     34          1           0        3.158030   -1.669446    1.610569
     35          1           0        3.892739    1.884606    0.626098
     36          1           0        2.865944    1.877851   -0.821223
     37          1           0        4.419418    0.377742   -1.688371
     38          1           0        1.573642   -0.233621   -1.474251
     39          1           0        1.718389   -1.679657   -0.446814
     40          1           0        3.907259   -1.772041   -1.201165
     41          1           0        2.005283    1.006240    2.100291
     42          1           0        0.363402    1.057180   -0.223153
 ---------------------------------------------------------------------
 Rotational constants (GHZ):           0.6321685           0.1491422           0.1449009
   324 basis functions,   588 primitive gaussians,   344 cartesian basis functions
    82 alpha electrons       82 beta electrons
       nuclear repulsion energy      1917.4315105041 Hartrees.
 NAtoms=   42 NActive=   42 NUniq=   42 SFac= 1.00D+00 NAtFMM=   60 NAOKFM=F Big=F
 Nuclear repulsion after empirical dispersion term =     1917.3924975641 Hartrees.
   1 Symmetry operations used in ECPInt.
 ECPInt:  NShTT=   13530 NPrTT=   54282 LenC2=   12167 LenP2D=   33317.
 LDataN:  DoStor=T MaxTD1= 4 Len=   56
 ExpMin= 1.22D-01 ExpMax= 2.89D+03 ExpMxC= 4.35D+02 IAcc=3 IRadAn=         5 AccDes= 0.00D+00
 Harris functional with IExCor= 4639 and IRadAn=       5 diagonalized for initial guess.
 HarFok:  IExCor= 4639 AccDes= 0.00D+00 IRadAn=         5 IDoV= 1 UseB2=F ITyADJ=14
 ICtDFT=  3500011 ScaDFX=  1.000000  1.000000  1.000000  1.000000
 FoFCou: FMM=F IPFlag=           0 FMFlag=      100000 FMFlg1=           0
         NFxFlg=           0 DoJE=T BraDBF=F KetDBF=T FulRan=T
         wScrn=  0.000000 ICntrl=       500 IOpCl=  0 I1Cent=   200000004 NGrid=           0
         NMat0=    1 NMatS0=      1 NMatT0=    0 NMatD0=    1 NMtDS0=    0 NMtDT0=    0
 Petite list used in FoFCou.
     Accept linear search using points  2 and  3.
     Minimum is close to point  2 DX=  7.82D-03 DF= -3.15D-08 DXR=  9.68D-03 DFR=  9.37D-05 which will be used.
     Accept linear search using points  1 and  2.
     Minimum is close to point  2 DX=  2.14D-04 DF= -9.09D-13 DXR=  2.14D-04 DFR=  4.62D-08 which will be used.
 SCF Done:  E(RwB97XD) =  -1194.46086110     a.u. after    8 cycles
            Convg  =    0.2776D-09                    36 Fock formations.
              S**2 =  0.0000                  -V/T =  2.0075

 **********************************************************************

            Population analysis using the SCF Density.

 **********************************************************************

 Orbital symmetries:
       Occupied  (A) (A) (A) (A) (A) (A) (A) (A) (A) (A) (A) (A)
                 (A) (A) (A) (A) (A) (A) (A) (A) (A) (A) (A) (A)
                 (A) (A) (A) (A) (A) (A) (A) (A) (A) (A) (A) (A)
                 (A) (A) (A) (A) (A) (A) (A) (A) (A) (A) (A) (A)
                 (A) (A) (A) (A) (A) (A) (A) (A) (A) (A) (A) (A)
                 (A) (A) (A) (A) (A) (A) (A) (A) (A) (A) (A) (A)
                 (A) (A) (A) (A) (A) (A) (A) (A) (A) (A)
       Virtual   (A) (A) (A) (A) (A) (A) (A) (A) (A) (A) (A) (A)
                 (A) (A) (A) (A) (A) (A) (A) (A) (A) (A) (A) (A)
                 (A) (A) (A) (A) (A) (A) (A) (A) (A) (A) (A) (A)
                 (A) (A) (A) (A) (A) (A) (A) (A) (A) (A) (A) (A)
                 (A) (A) (A) (A) (A) (A) (A) (A) (A) (A) (A) (A)
                 (A) (A) (A) (A) (A) (A) (A) (A) (A) (A) (A) (A)
                 (A) (A) (A) (A) (A) (A) (A) (A) (A) (A) (A) (A)
                 (A) (A) (A) (A) (A) (A) (A) (A) (A) (A) (A) (A)
                 (A) (A) (A) (A) (A) (A) (A) (A) (A) (A) (A) (A)
                 (A) (A) (A) (A) (A) (A) (A) (A) (A) (A) (A) (A)
                 (A) (A) (A) (A) (A) (A) (A) (A) (A) (A) (A) (A)
                 (A) (A) (A) (A) (A) (A) (A) (A) (A) (A) (A) (A)
                 (A) (A) (A) (A) (A) (A) (A) (A) (A) (A) (A) (A)
                 (A) (A) (A) (A) (A) (A) (A) (A) (A) (A) (A) (A)
                 (A) (A) (A) (A) (A) (A) (A) (A) (A) (A) (A) (A)
                 (A) (A) (A) (A) (A) (A) (A) (A) (A) (A) (A) (A)
                 (A) (A) (A) (A) (A) (A) (A) (A) (A) (A) (A) (A)
                 (A) (A) (A) (A) (A) (A) (A) (A) (A) (A) (A) (A)
                 (A) (A) (A) (A) (A) (A) (A) (A) (A) (A) (A) (A)
                 (A) (A) (A) (A) (A) (A) (A) (A) (A) (A) (A) (A)
                 (A) (A)
 The electronic state is 1-A.
 Alpha  occ. eigenvalues --  -24.81841 -24.81778 -19.29644 -19.28743 -19.27983
 Alpha  occ. eigenvalues --  -19.26525 -19.26300 -19.26173 -19.26015 -19.25973
 Alpha  occ. eigenvalues --  -10.44258 -10.43741 -10.35546 -10.35060 -10.34962
 Alpha  occ. eigenvalues --  -10.34906 -10.34679 -10.34644 -10.32647 -10.32207
 Alpha  occ. eigenvalues --   -1.30791  -1.30303  -1.16306  -1.16038  -1.14765
 Alpha  occ. eigenvalues --   -1.14480  -1.12813  -1.11710  -1.11624  -1.11539
 Alpha  occ. eigenvalues --   -0.92438  -0.91701  -0.79104  -0.78867  -0.78458
 Alpha  occ. eigenvalues --   -0.77942  -0.77763  -0.77226  -0.69715  -0.68945
 Alpha  occ. eigenvalues --   -0.67572  -0.65686  -0.64537  -0.63800  -0.62828
 Alpha  occ. eigenvalues --   -0.62264  -0.61648  -0.61239  -0.61109  -0.59910
 Alpha  occ. eigenvalues --   -0.57166  -0.56595  -0.56030  -0.54597  -0.54202
 Alpha  occ. eigenvalues --   -0.54110  -0.52957  -0.52040  -0.51644  -0.50890
 Alpha  occ. eigenvalues --   -0.50486  -0.49750  -0.49432  -0.49070  -0.48799
 Alpha  occ. eigenvalues --   -0.48270  -0.46609  -0.46275  -0.45806  -0.44909
 Alpha  occ. eigenvalues --   -0.44580  -0.44158  -0.43093  -0.41631  -0.40791
 Alpha  occ. eigenvalues --   -0.39924  -0.38884  -0.37460  -0.36125  -0.35596
 Alpha  occ. eigenvalues --   -0.35278  -0.35183
 Alpha virt. eigenvalues --    0.11789   0.12761   0.13609   0.14243   0.14583
 Alpha virt. eigenvalues --    0.16467   0.17393   0.17856   0.18197   0.18271
 Alpha virt. eigenvalues --    0.19378   0.19704   0.19912   0.20319   0.20470
 Alpha virt. eigenvalues --    0.21322   0.21952   0.22864   0.23828   0.24323
 Alpha virt. eigenvalues --    0.24546   0.25392   0.25566   0.26107   0.27152
 Alpha virt. eigenvalues --    0.27635   0.28492   0.30592   0.31799   0.32293
 Alpha virt. eigenvalues --    0.32471   0.32977   0.33345   0.34401   0.34865
 Alpha virt. eigenvalues --    0.35351   0.36563   0.37805   0.39628   0.41264
 Alpha virt. eigenvalues --    0.47344   0.49709   0.50812   0.51146   0.52311
 Alpha virt. eigenvalues --    0.53409   0.54765   0.56751   0.58821   0.59597
 Alpha virt. eigenvalues --    0.60466   0.61050   0.61318   0.61485   0.62850
 Alpha virt. eigenvalues --    0.63454   0.64101   0.64972   0.65644   0.66657
 Alpha virt. eigenvalues --    0.67441   0.68021   0.68479   0.69471   0.70913
 Alpha virt. eigenvalues --    0.71177   0.71582   0.73383   0.73730   0.75061
 Alpha virt. eigenvalues --    0.76042   0.76293   0.76419   0.76849   0.77053
 Alpha virt. eigenvalues --    0.77539   0.77881   0.78153   0.78869   0.79446
 Alpha virt. eigenvalues --    0.80056   0.80230   0.81019   0.81542   0.81707
 Alpha virt. eigenvalues --    0.82660   0.84352   0.85282   0.85588   0.86973
 Alpha virt. eigenvalues --    0.89060   0.90098   0.94800   0.96496   0.98913
 Alpha virt. eigenvalues --    0.99818   1.04695   1.06482   1.08300   1.09610
 Alpha virt. eigenvalues --    1.10005   1.11732   1.12498   1.13896   1.14094
 Alpha virt. eigenvalues --    1.16335   1.17276   1.18742   1.19957   1.22064
 Alpha virt. eigenvalues --    1.23343   1.24068   1.25733   1.26673   1.28366
 Alpha virt. eigenvalues --    1.28892   1.29514   1.31699   1.33200   1.34150
 Alpha virt. eigenvalues --    1.34431   1.36376   1.38084   1.39145   1.41120
 Alpha virt. eigenvalues --    1.44172   1.45897   1.47288   1.47760   1.48860
 Alpha virt. eigenvalues --    1.49815   1.50544   1.53138   1.55201   1.56500
 Alpha virt. eigenvalues --    1.57297   1.62310   1.64181   1.64991   1.66273
 Alpha virt. eigenvalues --    1.67020   1.70290   1.72971   1.75382   1.76091
 Alpha virt. eigenvalues --    1.77034   1.78963   1.80313   1.81781   1.82710
 Alpha virt. eigenvalues --    1.86975   1.87293   1.87900   1.89491   1.89884
 Alpha virt. eigenvalues --    1.91596   1.97238   1.97612   1.99538   2.00685
 Alpha virt. eigenvalues --    2.01276   2.02254   2.04279   2.05936   2.06781
 Alpha virt. eigenvalues --    2.08101   2.08289   2.11590   2.13023   2.13234
 Alpha virt. eigenvalues --    2.14393   2.16718   2.19037   2.19923   2.21081
 Alpha virt. eigenvalues --    2.21863   2.22556   2.22937   2.24816   2.25099
 Alpha virt. eigenvalues --    2.29293   2.30139   2.48002   2.49770   2.49918
 Alpha virt. eigenvalues --    2.51072   2.59702   2.61075   2.65072   2.65850
 Alpha virt. eigenvalues --    2.67429   2.67800   2.69358   2.69732   2.72272
 Alpha virt. eigenvalues --    2.73288   2.74040   2.74311   2.74559   2.75976
 Alpha virt. eigenvalues --    2.87617   2.88829   2.89910   2.91227   2.91765
 Alpha virt. eigenvalues --    2.92041   2.92620   2.93215   2.94690   2.99473
 Alpha virt. eigenvalues --    3.00710   3.03008   3.03159   3.03604   3.06073
 Alpha virt. eigenvalues --    3.07615   3.08876   3.09112   3.09849   3.10144
 Alpha virt. eigenvalues --    3.10584   3.11224   3.13258   3.15122   3.18332
 Alpha virt. eigenvalues --    3.18638   3.20956   3.21427   3.38619   3.39480
 Alpha virt. eigenvalues --    3.42480   3.44694   3.46522   3.46748   3.47144
 Alpha virt. eigenvalues --    3.47529   3.48354   3.49199   3.54643   3.55992
 Alpha virt. eigenvalues --    3.85307   3.85726
          Condensed to atoms (all electrons):
 Mulliken charges:
               1
     1  O   -0.524952
     2  C    0.051087
     3  C   -0.408158
     4  C    0.061675
     5  O   -0.516749
     6  C    0.069527
     7  O   -0.531643
     8  C    0.334613
     9  O   -0.426400
    10  F   -0.265030
    11  H    0.335279
    12  H    0.129142
    13  H    0.110853
    14  H    0.124264
    15  H    0.121261
    16  H    0.341606
    17  H    0.123709
    18  H    0.117307
    19  H    0.346074
    20  H    0.089269
    21  H    0.339176
    22  O   -0.510407
    23  C    0.080454
    24  C   -0.432316
    25  C    0.090476
    26  O   -0.512832
    27  C    0.032276
    28  O   -0.512796
    29  C    0.371241
    30  O   -0.492416
    31  F   -0.271189
    32  H    0.331153
    33  H    0.096394
    34  H    0.118766
    35  H    0.104263
    36  H    0.112415
    37  H    0.331939
    38  H    0.130969
    39  H    0.116294
    40  H    0.330097
    41  H    0.093756
    42  H    0.369553
 Sum of Mulliken charges =   0.00000
 Mulliken charges with hydrogens summed into heavy atoms:
               1
     1  O   -0.189673
     2  C    0.291081
     3  C   -0.408158
     4  C    0.307200
     5  O   -0.175143
     6  C    0.310543
     7  O   -0.185569
     8  C    0.423882
     9  O   -0.087223
    10  F   -0.265030
    22  O   -0.179254
    23  C    0.295614
    24  C   -0.432316
    25  C    0.307153
    26  O   -0.180893
    27  C    0.279538
    28  O   -0.182699
    29  C    0.464998
    30  O   -0.122863
    31  F   -0.271189
 Electronic spatial extent (au):  <R**2>=           7625.1318
 Charge=              0.0000 electrons
 Dipole moment (field-independent basis, Debye):
    X=             -2.1622    Y=             -1.7110    Z=              2.3895  Tot=              3.6486
   1 Symmetry operations used in ECPInt.
 ECPInt:  NShTT=   13530 NPrTT=   54282 LenC2=   12167 LenP2D=   33317.
 LDataN:  DoStor=T MaxTD1= 5 Len=  102
 Calling FoFJK, ICntrl=      2127 FMM=F ISym2X=0 I1Cent= 0 IOpClX= 0 NMat=1 NMatS=1 NMatT=0.

 GradGradGradGradGradGradGradGradGradGradGradGradGradGradGradGradGradGrad
 FormGI is forming the generalized inverse of G from B-inverse, IUseBI=4.
 Internal  Forces:  Max     0.007690493 RMS     0.002288231
 Step number   1 out of a maximum of  224
 All quantities printed in internal units (Hartrees-Bohrs-Radians)
 Mixed Optimization -- RFO/linear search
 Second derivative matrix not updated -- first step.
 ITU=  0
     Eigenvalues ---    0.00230   0.00230   0.00230   0.00230   0.00230
     Eigenvalues ---    0.00230   0.00230   0.00264   0.00287   0.01093
     Eigenvalues ---    0.01551   0.01580   0.01614   0.01614   0.01638
     Eigenvalues ---    0.01644   0.02109   0.02235   0.03484   0.04112
     Eigenvalues ---    0.04232   0.04409   0.04606   0.04711   0.04718
     Eigenvalues ---    0.04750   0.04755   0.04813   0.05015   0.05079
     Eigenvalues ---    0.05158   0.05255   0.05487   0.05547   0.05725
     Eigenvalues ---    0.05787   0.05796   0.05813   0.05934   0.06286
     Eigenvalues ---    0.06787   0.07591   0.09838   0.11664   0.11775
     Eigenvalues ---    0.11784   0.11797   0.11802   0.12501   0.13006
     Eigenvalues ---    0.13048   0.13107   0.13972   0.14014   0.14039
     Eigenvalues ---    0.14047   0.14073   0.14106   0.14194   0.14569
     Eigenvalues ---    0.14667   0.16000   0.16000   0.16000   0.16000
     Eigenvalues ---    0.16000   0.16000   0.16000   0.16000   0.19652
     Eigenvalues ---    0.20441   0.22037   0.22080   0.22084   0.22089
     Eigenvalues ---    0.22094   0.22135   0.23164   0.23328   0.25000
     Eigenvalues ---    0.27589   0.27985   0.28100   0.28103   0.28108
     Eigenvalues ---    0.28439   0.28703   0.28858   0.33057   0.33668
     Eigenvalues ---    0.33764   0.33810   0.33869   0.33934   0.34108
     Eigenvalues ---    0.34186   0.34295   0.34316   0.34334   0.34352
     Eigenvalues ---    0.34357   0.34405   0.43900   0.44243   0.44658
     Eigenvalues ---    0.44659   0.44957   0.45031   0.45936   0.47763
     Eigenvalues ---    0.48564   0.51095   0.51279   0.52379   0.52690
     Eigenvalues ---    0.52751   0.52876   0.53013   0.53159   0.54260
 Linear search not attempted -- first point.
 Iteration  1 RMS(Cart)=  0.29557186 RMS(Int)=  0.01366554
 Iteration  2 RMS(Cart)=  0.09121727 RMS(Int)=  0.00078406
 Iteration  3 RMS(Cart)=  0.00175086 RMS(Int)=  0.00008146
 Iteration  4 RMS(Cart)=  0.00000126 RMS(Int)=  0.00008146
 Iteration  5 RMS(Cart)=  0.00000000 RMS(Int)=  0.00008146
 Variable       Old X    -DE/DX   Delta X   Delta X   Delta X     New X
                                 (Linear)    (Quad)   (Total)
    R1        2.65674   0.00309   0.00000   0.00678   0.00678   2.66352
    R2        1.83641   0.00443   0.00000   0.00823   0.00823   1.84464
    R3        2.93045   0.00157   0.00000   0.00551   0.00551   2.93596
    R4        2.06770   0.00456   0.00000   0.01296   0.01296   2.08066
    R5        2.07018   0.00744   0.00000   0.02124   0.02124   2.09141
    R6        2.91914  -0.00002   0.00000  -0.00008  -0.00008   2.91906
    R7        2.91188  -0.00181   0.00000  -0.00618  -0.00618   2.90570
    R8        2.90301  -0.00164   0.00000  -0.00551  -0.00551   2.89750
    R9        2.66165   0.00510   0.00000   0.01132   0.01132   2.67297
   R10        2.07148   0.00570   0.00000   0.01631   0.01631   2.08779
   R11        2.06652   0.00509   0.00000   0.01445   0.01445   2.08096
   R12        1.84238   0.00297   0.00000   0.00558   0.00558   1.84795
   R13        2.66574   0.00367   0.00000   0.00820   0.00820   2.67394
   R14        2.07442   0.00447   0.00000   0.01284   0.01284   2.08726
   R15        2.06801   0.00629   0.00000   0.01788   0.01788   2.08589
   R16        1.85476   0.00379   0.00000   0.00729   0.00729   1.86206
   R17        3.18941  -0.00506   0.00000  -0.05990  -0.05990   3.12952
   R18        2.58597   0.00116   0.00000   0.00222   0.00222   2.58818
   R19        2.62192  -0.00073   0.00000  -0.00151  -0.00151   2.62042
   R20        2.08951   0.00242   0.00000   0.00714   0.00714   2.09665
   R21        1.82495   0.00217   0.00000   0.00394   0.00394   1.82889
   R22        2.65239   0.00401   0.00000   0.00873   0.00873   2.66112
   R23        1.83887   0.00226   0.00000   0.00422   0.00422   1.84309
   R24        2.91920  -0.00048   0.00000  -0.00164  -0.00164   2.91755
   R25        2.07894   0.00664   0.00000   0.01923   0.01923   2.09817
   R26        2.06732   0.00513   0.00000   0.01457   0.01457   2.08189
   R27        2.91903   0.00014   0.00000   0.00048   0.00048   2.91951
   R28        2.92172   0.00031   0.00000   0.00109   0.00109   2.92281
   R29        2.90626  -0.00054   0.00000  -0.00182  -0.00182   2.90444
   R30        2.65325   0.00447   0.00000   0.00976   0.00976   2.66301
   R31        2.06835   0.00641   0.00000   0.01823   0.01823   2.08658
   R32        2.07551   0.00520   0.00000   0.01497   0.01497   2.09049
   R33        1.83945   0.00198   0.00000   0.00369   0.00369   1.84314
   R34        2.65674   0.00460   0.00000   0.01010   0.01010   2.66684
   R35        2.06740   0.00535   0.00000   0.01520   0.01520   2.08260
   R36        2.07652   0.00510   0.00000   0.01471   0.01471   2.09124
   R37        1.83770   0.00215   0.00000   0.00400   0.00400   1.84170
   R38        2.56805   0.00500   0.00000   0.00926   0.00926   2.57731
   R39        2.64203   0.00061   0.00000   0.00130   0.00130   2.64333
   R40        2.07730   0.00259   0.00000   0.00747   0.00747   2.08477
   R41        1.88043  -0.00144   0.00000  -0.00291  -0.00291   1.87752
    A1        1.91543   0.00009   0.00000   0.00054   0.00054   1.91596
    A2        1.99649   0.00129   0.00000   0.00688   0.00684   2.00333
    A3        1.85377   0.00045   0.00000   0.00924   0.00917   1.86294
    A4        1.94099  -0.00226   0.00000  -0.01840  -0.01839   1.92260
    A5        1.87415  -0.00024   0.00000   0.00332   0.00325   1.87740
    A6        1.90078   0.00145   0.00000   0.00789   0.00791   1.90870
    A7        1.89359  -0.00078   0.00000  -0.00915  -0.00915   1.88444
    A8        1.92350  -0.00011   0.00000  -0.00083  -0.00117   1.92233
    A9        1.97765  -0.00072   0.00000  -0.01628  -0.01632   1.96133
   A10        1.86227   0.00045   0.00000   0.00945   0.00935   1.87162
   A11        1.91997  -0.00052   0.00000  -0.00949  -0.00958   1.91039
   A12        1.89878   0.00139   0.00000   0.02159   0.02156   1.92035
   A13        1.87885  -0.00036   0.00000  -0.00211  -0.00201   1.87684
   A14        1.96486  -0.00677   0.00000  -0.02881  -0.02876   1.93610
   A15        1.89560   0.00295   0.00000   0.01836   0.01843   1.91403
   A16        1.91294   0.00178   0.00000   0.00552   0.00542   1.91836
   A17        1.93404   0.00227   0.00000   0.01382   0.01397   1.94800
   A18        1.85859   0.00179   0.00000   0.00228   0.00222   1.86082
   A19        1.89661  -0.00197   0.00000  -0.01141  -0.01148   1.88513
   A20        1.85446  -0.00001   0.00000  -0.00003  -0.00003   1.85443
   A21        1.98818  -0.00715   0.00000  -0.03210  -0.03215   1.95603
   A22        1.89305   0.00383   0.00000   0.02698   0.02713   1.92018
   A23        1.91790   0.00058   0.00000  -0.00650  -0.00671   1.91119
   A24        1.90439   0.00168   0.00000   0.01104   0.01127   1.91566
   A25        1.86783   0.00264   0.00000   0.00452   0.00416   1.87199
   A26        1.89034  -0.00145   0.00000  -0.00334  -0.00336   1.88698
   A27        1.85481   0.00467   0.00000   0.02331   0.02293   1.87775
   A28        1.97511  -0.00445   0.00000  -0.03185  -0.03200   1.94311
   A29        2.01067  -0.00208   0.00000  -0.02498  -0.02495   1.98572
   A30        1.93300  -0.00277   0.00000  -0.01348  -0.01355   1.91945
   A31        1.91402   0.00054   0.00000   0.00622   0.00623   1.92025
   A32        1.92610   0.00114   0.00000   0.00283   0.00266   1.92875
   A33        1.89711   0.00172   0.00000   0.01073   0.01079   1.90790
   A34        1.96483  -0.00056   0.00000  -0.01448  -0.01457   1.95027
   A35        1.82525   0.00017   0.00000   0.01028   0.01027   1.83552
   A36        1.91722  -0.00213   0.00000  -0.01263  -0.01263   1.90459
   A37        1.86907  -0.00074   0.00000  -0.00437  -0.00437   1.86471
   A38        1.97988  -0.00331   0.00000  -0.01286  -0.01284   1.96705
   A39        1.92747   0.00160   0.00000   0.01108   0.01109   1.93856
   A40        1.85416   0.00124   0.00000   0.00607   0.00606   1.86022
   A41        1.89868   0.00094   0.00000   0.00434   0.00437   1.90305
   A42        1.91290   0.00081   0.00000   0.00196   0.00197   1.91487
   A43        1.88849  -0.00123   0.00000  -0.01082  -0.01083   1.87766
   A44        1.92847  -0.00053   0.00000  -0.01285  -0.01288   1.91559
   A45        1.92016   0.00018   0.00000  -0.00299  -0.00309   1.91707
   A46        1.88745  -0.00069   0.00000  -0.00308  -0.00304   1.88441
   A47        1.92942  -0.00084   0.00000  -0.00682  -0.00699   1.92242
   A48        1.87375   0.00080   0.00000   0.00946   0.00944   1.88319
   A49        1.92366   0.00110   0.00000   0.01679   0.01680   1.94046
   A50        1.97713  -0.00354   0.00000  -0.01392  -0.01392   1.96322
   A51        1.91190   0.00119   0.00000   0.00251   0.00247   1.91438
   A52        1.89979   0.00109   0.00000   0.00767   0.00769   1.90748
   A53        1.85451   0.00064   0.00000  -0.00177  -0.00180   1.85271
   A54        1.93235   0.00202   0.00000   0.01638   0.01641   1.94876
   A55        1.88577  -0.00136   0.00000  -0.01135  -0.01134   1.87443
   A56        1.86702  -0.00082   0.00000  -0.00488  -0.00488   1.86214
   A57        1.97293  -0.00337   0.00000  -0.01224  -0.01222   1.96071
   A58        1.92814   0.00105   0.00000   0.00281   0.00281   1.93095
   A59        1.89701   0.00110   0.00000   0.00605   0.00607   1.90309
   A60        1.84465   0.00112   0.00000   0.00472   0.00472   1.84938
   A61        1.92566   0.00178   0.00000   0.01400   0.01402   1.93968
   A62        1.89383  -0.00166   0.00000  -0.01583  -0.01583   1.87800
   A63        1.87118  -0.00102   0.00000  -0.00603  -0.00603   1.86515
   A64        2.02287  -0.00143   0.00000  -0.00801  -0.00807   2.01481
   A65        1.89281  -0.00070   0.00000  -0.00039  -0.00038   1.89243
   A66        1.92800   0.00018   0.00000  -0.00268  -0.00278   1.92522
   A67        1.89970   0.00160   0.00000   0.00924   0.00926   1.90896
   A68        1.87575  -0.00034   0.00000  -0.00973  -0.00982   1.86593
   A69        1.83550   0.00095   0.00000   0.01400   0.01402   1.84952
   A70        1.94144   0.00383   0.00000   0.02270   0.02270   1.96414
   A71        2.85726  -0.00769   0.00000  -0.02974  -0.02974   2.82752
    D1       -1.55758  -0.00146   0.00000  -0.04990  -0.04986  -1.60744
    D2        2.66163  -0.00221   0.00000  -0.06416  -0.06419   2.59744
    D3        0.60471  -0.00035   0.00000  -0.04884  -0.04886   0.55585
    D4       -0.87695   0.00003   0.00000  -0.02240  -0.02243  -0.89938
    D5        1.28290  -0.00126   0.00000  -0.04737  -0.04736   1.23555
    D6       -2.93570  -0.00182   0.00000  -0.05313  -0.05315  -2.98884
    D7        1.17541   0.00120   0.00000  -0.00458  -0.00459   1.17083
    D8       -2.94792  -0.00009   0.00000  -0.02955  -0.02952  -2.97743
    D9       -0.88333  -0.00066   0.00000  -0.03532  -0.03531  -0.91864
   D10       -3.06060   0.00092   0.00000  -0.00941  -0.00943  -3.07003
   D11       -0.90075  -0.00037   0.00000  -0.03438  -0.03436  -0.93510
   D12        1.16384  -0.00094   0.00000  -0.04014  -0.04015   1.12369
   D13        1.13792   0.00016   0.00000   0.04753   0.04748   1.18539
   D14       -1.01051  -0.00029   0.00000   0.03616   0.03620  -0.97431
   D15       -3.08018  -0.00067   0.00000   0.03594   0.03592  -3.04426
   D16       -1.05502   0.00153   0.00000   0.07576   0.07571  -0.97932
   D17        3.07973   0.00108   0.00000   0.06439   0.06443  -3.13902
   D18        1.01006   0.00070   0.00000   0.06417   0.06416   1.07421
   D19       -3.10915   0.00145   0.00000   0.07104   0.07102  -3.03814
   D20        1.02560   0.00100   0.00000   0.05966   0.05974   1.08534
   D21       -1.04407   0.00062   0.00000   0.05945   0.05947  -0.98461
   D22       -1.16367   0.00012   0.00000  -0.03665  -0.03682  -1.20049
   D23        2.99521  -0.00005   0.00000  -0.04902  -0.04899   2.94622
   D24        0.93176  -0.00089   0.00000  -0.05718  -0.05712   0.87464
   D25        0.99811  -0.00094   0.00000  -0.05682  -0.05693   0.94118
   D26       -1.12620  -0.00111   0.00000  -0.06920  -0.06910  -1.19530
   D27        3.09354  -0.00195   0.00000  -0.07736  -0.07723   3.01631
   D28        3.06456   0.00022   0.00000  -0.03741  -0.03757   3.02699
   D29        0.94025   0.00005   0.00000  -0.04979  -0.04974   0.89051
   D30       -1.12320  -0.00079   0.00000  -0.05794  -0.05787  -1.18107
   D31        1.05506  -0.00032   0.00000  -0.00154  -0.00146   1.05360
   D32       -3.13437   0.00041   0.00000   0.00729   0.00733  -3.12704
   D33       -1.13264   0.00157   0.00000   0.02485   0.02492  -1.10772
   D34       -1.01986  -0.00118   0.00000  -0.01724  -0.01727  -1.03713
   D35        1.07390  -0.00045   0.00000  -0.00841  -0.00849   1.06541
   D36        3.07563   0.00071   0.00000   0.00915   0.00910   3.08473
   D37       -3.09989  -0.00112   0.00000  -0.01669  -0.01669  -3.11658
   D38       -1.00613  -0.00039   0.00000  -0.00787  -0.00790  -1.01404
   D39        0.99560   0.00077   0.00000   0.00969   0.00969   1.00529
   D40       -1.03774   0.00042   0.00000   0.02754   0.02760  -1.01014
   D41        1.08906   0.00110   0.00000   0.04097   0.04094   1.13000
   D42       -3.13447   0.00102   0.00000   0.03608   0.03604  -3.09843
   D43       -0.71478  -0.00139   0.00000  -0.05628  -0.05617  -0.77094
   D44        1.50881  -0.00361   0.00000  -0.09289  -0.09295   1.41586
   D45        1.40325  -0.00007   0.00000  -0.03522  -0.03514   1.36810
   D46       -2.65635  -0.00230   0.00000  -0.07183  -0.07193  -2.72828
   D47       -2.83817   0.00053   0.00000  -0.03096  -0.03088  -2.86904
   D48       -0.61458  -0.00170   0.00000  -0.06756  -0.06766  -0.68225
   D49       -1.07287  -0.00237   0.00000  -0.16414  -0.16457  -1.23744
   D50        1.06627  -0.00136   0.00000  -0.17889  -0.17846   0.88781
   D51        3.03340   0.00145   0.00000   0.04465   0.04453   3.07793
   D52        0.92956   0.00139   0.00000   0.03841   0.03839   0.96795
   D53       -1.08408   0.00044   0.00000   0.02744   0.02758  -1.05650
   D54        1.00180  -0.00075   0.00000  -0.03046  -0.03047   0.97134
   D55       -1.13483  -0.00080   0.00000  -0.03522  -0.03519  -1.17002
   D56        3.10439  -0.00088   0.00000  -0.03157  -0.03159   3.07280
   D57       -1.10765  -0.00002   0.00000  -0.03061  -0.03059  -1.13824
   D58        1.02759  -0.00131   0.00000  -0.04979  -0.04978   0.97781
   D59        3.12941  -0.00028   0.00000  -0.03300  -0.03301   3.09640
   D60        1.04485   0.00045   0.00000  -0.02199  -0.02197   1.02288
   D61       -3.10309  -0.00084   0.00000  -0.04116  -0.04116   3.13893
   D62       -1.00127   0.00019   0.00000  -0.02437  -0.02439  -1.02566
   D63        3.10651  -0.00003   0.00000  -0.03139  -0.03137   3.07514
   D64       -1.04143  -0.00131   0.00000  -0.05056  -0.05056  -1.09200
   D65        1.06039  -0.00028   0.00000  -0.03377  -0.03379   1.02660
   D66        1.01863  -0.00120   0.00000  -0.07348  -0.07343   0.94520
   D67       -1.04839  -0.00057   0.00000  -0.06410  -0.06406  -1.11245
   D68       -3.10684  -0.00025   0.00000  -0.05631  -0.05627   3.12008
   D69       -1.11117  -0.00051   0.00000  -0.05641  -0.05645  -1.16762
   D70        3.10499   0.00013   0.00000  -0.04703  -0.04708   3.05791
   D71        1.04654   0.00045   0.00000  -0.03924  -0.03929   1.00725
   D72        3.07319  -0.00186   0.00000  -0.07869  -0.07868   2.99450
   D73        1.00616  -0.00122   0.00000  -0.06930  -0.06931   0.93685
   D74       -1.05228  -0.00090   0.00000  -0.06152  -0.06152  -1.11380
   D75       -1.12307  -0.00040   0.00000  -0.03861  -0.03861  -1.16167
   D76        3.09718  -0.00034   0.00000  -0.03854  -0.03854   3.05865
   D77        1.02113   0.00039   0.00000  -0.02459  -0.02459   0.99654
   D78        1.01161  -0.00151   0.00000  -0.06137  -0.06134   0.95027
   D79       -1.05132  -0.00145   0.00000  -0.06130  -0.06128  -1.11260
   D80       -3.12738  -0.00072   0.00000  -0.04734  -0.04733   3.10848
   D81        3.08029  -0.00035   0.00000  -0.04340  -0.04342   3.03687
   D82        1.01736  -0.00029   0.00000  -0.04333  -0.04335   0.97401
   D83       -1.05870   0.00044   0.00000  -0.02937  -0.02940  -1.08810
   D84        3.01092  -0.00093   0.00000  -0.01051  -0.01049   3.00043
   D85       -1.13038  -0.00039   0.00000  -0.00432  -0.00432  -1.13470
   D86        0.87264   0.00045   0.00000   0.01076   0.01074   0.88339
   D87        0.92985  -0.00037   0.00000   0.00116   0.00123   0.93108
   D88        3.07174   0.00017   0.00000   0.00735   0.00741   3.07915
   D89       -1.20842   0.00101   0.00000   0.02243   0.02247  -1.18596
   D90       -1.17263  -0.00048   0.00000  -0.00608  -0.00612  -1.17874
   D91        0.96926   0.00006   0.00000   0.00011   0.00006   0.96932
   D92        2.97228   0.00090   0.00000   0.01519   0.01512   2.98740
   D93        1.01153  -0.00051   0.00000  -0.02195  -0.02199   0.98954
   D94        3.11149  -0.00070   0.00000  -0.02824  -0.02821   3.08328
   D95       -1.12823  -0.00090   0.00000  -0.03422  -0.03422  -1.16245
   D96        1.02524  -0.00058   0.00000  -0.02405  -0.02406   1.00118
   D97        3.13623  -0.00051   0.00000  -0.02459  -0.02460   3.11163
   D98       -1.10296  -0.00094   0.00000  -0.03354  -0.03352  -1.13648
   D99        1.06794  -0.00026   0.00000  -0.00638  -0.00643   1.06151
   D100      -1.07032   0.00041   0.00000  -0.00747  -0.00747  -1.07778
   D101      -3.04962  -0.00130   0.00000  -0.02337  -0.02331  -3.07294
   D102       2.08803  -0.00389   0.00000  -0.19966  -0.19966   1.88837
         Item               Value     Threshold  Converged?
 Maximum Force            0.007690     0.000015     NO 
 RMS     Force            0.002288     0.000010     NO 
 Maximum Displacement     1.148603     0.000060     NO 
 RMS     Displacement     0.376769     0.000040     NO 
 GradGradGradGradGradGradGradGradGradGradGradGradGradGradGradGradGradGrad

                    Distance matrix (angstroms):
                    1          2          3          4          5
     1  O    0.000000
     2  C    1.409476   0.000000
     3  C    2.497255   1.553645   0.000000
     4  C    2.931667   2.540212   1.544700   0.000000
     5  O    2.724352   3.017651   2.438827   1.414474   0.000000
     6  C    3.148627   2.568456   1.537630   2.516498   2.876825
     7  O    3.002790   3.082161   2.449827   2.875432   2.492481
     8  C    3.773615   2.485258   1.533289   2.521778   3.773308
     9  O    4.087808   2.833583   2.379427   2.874815   4.210751
    10  F    4.872029   3.722708   2.393691   2.899936   4.157228
    11  H    0.976143   1.967365   2.940292   3.571058   3.198957
    12  H    2.023072   1.101038   2.158404   2.804560   3.487763
    13  H    2.070391   1.106728   2.186021   3.496943   3.978595
    14  H    3.163598   2.741326   2.180680   1.104813   2.091060
    15  H    3.984364   3.497356   2.181169   1.101199   2.025894
    16  H    1.922737   2.584304   2.557311   1.931627   0.977894
    17  H    4.179760   3.514566   2.178773   2.827707   3.333104
    18  H    3.413163   2.732650   2.171628   3.474299   3.851148
    19  H    2.974354   3.214663   2.497836   2.351546   1.645432
    20  H    4.111551   2.753151   2.184956   3.493583   4.605770
    21  H    5.022381   3.722392   3.229408   3.732149   5.108900
    22  O    6.657144   6.586884   7.045463   8.364454   8.307169
    23  C    5.368258   5.369764   6.019613   7.317348   7.247046
    24  C    4.418654   4.602769   5.084225   6.221797   5.975960
    25  C    5.208101   5.709124   6.159175   7.070107   6.538836
    26  O    6.559743   6.944167   7.275084   8.243303   7.756679
    27  C    4.752528   4.631025   4.635188   5.807973   5.714778
    28  O    6.148358   6.018189   5.896728   7.031213   6.916246
    29  C    3.005584   3.382547   4.184629   5.231973   4.963484
    30  O    2.391571   3.168163   3.789592   4.489199   3.922158
    31  F    2.703044   2.501407   3.389920   4.677972   4.791227
    32  H    6.957378   7.052970   7.489196   8.709425   8.502026
    33  H    5.534663   5.717557   6.587758   7.816917   7.659344
    34  H    5.204340   4.948050   5.617904   7.026790   7.163937
    35  H    5.319143   5.984995   6.664019   7.526170   6.928730
    36  H    4.960484   5.586086   5.875645   6.588433   5.898988
    37  H    6.694773   6.934444   7.069788   8.061168   7.652428
    38  H    4.415102   4.402437   4.177506   5.144476   4.916142
    39  H    4.630011   4.190567   4.147052   5.490177   5.666757
    40  H    6.593132   6.407031   6.432177   7.675028   7.635631
    41  H    3.342316   3.900812   4.968263   5.944590   5.623494
    42  H    2.503064   3.035732   3.235246   3.900848   3.356466
                    6          7          8          9         10
     6  C    0.000000
     7  O    1.414987   0.000000
     8  C    2.477082   3.751493   0.000000
     9  O    3.695068   4.815466   1.369607   0.000000
    10  F    2.817045   4.088485   1.386665   2.248334   0.000000
    11  H    3.128628   2.756427   4.247240   4.777008   5.294131
    12  H    3.489383   4.090637   2.618683   2.392030   3.925008
    13  H    2.761957   3.402666   2.748190   3.254837   4.019229
    14  H    3.478446   3.898453   2.778575   2.569697   3.302439
    15  H    2.767326   3.218914   2.733957   3.192126   2.545053
    16  H    3.114933   2.641237   3.990351   4.333514   4.654645
    17  H    1.104530   2.068551   2.638030   3.922113   2.392517
    18  H    1.103803   2.036479   2.769864   4.026627   3.271193
    19  H    1.953377   0.985359   3.893046   4.782853   4.164967
    20  H    2.699317   4.055850   1.109501   2.057331   1.989701
    21  H    4.389914   5.612036   1.918602   0.967809   2.407108
    22  O    6.168103   6.147127   7.546509   8.547231   8.241431
    23  C    5.338445   5.305063   6.622723   7.521192   7.477117
    24  C    4.243818   3.938954   5.949311   6.941092   6.720044
    25  C    5.227351   4.539903   7.209844   8.208519   7.907751
    26  O    6.192452   5.578466   8.207745   9.289619   8.793478
    27  C    3.464999   3.359694   5.342722   6.527015   5.841922
    28  O    4.596216   4.459198   6.490402   7.737311   6.809435
    29  C    3.749916   3.436196   5.201348   5.996913   6.173173
    30  O    3.357760   2.619059   5.096924   5.880395   5.968985
    31  F    3.244877   3.473285   4.118783   4.849852   5.207101
    32  H    6.522932   6.298596   8.133086   9.168794   8.792881
    33  H    6.069215   5.930514   7.269234   8.039870   8.238939
    34  H    5.095449   5.345410   6.003745   6.837355   6.904790
    35  H    5.927463   5.207114   7.763155   8.637595   8.588331
    36  H    4.878685   3.948213   7.064069   8.086088   7.665541
    37  H    5.853298   5.321030   7.918181   9.084237   8.372691
    38  H    2.850758   2.462792   5.068444   6.292276   5.442808
    39  H    3.111295   3.464374   4.585264   5.764811   5.110498
    40  H    5.246878   5.234128   6.911789   8.105968   7.314559
    41  H    4.747595   4.407211   5.965343   6.592121   7.048958
    42  H    2.539610   1.656068   4.575525   5.500416   5.276067
                   11         12         13         14         15
    11  H    0.000000
    12  H    2.800619   0.000000
    13  H    2.191118   1.785787   0.000000
    14  H    3.998435   2.556160   3.775833   0.000000
    15  H    4.534382   3.765747   4.338377   1.784815   0.000000
    16  H    2.444705   3.052887   3.549360   2.345813   2.826043
    17  H    4.215640   4.301707   3.726725   3.821035   2.629066
    18  H    3.188836   3.699638   2.463743   4.319660   3.801511
    19  H    2.959183   4.078506   3.816464   3.364559   2.679145
    20  H    4.406378   2.990939   2.550484   3.806460   3.746751
    21  H    5.678269   3.254781   3.985626   3.415319   3.865732
    22  O    5.830881   7.452559   5.689519   9.076514   8.899932
    23  C    4.552859   6.202022   4.483060   7.948945   7.966761
    24  C    3.526907   5.580824   3.944481   6.958084   6.840106
    25  C    4.241562   6.707475   5.228206   7.853077   7.670852
    26  O    5.604867   7.956674   6.378997   9.082595   8.747862
    27  C    4.005875   5.672482   4.031591   6.679739   6.204130
    28  O    5.381564   7.054093   5.398660   7.957541   7.301789
    29  C    2.107165   4.299047   2.847620   5.823916   6.023114
    30  O    1.443021   4.137122   3.092105   5.140554   5.281904
    31  F    2.153044   3.332779   1.654286   5.162395   5.470516
    32  H    6.064798   7.972146   6.244064   9.469158   9.238872
    33  H    4.706868   6.463344   4.865385   8.360617   8.567583
    34  H    4.528838   5.681280   3.942081   7.582086   7.671724
    35  H    4.348015   6.896466   5.516973   8.207570   8.235540
    36  H    4.023458   6.622380   5.306482   7.427223   7.134018
    37  H    5.781980   7.981812   6.369656   8.963647   8.457901
    38  H    3.718519   5.492789   4.057593   6.101908   5.465988
    39  H    4.039353   5.153748   3.467356   6.295029   5.865357
    40  H    5.814210   7.388623   5.652921   8.540434   8.000153
    41  H    2.496887   4.643434   3.367090   6.398687   6.830491
    42  H    1.764105   4.094810   3.077738   4.707274   4.557859
                   16         17         18         19         20
    16  H    0.000000
    17  H    3.829317   0.000000
    18  H    3.904386   1.787890   0.000000
    19  H    1.985774   2.433439   2.839523   0.000000
    20  H    4.709556   2.917085   2.530399   4.437202   0.000000
    21  H    5.286325   4.461851   4.627612   5.625906   2.317615
    22  O    7.937457   6.784064   5.186403   7.077491   6.815696
    23  C    6.783804   6.119061   4.408805   6.176151   5.969926
    24  C    5.561815   5.050783   3.483264   4.793288   5.504716
    25  C    6.105196   5.985171   4.661410   5.281893   6.888508
    26  O    7.404371   6.805034   5.534493   6.378039   7.785001
    27  C    5.549933   4.012993   2.631225   4.329113   4.871385
    28  O    6.830512   4.911572   3.789932   5.416017   5.954231
    29  C    4.386367   4.761018   3.203786   4.111329   4.923402
    30  O    3.331220   4.371801   3.215475   3.089885   5.104724
    31  F    4.282429   4.253402   2.575514   4.147795   3.712398
    32  H    8.126433   7.135732   5.624394   7.202361   7.485134
    33  H    7.076484   6.943947   5.218538   6.719539   6.667246
    34  H    6.725435   5.858047   4.091639   6.215315   5.242351
    35  H    6.362702   6.785295   5.399446   5.851187   7.464783
    36  H    5.530478   5.587205   4.525326   4.590600   6.898966
    37  H    7.415370   6.333683   5.176064   6.172060   7.473409
    38  H    4.854704   3.341584   2.317719   3.412173   4.811846
    39  H    5.541160   3.621447   2.076145   4.432628   3.965620
    40  H    7.482546   5.611901   4.324106   6.206006   6.251379
    41  H    4.908888   5.794549   4.235902   4.971419   5.685245
    42  H    2.986817   3.480411   2.542638   2.242576   4.654086
                   21         22         23         24         25
    21  H    0.000000
    22  O    9.024445   0.000000
    23  C    8.071332   1.408205   0.000000
    24  C    7.603253   2.458647   1.543902   0.000000
    25  C    8.935021   3.004700   2.526438   1.544939   0.000000
    26  O    9.950737   2.668520   2.894924   2.457210   1.409205
    27  C    7.107918   2.918261   2.529184   1.546686   2.534777
    28  O    8.243476   2.705420   3.016900   2.458287   2.906065
    29  C    6.752598   3.765811   2.491980   1.536962   2.491719
[...]
 0011958,0.00001412,0.00001778,0.00001940,-0.00000720,0.00000155,-0.000
 01007,0.00003229,0.00001470,-0.00000075,-0.00000447,-0.00001236,-0.000
 00560,-0.00004863,-0.00007833,-0.00000464,0.00009207,-0.00003388,-0.00
 000578,-0.00013449,0.00010506,-0.00012263,0.00014933,-0.00046863,0.000
 19733,0.00000075,-0.00000278,-0.00000018,-0.00001148,0.00000682,-0.000
 01371,0.00015183,0.00041981,0.00145336,0.00011113,-0.00463592,-0.00314
 114,0.01384878,0.01167290,-0.01332418,-0.00083743,0.00126824,0.0005397
 4,-0.00001205,-0.00014282,0.00029895,0.11002288,0.08368831,-0.15027661
 ,-0.02349707,-0.01635599,0.01443087,0.00217297,0.00116626,-0.00061124,
 -0.00083269,-0.00030647,0.00115972,-0.00064166,-0.00019549,0.00018718,
 -0.00005082,0.00006029,-0.00027091,0.00120483,0.00057974,-0.00089107,-
 0.00019304,-0.00022630,0.00031476,-0.00032461,0.00001781,0.00006336,0.
 00010834,-0.00072370,0.00046343,0.00019980,-0.00020465,-0.00010538,-0.
 10409179,-0.07717710,0.15853964,0.00000023,0.00000468,-0.00000305,0.00
 002062,0.00000838,0.00001088,-0.00003607,0.00005521,0.00000624,0.00000
 878,-0.00001062,0.00002385,-0.00001561,0.00000308,-0.00001018,-0.00021
 228,-0.00018710,0.00001330,-0.00006766,0.00027465,-0.00023943,-0.00002
 037,-0.00000965,-0.00000321,0.00001626,0.00000509,0.00000188,0.0000086
 3,-0.00000442,0.00000258,-0.00000637,0.00000295,-0.00000457,0.00000107
 ,0.00000167,0.00000266,0.00000027,-0.00000308,-0.00001351,0.00000323,0
 .00000778,-0.00000742,0.00000033,-0.00000187,-0.00000297,0.00000130,0.
 00000075,0.00000724,-0.00000097,0.00003571,0.00000630,-0.00081367,-0.0
 0020256,-0.00006414,0.00000650,-0.00000316,0.00002085,0.00000027,0.000
 00514,-0.00000934,-0.00000192,0.00000387,-0.00000249,0.00005106,-0.000
 35643,0.00095582,-0.00014205,0.00078512,-0.00152960,-0.00363993,0.0118
 1362,-0.00218609,-0.00006305,0.00057934,0.00207143,-0.00012901,0.00019
 353,0.00039850,-0.09960452,0.08517599,-0.03537111,-0.02264817,0.015105
 53,-0.02217252,-0.00110246,0.00077332,-0.00037196,0.00005729,-0.000051
 22,-0.00018398,-0.00010738,-0.00170065,-0.00129484,0.00022423,0.000137
 31,-0.00045016,0.00033769,-0.00019234,0.00004849,-0.00014613,-0.000335
 49,0.00068946,-0.00002028,0.00067501,-0.00033805,0.00008833,0.00023487
 ,-0.00013417,0.00050992,-0.00139298,-0.00024219,0.01214258,-0.01630652
 ,0.00743176,0.11406486,-0.00016162,0.00018471,-0.00001180,0.00007274,-
 0.00021918,0.00002891,0.00001162,0.00020245,-0.00019297,0.00007823,-0.
 00010424,0.00014597,-0.00001131,0.00013669,-0.00003367,-0.00012766,-0.
 00074376,0.00057276,-0.00044223,0.00050544,-0.00015946,-0.00019258,-0.
 00000684,-0.00002945,0.00013744,0.00001252,0.00004331,0.00006451,-0.00
 000664,0.00000153,0.00018059,-0.00006356,0.00001511,0.00000937,0.00003
 667,0.00001071,-0.00001703,0.00001735,-0.00005354,0.00003327,0.0000452
 9,-0.00002483,-0.00000967,-0.00000408,-0.00000263,0.00000758,-0.000062
 59,0.00000098,0.00000390,0.00008322,-0.00004274,-0.00039888,0.00012165
 ,-0.00027350,-0.00005597,-0.00010007,0.00003188,-0.00000329,0.00002970
 ,-0.00002809,-0.00002633,0.00000430,-0.00000910,0.00028405,0.00036690,
 -0.00016219,-0.00118472,0.00032694,0.00120310,0.00770225,-0.01608297,0
 .00775042,-0.00003120,-0.00168803,-0.00494887,0.00048209,0.00088569,0.
 00077523,0.08882394,-0.22249672,0.08188033,-0.00816894,0.01730945,-0.0
 0847913,0.00293885,-0.00275551,0.00162111,-0.00076099,0.00049796,-0.00
 054061,-0.00130235,0.00289698,0.00016981,-0.00021207,-0.00022983,0.000
 18827,-0.00031360,0.00016383,-0.00011324,0.00045002,0.00059635,-0.0007
 0989,0.00095953,-0.00099141,0.00035429,-0.00008733,0.00047585,-0.00010
 991,-0.00004899,-0.00058326,-0.00043404,0.00710659,-0.00995023,0.00411
 925,-0.09684844,0.23024047,0.00007166,-0.00005806,-0.00001772,-0.00007
 658,0.00005740,0.00004357,0.00001827,-0.00014707,0.00011284,-0.0000615
 3,0.00004710,-0.00008351,0.00002444,-0.00006379,0.00001040,-0.00001770
 ,0.00034470,-0.00026851,0.00033695,-0.00029471,0.00009525,0.00009373,0
 .00004886,0.00009234,-0.00006786,-0.00001836,-0.00004395,-0.00002603,-
 0.00003573,-0.00005241,-0.00007036,-0.00000936,0.00000253,0.00000676,-
 0.00001012,-0.00002065,-0.00001340,0.00001362,-0.00000083,-0.00001765,
 -0.00002677,0.00001464,0.00000958,0.00000611,-0.00000666,-0.00000862,0
 .00002284,0.00001071,0.00008166,-0.00002439,-0.00004047,-0.00002338,0.
 00001284,0.00035746,0.00002772,0.00002905,-0.00002327,-0.00000190,-0.0
 0000794,0.00001017,0.00001054,0.00000046,0.00001203,0.00006124,0.00047
 750,0.00058824,-0.00024635,-0.00135627,0.00141250,0.01169364,-0.019619
 75,0.00896133,0.00017093,-0.00274988,-0.00503307,0.00002368,0.00150154
 ,0.00092734,-0.03807148,0.08128726,-0.08773583,-0.02191108,0.01202827,
 -0.01317834,0.00051724,-0.00035483,0.00127465,0.00006116,0.00014081,-0
 .00006906,-0.00115564,-0.00022422,-0.00206806,0.00004501,-0.00019954,-
 0.00020832,-0.00023520,0.00010586,0.00015832,0.00013996,0.00042126,-0.
 00050616,0.00074613,-0.00131301,0.00065439,-0.00004885,-0.00005143,0.0
 0002161,0.00078380,-0.00151797,-0.00048376,-0.00833378,0.01449101,-0.0
 0454921,0.05392301,-0.08298603,0.10028431,0.00000311,0.00007408,0.0000
 4932,0.00002811,-0.00005644,-0.00002512,0.00000033,0.00002503,-0.00003
 636,-0.00001383,-0.00001968,0.00004141,0.00008827,0.00007913,0.0000162
 0,-0.00009342,-0.00010717,0.00004934,0.00009439,0.00015434,0.00012689,
 -0.00014273,-0.00001027,-0.00007673,0.00012705,0.00000558,0.00006344,0
 .00005002,0.00001277,0.00003809,-0.00002193,-0.00004925,-0.00004035,0.
 00001000,0.00001507,0.00001330,-0.00001059,0.00000177,-0.00002113,0.00
 002191,0.00001751,-0.00000003,-0.00001115,-0.00000494,0.00000035,-0.00
 001865,-0.00004792,-0.00001629,-0.00002848,0.00001066,0.00001422,-0.00
 001971,-0.00000657,-0.00008045,-0.00011773,-0.00010007,-0.00001947,0.0
 0000213,0.00001207,-0.00001341,-0.00002383,0.00000171,-0.00001793,-0.0
 0801986,-0.00173647,-0.00387291,0.00690505,0.00041722,-0.00022380,0.00
 171479,-0.00016948,-0.00039367,0.00108026,0.00009258,0.00048002,-0.002
 47618,-0.00047201,0.00086951,-0.02881027,-0.02201093,0.01450979,-0.207
 48415,-0.13632951,0.12986558,-0.00059753,-0.00008002,0.00078428,-0.000
 20078,0.00004568,0.00001759,-0.00017812,0.00039740,0.00021711,-0.00157
 549,0.00342959,0.00260405,-0.00138266,-0.00078313,-0.00056788,-0.00050
 549,0.00005452,-0.00045430,-0.00021881,0.00021091,-0.00004417,-0.00028
 723,-0.00021120,-0.00000419,0.00337557,0.00062975,-0.00149339,-0.00267
 925,-0.00070452,-0.00412238,0.00092659,0.00058046,0.00177406,0.2401966
 0,0.00030849,-0.00009485,0.00000500,-0.00010575,0.00013282,0.00002904,
 0.00001620,-0.00006100,0.00001202,-0.00005696,0.00004980,-0.00000803,0
 .00012267,-0.00004097,-0.00002340,-0.00012852,0.00020684,-0.00006322,0
 .00032087,-0.00024592,-0.00012812,-0.00005679,0.00016810,0.00003339,0.
 00004412,-0.00005374,0.00000050,0.00004456,-0.00009758,-0.00005928,-0.
 00037602,-0.00006273,-0.00005579,0.00002340,-0.00000168,-0.00000331,-0
 .00003197,0.00000856,-0.00002550,0.00000730,-0.00000009,0.00000913,0.0
 0000470,-0.00000203,-0.00001401,-0.00006838,-0.00000818,0.00005242,0.0
 0004553,-0.00001623,-0.00003083,-0.00002380,0.00004472,0.00003894,-0.0
 0007540,-0.00003406,0.00003845,-0.00000113,-0.00000355,0.00001021,-0.0
 0000756,0.00001268,0.00000064,-0.00122826,-0.00347272,0.00524489,-0.00
 095497,-0.00068367,-0.00374175,0.00084513,-0.00001893,0.00169706,-0.00
 185922,-0.00178812,-0.00095092,0.00091138,0.00249249,0.00036626,-0.012
 28401,-0.00685630,0.00671229,-0.14599802,-0.12329335,0.11479553,-0.001
 81753,0.00031340,-0.00011732,0.00113186,0.00023436,-0.00031643,0.00065
 360,-0.00052099,0.00028655,0.00318245,-0.00136605,-0.00367318,-0.00002
 153,0.00009769,0.00032704,0.00021091,-0.00012968,0.00047180,0.00017930
 ,0.00024084,0.00022050,0.00030846,0.00025169,-0.00005944,-0.00006943,-
 0.00552730,0.00289316,-0.00110309,0.00056365,-0.00199359,0.00162318,0.
 00118120,-0.00011691,0.15650995,0.13805627,0.00017144,-0.00006538,-0.0
 0008750,-0.00008730,0.00007094,0.00008057,0.00001241,0.00001125,0.0000
 2081,0.00000600,-0.00001665,-0.00001629,-0.00009124,-0.00007346,-0.000
 07295,0.00015646,-0.00007814,0.00007412,-0.00035084,-0.00037619,-0.000
 21880,0.00003102,0.00000179,0.00011407,-0.00005212,0.00000073,-0.00006
 726,-0.00000642,-0.00003375,-0.00007965,-0.00020625,-0.00000802,0.0000
 2375,0.00000419,-0.00001440,-0.00001827,-0.00000714,0.00001222,-0.0000
 0482,-0.00001811,-0.00001112,0.00000158,0.00001378,0.00000392,-0.00000
 955,-0.00002413,0.00002998,0.00007384,0.00002283,-0.00000094,-0.000020
 50,0.00004754,0.00001300,0.00009523,0.00005357,0.00017341,-0.00000665,
 0.00000338,0.00000682,-0.00000014,-0.00000340,0.00000010,0.00002098,0.
 00000331,0.00502651,0.00394364,-0.00759507,-0.00472554,-0.00633674,-0.
 00062405,-0.00125728,0.00098441,0.00021422,-0.00050860,0.00014690,0.00
 077145,0.00007951,-0.00213482,-0.02169338,-0.01548526,0.01626354,0.171
 15237,0.13932586,-0.19279755,-0.00076540,-0.00022404,-0.00037517,0.001
 28371,0.00043719,-0.00065577,0.00046989,-0.00002103,-0.00022366,0.0023
 9069,-0.00261894,0.00192358,0.00116940,0.00128181,0.00079967,0.0004419
 8,0.00011117,0.00001633,-0.00001997,-0.00021879,-0.00008023,-0.0000071
 7,0.00034777,-0.00017729,-0.00051226,0.00265464,0.00107736,-0.00452942
 ,-0.00212804,-0.00263686,-0.00139171,0.00038128,-0.00056185,-0.1401914
 8,-0.12245082,0.18049261,-0.00021319,-0.00019683,-0.00027186,0.0000387
 4,0.00007538,-0.00001408,0.00003241,0.00005694,0.00000212,0.00006867,-
 0.00001349,-0.00002584,-0.00017518,-0.00008914,-0.00002310,0.00026377,
 -0.00027089,0.00026206,-0.00127113,0.00082051,0.00098332,0.00013422,-0
 .00007306,0.00001373,-0.00011948,0.00001995,-0.00005334,-0.00006025,0.
 00003710,0.00000847,0.00039647,0.00036394,0.00053812,-0.00004724,-0.00
 002646,0.00000926,0.00005760,0.00002958,0.00011628,-0.00002453,-0.0000
 0969,-0.00000417,0.00000418,0.00000548,0.00000482,0.00005808,0.0000727
 3,0.00002010,-0.00009513,0.00006705,-0.00000258,0.00004000,-0.00007852
 ,-0.00019777,0.00019573,0.00019995,-0.00008191,0.00000104,-0.00001360,
 0.00000728,0.00001561,-0.00000391,0.00001347,0.00008744,0.00028457,0.0
 0070686,0.00058626,-0.00094223,-0.00230741,0.00834884,-0.01205149,-0.0
 1908453,0.00108211,-0.00145850,-0.00020363,-0.00019525,0.00025334,0.00
 033410,-0.00446447,0.00058053,-0.00021474,-0.00031496,-0.00158255,-0.0
 0192642,-0.07772103,0.03201024,0.05693729,-0.01339470,0.00344295,0.029
 64468,-0.01002159,0.02319592,0.01104761,0.00011549,0.00002899,-0.00014
 496,-0.00081291,0.00005977,0.00040808,-0.00007003,-0.00011884,0.000262
 88,-0.00026731,0.00048144,0.00014897,-0.00008265,0.00009352,-0.0000593
 3,0.00024784,-0.00026282,0.00007230,-0.00005958,0.00016829,-0.00003562
 ,0.00013151,-0.00023939,0.00006734,0.00027077,0.00024355,-0.00011434,0
 .09618016,-0.00006659,0.00008473,-0.00011948,0.00000465,-0.00021218,0.
 00016605,0.00001194,0.00011831,-0.00003647,0.00007275,-0.00008793,0.00
 004262,-0.00013323,0.00000105,-0.00005693,0.00007393,-0.00066857,0.000
 42853,-0.00140403,0.00102740,0.00115311,-0.00008354,-0.00005875,0.0000
 4236,0.00003547,0.00002360,-0.00000927,0.00001492,0.00000250,-0.000033
 91,0.00008633,0.00004089,0.00018393,0.00003095,0.00002518,-0.00003354,
 -0.00008062,0.00002570,-0.00009975,-0.00000269,0.00001384,-0.00001015,
 0.00000387,0.00000635,-0.00000662,0.00002108,0.00001048,0.00004112,-0.
 00004359,0.00014505,-0.00007386,-0.00006590,0.00019553,0.00009601,0.00
 011215,0.00014409,-0.00002435,-0.00000498,0.00003145,-0.00001975,-0.00
 001555,-0.00000049,-0.00000221,0.00013931,0.00038835,0.00089413,0.0006
 8899,-0.00038377,-0.00171935,0.00206720,-0.00257151,-0.01060205,0.0000
 5398,-0.00008385,0.00050159,-0.00033242,0.00025373,0.00004549,-0.00161
 766,0.00069343,0.00034522,-0.00045907,-0.00066031,-0.00087191,0.039853
 19,-0.10869767,-0.10780575,-0.01668380,0.00996282,0.02830024,0.0207537
 4,-0.02597865,-0.01293539,0.00009020,0.00004810,-0.00018526,-0.0009345
 1,0.00007609,0.00050865,0.00014248,0.00002222,0.00005989,-0.00010027,0
 .00036887,-0.00000860,-0.00002431,-0.00000227,0.00007305,0.00017575,-0
 .00015322,0.00009078,-0.00002698,0.00000519,-0.00002316,0.00002659,0.0
 0014113,0.00009744,0.00023790,0.00009156,-0.00018324,-0.04119930,0.127
 85710,0.00029773,0.00000945,0.00021264,-0.00000283,0.00015173,-0.00014
 230,-0.00002995,-0.00011160,0.00001551,-0.00008894,0.00006635,0.000006
 70,0.00022578,0.00007756,0.00004972,-0.00029902,0.00050903,-0.00029266
 ,0.00132342,-0.00070328,-0.00094345,-0.00006506,0.00008659,-0.00008278
 ,0.00008648,-0.00002886,0.00006566,0.00003930,-0.00001947,0.00003939,-
 0.00047929,-0.00016932,-0.00038464,0.00001131,-0.00001090,0.00002706,-
 0.00004179,-0.00002637,0.00000659,0.00002433,0.00000434,0.00000792,-0.
 00000954,-0.00001008,0.00000321,-0.00005951,-0.00007023,-0.00003136,0.
 00007021,-0.00010072,0.00003760,-0.00000154,-0.00004845,-0.00004468,-0
 .00020522,-0.00026630,0.00006262,0.00000070,-0.00001110,0.00000528,-0.
 00000347,0.00000282,-0.00001638,-0.00023697,0.00044842,0.00072769,0.00
 135606,0.00071122,-0.00028117,0.00488983,-0.01078463,-0.01347559,0.000
 79940,-0.00139573,-0.00021719,-0.00026789,0.00057265,0.00055934,-0.003
 10129,0.00091607,0.00071988,-0.00074472,-0.00116612,-0.00148315,0.0682
 4645,-0.10654117,-0.23335087,0.01470210,-0.00009923,-0.01836381,-0.008
 89721,0.01212942,0.01451728,0.00011979,-0.00005055,-0.00019291,-0.0006
 2968,-0.00007488,0.00087092,-0.00016740,-0.00007915,0.00000380,-0.0007
 8968,0.00078575,-0.00010445,-0.00000778,0.00000848,0.00018342,0.000352
 21,-0.00029573,0.00003698,0.00002335,0.00010773,0.00013982,0.00010951,
 -0.00010628,-0.00001058,0.00034036,0.00020345,-0.00023985,-0.07668965,
 0.10278982,0.24822484,-0.00249617,0.00108228,0.00326089,-0.00020258,0.
 00002089,-0.00182093,-0.00053488,-0.00165437,0.00016632,-0.00144174,0.
 00075830,-0.00005286,0.00343293,0.00144977,0.00077594,-0.00676869,0.01
 033633,-0.00489849,0.00411538,-0.00564833,-0.00665765,-0.00081718,0.00
 145933,-0.00078178,0.00119619,-0.00047776,0.00079902,0.00062721,-0.000
 46372,0.00032651,0.00498068,-0.00283529,-0.00659067,0.00012049,0.00022
 497,0.00025995,0.00019172,-0.00024041,-0.00006927,0.00034191,0.0000417
 9,0.00012105,-0.00010919,-0.00012085,-0.00000017,-0.00074534,-0.001226
 63,-0.00071780,0.00187821,-0.00222946,0.00047605,0.00060014,-0.0008641
 2,0.00098271,-0.00495954,-0.00464638,0.00292280,0.00001131,-0.00013617
 ,0.00007111,-0.00004652,0.00006066,-0.00015249,0.00147906,0.00093006,-
 0.00010023,-0.00074286,-0.00074065,0.00113807,0.00027734,0.00180861,-0
 .00003166,-0.00230677,-0.00020859,0.00003651,0.00200048,0.00067902,0.0
 0078599,-0.00068614,-0.00233387,-0.00070326,0.00047724,0.00155096,0.00
 090953,-0.01496556,-0.00168911,0.02398050,-0.07405243,0.03074088,0.094
 18093,-0.00114645,0.00434170,-0.00270773,-0.00047595,-0.00019670,0.000
 17782,0.00005313,0.00003738,-0.00014989,0.00002920,0.00017465,-0.00013
 704,0.00011103,0.00002862,-0.00015400,-0.00045914,0.00063620,-0.000971
 31,-0.00015386,-0.00020698,-0.00046312,0.00104465,-0.00119331,-0.00163
 455,0.00017632,0.00071756,-0.00030114,0.00002291,-0.00046927,-0.000128
 44,0.00105367,-0.00141834,-0.00019992,0.08888976,0.00225297,-0.0015467
 2,0.00052539,-0.00071960,0.00206911,0.00041247,0.00004622,0.00045962,0
 .00032009,0.00025782,0.00015882,-0.00019130,-0.00130330,-0.00176431,-0
 .00086339,0.00580892,-0.00510569,-0.00115466,-0.00487451,-0.01614746,0
 .00326901,0.00034727,-0.00039973,0.00023221,-0.00054782,0.00011034,-0.
 00036444,-0.00019815,-0.00000225,-0.00019918,-0.00305327,0.00000522,-0
 .00375991,0.00006503,-0.00036709,-0.00007127,-0.00002759,-0.00019430,0
 .00016520,-0.00015615,-0.00012501,0.00002841,0.00010591,-0.00000955,-0
 .00003179,-0.00081428,0.00047918,0.00062266,-0.00032337,0.00015552,0.0
 0022852,0.00024338,-0.00060949,-0.00013301,-0.00152832,0.00801698,0.00
 359075,0.00000632,-0.00000887,0.00002216,0.00000517,-0.00001687,0.0000
 4895,-0.00036226,-0.00050981,-0.00030771,0.00026960,-0.00008285,-0.000
 35558,-0.00013200,-0.00042926,0.00076343,0.00113694,0.00046682,-0.0004
 8871,-0.00081449,-0.00073330,-0.00036075,-0.00248726,-0.00064779,0.001
 30647,0.00167492,0.00008030,-0.00068011,-0.01173363,0.01961373,0.02700
 140,0.04733176,-0.11098865,-0.12923291,0.00235196,-0.00282891,-0.00039
 418,0.00005313,0.00015746,-0.00000557,0.00020956,-0.00002092,-0.000274
 61,-0.00003737,-0.00006271,0.00009664,0.00016245,-0.00022170,0.0000656
 3,0.00015236,-0.00011753,0.00054664,-0.00021506,0.00047793,0.00016704,
 -0.00107062,-0.00036517,-0.00192197,0.00007417,-0.00037382,0.00005221,
 -0.00011611,0.00023304,0.00052975,-0.00396101,-0.00224556,0.00258923,-
 0.02807970,0.11344124,0.00550237,-0.00109268,-0.00122606,-0.00225709,0
 .00255670,0.00147931,-0.00022410,0.00219209,0.00019504,0.00122254,-0.0
 0102469,0.00017337,-0.00343925,-0.00169583,-0.00200582,0.00177443,-0.0
 0877909,0.01019359,-0.00968838,0.00566909,-0.00902829,0.00026359,-0.00
 072370,0.00082761,-0.00085645,0.00026152,-0.00088715,-0.00031914,-0.00
 016983,-0.00085385,-0.00914218,-0.00440368,-0.00304955,0.00036555,-0.0
 0025710,-0.00038532,-0.00016474,0.00023050,-0.00054949,-0.00037517,0.0
 0000306,-0.00011239,0.00022868,0.00012762,-0.00016017,-0.00031857,0.00
 063443,0.00213467,-0.00204812,0.00276699,-0.00114435,-0.00036190,0.001
 81313,-0.00058224,0.00395467,0.00636956,-0.00047325,0.00000704,0.00015
 087,-0.00006490,-0.00007519,-0.00003853,0.00012795,-0.00141862,-0.0008
 8871,-0.00058454,0.00044890,0.00023808,-0.00104462,-0.00137803,-0.0003
 2239,0.00215654,0.00050046,-0.00119147,0.00108813,-0.00089608,0.000060
 88,-0.00128620,-0.00194996,0.00017444,0.00274778,0.00110701,-0.0002176
 5,-0.00143584,0.01538349,0.01474525,-0.01983869,0.10633836,-0.10570725
 ,-0.24146626,0.00089513,-0.00834018,0.00315674,0.00022472,-0.00004570,
 0.00014257,0.00022029,-0.00006407,-0.00023685,0.00015131,0.00013336,0.
 00003105,0.00044409,-0.00012611,-0.00019459,-0.00032502,0.00040642,0.0
 0005234,-0.00025527,0.00013061,0.00048334,-0.00158171,-0.00132498,-0.0
 0112700,0.00030291,0.00015770,-0.00008243,-0.00015948,0.00038356,0.000
 66917,-0.00015385,-0.00099902,0.00313396,-0.10194727,0.09820681,0.2590
 2669\\-0.00000039,-0.00000015,0.00000015,-0.00000011,0.00000016,0.0000
 0016,-0.00000034,0.00000004,-0.00000020,-0.00000025,0.00000021,0.00000
 050,0.00000021,-0.00000005,-0.00000011,0.00000078,0.00000016,0.0000004
 4,0.00000055,-0.00000029,-0.00000007,0.00000019,0.00000068,0.00000172,
 -0.00000042,0.00000031,0.00000012,0.00000032,-0.00000015,-0.00000035,-
 0.00000013,0.00000019,-0.00000003,-0.00000025,0.00000012,0.00000060,-0
 .00000018,0.00000004,0.00000040,0.00000021,0.00000012,0.00000052,0.000
 00027,0.00000005,0.00000041,-0.00000001,0.00000017,0.00000051,0.000000
 09,-0.00000009,0.00000018,-0.00000005,-0.00000002,0.00000010,-0.000000
 17,0.00000004,0.00000031,-0.00000010,0.00000012,0.00000033,-0.00000020
 ,0.00000025,0.00000076,-0.00000049,-0.00000069,-0.00000041,0.00000081,
 0.00000055,-0.00000065,-0.00000097,-0.00000013,-0.00000016,0.00000054,
 -0.00000041,-0.00000016,-0.00000041,-0.00000002,-0.00000063,-0.0000000
 3,-0.00000031,-0.00000025,0.00000027,-0.00000020,-0.00000039,-0.000000
 03,0.00000077,-0.00000109,-0.00000010,0.00000011,0.00000051,0.00000009
 ,-0.00000040,0.00000049,-0.00000002,0.00000002,-0.00000071,-0.00000044
 ,-0.00000022,-0.00000036,-0.00000007,-0.00000015,-0.00000019,-0.000000
 09,0.00000002,-0.00000042,-0.00000019,-0.00000011,-0.00000047,0.000000
 33,-0.00000029,-0.00000066,0.00000026,-0.00000011,-0.00000018,0.000000
 23,-0.00000003,-0.00000024,0.00000018,-0.00000024,-0.00000039,-0.00000
 009,-0.00000010,-0.00000016,0.00000017,0.00000002,0.00000005\\\@


 LIFE IS SO UNCERTAIN - EAT DESSERT FIRST.
 Job cpu time:       0 days  1 hours 23 minutes  5.4 seconds.
 Elapsed time:       0 days  0 hours 20 minutes 51.9 seconds.
 File lengths (MBytes):  RWF=    558 Int=      0 D2E=      0 Chk=     10 Scr=      1
 Normal termination of Gaussian 16 at Tue Aug  9 19:30:48 2022.
real 12377.24
user 49121.59
sys 37.72
