 Entering Gaussian System, Link 0=g16
 Input=gaussian_test.inp
 Output=gaussian_test.log
 Initial command:
 /sw/restricted/lms/sw/Gaussian/g16_B01/g16/l1.exe "/scratch/user/peterchao1/peterchao1/6931797_1675363831000000393425122/Gau-151665.inp" -scrdir="/scratch/user/peterchao1/peterchao1/6931797_1675363831000000393425122/"
 Entering Link 1 = /sw/restricted/lms/sw/Gaussian/g16_B01/g16/l1.exe PID=    151691.
  
 Copyright (c) 1988-2017, Gaussian, Inc.  All Rights Reserved.
  
 This is part of the Gaussian(R) 16 program.  It is based on
 the Gaussian(R) 09 system (copyright 2009, Gaussian, Inc.),
 the Gaussian(R) 03 system (copyright 2003, Gaussian, Inc.),
 the Gaussian(R) 98 system (copyright 1998, Gaussian, Inc.),
 the Gaussian(R) 94 system (copyright 1995, Gaussian, Inc.),
 the Gaussian 92(TM) system (copyright 1992, Gaussian, Inc.),
 the Gaussian 90(TM) system (copyright 1990, Gaussian, Inc.),
 the Gaussian 88(TM) system (copyright 1988, Gaussian, Inc.),
 the Gaussian 86(TM) system (copyright 1986, Carnegie Mellon
 University), and the Gaussian 82(TM) system (copyright 1983,
 Carnegie Mellon University). Gaussian is a federally registered
 trademark of Gaussian, Inc.
  
 This software contains proprietary and confidential information,
 including trade secrets, belonging to Gaussian, Inc.
  
 This software is provided under written license and may be
 used, copied, transmitted, or stored only in accord with that
 written license.
  
 The following legend is applicable only to US Government
 contracts under FAR:
  
                    RESTRICTED RIGHTS LEGEND
  
 Use, reproduction and disclosure by the US Government is
 subject to restrictions as set forth in subparagraphs (a)
 and (c) of the Commercial Computer Software - Restricted
 Rights clause in FAR 52.227-19.
  
 Gaussian, Inc.
 340 Quinnipiac St., Bldg. 40, Wallingford CT 06492
  
  
 ---------------------------------------------------------------
 Warning -- This program may not be used in any manner that
 competes with the business of Gaussian, Inc. or will provide
 assistance to any competitor of Gaussian, Inc.  The licensee
 of this program is prohibited from giving any competitor of
 Gaussian, Inc. access to this program.  By using this program,
 the user acknowledges that Gaussian, Inc. is engaged in the
 business of creating and licensing software in the field of
 computational chemistry and represents and warrants to the
 licensee that it is not a competitor of Gaussian, Inc. and that
 it will not use this program in any manner prohibited above.
 ---------------------------------------------------------------
  

 Cite this work as:
 Gaussian 16, Revision B.01,
 M. J. Frisch, G. W. Trucks, H. B. Schlegel, G. E. Scuseria, 
 M. A. Robb, J. R. Cheeseman, G. Scalmani, V. Barone, 
 G. A. Petersson, H. Nakatsuji, X. Li, M. Caricato, A. V. Marenich, 
 J. Bloino, B. G. Janesko, R. Gomperts, B. Mennucci, H. P. Hratchian, 
 J. V. Ortiz, A. F. Izmaylov, J. L. Sonnenberg, D. Williams-Young, 
 F. Ding, F. Lipparini, F. Egidi, J. Goings, B. Peng, A. Petrone, 
 T. Henderson, D. Ranasinghe, V. G. Zakrzewski, J. Gao, N. Rega, 
 G. Zheng, W. Liang, M. Hada, M. Ehara, K. Toyota, R. Fukuda, 
 J. Hasegawa, M. Ishida, T. Nakajima, Y. Honda, O. Kitao, H. Nakai, 
 T. Vreven, K. Throssell, J. A. Montgomery, Jr., J. E. Peralta, 
 F. Ogliaro, M. J. Bearpark, J. J. Heyd, E. N. Brothers, K. N. Kudin, 
 V. N. Staroverov, T. A. Keith, R. Kobayashi, J. Normand, 
 K. Raghavachari, A. P. Rendell, J. C. Burant, S. S. Iyengar, 
 J. Tomasi, M. Cossi, J. M. Millam, M. Klene, C. Adamo, R. Cammi, 
 J. W. Ochterski, R. L. Martin, K. Morokuma, O. Farkas, 
 J. B. Foresman, and D. J. Fox, Gaussian, Inc., Wallingford CT, 2016.
 
 ******************************************
 Gaussian 16:  ES64L-G16RevB.01 20-Dec-2017
                 2-Feb-2023 
 ******************************************
 %chk=7.chk
 %nprocshared=4
 Will use up to    4 processors via shared memory.
 %mem=8000mb
 --------------------------------------------------------------
 #T wB97XD//def2svpp Volume=tight Geom=AllCheckpoint Guess=Read
 --------------------------------------------------------------
 Structure from the checkpoint file:  "7.chk"
 -------
 Monomer
 -------
 Charge =  0 Multiplicity = 1
 Redundant internal coordinates found in file.  (old form).
 C,0,-0.7627354979,0.0000041203,0.0000116888
 C,0,0.7627354353,-0.0000048968,-0.0000099141
 H,0,-1.1648249703,-1.02136111,-0.1165470589
 H,0,-1.1648038585,0.6116163912,-0.8262493318
 H,0,-1.164819198,0.4097700332,0.9428093506
 H,0,1.164819113,-0.409771566,-0.9428072548
 H,0,1.1648038252,-0.6116164971,0.8262515901
 H,0,1.1648249019,1.0213604302,0.1165480102
 Recover connectivity data from disk.
                           ----------------------------
                           !    Current Parameters    !
                           ! (Angstroms and Degrees)  !
 --------------------------                            --------------------------
 ! Name  Definition              Value                                          !
 --------------------------------------------------------------------------------
 ! R1    R(1,2)                  1.5255                                         !
 ! R2    R(1,3)                  1.1038                                         !
 ! R3    R(1,4)                  1.1038                                         !
 ! R4    R(1,5)                  1.1038                                         !
 ! R5    R(2,6)                  1.1038                                         !
 ! R6    R(2,7)                  1.1038                                         !
 ! R7    R(2,8)                  1.1038                                         !
 ! A1    A(2,1,3)              111.362                                          !
 ! A2    A(2,1,4)              111.3609                                         !
 ! A3    A(2,1,5)              111.363                                          !
 ! A4    A(3,1,4)              107.5154                                         !
 ! A5    A(3,1,5)              107.517                                          !
 ! A6    A(4,1,5)              107.5159                                         !
 ! A7    A(1,2,6)              111.363                                          !
 ! A8    A(1,2,7)              111.3609                                         !
 ! A9    A(1,2,8)              111.362                                          !
 ! A10   A(6,2,7)              107.5159                                         !
 ! A11   A(6,2,8)              107.517                                          !
 ! A12   A(7,2,8)              107.5154                                         !
 ! D1    D(3,1,2,6)             59.9981                                         !
 ! D2    D(3,1,2,7)            -60.0016                                         !
 ! D3    D(3,1,2,8)            180.0                                            !
 ! D4    D(4,1,2,6)            -60.0003                                         !
 ! D5    D(4,1,2,7)            180.0                                            !
 ! D6    D(4,1,2,8)             60.0015                                         !
 ! D7    D(5,1,2,6)            180.0                                            !
 ! D8    D(5,1,2,7)             60.0002                                         !
 ! D9    D(5,1,2,8)            -59.9982                                         !
 --------------------------------------------------------------------------------
                    Distance matrix (angstroms):
                    1          2          3          4          5
     1  C    0.000000
     2  C    1.525471   0.000000
     3  H    1.103834   2.184545   0.000000
     4  H    1.103828   2.184527   1.780532   0.000000
     5  H    1.103833   2.184557   1.780554   1.780537   0.000000
     6  H    2.184557   1.103833   2.546368   2.546363   3.107155
     7  H    2.184527   1.103828   2.546356   3.107110   2.546362
     8  H    2.184545   1.103834   3.107139   2.546356   2.546368
                    6          7          8
     6  H    0.000000
     7  H    1.780537   0.000000
     8  H    1.780554   1.780532   0.000000
 Framework group  C1[X(C2H6)]
 Deg. of freedom    18
                         Standard orientation:                         
 ---------------------------------------------------------------------
 Center     Atomic      Atomic             Coordinates (Angstroms)
 Number     Number       Type             X           Y           Z
 ---------------------------------------------------------------------
      1          6           0        0.762735    0.000001   -0.000001
      2          6           0       -0.762735   -0.000001    0.000001
      3          1           0        1.164817   -0.830246   -0.606193
      4          1           0        1.164797   -0.109881    1.022108
      5          1           0        1.164833    0.940109   -0.415888
      6          1           0       -1.164833   -0.940109    0.415887
      7          1           0       -1.164797    0.109882   -1.022108
      8          1           0       -1.164817    0.830246    0.606194
 ---------------------------------------------------------------------
 Rotational constants (GHZ):          79.0857506          19.9266752          19.9265988
    40 basis functions,    74 primitive gaussians,    42 cartesian basis functions
     9 alpha electrons        9 beta electrons
       nuclear repulsion energy        42.0081757741 Hartrees.
 NAtoms=    8 NActive=    8 NUniq=    8 SFac= 1.00D+00 NAtFMM=   60 NAOKFM=F Big=F
 Nuclear repulsion after empirical dispersion term =       42.0063045819 Hartrees.
   1 Symmetry operations used in ECPInt.
 ECPInt:  NShTT=     300 NPrTT=    1220 LenC2=     301 LenP2D=    1136.
 LDataN:  DoStor=T MaxTD1= 4 Len=   56
 Initial guess from the checkpoint file:  "7.chk"
 B after Tr=    -0.000000    0.000000    0.000000
         Rot=    1.000000   -0.000000   -0.000000   -0.000000 Ang=   0.00 deg.
 Skip diagonalization as Alpha Fock matrix is already diagonal.
 SCF Done:  E(RwB97XD) =  -79.7320278290     A.U. after    1 cycles
            NFock=  1  Conv=0.00D+00     -V/T= 2.0124

 **********************************************************************

            Population analysis using the SCF Density.

 **********************************************************************

 Orbital symmetries:
       Occupied  (A) (A) (A) (A) (A) (A) (A) (A) (A)
       Virtual   (A) (A) (A) (A) (A) (A) (A) (A) (A) (A) (A) (A)
                 (A) (A) (A) (A) (A) (A) (A) (A) (A) (A) (A) (A)
                 (A) (A) (A) (A) (A) (A) (A)
 The electronic state is 1-A.
 Alpha  occ. eigenvalues --  -10.28032 -10.28026  -0.84185  -0.69974  -0.51949
 Alpha  occ. eigenvalues --   -0.51948  -0.45173  -0.42266  -0.42266
 Alpha virt. eigenvalues --    0.14766   0.19493   0.20702   0.20702   0.24108
 Alpha virt. eigenvalues --    0.24108   0.31509   0.50708   0.50708   0.51771
 Alpha virt. eigenvalues --    0.63178   0.63180   0.72170   0.76293   0.79956
 Alpha virt. eigenvalues --    0.80630   0.80630   0.81563   0.81564   0.85939
 Alpha virt. eigenvalues --    1.06988   1.59305   1.59307   1.97186   2.02399
 Alpha virt. eigenvalues --    2.02401   2.24184   2.24186   2.35062   2.35063
 Alpha virt. eigenvalues --    2.63459
          Condensed to atoms (all electrons):
 Mulliken charges:
               1
     1  C   -0.357275
     2  C   -0.357275
     3  H    0.119094
     4  H    0.119089
     5  H    0.119092
     6  H    0.119092
     7  H    0.119089
     8  H    0.119094
 Sum of Mulliken charges =  -0.00000
 Mulliken charges with hydrogens summed into heavy atoms:
               1
     1  C    0.000000
     2  C   -0.000000
 Electronic spatial extent (au):  <R**2>=            110.0687
 Charge=              0.0000 electrons
 Dipole moment (field-independent basis, Debye):
    X=             -0.0000    Y=             -0.0000    Z=              0.0000  Tot=              0.0000
 Evaluate density.
 Using the total density.
 Monte-Carlo method of calculating molar volume:
 based on  0.001 e/bohr**3 density envelope.
 Number of points per bohr**3 =  100 CutOff= 1.00D-04
 Using the SCF density.
 There are      1392 points.  Will hold      1392 in memory.
 LenV=  1048510245 MDV=  1048576000.
 Box volume = 2699.051 fraction occupied=0.162
 Integrated density= 1.5963769564491459D+01 error=-2.0362304355085410D+00
 Molar volume =  438.208 bohr**3/mol ( 39.105 cm**3/mol)
 Recommended a0 for SCRF calculation =  3.24 angstrom (  6.13 bohr)
 1\1\GINC-C459\SP\RwB97XD\def2SVPP\C2H6\PETERCHAO1\02-Feb-2023\0\\#T wB
 97XD//def2svpp Volume=tight Geom=AllCheckpoint Guess=Read\\Monomer\\0,
 1\C,0,-0.7627354979,0.0000041203,0.0000116888\C,0,0.7627354353,-0.0000
 048968,-0.0000099141\H,0,-1.1648249703,-1.02136111,-0.1165470589\H,0,-
 1.1648038585,0.6116163912,-0.8262493318\H,0,-1.164819198,0.4097700332,
 0.9428093506\H,0,1.164819113,-0.409771566,-0.9428072548\H,0,1.16480382
 52,-0.6116164971,0.8262515901\H,0,1.1648249019,1.0213604302,0.11654801
 02\\Version=ES64L-G16RevB.01\State=1-A\HF=-79.7320278\RMSD=0.000e+00\D
 ipole=0.,0.,0.\Quadrupole=-0.3495382,0.1747787,0.1747594,0.0000238,-0.
 0000226,0.0000541\PG=C01 [X(C2H6)]\\@


 YOU CAN LEAD A BOY TO COLLEGE....
 BUT YOU CANNOT MAKE HIM THINK....
           ELBERT HUBBARD
 File lengths (MBytes):  RWF=      6 Int=      0 D2E=      0 Chk=      1 Scr=      1
 Normal termination of Gaussian 16 at Thu Feb  2 12:53:52 2023.
