 Entering Gaussian System, Link 0=g16
 Input=gaussian_test.inp
 Output=gaussian_test.log
 Initial command:
 /sw/restricted/lms/sw/Gaussian/g16_B01/g16/l1.exe "/scratch/user/peterchao1/peterchao1/6949349_1675442988000000870986918/Gau-111386.inp" -scrdir="/scratch/user/peterchao1/peterchao1/6949349_1675442988000000870986918/"
 Entering Link 1 = /sw/restricted/lms/sw/Gaussian/g16_B01/g16/l1.exe PID=    111389.
  
 Copyright (c) 1988-2017, Gaussian, Inc.  All Rights Reserved.
  
 This is part of the Gaussian(R) 16 program.  It is based on
 the Gaussian(R) 09 system (copyright 2009, Gaussian, Inc.),
 the Gaussian(R) 03 system (copyright 2003, Gaussian, Inc.),
 the Gaussian(R) 98 system (copyright 1998, Gaussian, Inc.),
 the Gaussian(R) 94 system (copyright 1995, Gaussian, Inc.),
 the Gaussian 92(TM) system (copyright 1992, Gaussian, Inc.),
 the Gaussian 90(TM) system (copyright 1990, Gaussian, Inc.),
 the Gaussian 88(TM) system (copyright 1988, Gaussian, Inc.),
 the Gaussian 86(TM) system (copyright 1986, Carnegie Mellon
 University), and the Gaussian 82(TM) system (copyright 1983,
 Carnegie Mellon University). Gaussian is a federally registered
 trademark of Gaussian, Inc.
  
 This software contains proprietary and confidential information,
 including trade secrets, belonging to Gaussian, Inc.
  
 This software is provided under written license and may be
 used, copied, transmitted, or stored only in accord with that
 written license.
  
 The following legend is applicable only to US Government
 contracts under FAR:
  
                    RESTRICTED RIGHTS LEGEND
  
 Use, reproduction and disclosure by the US Government is
 subject to restrictions as set forth in subparagraphs (a)
 and (c) of the Commercial Computer Software - Restricted
 Rights clause in FAR 52.227-19.
  
 Gaussian, Inc.
 340 Quinnipiac St., Bldg. 40, Wallingford CT 06492
  
  
 ---------------------------------------------------------------
 Warning -- This program may not be used in any manner that
 competes with the business of Gaussian, Inc. or will provide
 assistance to any competitor of Gaussian, Inc.  The licensee
 of this program is prohibited from giving any competitor of
 Gaussian, Inc. access to this program.  By using this program,
 the user acknowledges that Gaussian, Inc. is engaged in the
 business of creating and licensing software in the field of
 computational chemistry and represents and warrants to the
 licensee that it is not a competitor of Gaussian, Inc. and that
 it will not use this program in any manner prohibited above.
 ---------------------------------------------------------------
  

 Cite this work as:
 Gaussian 16, Revision B.01,
 M. J. Frisch, G. W. Trucks, H. B. Schlegel, G. E. Scuseria, 
 M. A. Robb, J. R. Cheeseman, G. Scalmani, V. Barone, 
 G. A. Petersson, H. Nakatsuji, X. Li, M. Caricato, A. V. Marenich, 
 J. Bloino, B. G. Janesko, R. Gomperts, B. Mennucci, H. P. Hratchian, 
 J. V. Ortiz, A. F. Izmaylov, J. L. Sonnenberg, D. Williams-Young, 
 F. Ding, F. Lipparini, F. Egidi, J. Goings, B. Peng, A. Petrone, 
 T. Henderson, D. Ranasinghe, V. G. Zakrzewski, J. Gao, N. Rega, 
 G. Zheng, W. Liang, M. Hada, M. Ehara, K. Toyota, R. Fukuda, 
 J. Hasegawa, M. Ishida, T. Nakajima, Y. Honda, O. Kitao, H. Nakai, 
 T. Vreven, K. Throssell, J. A. Montgomery, Jr., J. E. Peralta, 
 F. Ogliaro, M. J. Bearpark, J. J. Heyd, E. N. Brothers, K. N. Kudin, 
 V. N. Staroverov, T. A. Keith, R. Kobayashi, J. Normand, 
 K. Raghavachari, A. P. Rendell, J. C. Burant, S. S. Iyengar, 
 J. Tomasi, M. Cossi, J. M. Millam, M. Klene, C. Adamo, R. Cammi, 
 J. W. Ochterski, R. L. Martin, K. Morokuma, O. Farkas, 
 J. B. Foresman, and D. J. Fox, Gaussian, Inc., Wallingford CT, 2016.
 
 ******************************************
 Gaussian 16:  ES64L-G16RevB.01 20-Dec-2017
                 3-Feb-2023 
 ******************************************
 %nprocshared=4
 Will use up to    4 processors via shared memory.
 %mem=8000mb
 %chk=19.chk
 %nprocshared=4
 Will use up to    4 processors via shared memory.
 %mem=8000mb
 ----------------------------------------------------------------------
 #T wB97XD/def2svpp opt=tight freq int(grid=ultrafine) scf=(verytight,q
 c) Volume=tight
 ----------------------------------------------------------------------
 -----
 Dimer
 -----
 Symbolic Z-matrix:
 Charge =  0 Multiplicity = 1
 C                     2.25488   0.76662   1.37351 
 C                     2.81145   0.36711   0.0062 
 C                     3.18196   1.62838  -0.78059 
 C                     4.04711  -0.51749   0.17966 
 C                     1.74386  -0.3683   -0.80644 
 Cl                    1.1727   -1.85191   0.00018 
 H                     1.97011  -0.11373   1.94482 
 H                     1.38221   1.40457   1.25607 
 H                     3.00642   1.3125    1.93842 
 H                     3.5708    1.37197  -1.76366 
 H                     3.94436   2.18892  -0.24591 
 H                     2.31165   2.26772  -0.90891 
 H                     4.81263   0.01214   0.74131 
 H                     4.46047  -0.79425  -0.78828 
 H                     3.79465  -1.42704   0.7197 
 H                     2.13692  -0.68223  -1.77397 
 H                     0.86797   0.26285  -0.95346 
 C                    -4.04333   0.52224  -0.20008 
 C                    -2.81247  -0.36623  -0.01272 
 C                    -3.19589  -1.62616   0.76999 
 C                    -2.24211  -0.76765  -1.37376 
 C                    -1.75155   0.36592   0.81159 
 Cl                   -1.17022   1.85004   0.01339 
 H                    -4.80501  -0.00594  -0.76827 
 H                    -3.78247   1.42985  -0.73938 
 H                    -4.46534   0.80231   0.76315 
 H                    -2.32894  -2.2678    0.90915 
 H                    -3.95323  -2.1849    0.22629 
 H                    -3.59599  -1.3683    1.74815 
 H                    -1.9468    0.11169  -1.94131 
 H                    -2.98965  -1.30974  -1.94754 
 H                    -1.37385  -1.40973  -1.2467 
 H                    -0.8781   -0.2669    0.96614 
 H                    -2.15358   0.67874   1.7758 
 
 Add virtual bond connecting atoms Cl23       and H17        Dist= 5.21D+00.
 Add virtual bond connecting atoms H33        and Cl6        Dist= 5.23D+00.
 Add virtual bond connecting atoms H33        and H17        Dist= 5.00D+00.

 GradGradGradGradGradGradGradGradGradGradGradGradGradGradGradGradGradGrad
 Initialization pass.
                           ----------------------------
                           !    Initial Parameters    !
                           ! (Angstroms and Degrees)  !
 --------------------------                            --------------------------
 ! Name  Definition              Value          Derivative Info.                !
 --------------------------------------------------------------------------------
 ! R1    R(1,2)                  1.5293         estimate D2E/DX2                !
 ! R2    R(1,7)                  1.0874         estimate D2E/DX2                !
 ! R3    R(1,8)                  1.0873         estimate D2E/DX2                !
 ! R4    R(1,9)                  1.0872         estimate D2E/DX2                !
 ! R5    R(2,3)                  1.532          estimate D2E/DX2                !
 ! R6    R(2,4)                  1.5295         estimate D2E/DX2                !
 ! R7    R(2,5)                  1.53           estimate D2E/DX2                !
 ! R8    R(3,10)                 1.0878         estimate D2E/DX2                !
 ! R9    R(3,11)                 1.0869         estimate D2E/DX2                !
 ! R10   R(3,12)                 1.0875         estimate D2E/DX2                !
 ! R11   R(4,13)                 1.0872         estimate D2E/DX2                !
 ! R12   R(4,14)                 1.0883         estimate D2E/DX2                !
 ! R13   R(4,15)                 1.0875         estimate D2E/DX2                !
 ! R14   R(5,6)                  1.7827         estimate D2E/DX2                !
 ! R15   R(5,16)                 1.0905         estimate D2E/DX2                !
 ! R16   R(5,17)                 1.0896         estimate D2E/DX2                !
 ! R17   R(6,33)                 2.7661         estimate D2E/DX2                !
 ! R18   R(17,23)                2.7583         estimate D2E/DX2                !
 ! R19   R(17,33)                2.6484         estimate D2E/DX2                !
 ! R20   R(18,19)                1.5295         estimate D2E/DX2                !
 ! R21   R(18,24)                1.0872         estimate D2E/DX2                !
 ! R22   R(18,25)                1.0875         estimate D2E/DX2                !
 ! R23   R(18,26)                1.0883         estimate D2E/DX2                !
 ! R24   R(19,20)                1.532          estimate D2E/DX2                !
 ! R25   R(19,21)                1.5293         estimate D2E/DX2                !
 ! R26   R(19,22)                1.5301         estimate D2E/DX2                !
 ! R27   R(20,27)                1.0875         estimate D2E/DX2                !
 ! R28   R(20,28)                1.0869         estimate D2E/DX2                !
 ! R29   R(20,29)                1.0878         estimate D2E/DX2                !
 ! R30   R(21,30)                1.0875         estimate D2E/DX2                !
 ! R31   R(21,31)                1.0872         estimate D2E/DX2                !
 ! R32   R(21,32)                1.0873         estimate D2E/DX2                !
 ! R33   R(22,23)                1.7826         estimate D2E/DX2                !
 ! R34   R(22,33)                1.0896         estimate D2E/DX2                !
 ! R35   R(22,34)                1.0905         estimate D2E/DX2                !
 ! A1    A(2,1,7)              110.7033         estimate D2E/DX2                !
 ! A2    A(2,1,8)              110.4126         estimate D2E/DX2                !
 ! A3    A(2,1,9)              110.1306         estimate D2E/DX2                !
 ! A4    A(7,1,8)              108.7561         estimate D2E/DX2                !
 ! A5    A(7,1,9)              108.332          estimate D2E/DX2                !
 ! A6    A(8,1,9)              108.4418         estimate D2E/DX2                !
 ! A7    A(1,2,3)              109.3959         estimate D2E/DX2                !
 ! A8    A(1,2,4)              110.1022         estimate D2E/DX2                !
 ! A9    A(1,2,5)              110.2725         estimate D2E/DX2                !
 ! A10   A(3,2,4)              109.8157         estimate D2E/DX2                !
 ! A11   A(3,2,5)              106.9593         estimate D2E/DX2                !
 ! A12   A(4,2,5)              110.2397         estimate D2E/DX2                !
 ! A13   A(2,3,10)             110.8853         estimate D2E/DX2                !
 ! A14   A(2,3,11)             109.974          estimate D2E/DX2                !
 ! A15   A(2,3,12)             110.5517         estimate D2E/DX2                !
 ! A16   A(10,3,11)            108.3838         estimate D2E/DX2                !
 ! A17   A(10,3,12)            108.542          estimate D2E/DX2                !
 ! A18   A(11,3,12)            108.4335         estimate D2E/DX2                !
 ! A19   A(2,4,13)             110.2235         estimate D2E/DX2                !
 ! A20   A(2,4,14)             110.675          estimate D2E/DX2                !
 ! A21   A(2,4,15)             110.6392         estimate D2E/DX2                !
 ! A22   A(13,4,14)            108.4164         estimate D2E/DX2                !
 ! A23   A(13,4,15)            108.3218         estimate D2E/DX2                !
 ! A24   A(14,4,15)            108.4912         estimate D2E/DX2                !
 ! A25   A(2,5,6)              112.5354         estimate D2E/DX2                !
 ! A26   A(2,5,16)             110.9844         estimate D2E/DX2                !
 ! A27   A(2,5,17)             110.742          estimate D2E/DX2                !
 ! A28   A(6,5,16)             106.1024         estimate D2E/DX2                !
 ! A29   A(6,5,17)             106.5938         estimate D2E/DX2                !
 ! A30   A(16,5,17)            109.6815         estimate D2E/DX2                !
 ! A31   A(5,6,33)              85.3351         estimate D2E/DX2                !
 ! A32   A(5,17,23)            151.6481         estimate D2E/DX2                !
 ! A33   A(5,17,33)            108.4404         estimate D2E/DX2                !
 ! A34   A(23,17,33)            51.2351         estimate D2E/DX2                !
 ! A35   A(19,18,24)           110.2185         estimate D2E/DX2                !
 ! A36   A(19,18,25)           110.6405         estimate D2E/DX2                !
 ! A37   A(19,18,26)           110.6788         estimate D2E/DX2                !
 ! A38   A(24,18,25)           108.3209         estimate D2E/DX2                !
 ! A39   A(24,18,26)           108.4166         estimate D2E/DX2                !
 ! A40   A(25,18,26)           108.4917         estimate D2E/DX2                !
 ! A41   A(18,19,20)           109.8094         estimate D2E/DX2                !
 ! A42   A(18,19,21)           110.0944         estimate D2E/DX2                !
 ! A43   A(18,19,22)           110.2444         estimate D2E/DX2                !
 ! A44   A(20,19,21)           109.3994         estimate D2E/DX2                !
 ! A45   A(20,19,22)           106.9666         estimate D2E/DX2                !
 ! A46   A(21,19,22)           110.2713         estimate D2E/DX2                !
 ! A47   A(19,20,27)           110.5536         estimate D2E/DX2                !
 ! A48   A(19,20,28)           109.9737         estimate D2E/DX2                !
 ! A49   A(19,20,29)           110.8852         estimate D2E/DX2                !
 ! A50   A(27,20,28)           108.4324         estimate D2E/DX2                !
 ! A51   A(27,20,29)           108.5423         estimate D2E/DX2                !
 ! A52   A(28,20,29)           108.3832         estimate D2E/DX2                !
 ! A53   A(19,21,30)           110.7018         estimate D2E/DX2                !
 ! A54   A(19,21,31)           110.1293         estimate D2E/DX2                !
 ! A55   A(19,21,32)           110.4139         estimate D2E/DX2                !
 ! A56   A(30,21,31)           108.3298         estimate D2E/DX2                !
 ! A57   A(30,21,32)           108.7622         estimate D2E/DX2                !
 ! A58   A(31,21,32)           108.4394         estimate D2E/DX2                !
 ! A59   A(19,22,23)           112.5364         estimate D2E/DX2                !
 ! A60   A(19,22,33)           110.753          estimate D2E/DX2                !
 ! A61   A(19,22,34)           110.9771         estimate D2E/DX2                !
 ! A62   A(23,22,33)           106.5961         estimate D2E/DX2                !
 ! A63   A(23,22,34)           106.0995         estimate D2E/DX2                !
 ! A64   A(33,22,34)           109.6772         estimate D2E/DX2                !
 ! A65   A(17,23,22)            85.3455         estimate D2E/DX2                !
 ! A66   A(6,33,17)             51.1489         estimate D2E/DX2                !
 ! A67   A(6,33,22)            151.3529         estimate D2E/DX2                !
 ! A68   A(17,33,22)           108.0301         estimate D2E/DX2                !
 ! D1    D(7,1,2,3)            179.1204         estimate D2E/DX2                !
 ! D2    D(7,1,2,4)            -60.1117         estimate D2E/DX2                !
 ! D3    D(7,1,2,5)             61.7521         estimate D2E/DX2                !
 ! D4    D(8,1,2,3)             58.6285         estimate D2E/DX2                !
 ! D5    D(8,1,2,4)            179.3964         estimate D2E/DX2                !
 ! D6    D(8,1,2,5)            -58.7397         estimate D2E/DX2                !
 ! D7    D(9,1,2,3)            -61.1012         estimate D2E/DX2                !
 ! D8    D(9,1,2,4)             59.6667         estimate D2E/DX2                !
 ! D9    D(9,1,2,5)           -178.4695         estimate D2E/DX2                !
 ! D10   D(1,2,3,10)          -179.3575         estimate D2E/DX2                !
 ! D11   D(1,2,3,11)            60.7847         estimate D2E/DX2                !
 ! D12   D(1,2,3,12)           -58.9229         estimate D2E/DX2                !
 ! D13   D(4,2,3,10)            59.7003         estimate D2E/DX2                !
 ! D14   D(4,2,3,11)           -60.1574         estimate D2E/DX2                !
 ! D15   D(4,2,3,12)          -179.8651         estimate D2E/DX2                !
 ! D16   D(5,2,3,10)           -59.9248         estimate D2E/DX2                !
 ! D17   D(5,2,3,11)          -179.7826         estimate D2E/DX2                !
 ! D18   D(5,2,3,12)            60.5097         estimate D2E/DX2                !
 ! D19   D(1,2,4,13)           -59.1628         estimate D2E/DX2                !
 ! D20   D(1,2,4,14)          -179.0881         estimate D2E/DX2                !
 ! D21   D(1,2,4,15)            60.6218         estimate D2E/DX2                !
 ! D22   D(3,2,4,13)            61.3528         estimate D2E/DX2                !
 ! D23   D(3,2,4,14)           -58.5726         estimate D2E/DX2                !
 ! D24   D(3,2,4,15)          -178.8626         estimate D2E/DX2                !
 ! D25   D(5,2,4,13)           178.9539         estimate D2E/DX2                !
 ! D26   D(5,2,4,14)            59.0286         estimate D2E/DX2                !
 ! D27   D(5,2,4,15)           -61.2615         estimate D2E/DX2                !
 ! D28   D(1,2,5,6)            -59.7475         estimate D2E/DX2                !
 ! D29   D(1,2,5,16)          -178.4829         estimate D2E/DX2                !
 ! D30   D(1,2,5,17)            59.4462         estimate D2E/DX2                !
 ! D31   D(3,2,5,6)           -178.6132         estimate D2E/DX2                !
 ! D32   D(3,2,5,16)            62.6514         estimate D2E/DX2                !
 ! D33   D(3,2,5,17)           -59.4195         estimate D2E/DX2                !
 ! D34   D(4,2,5,6)             62.0349         estimate D2E/DX2                !
 ! D35   D(4,2,5,16)           -56.7004         estimate D2E/DX2                !
 ! D36   D(4,2,5,17)          -178.7714         estimate D2E/DX2                !
 ! D37   D(2,5,6,33)            95.4601         estimate D2E/DX2                !
 ! D38   D(16,5,6,33)         -142.9836         estimate D2E/DX2                !
 ! D39   D(17,5,6,33)          -26.1241         estimate D2E/DX2                !
 ! D40   D(2,5,17,23)          -54.351          estimate D2E/DX2                !
 ! D41   D(2,5,17,33)          -93.8245         estimate D2E/DX2                !
 ! D42   D(6,5,17,23)           68.3652         estimate D2E/DX2                !
 ! D43   D(6,5,17,33)           28.8918         estimate D2E/DX2                !
 ! D44   D(16,5,17,23)        -177.1813         estimate D2E/DX2                !
 ! D45   D(16,5,17,33)         143.3453         estimate D2E/DX2                !
 ! D46   D(5,6,33,17)           12.8803         estimate D2E/DX2                !
 ! D47   D(5,6,33,22)           62.6786         estimate D2E/DX2                !
 ! D48   D(5,17,23,22)         -63.7789         estimate D2E/DX2                !
 ! D49   D(33,17,23,22)        -13.1138         estimate D2E/DX2                !
 ! D50   D(5,17,33,6)          -22.5311         estimate D2E/DX2                !
 ! D51   D(5,17,33,22)        -179.8828         estimate D2E/DX2                !
 ! D52   D(23,17,33,6)        -179.7518         estimate D2E/DX2                !
 ! D53   D(23,17,33,22)         22.8965         estimate D2E/DX2                !
 ! D54   D(24,18,19,20)        -61.2239         estimate D2E/DX2                !
 ! D55   D(24,18,19,21)         59.2872         estimate D2E/DX2                !
 ! D56   D(24,18,19,22)       -178.8331         estimate D2E/DX2                !
 ! D57   D(25,18,19,20)        178.9951         estimate D2E/DX2                !
 ! D58   D(25,18,19,21)        -60.4938         estimate D2E/DX2                !
 ! D59   D(25,18,19,22)         61.3859         estimate D2E/DX2                !
 ! D60   D(26,18,19,20)         58.701          estimate D2E/DX2                !
 ! D61   D(26,18,19,21)        179.2121         estimate D2E/DX2                !
 ! D62   D(26,18,19,22)        -58.9082         estimate D2E/DX2                !
 ! D63   D(18,19,20,27)        179.9287         estimate D2E/DX2                !
 ! D64   D(18,19,20,28)         60.2215         estimate D2E/DX2                !
 ! D65   D(18,19,20,29)        -59.6353         estimate D2E/DX2                !
 ! D66   D(21,19,20,27)         58.9978         estimate D2E/DX2                !
 ! D67   D(21,19,20,28)        -60.7094         estimate D2E/DX2                !
 ! D68   D(21,19,20,29)        179.4339         estimate D2E/DX2                !
 ! D69   D(22,19,20,27)        -60.4396         estimate D2E/DX2                !
 ! D70   D(22,19,20,28)        179.8532         estimate D2E/DX2                !
 ! D71   D(22,19,20,29)         59.9965         estimate D2E/DX2                !
 ! D72   D(18,19,21,30)         60.2022         estimate D2E/DX2                !
 ! D73   D(18,19,21,31)        -59.5716         estimate D2E/DX2                !
 ! D74   D(18,19,21,32)       -179.2984         estimate D2E/DX2                !
 ! D75   D(20,19,21,30)       -179.0402         estimate D2E/DX2                !
 ! D76   D(20,19,21,31)         61.1861         estimate D2E/DX2                !
 ! D77   D(20,19,21,32)        -58.5408         estimate D2E/DX2                !
 ! D78   D(22,19,21,30)        -61.6616         estimate D2E/DX2                !
 ! D79   D(22,19,21,31)        178.5646         estimate D2E/DX2                !
 ! D80   D(22,19,21,32)         58.8378         estimate D2E/DX2                !
 ! D81   D(18,19,22,23)        -61.8638         estimate D2E/DX2                !
 ! D82   D(18,19,22,33)        178.9314         estimate D2E/DX2                !
 ! D83   D(18,19,22,34)         56.8635         estimate D2E/DX2                !
 ! D84   D(20,19,22,23)        178.7848         estimate D2E/DX2                !
 ! D85   D(20,19,22,33)         59.58           estimate D2E/DX2                !
 ! D86   D(20,19,22,34)        -62.4879         estimate D2E/DX2                !
 ! D87   D(21,19,22,23)         59.9112         estimate D2E/DX2                !
 ! D88   D(21,19,22,33)        -59.2936         estimate D2E/DX2                !
 ! D89   D(21,19,22,34)        178.6385         estimate D2E/DX2                !
 ! D90   D(19,22,23,17)        -94.9403         estimate D2E/DX2                !
 ! D91   D(33,22,23,17)         26.6597         estimate D2E/DX2                !
 ! D92   D(34,22,23,17)        143.5138         estimate D2E/DX2                !
 ! D93   D(19,22,33,6)          54.6761         estimate D2E/DX2                !
 ! D94   D(19,22,33,17)         93.3972         estimate D2E/DX2                !
 ! D95   D(23,22,33,6)         -68.0494         estimate D2E/DX2                !
 ! D96   D(23,22,33,17)        -29.3283         estimate D2E/DX2                !
 ! D97   D(34,22,33,6)         177.5015         estimate D2E/DX2                !
 ! D98   D(34,22,33,17)       -143.7774         estimate D2E/DX2                !
 --------------------------------------------------------------------------------
 Number of steps in this run=    204 maximum allowed number of steps=    204.
 GradGradGradGradGradGradGradGradGradGradGradGradGradGradGradGradGradGrad

                    Distance matrix (angstroms):
                    1          2          3          4          5
     1  C    0.000000
     2  C    1.529347   0.000000
     3  C    2.498441   1.532029   0.000000
     4  C    2.507253   1.529533   2.505057   0.000000
     5  C    2.510247   1.530012   2.460796   2.509898   0.000000
     6  Cl   3.148624   2.758537   4.093783   3.174127   1.782674
     7  H    1.087439   2.167329   3.454183   2.755499   2.772258
     8  H    1.087346   2.163610   2.727114   3.457553   2.743679
     9  H    1.087153   2.159916   2.742916   2.743199   3.457360
    10  H    3.455412   2.172269   1.087828   2.751979   2.698615
    11  H    2.738578   2.160112   1.086901   2.741599   3.419913
    12  H    2.732385   2.167843   1.087502   3.457484   2.698423
    13  H    2.740616   2.161275   2.754537   1.087186   3.457970
    14  H    3.460384   2.167771   2.739302   1.088282   2.749861
    15  H    2.758716   2.166735   3.458587   1.087500   2.766904
    16  H    3.466941   2.173729   2.723569   2.737266   1.090487
    17  H    2.755368   2.169998   2.692408   3.464071   1.089564
    18  C    6.496408   6.859630   7.332481   8.165808   5.886619
    19  C    5.374290   5.671555   6.364056   6.863941   4.624945
    20  C    5.983358   6.375311   7.326205   7.351101   5.335586
    21  C    5.488574   5.360077   5.959307   6.483057   4.045903
    22  C    4.065440   4.633528   5.335574   5.899509   3.921095
    23  Cl   3.841229   4.248862   4.429562   5.731791   3.753006
    24  H    7.417956   7.664809   8.152468   8.917410   6.558995
    25  H    6.430687   6.720491   6.967377   8.120287   5.811898
    26  H    6.747979   7.328986   7.845173   8.633899   6.510619
    27  H    5.516771   5.846504   6.957398   6.652048   4.810305
    28  H    6.969097   7.233401   8.152661   8.172388   6.068234
    29  H    6.239471   6.863040   7.830404   7.848636   6.003329
    30  H    5.391765   5.147717   5.472828   6.389163   3.890933
    31  H    6.545670   6.346785   6.934199   7.393827   4.959294
    32  H    4.976914   4.716311   5.495701   5.676035   3.316402
    33  H    3.324108   3.864738   4.809077   4.993901   3.166543
    34  H    4.427648   5.280155   5.992065   6.513614   4.791059
                    6          7          8          9         10
     6  Cl   0.000000
     7  H    2.727406   0.000000
     8  H    3.496536   1.767834   0.000000
     9  H    4.139166   1.762978   1.764121   0.000000
    10  H    4.388091   4.303758   3.729575   3.745320   0.000000
    11  H    4.906218   3.741555   3.071774   2.533610   1.763664
    12  H    4.369776   3.732524   2.509186   3.082600   1.765907
    13  H    4.156074   3.089368   3.737860   2.527132   3.109036
    14  H    3.542558   3.759635   4.299982   3.739989   2.536803
    15  H    2.751879   2.560209   3.758400   3.100264   3.748546
    16  H    2.333546   3.765689   3.755718   4.303111   2.505168
    17  H    2.339761   3.123546   2.539675   3.746681   3.031805
    18  C    5.734427   6.416108   5.686414   7.409218   7.819321
    19  C    4.253116   5.173852   4.726611   6.362738   6.843481
    20  C    4.441641   5.509556   5.511861   6.962006   7.822806
    21  C    3.837228   5.402169   4.976971   6.545577   6.206445
    22  C    3.758773   3.919822   3.331187   4.980359   5.997623
    23  Cl   4.381084   4.177140   2.873603   4.630225   5.085645
    24  H    6.303261   7.298949   6.661015   8.371543   8.546555
    25  H    5.989206   6.532971   5.536817   7.298856   7.424492
    26  H    6.278102   6.606852   5.899114   7.580811   8.443276
    27  H    3.641525   4.918784   5.232519   6.507219   7.429586
    28  H    5.141717   6.506080   6.512426   7.974953   8.557006
    29  H    5.101936   5.709125   5.719568   7.128440   8.438295
    30  H    4.166105   5.522234   4.793445   6.405360   5.662497
    31  H    4.627394   6.417177   6.061664   7.611152   7.089780
    32  H    2.869696   4.800778   4.666902   6.061533   5.696899
    33  H    2.766065   3.015554   2.826105   4.304564   5.470871
    34  H    4.541050   4.202542   3.646743   5.201308   6.765857
                   11         12         13         14         15
    11  H    0.000000
    12  H    1.763951   0.000000
    13  H    2.543009   3.750432   0.000000
    14  H    3.075689   3.742677   1.764626   0.000000
    15  H    3.745667   4.301499   1.762941   1.765710   0.000000
    16  H    3.720935   3.079133   3.737403   2.526469   3.085645
    17  H    3.697911   2.470966   4.300623   3.748438   3.771025
    18  C    8.159849   6.628339   8.920443   8.625179   8.128936
    19  C    7.227582   5.830730   7.671620   7.326687   6.731701
    20  C    8.159056   6.950830   8.174421   7.857490   6.993558
    21  C    6.948803   5.492385   7.406142   6.728161   6.423390
    22  C    6.073312   4.804850   6.574077   6.518802   5.829536
    23  Cl   5.132355   3.626091   6.300970   6.272135   5.990669
    24  H    9.035583   7.472356   9.735398   9.298973   8.842381
    25  H    7.779693   6.153782   8.836174   8.537860   8.228213
    26  H    8.582778   7.132381   9.311581   9.199245   8.555666
    27  H    7.781446   6.738793   7.498548   7.151833   6.183943
    28  H    9.040210   7.769383   9.051658   8.587998   7.800484
    29  H    8.572464   7.428382   8.580455   8.465792   7.462092
    30  H    6.472647   4.883520   7.272982   6.572931   6.512527
    31  H    7.950900   6.479260   8.357801   7.557381   7.290731
    32  H    6.498867   5.217339   6.651792   5.884578   5.529958
    33  H    5.545838   4.484934   5.701997   5.644150   4.820920
    34  H    6.599458   5.447087   7.074073   7.244986   6.397741
                   16         17         18         19         20
    16  H    0.000000
    17  H    1.782311   0.000000
    18  C    6.490245   4.975514   0.000000
    19  C    5.262912   3.850504   1.529541   0.000000
    20  C    5.983439   4.801422   2.504963   1.532023   0.000000
    21  C    4.398108   3.303215   2.507134   1.529341   2.498486
    22  C    4.785801   3.160368   2.510011   1.530055   2.460941
    23  Cl   4.532574   2.758300   3.172279   2.758532   4.093872
    24  H    7.046918   5.682363   1.087188   2.161220   2.753295
    25  H    6.369486   4.799408   1.087497   2.166756   3.458542
    26  H    7.227078   5.628680   1.088278   2.167823   2.740267
    27  H    5.445825   4.482606   3.457432   2.167860   1.087501
    28  H    6.583994   5.534200   2.741998   2.160107   1.086906
    29  H    6.763302   5.466841   2.751336   2.172263   1.087830
    30  H    4.163543   2.986921   2.756058   2.167313   3.454203
    31  H    5.167748   4.282821   2.742263   2.159894   2.743652
    32  H    3.623910   2.812346   3.457463   2.163615   2.726485
    33  H    4.095242   2.648448   3.464315   2.170210   2.694108
    34  H    5.732486   4.092867   2.738562   2.173680   2.722252
                   21         22         23         24         25
    21  C    0.000000
    22  C    2.510258   0.000000
    23  Cl   3.150467   1.782610   0.000000
    24  H    2.741392   3.458011   4.155397   0.000000
    25  H    2.757557   2.768051   2.750828   1.762929   0.000000
    26  H    3.460337   2.749084   3.538036   1.764626   1.765710
    27  H    2.733074   2.698026   4.370540   3.749752   4.301512
    28  H    2.738017   3.420039   4.906248   2.542155   3.745416
    29  H    3.455449   2.699373   4.387651   3.106462   3.748631
    30  H    1.087450   2.771505   2.728704   3.091791   2.559657
    31  H    1.087153   3.457388   4.140026   2.527066   3.097347
    32  H    1.087337   2.744474   3.500773   3.737961   3.757929
    33  H    2.754348   1.089613   2.339769   4.300799   3.771356
    34  H    3.466930   1.090494   2.333452   3.737799   3.089266
                   26         27         28         29         30
    26  H    0.000000
    27  H    3.743142   0.000000
    28  H    3.077976   1.763943   0.000000
    29  H    2.537231   1.765912   1.763664   0.000000
    30  H    3.759538   3.732710   3.741472   4.303758   0.000000
    31  H    3.739823   3.084655   2.533761   3.745557   1.762962
    32  H    4.299997   2.509217   3.069826   3.729447   1.767903
    33  H    3.748698   2.472199   3.698993   3.035056   3.120698
    34  H    2.526851   3.076350   3.720241   2.504338   3.765794
                   31         32         33         34
    31  H    0.000000
    32  H    1.764087   0.000000
    33  H    3.746427   2.539387   0.000000
    34  H    4.303059   3.755686   1.782309   0.000000
 Framework group  C1[X(C10H22Cl2)]
 Deg. of freedom    96
                         Standard orientation:                         
 ---------------------------------------------------------------------
 Center     Atomic      Atomic             Coordinates (Angstroms)
 Number     Number       Type             X           Y           Z
 ---------------------------------------------------------------------
      1          6           0        2.277339   -0.694948   -1.375142
      2          6           0        2.821193   -0.283311   -0.006317
      3          6           0        3.228683   -1.535446    0.776768
      4          6           0        4.030098    0.638152   -0.176395
      5          6           0        1.731874    0.417527    0.808023
      6         17           0        1.117229    1.885996    0.005691
      7          1           0        1.966776    0.178322   -1.943889
      8          1           0        1.423960   -1.358904   -1.260131
      9          1           0        3.045007   -1.216491   -1.941341
     10          1           0        3.609310   -1.270643    1.760827
     11          1           0        4.007641   -2.071431    0.240766
     12          1           0        2.377704   -2.200762    0.902660
     13          1           0        4.811258    0.133248   -0.739276
     14          1           0        4.434634    0.924068    0.792605
     15          1           0        3.750957    1.541464   -0.713761
     16          1           0        2.115006    0.739996    1.776725
     17          1           0        0.875066   -0.239829    0.952636
     18          6           0       -4.026031   -0.642711    0.195881
     19          6           0       -2.822037    0.282518    0.011912
     20          6           0       -3.242392    1.532928   -0.767108
     21          6           0       -2.264454    0.696487    1.374488
     22          6           0       -1.739473   -0.415215   -0.814098
     23         17           0       -1.114644   -1.883880   -0.020177
     24          1           0       -4.803315   -0.139158    0.765302
     25          1           0       -3.738548   -1.543834    0.732518
     26          1           0       -4.439120   -0.932210   -0.768431
     27          1           0       -2.394833    2.200468   -0.903831
     28          1           0       -4.016242    2.067226   -0.222086
     29          1           0       -3.634234    1.266320   -1.746268
     30          1           0       -1.943390   -0.175440    1.939476
     31          1           0       -3.028023    1.214347    1.949541
     32          1           0       -1.415598    1.364479    1.249862
     33          1           0       -0.885148    0.243754   -0.966235
     34          1           0       -2.131610   -0.736859   -1.779474
 ---------------------------------------------------------------------
 Rotational constants (GHZ):           1.0478865           0.3471387           0.2956275
   220 basis functions,   412 primitive gaussians,   232 cartesian basis functions
    58 alpha electrons       58 beta electrons
       nuclear repulsion energy       993.2896112453 Hartrees.
 NAtoms=   34 NActive=   34 NUniq=   34 SFac= 1.00D+00 NAtFMM=   60 NAOKFM=F Big=F
 Nuclear repulsion after empirical dispersion term =      993.2615195854 Hartrees.
   1 Symmetry operations used in ECPInt.
 ECPInt:  NShTT=    7260 NPrTT=   30132 LenC2=    6961 LenP2D=   20559.
 LDataN:  DoStor=T MaxTD1= 4 Len=   56
 ExpMin= 1.22D-01 ExpMax= 1.04D+04 ExpMxC= 1.57D+03 IAcc=3 IRadAn=         5 AccDes= 0.00D+00
 Harris functional with IExCor= 4639 and IRadAn=       5 diagonalized for initial guess.
 HarFok:  IExCor= 4639 AccDes= 0.00D+00 IRadAn=         5 IDoV= 1 UseB2=F ITyADJ=14
 ICtDFT=  3500011 ScaDFX=  1.000000  1.000000  1.000000  1.000000
 FoFCou: FMM=F IPFlag=           0 FMFlag=      100000 FMFlg1=           0
         NFxFlg=           0 DoJE=T BraDBF=F KetDBF=T FulRan=T
         wScrn=  0.000000 ICntrl=       500 IOpCl=  0 I1Cent=   200000004 NGrid=           0
         NMat0=    1 NMatS0=      1 NMatT0=    0 NMatD0=    1 NMtDS0=    0 NMtDT0=    0
 Petite list used in FoFCou.
     Accept linear search using points  2 and  3.
     Accept linear search using points  1 and  2.
     Minimum is close to point  2 DX=  1.13D-04 DF= -6.82D-13 DXR=  1.13D-04 DFR=  1.26D-08 which will be used.
 SCF Done:  E(RwB97XD) =  -1314.01318593     a.u. after    7 cycles
            Convg  =    0.2736D-08                    33 Fock formations.
              S**2 =  0.0000                  -V/T =  2.0046

 **********************************************************************

            Population analysis using the SCF Density.

 **********************************************************************

 Orbital symmetries:
       Occupied  (A) (A) (A) (A) (A) (A) (A) (A) (A) (A) (A) (A)
                 (A) (A) (A) (A) (A) (A) (A) (A) (A) (A) (A) (A)
                 (A) (A) (A) (A) (A) (A) (A) (A) (A) (A) (A) (A)
                 (A) (A) (A) (A) (A) (A) (A) (A) (A) (A) (A) (A)
                 (A) (A) (A) (A) (A) (A) (A) (A) (A) (A)
       Virtual   (A) (A) (A) (A) (A) (A) (A) (A) (A) (A) (A) (A)
                 (A) (A) (A) (A) (A) (A) (A) (A) (A) (A) (A) (A)
                 (A) (A) (A) (A) (A) (A) (A) (A) (A) (A) (A) (A)
                 (A) (A) (A) (A) (A) (A) (A) (A) (A) (A) (A) (A)
                 (A) (A) (A) (A) (A) (A) (A) (A) (A) (A) (A) (A)
                 (A) (A) (A) (A) (A) (A) (A) (A) (A) (A) (A) (A)
                 (A) (A) (A) (A) (A) (A) (A) (A) (A) (A) (A) (A)
                 (A) (A) (A) (A) (A) (A) (A) (A) (A) (A) (A) (A)
                 (A) (A) (A) (A) (A) (A) (A) (A) (A) (A) (A) (A)
                 (A) (A) (A) (A) (A) (A) (A) (A) (A) (A) (A) (A)
                 (A) (A) (A) (A) (A) (A) (A) (A) (A) (A) (A) (A)
                 (A) (A) (A) (A) (A) (A) (A) (A) (A) (A) (A) (A)
                 (A) (A) (A) (A) (A) (A) (A) (A) (A) (A) (A) (A)
                 (A) (A) (A) (A) (A) (A)
 The electronic state is 1-A.
 Alpha  occ. eigenvalues -- -101.66406-101.66395 -10.33966 -10.33952 -10.31377
 Alpha  occ. eigenvalues --  -10.31367 -10.28092 -10.28083 -10.27540 -10.27533
 Alpha  occ. eigenvalues --  -10.27171 -10.27161  -9.57167  -9.57156  -7.32510
 Alpha  occ. eigenvalues --   -7.32499  -7.31599  -7.31588  -7.31581  -7.31570
 Alpha  occ. eigenvalues --   -0.96783  -0.96419  -0.90159  -0.90017  -0.78339
 Alpha  occ. eigenvalues --   -0.78299  -0.77866  -0.77835  -0.75778  -0.75604
 Alpha  occ. eigenvalues --   -0.62952  -0.62736  -0.56893  -0.55793  -0.55656
 Alpha  occ. eigenvalues --   -0.55400  -0.54048  -0.53670  -0.51272  -0.50572
 Alpha  occ. eigenvalues --   -0.49781  -0.49617  -0.46383  -0.46292  -0.46203
 Alpha  occ. eigenvalues --   -0.46084  -0.45184  -0.45161  -0.43510  -0.43033
 Alpha  occ. eigenvalues --   -0.41436  -0.40959  -0.40945  -0.40762  -0.38509
 Alpha  occ. eigenvalues --   -0.37176  -0.37131  -0.36015
 Alpha virt. eigenvalues --    0.11789   0.11932   0.13936   0.14999   0.17626
 Alpha virt. eigenvalues --    0.17729   0.18630   0.18763   0.19175   0.19245
 Alpha virt. eigenvalues --    0.19969   0.20355   0.20888   0.21296   0.22231
 Alpha virt. eigenvalues --    0.22926   0.23461   0.24604   0.25945   0.26199
 Alpha virt. eigenvalues --    0.26301   0.26623   0.27468   0.27602   0.27626
 Alpha virt. eigenvalues --    0.28946   0.30272   0.30432   0.31162   0.31201
 Alpha virt. eigenvalues --    0.31868   0.32026   0.45853   0.46696   0.46881
 Alpha virt. eigenvalues --    0.48540   0.49099   0.50116   0.50552   0.52521
 Alpha virt. eigenvalues --    0.53105   0.54316   0.59575   0.60248   0.60888
 Alpha virt. eigenvalues --    0.62572   0.62847   0.67136   0.67484   0.68280
 Alpha virt. eigenvalues --    0.69166   0.69608   0.71444   0.72988   0.74074
 Alpha virt. eigenvalues --    0.74465   0.75440   0.76605   0.76884   0.77020
 Alpha virt. eigenvalues --    0.77238   0.77595   0.78755   0.78825   0.78943
 Alpha virt. eigenvalues --    0.79127   0.79783   0.80033   0.81452   0.81546
 Alpha virt. eigenvalues --    0.81916   0.81985   0.82684   0.82917   0.83481
 Alpha virt. eigenvalues --    0.83598   0.84296   0.84787   0.85690   0.85842
 Alpha virt. eigenvalues --    0.85966   0.86444   0.87547   0.88065   0.88472
 Alpha virt. eigenvalues --    0.88847   0.90231   0.90301   0.90959   0.92608
 Alpha virt. eigenvalues --    0.92813   0.92946   0.97962   0.99796   1.00210
 Alpha virt. eigenvalues --    1.01878   1.05965   1.06682   1.09854   1.13784
 Alpha virt. eigenvalues --    1.18636   1.19253   1.21406   1.24253   1.24868
 Alpha virt. eigenvalues --    1.24964   1.26571   1.28285   1.29720   1.31148
 Alpha virt. eigenvalues --    1.43492   1.43807   1.50208   1.50216   1.51422
 Alpha virt. eigenvalues --    1.52761   1.79846   1.79989   1.80552   1.80665
 Alpha virt. eigenvalues --    1.83147   1.83204   1.89601   1.90526   1.91084
 Alpha virt. eigenvalues --    1.92389   1.92648   1.93886   2.11288   2.11932
 Alpha virt. eigenvalues --    2.11941   2.12437   2.12830   2.12853   2.12887
 Alpha virt. eigenvalues --    2.13218   2.16259   2.18331   2.25005   2.25015
 Alpha virt. eigenvalues --    2.26075   2.26115   2.26487   2.26608   2.27160
 Alpha virt. eigenvalues --    2.27233   2.27737   2.28054   2.29926   2.30884
 Alpha virt. eigenvalues --    2.32722   2.33547   2.62805   2.63615   2.63883
 Alpha virt. eigenvalues --    2.64269   2.76775   2.76918   2.77046   2.77096
 Alpha virt. eigenvalues --    2.78226   2.78356
          Condensed to atoms (all electrons):
 Mulliken charges:
               1
     1  C   -0.266149
     2  C   -0.288130
     3  C   -0.253081
     4  C   -0.250100
     5  C   -0.133434
     6  Cl  -0.146552
     7  H    0.120885
     8  H    0.116006
     9  H    0.111071
    10  H    0.110345
    11  H    0.118547
    12  H    0.120304
    13  H    0.112710
    14  H    0.106961
    15  H    0.122419
    16  H    0.145012
    17  H    0.152892
    18  C   -0.250167
    19  C   -0.288421
    20  C   -0.253082
    21  C   -0.266316
    22  C   -0.132975
    23  Cl  -0.146374
    24  H    0.112717
    25  H    0.122486
    26  H    0.107020
    27  H    0.120377
    28  H    0.118591
    29  H    0.110393
    30  H    0.120981
    31  H    0.111142
    32  H    0.116211
    33  H    0.152614
    34  H    0.145095
 Sum of Mulliken charges =   0.00000
 Mulliken charges with hydrogens summed into heavy atoms:
               1
     1  C    0.081813
     2  C   -0.288130
     3  C    0.096115
     4  C    0.091991
     5  C    0.164470
     6  Cl  -0.146552
    18  C    0.092056
    19  C   -0.288421
    20  C    0.096279
    21  C    0.082018
    22  C    0.164734
    23  Cl  -0.146374
 Electronic spatial extent (au):  <R**2>=           3971.9498
 Charge=              0.0000 electrons
 Dipole moment (field-independent basis, Debye):
    X=             -0.0137    Y=             -0.0012    Z=              0.0085  Tot=              0.0161
 Evaluate density.
 Using the total density.
 Monte-Carlo method of calculating molar volume:
 based on  0.001 e/bohr**3 density envelope.
 Number of points per bohr**3 =  100 CutOff= 1.00D-04
 Using the SCF density.
 There are      2292 points.  Will hold      2292 in memory.
 LenV=  1047983750 MDV=  1048576000.
 Box volume =12048.138 fraction occupied=0.150
 Integrated density= 9.4166692617767765D+01 error=-2.1833307382232235D+01
 Molar volume = 1808.272 bohr**3/mol (161.368 cm**3/mol)
 Recommended a0 for SCRF calculation =  4.90 angstrom (  9.26 bohr)
   1 Symmetry operations used in ECPInt.
 ECPInt:  NShTT=    7260 NPrTT=   30132 LenC2=    6961 LenP2D=   20559.
 LDataN:  DoStor=T MaxTD1= 5 Len=  102
 Calling FoFJK, ICntrl=      2127 FMM=F ISym2X=0 I1Cent= 0 IOpClX= 0 NMat=1 NMatS=1 NMatT=0.

 GradGradGradGradGradGradGradGradGradGradGradGradGradGradGradGradGradGrad
 FormGI is forming the generalized inverse of G from B-inverse, IUseBI=4.
 Internal  Forces:  Max     0.011517332 RMS     0.003892829
 Step number   1 out of a maximum of  204
 All quantities printed in internal units (Hartrees-Bohrs-Radians)
 Mixed Optimization -- RFO/linear search
 Second derivative matrix not updated -- first step.
 ITU=  0
     Eigenvalues ---    0.00342   0.00342   0.00368   0.00369   0.00375
     Eigenvalues ---    0.00375   0.00378   0.00378   0.00410   0.00579
     Eigenvalues ---    0.00609   0.02007   0.03210   0.03650   0.04546
     Eigenvalues ---    0.04565   0.04566   0.04575   0.04829   0.04829
     Eigenvalues ---    0.05153   0.05155   0.05556   0.05556   0.05590
     Eigenvalues ---    0.05591   0.05603   0.05603   0.05646   0.05647
     Eigenvalues ---    0.05652   0.05652   0.05673   0.05674   0.06043
     Eigenvalues ---    0.06319   0.07274   0.07725   0.11016   0.12237
     Eigenvalues ---    0.13616   0.14252   0.14252   0.14621   0.14621
     Eigenvalues ---    0.15165   0.16000   0.16000   0.16000   0.16000
     Eigenvalues ---    0.16000   0.16000   0.16000   0.16000   0.16000
     Eigenvalues ---    0.16000   0.16000   0.16000   0.16000   0.16000
     Eigenvalues ---    0.16000   0.16000   0.16000   0.16000   0.24637
     Eigenvalues ---    0.25515   0.29237   0.29237   0.29418   0.29422
     Eigenvalues ---    0.29466   0.29467   0.29484   0.29484   0.31197
     Eigenvalues ---    0.33194   0.34756   0.34756   0.35012   0.35012
     Eigenvalues ---    0.35065   0.35065   0.35103   0.35103   0.35103
     Eigenvalues ---    0.35104   0.35109   0.35110   0.35121   0.35122
     Eigenvalues ---    0.35140   0.35140   0.35144   0.35144   0.35173
     Eigenvalues ---    0.35173
 Linear search not attempted -- first point.
 Iteration  1 RMS(Cart)=  0.04482345 RMS(Int)=  0.00038664
 Iteration  2 RMS(Cart)=  0.00067109 RMS(Int)=  0.00005605
 Iteration  3 RMS(Cart)=  0.00000039 RMS(Int)=  0.00005605
 Variable       Old X    -DE/DX   Delta X   Delta X   Delta X     New X
                                 (Linear)    (Quad)   (Total)
    R1        2.89005   0.00480   0.00000   0.01575   0.01575   2.90580
    R2        2.05496   0.01022   0.00000   0.02828   0.02828   2.08324
    R3        2.05479   0.01131   0.00000   0.03132   0.03132   2.08610
    R4        2.05442   0.01152   0.00000   0.03185   0.03185   2.08627
    R5        2.89512   0.00413   0.00000   0.01364   0.01364   2.90875
    R6        2.89040   0.00435   0.00000   0.01428   0.01428   2.90468
    R7        2.89130   0.00579   0.00000   0.01903   0.01903   2.91033
    R8        2.05570   0.01152   0.00000   0.03193   0.03193   2.08762
    R9        2.05394   0.01135   0.00000   0.03137   0.03137   2.08532
   R10        2.05508   0.01144   0.00000   0.03167   0.03167   2.08676
   R11        2.05448   0.01139   0.00000   0.03150   0.03150   2.08599
   R12        2.05655   0.01130   0.00000   0.03136   0.03136   2.08792
   R13        2.05508   0.01020   0.00000   0.02825   0.02825   2.08333
   R14        3.36877   0.00958   0.00000   0.03849   0.03850   3.40727
   R15        2.06072   0.00714   0.00000   0.01996   0.01996   2.08068
   R16        2.05898   0.00756   0.00000   0.02186   0.02187   2.08084
   R17        5.22710   0.00083   0.00000   0.02060   0.02059   5.24769
   R18        5.21243   0.00089   0.00000   0.02160   0.02159   5.23402
   R19        5.00484   0.00162   0.00000   0.00074   0.00074   5.00558
   R20        2.89041   0.00436   0.00000   0.01429   0.01429   2.90471
   R21        2.05449   0.01139   0.00000   0.03150   0.03150   2.08599
   R22        2.05507   0.01020   0.00000   0.02824   0.02824   2.08331
   R23        2.05655   0.01130   0.00000   0.03138   0.03138   2.08792
   R24        2.89510   0.00412   0.00000   0.01363   0.01363   2.90874
   R25        2.89004   0.00480   0.00000   0.01574   0.01574   2.90578
   R26        2.89138   0.00577   0.00000   0.01897   0.01897   2.91035
   R27        2.05508   0.01145   0.00000   0.03170   0.03170   2.08678
   R28        2.05396   0.01134   0.00000   0.03135   0.03135   2.08531
   R29        2.05570   0.01151   0.00000   0.03191   0.03191   2.08761
   R30        2.05498   0.01023   0.00000   0.02832   0.02832   2.08331
   R31        2.05442   0.01152   0.00000   0.03185   0.03185   2.08628
   R32        2.05477   0.01131   0.00000   0.03131   0.03131   2.08608
   R33        3.36864   0.00957   0.00000   0.03852   0.03854   3.40718
   R34        2.05907   0.00751   0.00000   0.02180   0.02181   2.08088
   R35        2.06073   0.00713   0.00000   0.01995   0.01995   2.08068
    A1        1.93214   0.00147   0.00000   0.00874   0.00871   1.94085
    A2        1.92706   0.00137   0.00000   0.00857   0.00854   1.93560
    A3        1.92214   0.00016   0.00000   0.00033   0.00033   1.92247
    A4        1.89815  -0.00133   0.00000  -0.00670  -0.00675   1.89141
    A5        1.89075  -0.00097   0.00000  -0.00668  -0.00668   1.88407
    A6        1.89267  -0.00080   0.00000  -0.00490  -0.00491   1.88776
    A7        1.90932   0.00014   0.00000  -0.00407  -0.00400   1.90532
    A8        1.92165  -0.00062   0.00000   0.00248   0.00233   1.92398
    A9        1.92462   0.00115   0.00000   0.01339   0.01327   1.93789
   A10        1.91664   0.00009   0.00000  -0.00550  -0.00545   1.91120
   A11        1.86679  -0.00177   0.00000  -0.01803  -0.01796   1.84883
   A12        1.92405   0.00097   0.00000   0.01103   0.01088   1.93493
   A13        1.93531   0.00132   0.00000   0.00812   0.00808   1.94340
   A14        1.91941   0.00067   0.00000   0.00292   0.00292   1.92232
   A15        1.92949   0.00142   0.00000   0.00904   0.00901   1.93850
   A16        1.89165  -0.00120   0.00000  -0.00835  -0.00835   1.88330
   A17        1.89442  -0.00118   0.00000  -0.00500  -0.00506   1.88936
   A18        1.89252  -0.00116   0.00000  -0.00751  -0.00752   1.88500
   A19        1.92376   0.00032   0.00000   0.00123   0.00122   1.92499
   A20        1.93164   0.00123   0.00000   0.00703   0.00700   1.93865
   A21        1.93102   0.00156   0.00000   0.01006   0.01002   1.94104
   A22        1.89222  -0.00104   0.00000  -0.00782  -0.00782   1.88440
   A23        1.89057  -0.00091   0.00000  -0.00490  -0.00492   1.88566
   A24        1.89353  -0.00129   0.00000  -0.00630  -0.00635   1.88718
   A25        1.96411   0.00429   0.00000   0.03837   0.03838   2.00249
   A26        1.93704  -0.00075   0.00000  -0.00756  -0.00775   1.92929
   A27        1.93281  -0.00209   0.00000  -0.00735  -0.00758   1.92524
   A28        1.85184  -0.00084   0.00000  -0.00438  -0.00449   1.84735
   A29        1.86041  -0.00076   0.00000  -0.00493  -0.00497   1.85544
   A30        1.91430   0.00019   0.00000  -0.01473  -0.01486   1.89945
   A31        1.48938  -0.00050   0.00000  -0.00694  -0.00687   1.48251
   A32        2.64676   0.00046   0.00000   0.00150   0.00138   2.64814
   A33        1.89264  -0.00135   0.00000   0.00099   0.00099   1.89364
   A34        0.89422   0.00249   0.00000   0.00687   0.00683   0.90105
   A35        1.92368   0.00032   0.00000   0.00121   0.00121   1.92489
   A36        1.93104   0.00157   0.00000   0.01009   0.01006   1.94110
   A37        1.93171   0.00123   0.00000   0.00700   0.00698   1.93869
   A38        1.89056  -0.00091   0.00000  -0.00487  -0.00489   1.88567
   A39        1.89223  -0.00104   0.00000  -0.00783  -0.00782   1.88440
   A40        1.89354  -0.00129   0.00000  -0.00632  -0.00637   1.88717
   A41        1.91654   0.00010   0.00000  -0.00543  -0.00538   1.91116
   A42        1.92151  -0.00062   0.00000   0.00251   0.00236   1.92387
   A43        1.92413   0.00097   0.00000   0.01102   0.01087   1.93500
   A44        1.90938   0.00014   0.00000  -0.00404  -0.00398   1.90540
   A45        1.86692  -0.00177   0.00000  -0.01808  -0.01802   1.84890
   A46        1.92460   0.00115   0.00000   0.01333   0.01321   1.93781
   A47        1.92952   0.00143   0.00000   0.00906   0.00903   1.93855
   A48        1.91940   0.00067   0.00000   0.00292   0.00291   1.92231
   A49        1.93531   0.00132   0.00000   0.00811   0.00807   1.94338
   A50        1.89250  -0.00117   0.00000  -0.00755  -0.00756   1.88494
   A51        1.89442  -0.00118   0.00000  -0.00499  -0.00505   1.88938
   A52        1.89164  -0.00120   0.00000  -0.00832  -0.00832   1.88332
   A53        1.93211   0.00145   0.00000   0.00856   0.00853   1.94064
   A54        1.92212   0.00017   0.00000   0.00042   0.00042   1.92254
   A55        1.92709   0.00138   0.00000   0.00861   0.00858   1.93567
   A56        1.89071  -0.00096   0.00000  -0.00666  -0.00666   1.88405
   A57        1.89826  -0.00133   0.00000  -0.00672  -0.00676   1.89149
   A58        1.89262  -0.00081   0.00000  -0.00486  -0.00486   1.88776
   A59        1.96413   0.00428   0.00000   0.03824   0.03824   2.00237
   A60        1.93300  -0.00207   0.00000  -0.00720  -0.00743   1.92558
   A61        1.93692  -0.00075   0.00000  -0.00755  -0.00774   1.92917
   A62        1.86045  -0.00077   0.00000  -0.00486  -0.00490   1.85555
   A63        1.85179  -0.00083   0.00000  -0.00428  -0.00440   1.84739
   A64        1.91423   0.00018   0.00000  -0.01494  -0.01506   1.89917
   A65        1.48956  -0.00052   0.00000  -0.00714  -0.00707   1.48250
   A66        0.89272   0.00251   0.00000   0.00693   0.00689   0.89961
   A67        2.64161   0.00055   0.00000   0.00175   0.00163   2.64323
   A68        1.88548  -0.00130   0.00000   0.00125   0.00125   1.88673
    D1        3.12624  -0.00012   0.00000   0.01021   0.01021   3.13645
    D2       -1.04915  -0.00031   0.00000   0.00239   0.00241  -1.04674
    D3        1.07778   0.00126   0.00000   0.02672   0.02674   1.10452
    D4        1.02326  -0.00032   0.00000   0.00725   0.00723   1.03049
    D5        3.13106  -0.00050   0.00000  -0.00057  -0.00058   3.13048
    D6       -1.02520   0.00107   0.00000   0.02376   0.02375  -1.00145
    D7       -1.06642  -0.00029   0.00000   0.00769   0.00768  -1.05874
    D8        1.04138  -0.00047   0.00000  -0.00013  -0.00013   1.04125
    D9       -3.11488   0.00110   0.00000   0.02419   0.02420  -3.09068
   D10       -3.13038  -0.00053   0.00000  -0.00481  -0.00486  -3.13524
   D11        1.06089  -0.00031   0.00000  -0.00149  -0.00152   1.05937
   D12       -1.02840  -0.00020   0.00000   0.00025   0.00023  -1.02817
   D13        1.04197   0.00008   0.00000  -0.00187  -0.00184   1.04013
   D14       -1.04994   0.00030   0.00000   0.00146   0.00150  -1.04844
   D15       -3.13924   0.00041   0.00000   0.00319   0.00325  -3.13599
   D16       -1.04589  -0.00010   0.00000  -0.00145  -0.00147  -1.04735
   D17       -3.13780   0.00012   0.00000   0.00188   0.00187  -3.13593
   D18        1.05609   0.00023   0.00000   0.00361   0.00362   1.05971
   D19       -1.03258   0.00042   0.00000   0.00444   0.00443  -1.02816
   D20       -3.12568   0.00072   0.00000   0.00889   0.00889  -3.11679
   D21        1.05805   0.00050   0.00000   0.00556   0.00554   1.06359
   D22        1.07081   0.00027   0.00000  -0.00253  -0.00251   1.06829
   D23       -1.02228   0.00056   0.00000   0.00192   0.00195  -1.02034
   D24       -3.12174   0.00034   0.00000  -0.00141  -0.00140  -3.12314
   D25        3.12334  -0.00125   0.00000  -0.02128  -0.02129   3.10205
   D26        1.03024  -0.00096   0.00000  -0.01683  -0.01683   1.01342
   D27       -1.06921  -0.00118   0.00000  -0.02016  -0.02017  -1.08939
   D28       -1.04279   0.00007   0.00000  -0.00224  -0.00234  -1.04513
   D29       -3.11511  -0.00119   0.00000  -0.01703  -0.01708  -3.13220
   D30        1.03753   0.00053   0.00000   0.01198   0.01191   1.04944
   D31       -3.11739   0.00031   0.00000   0.00589   0.00587  -3.11152
   D32        1.09347  -0.00096   0.00000  -0.00891  -0.00887   1.08460
   D33       -1.03707   0.00077   0.00000   0.02011   0.02012  -1.01695
   D34        1.08271   0.00071   0.00000   0.01706   0.01711   1.09982
   D35       -0.98961  -0.00056   0.00000   0.00227   0.00237  -0.98724
   D36       -3.12015   0.00116   0.00000   0.03129   0.03136  -3.08879
   D37        1.66609  -0.00053   0.00000   0.00686   0.00694   1.67303
   D38       -2.49553   0.00053   0.00000   0.01741   0.01751  -2.47803
   D39       -0.45595  -0.00002   0.00000  -0.00392  -0.00388  -0.45983
   D40       -0.94860  -0.00124   0.00000  -0.01446  -0.01436  -0.96297
   D41       -1.63755  -0.00386   0.00000  -0.03307  -0.03297  -1.67052
   D42        1.19320   0.00228   0.00000   0.02499   0.02494   1.21814
   D43        0.50426  -0.00034   0.00000   0.00638   0.00634   0.51059
   D44       -3.09240   0.00098   0.00000   0.01004   0.01005  -3.08234
   D45        2.50185  -0.00163   0.00000  -0.00857  -0.00855   2.49329
   D46        0.22480   0.00037   0.00000   0.00328   0.00328   0.22808
   D47        1.09395   0.00235   0.00000   0.02424   0.02422   1.11817
   D48       -1.11315  -0.00234   0.00000  -0.02360  -0.02359  -1.13674
   D49       -0.22888  -0.00036   0.00000  -0.00317  -0.00317  -0.23205
   D50       -0.39324  -0.00012   0.00000  -0.00619  -0.00619  -0.39943
   D51       -3.13955  -0.00001   0.00000   0.00003   0.00002  -3.13952
   D52       -3.13726   0.00002   0.00000  -0.00019  -0.00019  -3.13745
   D53        0.39962   0.00012   0.00000   0.00603   0.00602   0.40564
   D54       -1.06856  -0.00027   0.00000   0.00225   0.00224  -1.06632
   D55        1.03476  -0.00042   0.00000  -0.00462  -0.00461   1.03015
   D56       -3.12123   0.00125   0.00000   0.02103   0.02104  -3.10018
   D57        3.12405  -0.00035   0.00000   0.00108   0.00107   3.12512
   D58       -1.05582  -0.00050   0.00000  -0.00580  -0.00578  -1.06159
   D59        1.07139   0.00117   0.00000   0.01986   0.01988   1.09126
   D60        1.02453  -0.00057   0.00000  -0.00223  -0.00226   1.02227
   D61        3.12784  -0.00072   0.00000  -0.00910  -0.00910   3.11874
   D62       -1.02814   0.00095   0.00000   0.01655   0.01655  -1.01159
   D63        3.14035  -0.00041   0.00000  -0.00324  -0.00330   3.13705
   D64        1.05106  -0.00030   0.00000  -0.00147  -0.00151   1.04955
   D65       -1.04083  -0.00008   0.00000   0.00184   0.00181  -1.03902
   D66        1.02971   0.00019   0.00000  -0.00040  -0.00037   1.02933
   D67       -1.05958   0.00031   0.00000   0.00138   0.00141  -1.05817
   D68        3.13171   0.00053   0.00000   0.00468   0.00473   3.13644
   D69       -1.05487  -0.00024   0.00000  -0.00367  -0.00367  -1.05854
   D70        3.13903  -0.00012   0.00000  -0.00189  -0.00189   3.13714
   D71        1.04714   0.00010   0.00000   0.00141   0.00143   1.04857
   D72        1.05073   0.00031   0.00000  -0.00233  -0.00235   1.04838
   D73       -1.03972   0.00047   0.00000   0.00022   0.00022  -1.03950
   D74       -3.12935   0.00049   0.00000   0.00052   0.00053  -3.12882
   D75       -3.12484   0.00013   0.00000  -0.01003  -0.01003  -3.13487
   D76        1.06790   0.00030   0.00000  -0.00748  -0.00746   1.06043
   D77       -1.02173   0.00032   0.00000  -0.00718  -0.00716  -1.02889
   D78       -1.07620  -0.00126   0.00000  -0.02662  -0.02664  -1.10284
   D79        3.11654  -0.00109   0.00000  -0.02407  -0.02408   3.09246
   D80        1.02691  -0.00107   0.00000  -0.02377  -0.02377   1.00314
   D81       -1.07973  -0.00073   0.00000  -0.01839  -0.01843  -1.09816
   D82        3.12294  -0.00117   0.00000  -0.03274  -0.03281   3.09014
   D83        0.99245   0.00055   0.00000  -0.00357  -0.00366   0.98879
   D84        3.12038  -0.00034   0.00000  -0.00726  -0.00723   3.11315
   D85        1.03987  -0.00078   0.00000  -0.02160  -0.02161   1.01826
   D86       -1.09062   0.00094   0.00000   0.00756   0.00753  -1.08309
   D87        1.04565  -0.00010   0.00000   0.00091   0.00101   1.04666
   D88       -1.03487  -0.00054   0.00000  -0.01344  -0.01337  -1.04824
   D89        3.11783   0.00118   0.00000   0.01573   0.01577   3.13360
   D90       -1.65702   0.00050   0.00000  -0.00732  -0.00740  -1.66442
   D91        0.46530   0.00001   0.00000   0.00363   0.00358   0.46888
   D92        2.50479  -0.00056   0.00000  -0.01785  -0.01796   2.48683
   D93        0.95428   0.00122   0.00000   0.01421   0.01411   0.96839
   D94        1.63009   0.00385   0.00000   0.03322   0.03312   1.66321
   D95       -1.18769  -0.00229   0.00000  -0.02521  -0.02517  -1.21286
   D96       -0.51187   0.00034   0.00000  -0.00621  -0.00617  -0.51804
   D97        3.09799  -0.00099   0.00000  -0.01032  -0.01033   3.08766
   D98       -2.50939   0.00163   0.00000   0.00869   0.00868  -2.50071
         Item               Value     Threshold  Converged?
 Maximum Force            0.011517     0.000015     NO 
 RMS     Force            0.003893     0.000010     NO 
 Maximum Displacement     0.167822     0.000060     NO 
 RMS     Displacement     0.045035     0.000040     NO 
 GradGradGradGradGradGradGradGradGradGradGradGradGradGradGradGradGradGrad

                    Distance matrix (angstroms):
                    1          2          3          4          5
     1  C    0.000000
     2  C    1.537684   0.000000
     3  C    2.507571   1.539247   0.000000
     4  C    2.522327   1.537088   2.512317   0.000000
     5  C    2.536969   1.540081   2.458131   2.533894   0.000000
     6  Cl   3.238025   2.818961   4.135236   3.269046   1.803048
     7  H    1.102405   2.192242   3.481513   2.782818   2.826668
     8  H    1.103918   2.189592   2.751952   3.490731   2.775454
     9  H    1.104009   2.180108   2.753910   2.764917   3.495837
    10  H    3.484435   2.197214   1.104722   2.770191   2.705090
    11  H    2.754289   2.180995   1.103502   2.755239   3.437966
    12  H    2.753980   2.193328   1.104263   3.485188   2.706763
    13  H    2.760811   2.181305   2.766532   1.103858   3.494801
    14  H    3.492988   2.191996   2.756340   1.104878   2.780119
    15  H    2.790645   2.191887   3.485015   1.102449   2.816076
    16  H    3.496331   2.184969   2.710145   2.759326   1.101049
    17  H    2.787701   2.182082   2.673399   3.491567   1.101135
    18  C    6.616452   6.950489   7.395777   8.275888   5.960059
    19  C    5.474352   5.735846   6.395187   6.953833   4.669631
    20  C    6.045110   6.405356   7.332492   7.411829   5.347993
    21  C    5.623092   5.460938   6.022108   6.603682   4.130775
    22  C    4.148956   4.677664   5.348753   5.971318   3.940763
    23  Cl   3.885078   4.271788   4.415892   5.771218   3.775692
    24  H    7.553871   7.774096   8.237783   9.043810   6.652164
    25  H    6.588144   6.849384   7.064700   8.264402   5.922493
    26  H    6.858711   7.414155   7.906254   8.740551   6.579905
    27  H    5.564144   5.858957   6.950404   6.696361   4.802468
    28  H    7.054444   7.289237   8.186406   8.254797   6.108518
    29  H    6.290681   6.888600   7.837588   7.904681   6.014924
    30  H    5.567269   5.288889   5.569999   6.541603   4.016163
    31  H    6.692767   6.465360   7.022115   7.529554   5.064086
    32  H    5.095176   4.793359   5.530849   5.776666   3.373559
    33  H    3.408179   3.905038   4.825001   5.064168   3.174833
    34  H    4.499677   5.319703   6.010944   6.580672   4.807546
                    6          7          8          9         10
     6  Cl   0.000000
     7  H    2.849342   0.000000
     8  H    3.565221   1.789126   0.000000
     9  H    4.255555   1.784451   1.788068   0.000000
    10  H    4.428492   4.352121   3.773584   3.774401   0.000000
    11  H    4.980332   3.771760   3.103709   2.539026   1.785419
    12  H    4.408113   3.773732   2.536244   3.103815   1.789962
    13  H    4.275434   3.118940   3.775744   2.543222   3.130785
    14  H    3.626696   3.806880   4.350525   3.776349   2.553504
    15  H    2.876659   2.597066   3.807776   3.139017   3.784940
    16  H    2.355292   3.827144   3.792864   4.339106   2.487934
    17  H    2.361895   3.193068   2.571110   3.784343   3.020013
    18  C    5.774277   6.566791   5.787324   7.543894   7.878573
    19  C    4.275936   5.313370   4.803870   6.480133   6.870366
    20  C    4.426037   5.604923   5.547503   7.048514   7.829853
    21  C    3.882695   5.577552   5.095410   6.692320   6.258972
    22  C    3.780991   4.042478   3.388313   5.083527   6.010160
    23  Cl   4.418572   4.258727   2.901707   4.675212   5.078068
    24  H    6.347519   7.462926   6.780011   8.522358   8.627536
    25  H    6.068046   6.721189   5.678555   7.466036   7.514153
    26  H    6.321315   6.744011   5.986378   7.707940   8.504217
    27  H    3.603033   4.999168   5.256206   6.583368   7.423285
    28  H    5.138236   6.621668   6.575662   8.083282   8.590008
    29  H    5.091732   5.785987   5.742010   7.205742   8.450422
    30  H    4.250533   5.737156   4.958828   6.587305   5.741800
    31  H    4.674063   6.599446   6.194917   7.771659   7.168791
    32  H    2.899169   4.966386   4.768858   6.194333   5.718709
    33  H    2.776958   3.140033   2.882561   4.413217   5.487343
    34  H    4.559083   4.301539   3.688435   5.298574   6.787795
                   11         12         13         14         15
    11  H    0.000000
    12  H    1.786150   0.000000
    13  H    2.549258   3.780630   0.000000
    14  H    3.097753   3.779814   1.786546   0.000000
    15  H    3.776535   4.350055   1.785394   1.787209   0.000000
    16  H    3.726071   3.078353   3.768402   2.547510   3.137072
    17  H    3.699689   2.449555   4.335971   3.780093   3.832371
    18  C    8.244219   6.676068   9.046550   8.732486   8.272034
    19  C    7.284056   5.845050   7.779785   7.411160   6.858894
    20  C    8.192468   6.944924   8.257154   7.915911   7.087493
    21  C    7.034838   5.540853   7.542403   6.839656   6.581274
    22  C    6.113951   4.798819   6.665544   6.586775   5.937633
    23  Cl   5.130392   3.590399   6.344726   6.315643   6.068130
    24  H    9.141378   7.545284   9.878117   9.422789   8.999164
    25  H    7.894967   6.233333   8.993572   8.677798   8.406383
    26  H    8.664530   7.176945   9.434486   9.306162   8.693667
    27  H    7.804013   6.724089   7.568223   7.192541   6.259434
    28  H    9.099652   7.793220   9.155440   8.667678   7.913103
    29  H    8.605223   7.423619   8.658196   8.523514   7.547415
    30  H    6.589481   4.965379   7.438279   6.712362   6.702352
    31  H    8.060276   6.556763   8.509411   7.685756   7.458861
    32  H    6.561490   5.240534   6.770424   5.971309   5.671694
    33  H    5.593446   4.486705   5.796531   5.709700   4.924016
    34  H    6.645257   5.448761   7.162580   7.312110   6.494919
                   16         17         18         19         20
    16  H    0.000000
    17  H    1.790936   0.000000
    18  C    6.559288   5.047577   0.000000
    19  C    5.303121   3.891432   1.537105   0.000000
    20  C    6.001542   4.816856   2.512288   1.539237   0.000000
    21  C    4.471563   3.388189   2.522238   1.537671   2.507632
    22  C    4.802345   3.168818   2.533982   1.540092   2.458199
    23  Cl   4.551282   2.769722   3.267914   2.818827   4.135209
    24  H    7.137537   5.778625   1.103857   2.181246   2.765473
    25  H    6.469638   4.905116   1.102442   2.191940   3.485027
    26  H    7.295844   5.695901   1.104881   2.192044   2.757239
    27  H    5.445502   4.482881   3.485207   2.193367   1.104274
    28  H    6.629464   5.581639   2.755711   2.180974   1.103497
    29  H    6.784339   5.482881   2.769621   2.197191   1.104718
    30  H    4.265320   3.113521   2.783291   2.192107   3.481489
    31  H    5.266838   4.392549   2.764045   2.180148   2.754857
    32  H    3.665384   2.868111   3.490683   2.189623   2.751343
    33  H    4.104287   2.648837   3.491842   2.182355   2.674427
    34  H    5.750646   4.102062   2.760017   2.184893   2.709378
                   21         22         23         24         25
    21  C    0.000000
    22  C    2.536895   0.000000
    23  Cl   3.238719   1.803004   0.000000
    24  H    2.761536   3.494790   4.275121   0.000000
    25  H    2.789657   2.817098   2.876375   1.785396   0.000000
    26  H    3.492963   2.779437   3.623610   1.786547   1.787195
    27  H    2.754653   2.706320   4.408334   3.780099   4.350130
    28  H    2.753783   3.438013   4.980219   2.548625   3.776422
    29  H    3.484467   2.705749   4.428413   3.128461   3.785009
    30  H    1.102438   2.825629   2.848983   3.121243   2.596559
    31  H    1.104009   3.495856   4.255470   2.543135   3.136290
    32  H    1.103907   2.776177   3.567909   3.775828   3.807447
    33  H    2.787363   1.101155   2.361960   4.336168   3.832985
    34  H    3.496226   1.101050   2.355285   3.768367   3.139570
                   26         27         28         29         30
    26  H    0.000000
    27  H    3.780268   0.000000
    28  H    3.099923   1.786114   0.000000
    29  H    2.553878   1.789977   1.785421   0.000000
    30  H    3.806730   3.773857   3.771749   4.352017   0.000000
    31  H    3.776228   3.106049   2.539452   3.774841   1.784469
    32  H    4.350570   2.536252   3.101806   3.773444   1.789200
    33  H    3.780112   2.450079   3.700280   3.022175   3.191064
    34  H    2.547404   3.076456   3.725768   2.487710   3.826632
                   31         32         33         34
    31  H    0.000000
    32  H    1.788060   0.000000
    33  H    3.784709   2.571550   0.000000
    34  H    4.339068   3.793039   1.790774   0.000000
 Framework group  C1[X(C10H22Cl2)]
 Deg. of freedom    96
                         Standard orientation:                         
 ---------------------------------------------------------------------
 Center     Atomic      Atomic             Coordinates (Angstroms)
 Number     Number       Type             X           Y           Z
 ---------------------------------------------------------------------
      1          6           0        2.342632   -0.716680   -1.389616
      2          6           0        2.854669   -0.271516   -0.009718
      3          6           0        3.233075   -1.515348    0.814279
      4          6           0        4.086501    0.634363   -0.166611
      5          6           0        1.746777    0.442351    0.787037
      6         17           0        1.087582    1.924807    0.000420
      7          1           0        2.056410    0.150332   -2.007405
      8          1           0        1.464111   -1.377566   -1.289294
      9          1           0        3.131263   -1.271809   -1.926951
     10          1           0        3.600654   -1.236280    1.817981
     11          1           0        4.032896   -2.079708    0.304866
     12          1           0        2.366302   -2.188225    0.938129
     13          1           0        4.889196    0.099498   -0.703362
     14          1           0        4.481433    0.942088    0.818320
     15          1           0        3.841840    1.545006   -0.737806
     16          1           0        2.124649    0.765931    1.769288
     17          1           0        0.890701   -0.232998    0.940453
     18          6           0       -4.083429   -0.638225    0.184239
     19          6           0       -2.855435    0.270714    0.015261
     20          6           0       -3.245274    1.514003   -0.804196
     21          6           0       -2.330536    0.716328    1.390158
     22          6           0       -1.753871   -0.440053   -0.792977
     23         17           0       -1.085115   -1.922650   -0.014840
     24          1           0       -4.882582   -0.104792    0.727657
     25          1           0       -3.831295   -1.547613    0.754170
     26          1           0       -4.486488   -0.948049   -0.796737
     27          1           0       -2.381217    2.188581   -0.937506
     28          1           0       -4.040426    2.076763   -0.285795
     29          1           0       -3.623458    1.234445   -1.803809
     30          1           0       -2.034473   -0.150418    2.003728
     31          1           0       -3.115564    1.267701    1.936561
     32          1           0       -1.455712    1.380751    1.281374
     33          1           0       -0.900298    0.236786   -0.953739
     34          1           0       -2.140522   -0.762703   -1.772113
 ---------------------------------------------------------------------
 Rotational constants (GHZ):           1.0209008           0.3403938           0.2894707
   220 basis functions,   412 primitive gaussians,   232 cartesian basis functions
    58 alpha electrons       58 beta electrons
       nuclear repulsion energy       982.1958646737 Hartrees.
 NAtoms=   34 NActive=   34 NUniq=   34 SFac= 1.00D+00 NAtFMM=   60 NAOKFM=F Big=F
 Nuclear repulsion after empirical dispersion term =      982.1679163604 Hartrees.
   1 Symmetry operations used in ECPInt.
 ECPInt:  NShTT=    7260 NPrTT=   30132 LenC2=    6951 LenP2D=   20428.
 LDataN:  DoStor=T MaxTD1= 4 Len=   56
 Initial guess from the checkpoint file:  "19.chk"
 B after Tr=    -0.000000   -0.000000    0.000000
         Rot=    0.999981    0.005258    0.002319   -0.002083 Ang=   0.70 deg.
 ExpMin= 1.22D-01 ExpMax= 1.04D+04 ExpMxC= 1.57D+03 IAcc=3 IRadAn=         5 AccDes= 0.00D+00
 Harris functional with IExCor= 4639 and IRadAn=       5 diagonalized for initial guess.
 HarFok:  IExCor= 4639 AccDes= 0.00D+00 IRadAn=         5 IDoV= 1 UseB2=F ITyADJ=14
 ICtDFT=  3500011 ScaDFX=  1.000000  1.000000  1.000000  1.000000
 FoFCou: FMM=F IPFlag=           0 FMFlag=      100000 FMFlg1=           0
         NFxFlg=           0 DoJE=T BraDBF=F KetDBF=T FulRan=T
         wScrn=  0.000000 ICntrl=       500 IOpCl=  0 I1Cent=   200000004 NGrid=           0
         NMat0=    1 NMatS0=      1 NMatT0=    0 NMatD0=    1 NMtDS0=    0 NMtDT0=    0
 Petite list used in FoFCou.
     Accept linear search using points  3 and  4.
     Minimum is close to point  3 DX=  1.20D-01 DF= -5.48D-06 DXR=  9.81D-02 DFR=  9.73D-03 which will be used.
     Accept linear search using points  1 and  2.
     Minimum is close to point  2 DX= -1.77D-02 DF= -6.08D-08 DXR=  1.64D-02 DFR=  3.19D-04 which will be used.
     Accept linear search using points  1 and  2.
     Minimum is close to point  2 DX=  4.22D-04 DF= -1.30D-11 DXR=  4.22D-04 DFR=  1.76D-07 which will be used.
 SCF Done:  E(RwB97XD) =  -1314.01786505     a.u. after    7 cycles
            Convg  =    0.2151D-08                    31 Fock formations.
              S**2 =  0.0000                  -V/T =  2.0051
   1 Symmetry operations used in ECPInt.
 ECPInt:  NShTT=    7260 NPrTT=   30132 LenC2=    6951 LenP2D=   20428.
 LDataN:  DoStor=T MaxTD1= 5 Len=  102
 Calling FoFJK, ICntrl=      2127 FMM=F ISym2X=0 I1Cent= 0 IOpClX= 0 NMat=1 NMatS=1 NMatT=0.

 GradGradGradGradGradGradGradGradGradGradGradGradGradGradGradGradGradGrad
 Using GEDIIS/GDIIS optimizer.
 FormGI is forming the generalized inverse of G from B-inverse, IUseBI=4.
 Internal  Forces:  Max     0.003855883 RMS     0.000605897
 Step number   2 out of a maximum of  204
 All quantities printed in internal units (Hartrees-Bohrs-Radians)
 Mixed Optimization -- En-DIIS/RFO-DIIS
 Trust test= 8.82D-01 RLast= 2.22D-01 DXMaxT set to 5.05D-01
 ITU=  1  0
 Use linear search instead of GDIIS.
     Eigenvalues ---    0.00342   0.00342   0.00368   0.00369   0.00375
     Eigenvalues ---    0.00375   0.00378   0.00378   0.00414   0.00593
     Eigenvalues ---    0.00622   0.02009   0.03164   0.03549   0.04400
     Eigenvalues ---    0.04501   0.04564   0.04724   0.04881   0.04891
     Eigenvalues ---    0.05275   0.05277   0.05462   0.05464   0.05502
     Eigenvalues ---    0.05504   0.05516   0.05520   0.05603   0.05603
     Eigenvalues ---    0.05607   0.05608   0.05636   0.05636   0.05964
     Eigenvalues ---    0.06258   0.07397   0.07695   0.11022   0.12318
     Eigenvalues ---    0.14126   0.14157   0.14190   0.14701   0.14746
     Eigenvalues ---    0.15121   0.15897   0.16000   0.16000   0.16000
     Eigenvalues ---    0.16000   0.16000   0.16000   0.16000   0.16000
     Eigenvalues ---    0.16000   0.16000   0.16000   0.16000   0.16000
     Eigenvalues ---    0.16000   0.16000   0.16000   0.16043   0.24022
     Eigenvalues ---    0.25501   0.29070   0.29237   0.29407   0.29421
     Eigenvalues ---    0.29466   0.29474   0.29484   0.29789   0.31210
     Eigenvalues ---    0.33316   0.34756   0.34760   0.34916   0.35012
     Eigenvalues ---    0.35027   0.35065   0.35076   0.35103   0.35103
     Eigenvalues ---    0.35106   0.35110   0.35111   0.35122   0.35131
     Eigenvalues ---    0.35140   0.35142   0.35144   0.35167   0.35173
     Eigenvalues ---    0.35783
 Quartic linear search produced a step of -0.05226.
 Iteration  1 RMS(Cart)=  0.02271657 RMS(Int)=  0.00015081
 Iteration  2 RMS(Cart)=  0.00020947 RMS(Int)=  0.00001009
 Iteration  3 RMS(Cart)=  0.00000003 RMS(Int)=  0.00001009
 Variable       Old X    -DE/DX   Delta X   Delta X   Delta X     New X
                                 (Linear)    (Quad)   (Total)
    R1        2.90580  -0.00207  -0.00082  -0.00516  -0.00599   2.89981
    R2        2.08324   0.00056  -0.00148   0.00417   0.00269   2.08593
    R3        2.08610   0.00010  -0.00164   0.00321   0.00157   2.08767
    R4        2.08627   0.00016  -0.00166   0.00340   0.00174   2.08801
    R5        2.90875  -0.00044  -0.00071  -0.00015  -0.00086   2.90789
    R6        2.90468  -0.00192  -0.00075  -0.00484  -0.00558   2.89909
    R7        2.91033  -0.00385  -0.00099  -0.01061  -0.01160   2.89873
    R8        2.08762   0.00015  -0.00167   0.00339   0.00172   2.08935
    R9        2.08532   0.00026  -0.00164   0.00363   0.00199   2.08731
   R10        2.08676   0.00008  -0.00166   0.00319   0.00154   2.08829
   R11        2.08599   0.00017  -0.00165   0.00341   0.00176   2.08775
   R12        2.08792   0.00010  -0.00164   0.00322   0.00158   2.08950
   R13        2.08333   0.00051  -0.00148   0.00403   0.00255   2.08588
   R14        3.40727   0.00079  -0.00201   0.00611   0.00411   3.41138
   R15        2.08068  -0.00005  -0.00104   0.00172   0.00068   2.08136
   R16        2.08084  -0.00023  -0.00114   0.00184   0.00070   2.08154
   R17        5.24769   0.00034  -0.00108   0.01369   0.01262   5.26031
   R18        5.23402   0.00038  -0.00113   0.01536   0.01423   5.24825
   R19        5.00558  -0.00041  -0.00004  -0.01720  -0.01727   4.98831
   R20        2.90471  -0.00193  -0.00075  -0.00487  -0.00561   2.89909
   R21        2.08599   0.00017  -0.00165   0.00341   0.00176   2.08775
   R22        2.08331   0.00051  -0.00148   0.00403   0.00255   2.08586
   R23        2.08792   0.00010  -0.00164   0.00322   0.00158   2.08950
   R24        2.90874  -0.00044  -0.00071  -0.00014  -0.00086   2.90788
   R25        2.90578  -0.00206  -0.00082  -0.00514  -0.00596   2.89982
   R26        2.91035  -0.00386  -0.00099  -0.01063  -0.01162   2.89873
   R27        2.08678   0.00008  -0.00166   0.00319   0.00154   2.08831
   R28        2.08531   0.00026  -0.00164   0.00364   0.00200   2.08731
   R29        2.08761   0.00015  -0.00167   0.00339   0.00172   2.08934
   R30        2.08331   0.00055  -0.00148   0.00414   0.00266   2.08597
   R31        2.08628   0.00015  -0.00166   0.00340   0.00173   2.08801
   R32        2.08608   0.00011  -0.00164   0.00322   0.00159   2.08767
   R33        3.40718   0.00080  -0.00201   0.00611   0.00412   3.41130
   R34        2.08088  -0.00025  -0.00114   0.00181   0.00067   2.08155
   R35        2.08068  -0.00005  -0.00104   0.00173   0.00068   2.08137
    A1        1.94085  -0.00021  -0.00046  -0.00098  -0.00143   1.93942
    A2        1.93560   0.00008  -0.00045   0.00112   0.00067   1.93628
    A3        1.92247   0.00012  -0.00002   0.00137   0.00135   1.92383
    A4        1.89141  -0.00006   0.00035  -0.00219  -0.00184   1.88957
    A5        1.88407   0.00007   0.00035   0.00001   0.00036   1.88443
    A6        1.88776   0.00001   0.00026   0.00063   0.00088   1.88864
    A7        1.90532   0.00033   0.00021   0.00546   0.00566   1.91097
[...]
 0011040,-0.00007609,-0.00007338,-0.00014423,0.00013852,-0.00024745,0.0
 0036173,-0.00036703,-0.00026094,0.00336279,-0.00363168,-0.01559261,0.0
 0766201,-0.00370112,-0.01419584,-0.02202777,0.06609010,0.00000885,0.00
 001267,0.00000473,-0.00000788,-0.00003391,-0.00001844,0.00000486,0.000
 00603,0.00001461,0.00000882,0.00001529,0.00001678,-0.00003973,0.000013
 12,0.00001034,0.00005955,0.00001023,0.00003981,0.00000212,-0.00000941,
 -0.00000611,-0.00000628,0.00000012,-0.00001102,0.00000667,0.00000502,0
 .00000722,-0.00000773,-0.00000200,0.00000272,0.00000870,0.00000530,0.0
 0000292,-0.00000015,-0.00000883,-0.00000624,0.00001153,0.00000279,0.00
 000259,-0.00000511,-0.00000006,0.00000034,-0.00000612,-0.00000229,-0.0
 0000579,-0.00001536,0.00000086,0.00000592,-0.00002573,-0.00004432,-0.0
 0002842,0.00039004,-0.00110072,0.00035286,0.00521498,-0.00538390,-0.01
 470986,0.08336349,-0.05537837,-0.26732775,0.00044108,0.00452734,-0.001
 03446,-0.00071625,-0.00106897,0.00004361,-0.00020828,0.00004492,0.0003
 6762,0.00004392,0.00003796,-0.00008243,-0.00009872,0.00006967,0.000374
 89,-0.00057557,0.00069339,0.00026367,-0.00213729,0.00139244,0.00568304
 ,0.00587888,-0.00187664,-0.01098520,-0.09228473,0.05806481,0.28682733,
 0.00001357,0.00001560,-0.00000073,0.00002886,-0.00014807,0.00003115,-0
 .00002734,0.00000775,-0.00000747,0.00002277,0.00004857,0.00002390,0.00
 002545,0.00043962,-0.00010154,-0.00028619,-0.00014560,-0.00001888,-0.0
 0000341,-0.00000236,0.00001340,-0.00000038,-0.00000715,-0.00002112,0.0
 0000697,0.00000114,0.00001229,-0.00001510,-0.00000048,0.00000212,0.000
 01734,-0.00000923,0.00001718,0.00000848,-0.00002502,-0.00001403,0.0000
 2118,-0.00001129,0.00000832,-0.00000352,0.00000082,-0.00000389,0.00000
 797,-0.00001151,0.00001221,-0.00004168,-0.00002125,0.00003029,-0.00010
 686,-0.00005876,-0.00018746,0.00027090,-0.00113406,0.00014276,-0.00337
 398,-0.00941768,0.00511608,-0.00074215,0.00106208,0.00212631,-0.061441
 37,-0.04446530,0.03006638,-0.00000053,0.00009907,-0.00057090,-0.000298
 31,-0.00050064,-0.00085803,-0.00007599,-0.00010287,0.00004609,-0.00021
 489,0.00058239,0.00028637,0.00012603,0.00010020,-0.00025524,0.00016762
 ,-0.00020754,0.00013014,0.00016808,0.00034773,-0.00011074,0.00035662,-
 0.00061177,0.00056281,0.06026504,-0.00002229,-0.00000310,0.00000855,-0
 .00001613,0.00011194,-0.00003000,0.00000993,0.00001107,0.00001394,-0.0
 0001890,-0.00003207,-0.00001617,-0.00007077,-0.00036917,0.00011985,0.0
 0023269,0.00013010,-0.00002829,-0.00000236,0.00000406,-0.00001446,-0.0
 0000258,-0.00000603,-0.00000667,0.00000793,-0.00000135,-0.00001127,0.0
 0002092,-0.00000423,-0.00000940,-0.00000510,0.00000558,-0.00001149,-0.
 00000789,0.00000814,0.00001487,-0.00001152,0.00000921,-0.00000467,0.00
 000754,-0.00000364,-0.00000388,-0.00000835,0.00000905,-0.00000903,0.00
 008206,0.00000752,-0.00002476,0.00003084,0.00010309,0.00013643,0.00000
 791,0.00088998,-0.00036511,0.00250675,0.00809391,-0.00470498,0.0002731
 1,0.00020524,-0.00124140,-0.04509201,-0.22916849,0.12109308,-0.0004565
 8,0.00014937,0.00045352,-0.00057616,-0.00155371,-0.00216139,-0.0000071
 4,-0.00009269,0.00010517,0.00000770,0.00003725,-0.00001624,-0.00011456
 ,0.00014107,0.00001939,-0.00008590,0.00006671,-0.00022863,0.00022249,0
 .00005484,-0.00011978,0.00005256,0.00045663,-0.00029627,0.04937474,0.2
 4294403,-0.00002638,0.00004497,0.00000171,0.00002934,-0.00008689,0.000
 01295,-0.00003457,0.00001935,-0.00000121,0.00001334,0.00002904,0.00001
 253,-0.00005960,0.00027172,-0.00007358,-0.00006807,-0.00012978,0.00003
 233,0.00001340,-0.00001446,0.00000496,-0.00001562,-0.00000182,-0.00003
 583,0.00001761,-0.00000427,0.00000814,0.00000799,-0.00000951,-0.000006
 11,0.00001354,-0.00000429,0.00000658,-0.00000531,-0.00002183,0.0000115
 8,0.00001485,-0.00000470,0.00000619,0.00000356,-0.00000298,-0.00000711
 ,0.00000090,-0.00000834,0.00000493,0.00002589,-0.00004147,0.00001272,-
 0.00011136,0.00004253,-0.00003870,-0.00107217,0.00087576,0.00087760,0.
 00495464,0.02466380,-0.01459057,0.00183959,-0.00313338,-0.00543074,0.0
 2992302,0.11815139,-0.12681280,0.00086614,0.00250334,-0.00017638,-0.00
 059379,-0.00143240,0.00063348,0.00000173,-0.00012791,-0.00002485,0.000
 58828,-0.00060265,0.00022007,-0.00029554,-0.00016662,0.00011280,-0.000
 10549,-0.00023917,0.00016117,0.00011352,-0.00011156,0.00023682,0.00059
 688,0.00154349,-0.00105006,-0.03491666,-0.12833364,0.13717493,-0.00002
 214,-0.00001853,-0.00000167,-0.00001441,0.00015190,0.00005138,-0.00000
 889,-0.00000739,-0.00004502,-0.00004053,-0.00006703,-0.00006471,0.0001
 9467,-0.00005947,-0.00008493,-0.00032292,0.00000630,-0.00008237,0.0000
 0698,0.00000793,0.00001761,0.00000061,0.00001179,0.00001471,-0.0000170
 8,-0.00001416,-0.00001631,0.00000404,0.00000764,0.00000667,-0.00002070
 ,-0.00001671,-0.00000255,0.00000733,0.00002272,0.00000380,-0.00003957,
 -0.00000017,-0.00000676,0.00000447,0.00000071,0.00001233,0.00002302,-0
 .00000188,0.00001379,-0.00001925,0.00000089,-0.00000398,0.00015038,0.0
 0023333,0.00005533,0.00098029,0.00055778,0.00059131,0.00737023,0.00706
 972,0.00648277,0.00051825,0.00048807,0.00009275,-0.17484088,-0.1000324
 4,-0.09107454,-0.00053846,0.00051680,0.00232484,0.00004270,-0.00003994
 ,-0.00027424,-0.00010824,-0.00005324,0.00018052,-0.00006966,0.00003532
 ,-0.00008205,0.00021750,-0.00007586,-0.00009504,-0.00010311,-0.0001383
 4,-0.00006366,0.00012245,0.00002115,-0.00015913,0.00010581,0.00021712,
 -0.00007148,-0.00344287,-0.00108722,-0.00231463,0.18357514,0.00002732,
 -0.00002294,-0.00000009,-0.00000702,-0.00001296,-0.00002480,0.00002577
 ,-0.00001576,0.00001658,0.00001237,0.00000794,0.00001861,0.00000637,-0
 .00014655,0.00007305,0.00016849,0.00005995,0.00003711,0.00000114,-0.00
 000135,-0.00000427,0.00000748,0.00001114,0.00000747,-0.00001416,0.0000
 0643,0.00000355,-0.00000499,0.00000322,0.00000502,-0.00000465,0.000008
 81,-0.00000676,0.00000582,0.00001595,-0.00000649,0.00000503,0.00000145
 ,-0.00000278,-0.00000656,0.00000260,0.00000431,-0.00000721,0.00000568,
 -0.00000907,-0.00001040,0.00001234,-0.00000447,-0.00005010,-0.00010919
 ,-0.00000904,-0.00077995,-0.00009039,0.00004002,-0.00573661,-0.0052165
 6,-0.00267790,0.00034429,0.00044496,0.00115438,-0.09872266,-0.12673741
 ,-0.07067299,0.00100606,-0.00037824,-0.00093062,0.00010528,0.00012446,
 -0.00059815,0.00070019,0.00001143,-0.00023007,-0.00010841,-0.00011427,
 -0.00007842,0.00016063,0.00015115,0.00025761,0.00011829,-0.00001083,0.
 00000257,-0.00009457,0.00040759,0.00009741,0.00016476,-0.00005399,0.00
 000307,-0.01652521,-0.01123336,-0.01399670,0.10771081,0.13125997,0.000
 01916,-0.00002173,-0.00000128,0.00001746,-0.00003767,-0.00003240,0.000
 00275,0.00000387,0.00001280,0.00000725,0.00001362,0.00002168,0.0000476
 9,0.00008300,0.00001594,-0.00007054,0.00003379,0.00002620,0.00001229,-
 0.00001127,0.00000814,0.00000742,0.00002910,-0.00000318,-0.00001631,0.
 00000356,0.00000762,-0.00000958,0.00000087,0.00000722,0.00000432,0.000
 00102,0.00000041,0.00000277,-0.00000496,-0.00001388,0.00000672,-0.0000
 0302,0.00000070,-0.00000753,0.00000358,0.00000429,0.00000160,-0.000002
 41,-0.00000152,-0.00002121,0.00000966,0.00000409,-0.00004677,-0.000039
 93,-0.00010468,-0.00125343,0.00050288,0.00083490,-0.02142788,-0.015605
 77,-0.01471156,-0.00130511,-0.00097380,0.00101290,-0.08866071,-0.06958
 824,-0.11037178,0.00390357,-0.00046092,-0.00581997,0.00007473,0.000236
 30,0.00077064,0.00079207,-0.00013359,0.00026491,0.00009542,0.00004257,
 -0.00000448,0.00002395,0.00037690,0.00016353,0.00000551,0.00003811,-0.
 00006516,0.00068665,0.00070096,-0.00038388,0.00020207,0.00009214,0.000
 44268,0.01324465,0.00850674,0.00996866,0.09524942,0.07826393,0.1202107
 5,0.00001816,0.00000864,0.00000588,0.00000200,-0.00001276,-0.00001109,
 0.00001505,0.00001043,0.00002641,-0.00002838,-0.00000537,0.00000953,-0
 .00073775,0.00010863,-0.00031690,-0.00220457,0.00031784,-0.00058416,-0
 .00000038,-0.00000259,-0.00001564,-0.00000124,0.00000625,0.00000570,0.
 00000061,0.00000749,0.00000742,0.00000315,-0.00000124,-0.00000628,0.00
 000178,0.00000747,-0.00000552,-0.00000244,-0.00000262,-0.00000023,0.00
 000451,-0.00000392,0.00000342,0.00000432,0.00000155,-0.00000774,0.0000
 0347,0.00000200,0.00000624,0.00000423,-0.00000309,0.00002086,0.0001018
 6,-0.00022717,0.00006096,0.00011694,0.00017207,0.00290201,-0.00922016,
 0.00490256,-0.00211362,0.00010232,0.00016437,-0.00077885,-0.23422151,0
 .12166643,-0.02052844,0.00065239,-0.00061945,-0.00060243,-0.00001289,0
 .00012350,0.00008372,0.00042668,-0.00010766,-0.00000372,0.00003886,0.0
 0002599,-0.00012224,-0.00039732,0.00065186,0.00005185,-0.00001710,-0.0
 0042683,0.00070542,-0.00014527,0.00008691,0.00002554,0.00027559,-0.000
 16729,-0.00007726,0.00861525,-0.00531435,0.00057399,-0.01448888,0.0119
 9774,-0.00056793,0.25059589,0.00004050,0.00003251,-0.00000968,0.000024
 73,-0.00033288,0.00002447,-0.00001054,-0.00000296,0.00002550,0.0000686
 2,0.00010384,0.00008709,-0.00036135,0.00025429,-0.00014975,0.00081955,
 -0.00034387,0.00037651,-0.00000715,-0.00000603,-0.00000182,0.00000624,
 -0.00001619,-0.00000064,0.00001179,0.00001114,0.00002910,-0.00001710,-
 0.00000408,0.00000012,0.00002241,0.00000431,0.00001150,0.00000203,-0.0
 0003107,-0.00001459,0.00005574,-0.00000644,0.00000925,-0.00001473,-0.0
 0000187,-0.00000830,-0.00001215,0.00000268,-0.00000582,-0.00004448,-0.
 00004622,0.00003637,-0.00052360,-0.00048450,-0.00011811,0.00003092,0.0
 0010357,-0.00209250,0.00598407,-0.00572858,0.00129003,-0.00101685,0.00
 048287,0.00055004,0.12211839,-0.13114036,0.01412730,0.00090107,0.00001
 206,0.00049675,-0.00033233,-0.00012363,-0.00003718,0.00016427,0.000067
 80,0.00014513,-0.00024840,0.00032286,-0.00000175,0.00069694,0.00011039
 ,-0.00001743,-0.00004114,0.00036478,0.00023594,-0.00007880,-0.00000937
 ,-0.00008590,-0.00011472,-0.00007538,-0.00008790,0.02133098,-0.0109205
 8,0.00057183,-0.01564490,0.01163367,-0.00099313,-0.13335325,0.13568475
 ,-0.00001761,-0.00002040,0.00000363,0.00000520,0.00009665,-0.00013828,
 0.00004011,0.00001833,0.00005649,-0.00001480,-0.00002437,0.00003142,-0
 .00032755,-0.00036506,0.00027110,-0.00046308,0.00023361,-0.00056418,-0
 .00002112,-0.00000666,-0.00003583,0.00000570,-0.00000064,-0.00000315,0
 .00001471,0.00000747,-0.00000319,0.00001487,-0.00000413,-0.00001102,0.
 00000607,0.00002260,-0.00001544,-0.00000794,0.00000608,0.00000676,0.00
 000447,0.00002000,-0.00000600,0.00000587,-0.00000008,-0.00001132,-0.00
 002143,0.00001856,-0.00002884,0.00019228,0.00006503,-0.00005489,0.0000
 3909,0.00013114,0.00016249,0.00142081,-0.00109830,-0.00583576,0.025566
 29,-0.01639563,0.00352606,0.00052150,-0.00105892,0.00128615,-0.0234881
 0,0.01584260,-0.05168360,0.00083491,-0.00025563,0.00143788,0.00002568,
 0.00012512,-0.00004341,0.00004479,0.00023524,-0.00002491,-0.00015638,-
 0.00008961,-0.00004226,0.00167205,-0.00106809,0.00019579,-0.00001045,0
 .00059097,-0.00058628,-0.00006549,0.00009835,-0.00005731,-0.00028438,-
 0.00006762,0.00021072,-0.01487377,0.00697847,-0.00141016,-0.01121391,0
 .00963145,-0.00156218,0.02104649,-0.01389548,0.05520488,-0.00024645,0.
 00020298,0.00013015,-0.00009925,0.00010267,0.00003240,0.00006056,-0.00
 003812,-0.00000342,0.00003373,0.00002496,-0.00005141,-0.00064794,0.000
 19855,0.00037701,-0.00137858,0.00074644,0.00049496,-0.00010698,0.00003
 098,-0.00011149,0.00010534,-0.00052203,0.00004046,0.00015037,-0.000050
 06,-0.00004684,0.00000865,0.00001317,-0.00002573,0.00000173,0.00001758
 ,0.00000027,-0.00000326,0.00000093,0.00000336,0.00000485,-0.00000124,0
 .00000466,0.00002371,-0.00001150,-0.00001214,-0.00001317,-0.00000069,-
 0.00000006,0.00007873,-0.00003621,-0.00000887,-0.00082356,-0.00024881,
 0.00130729,-0.00191030,-0.00361580,-0.00252079,-0.01691318,0.01170789,
 -0.00116460,0.00020598,0.00113007,-0.00004649,0.00082264,0.00037643,0.
 00094742,-0.24294676,0.13024629,-0.02644272,0.00857670,-0.01363063,0.0
 0476915,-0.00107438,0.00074169,-0.00036782,0.00009089,0.00003660,-0.00
 002612,0.00034680,-0.00014089,0.00006152,0.00006137,-0.00108039,0.0000
 9598,0.00041898,-0.00007206,0.00005729,-0.00004313,-0.00000156,-0.0000
 3917,-0.00001495,-0.00007321,-0.00005531,0.00013543,-0.00008552,0.0002
 2656,0.00042750,-0.00031067,-0.00050678,0.26053558,-0.00011062,0.00037
 562,-0.00009903,-0.00000673,-0.00007635,0.00034728,-0.00001025,-0.0000
 9494,-0.00007947,0.00002205,0.00003063,-0.00015041,0.00014607,0.000651
 45,-0.00024775,0.00072665,-0.00080033,-0.00028703,-0.00005866,0.000102
 99,0.00004262,-0.00022631,-0.00048391,0.00013128,0.00023334,-0.0001091
 9,-0.00003987,0.00002003,0.00002373,-0.00004433,-0.00001701,-0.0000222
 8,0.00001274,0.00001384,-0.00000746,0.00002029,-0.00001649,-0.00001867
 ,0.00001633,0.00005088,-0.00003017,-0.00002480,0.00001913,0.00000551,0
 .00003826,0.00004801,-0.00024271,0.00004497,-0.00024868,-0.00025945,0.
 00047580,-0.00225543,-0.00196051,-0.00196470,-0.01343148,0.00940424,-0
 .00206577,-0.00110779,0.00124042,-0.00065373,-0.00036694,0.00049827,0.
 00053379,0.13191683,-0.12684139,0.01385738,0.00936290,-0.02129068,0.00
 846399,-0.00098592,0.00070488,-0.00020235,-0.00003218,-0.00001117,-0.0
 0010711,0.00007269,-0.00008586,0.00007582,-0.00026590,-0.00066469,-0.0
 0009388,0.00006426,0.00012653,0.00006246,0.00013787,-0.00002646,0.0000
 7202,0.00004323,-0.00004213,-0.00011944,0.00000378,0.00003077,0.000095
 40,0.00012137,-0.00009345,-0.00012004,-0.12953681,0.14155460,-0.000091
 83,-0.00003321,0.00006016,0.00006337,0.00019539,0.00029653,-0.00005550
 ,-0.00005754,-0.00015927,-0.00007949,-0.00011827,-0.00016847,0.0010399
 6,0.00006514,-0.00037433,0.00002652,-0.00035047,-0.00010020,-0.0001875
 4,0.00013651,-0.00003877,0.00006152,-0.00011786,0.00016249,0.00005533,
 -0.00000900,-0.00010471,0.00002207,0.00002294,-0.00002842,-0.00004197,
 -0.00004568,0.00001779,0.00001069,0.00003304,0.00002965,-0.00007564,-0
 .00000158,-0.00001056,0.00004746,-0.00001241,-0.00001355,0.00003039,0.
 00000533,0.00004685,-0.00018381,0.00007085,-0.00004102,0.00130765,0.00
 047567,-0.00137081,-0.00172418,-0.00246218,-0.00142354,-0.01545123,0.0
 0950331,-0.00158050,0.00078763,0.00063917,0.00039555,-0.00062001,0.001
 30680,0.00066079,-0.02648228,0.01137634,-0.05471675,-0.00674031,0.0137
 3417,-0.00386752,-0.00090951,0.00052099,0.00019251,0.00028783,0.000000
 67,0.00004477,-0.00023986,0.00006136,0.00023071,0.00015176,-0.00017673
 ,0.00048128,0.00018456,0.00007842,-0.00022828,0.00007649,-0.00019944,-
 0.00004991,0.00001053,-0.00000315,-0.00003919,0.00024617,-0.00004882,0
 .00023397,0.00017143,-0.00052122,-0.00044560,0.02553641,-0.01862361,0.
 05553231,-0.00002948,-0.00001209,-0.00012381,0.00008448,0.00006720,0.0
 0013887,0.00001434,-0.00006734,-0.00006032,-0.00001682,-0.00003638,-0.
 00009377,0.00033570,0.00000862,-0.00003935,-0.00031395,0.00012084,0.00
 013704,-0.00004168,0.00008208,0.00002588,0.00000423,-0.00004450,0.0001
 9234,-0.00001924,-0.00001040,-0.00002122,0.00000262,0.00001679,-0.0000
 1537,-0.00003323,-0.00001040,0.00000442,0.00002916,0.00004085,0.000009
 81,-0.00003355,-0.00000328,-0.00000222,0.00002369,-0.00000993,-0.00000
 539,0.00001040,0.00001071,0.00001724,-0.00009605,0.00003193,-0.0000273
 7,0.00007869,0.00004797,-0.00018383,0.00152420,-0.00039066,-0.00109923
 ,0.00797657,-0.00616302,-0.02050800,0.00071520,0.00059204,-0.00078464,
 -0.00337890,-0.00236121,-0.00173896,-0.08759606,0.03152980,0.08920991,
 -0.00185308,-0.00326753,0.00583187,0.00017858,0.00001546,0.00024415,-0
 .00012563,0.00008596,-0.00001875,-0.00050780,0.00004630,0.00034736,-0.
 00008952,-0.00001357,0.00017444,0.00002747,0.00025183,-0.00003829,-0.0
 0008743,-0.00023077,0.00031654,-0.00003262,0.00013586,0.00007629,0.000
 63829,-0.00040982,-0.00124701,0.00006735,-0.00014611,0.00001191,-0.005
 86765,0.00567425,0.02276540,0.08841173,0.00005503,0.00003158,-0.000017
 88,-0.00004554,-0.00006582,-0.00003785,0.00010966,-0.00008510,0.000062
 10,0.00003307,0.00004569,0.00002032,-0.00017907,-0.00021790,0.00012441
 ,0.00027447,0.00009895,-0.00013158,-0.00002124,0.00000750,-0.00004147,
 -0.00000314,-0.00004622,0.00006500,0.00000089,0.00001233,0.00000967,-0
 .00002092,0.00001227,0.00000086,-0.00002029,0.00003707,-0.00001611,0.0
 0005742,0.00004619,-0.00001280,0.00001806,0.00000139,0.00000410,-0.000
 00996,-0.00000339,0.00000401,-0.00002319,0.00001445,-0.00002156,0.0000
 3194,-0.00000396,0.00000111,-0.00003617,-0.00024270,0.00007090,0.00046
 233,0.00014563,0.00093595,0.00642027,-0.00326019,-0.01297623,0.0005109
 1,0.00036836,-0.00135954,-0.00319955,-0.00146608,-0.00104523,0.0322767
 0,-0.06286671,-0.07137535,-0.01409556,-0.00817475,0.02813825,0.0000519
 8,-0.00009082,0.00007520,-0.00010855,-0.00000185,0.00002241,-0.0002271
 8,0.00035007,0.00008916,0.00004460,0.00002677,-0.00001975,0.00006456,0
 .00007836,0.00027374,-0.00072889,-0.00050343,0.00031651,-0.00004813,-0
 .00000823,-0.00012340,0.00019350,-0.00005570,-0.00116156,-0.00013553,0
 .00017594,0.00034900,0.00387899,-0.00158783,-0.01544494,-0.02558147,0.
 07722814,-0.00002091,0.00001770,0.00000933,0.00001259,-0.00000962,-0.0
 0001336,-0.00004244,0.00004066,-0.00000685,-0.00000595,-0.00000249,0.0
 0001493,0.00001244,0.00010280,-0.00002805,-0.00004256,-0.00004275,0.00
 008441,0.00003029,-0.00002476,0.00001272,0.00002089,0.00003638,-0.0000
 5490,-0.00000398,-0.00000447,0.00000409,0.00000102,-0.00000853,0.00000
 593,0.00001371,-0.00001042,0.00000681,-0.00001977,-0.00002492,0.000003
 33,0.00000308,0.00000065,-0.00000060,-0.00000354,0.00000291,0.00000106
 ,0.00000527,-0.00000806,0.00000257,-0.00002737,0.00000111,0.00000754,-
 0.00000889,0.00004499,-0.00004103,0.00115516,0.00031192,0.00041637,0.0
 0725021,-0.00502582,-0.01468152,0.00057909,0.00084007,0.00060666,-0.00
 341734,-0.00175450,-0.00022892,0.08714566,-0.07266176,-0.27039595,0.00
 444732,0.00432390,-0.00728577,0.00004025,0.00003727,0.00040198,-0.0000
 1858,-0.00003289,-0.00001837,-0.00090241,0.00025912,0.00015719,-0.0000
 9848,0.00000638,-0.00003191,-0.00019111,0.00019889,0.00028655,-0.00016
 884,-0.00036951,0.00064132,0.00005749,0.00019069,0.00019718,0.00031357
 ,-0.00031470,-0.00093606,0.00003519,0.00002428,0.00017024,-0.00265514,
 0.00063291,0.00637607,-0.09349594,0.07322256,0.28431701\\0.00000003,-0
 .00000132,0.00000059,0.00000012,-0.00000042,0.00000027,0.00000035,-0.0
 0000007,0.00000107,-0.00000011,-0.00000095,-0.00000019,-0.00000055,-0.
 00000036,0.00000015,-0.00000006,-0.00000048,-0.00000142,-0.00000009,-0
 .00000164,-0.00000006,0.00000025,-0.00000104,0.00000080,0.00000018,-0.
 00000177,0.00000090,0.00000032,0.00000043,0.00000093,0.00000042,-0.000
 00057,0.00000148,0.00000043,0.00000012,0.00000142,-0.00000002,-0.00000
 133,0.00000020,-0.00000014,-0.00000034,-0.00000034,-0.00000029,-0.0000
 0118,-0.00000076,-0.00000008,0.00000074,-0.00000045,0.00000018,0.00000
 094,0.,0.00000009,0.00000092,0.00000024,-0.00000011,0.00000049,-0.0000
 0033,-0.00000033,0.00000012,-0.00000108,-0.00000008,0.00000131,-0.0000
 0057,-0.00000024,-0.00000034,0.00000074,0.00000065,-0.00000008,0.00000
 101,0.00000003,0.00000136,-0.00000023,0.00000031,0.00000120,0.00000077
 ,0.00000013,0.00000030,0.00000035,-0.00000049,-0.00000015,-0.00000141,
 -0.00000044,0.00000058,-0.00000147,-0.00000029,-0.00000044,-0.00000091
 ,0.00000010,0.00000161,0.00000006,-0.00000018,0.00000176,-0.00000088,-
 0.00000016,0.00000108,-0.00000082,-0.00000003,0.00000015,-0.00000038,0
 .00000006,-0.00000063,0.00000034\\\@


 ... I FELL INTO A REVERIE ... THE ATOMS WERE GAMBOLING BEFORE MY EYES
 ... I SAW HOW TWO SMALL ONES UNITED TO FORM A PAIR;
 HOW THE LARGER ONES SEIZED TWO OF THE SMALLER ONES;
 HOW STILL LARGER ONES KEPT HOLD OF THREE OR FOUR
 SMALLER ONES ... I SAW HOW THE LARGER ONES FORMED A CHAIN ...
 THIS WAS THE ORIGIN OF THE STRUCTURE THEORY.

                                   -- C.F.KEKULE VON STRADONITZ
 Job cpu time:       0 days  0 hours 26 minutes 48.0 seconds.
 Elapsed time:       0 days  0 hours  7 minutes  0.4 seconds.
 File lengths (MBytes):  RWF=    217 Int=      0 D2E=      0 Chk=      6 Scr=      1
 Normal termination of Gaussian 16 at Fri Feb  3 11:39:59 2023.
real 3009.31
user 9990.15
sys 130.89
