 Entering Gaussian System, Link 0=g16
 Input=gaussian_test.inp
 Output=gaussian_test.log
 Initial command:
 /sw/restricted/lms/sw/Gaussian/g16_B01/g16/l1.exe "/scratch/user/peterchao1/peterchao1/6113327_1660079103000000872677030/Gau-200217.inp" -scrdir="/scratch/user/peterchao1/peterchao1/6113327_1660079103000000872677030/"
 Entering Link 1 = /sw/restricted/lms/sw/Gaussian/g16_B01/g16/l1.exe PID=    200218.
  
 Copyright (c) 1988-2017, Gaussian, Inc.  All Rights Reserved.
  
 This is part of the Gaussian(R) 16 program.  It is based on
 the Gaussian(R) 09 system (copyright 2009, Gaussian, Inc.),
 the Gaussian(R) 03 system (copyright 2003, Gaussian, Inc.),
 the Gaussian(R) 98 system (copyright 1998, Gaussian, Inc.),
 the Gaussian(R) 94 system (copyright 1995, Gaussian, Inc.),
 the Gaussian 92(TM) system (copyright 1992, Gaussian, Inc.),
 the Gaussian 90(TM) system (copyright 1990, Gaussian, Inc.),
 the Gaussian 88(TM) system (copyright 1988, Gaussian, Inc.),
 the Gaussian 86(TM) system (copyright 1986, Carnegie Mellon
 University), and the Gaussian 82(TM) system (copyright 1983,
 Carnegie Mellon University). Gaussian is a federally registered
 trademark of Gaussian, Inc.
  
 This software contains proprietary and confidential information,
 including trade secrets, belonging to Gaussian, Inc.
  
 This software is provided under written license and may be
 used, copied, transmitted, or stored only in accord with that
 written license.
  
 The following legend is applicable only to US Government
 contracts under FAR:
  
                    RESTRICTED RIGHTS LEGEND
  
 Use, reproduction and disclosure by the US Government is
 subject to restrictions as set forth in subparagraphs (a)
 and (c) of the Commercial Computer Software - Restricted
 Rights clause in FAR 52.227-19.
  
 Gaussian, Inc.
 340 Quinnipiac St., Bldg. 40, Wallingford CT 06492
  
  
 ---------------------------------------------------------------
 Warning -- This program may not be used in any manner that
 competes with the business of Gaussian, Inc. or will provide
 assistance to any competitor of Gaussian, Inc.  The licensee
 of this program is prohibited from giving any competitor of
 Gaussian, Inc. access to this program.  By using this program,
 the user acknowledges that Gaussian, Inc. is engaged in the
 business of creating and licensing software in the field of
 computational chemistry and represents and warrants to the
 licensee that it is not a competitor of Gaussian, Inc. and that
 it will not use this program in any manner prohibited above.
 ---------------------------------------------------------------
  

 Cite this work as:
 Gaussian 16, Revision B.01,
 M. J. Frisch, G. W. Trucks, H. B. Schlegel, G. E. Scuseria, 
 M. A. Robb, J. R. Cheeseman, G. Scalmani, V. Barone, 
 G. A. Petersson, H. Nakatsuji, X. Li, M. Caricato, A. V. Marenich, 
 J. Bloino, B. G. Janesko, R. Gomperts, B. Mennucci, H. P. Hratchian, 
 J. V. Ortiz, A. F. Izmaylov, J. L. Sonnenberg, D. Williams-Young, 
 F. Ding, F. Lipparini, F. Egidi, J. Goings, B. Peng, A. Petrone, 
 T. Henderson, D. Ranasinghe, V. G. Zakrzewski, J. Gao, N. Rega, 
 G. Zheng, W. Liang, M. Hada, M. Ehara, K. Toyota, R. Fukuda, 
 J. Hasegawa, M. Ishida, T. Nakajima, Y. Honda, O. Kitao, H. Nakai, 
 T. Vreven, K. Throssell, J. A. Montgomery, Jr., J. E. Peralta, 
 F. Ogliaro, M. J. Bearpark, J. J. Heyd, E. N. Brothers, K. N. Kudin, 
 V. N. Staroverov, T. A. Keith, R. Kobayashi, J. Normand, 
 K. Raghavachari, A. P. Rendell, J. C. Burant, S. S. Iyengar, 
 J. Tomasi, M. Cossi, J. M. Millam, M. Klene, C. Adamo, R. Cammi, 
 J. W. Ochterski, R. L. Martin, K. Morokuma, O. Farkas, 
 J. B. Foresman, and D. J. Fox, Gaussian, Inc., Wallingford CT, 2016.
 
 ******************************************
 Gaussian 16:  ES64L-G16RevB.01 20-Dec-2017
                 9-Aug-2022 
 ******************************************
 %nprocshared=4
 Will use up to    4 processors via shared memory.
 %mem=8000mb
 ----------------------------------------------------------------------
 #T wB97XD/def2svpp opt=tight freq int(grid=ultrafine) scf=(verytight,q
 c)
 ----------------------------------------------------------------------
 -----
 dimer
 -----
 Symbolic Z-matrix:
 Charge =  0 Multiplicity = 1
 C                    -3.90493  -0.1868    0.00058 
 C                    -2.39031  -0.33368   0.00003 
 C                    -1.89258  -1.03127   1.2562 
 C                    -1.89343  -1.03111  -1.25657 
 Cl                   -1.70021   1.3407   -0.0001 
 H                    -4.36603  -1.17258   0.00059 
 H                    -4.23963   0.3532   -0.88253 
 H                    -4.23902   0.35294   0.88408 
 H                    -2.31846  -2.03132   1.30709 
 H                    -2.18769  -0.48125   2.14703 
 H                    -0.80909  -1.11893   1.23998 
 H                    -2.31894  -2.03135  -1.30704 
 H                    -0.80989  -1.11832  -1.24133 
 H                    -2.18958  -0.48124  -2.14717 
 C                     1.89291   1.03099  -1.25653 
 C                     2.39017   0.33375   0.00002 
 C                     3.90483   0.18731   0.00034 
 C                     1.89247   1.03117   1.2563 
 Cl                    1.70057  -1.34085  -0.00005 
 H                     2.31848   2.03119  -1.30733 
 H                     0.80938   1.11829  -1.24094 
 H                     2.1887    0.48094  -2.14712 
 H                     4.3656    1.17324   0.00073 
 H                     4.23962  -0.35219  -0.88306 
 H                     4.23922  -0.3527    0.88357 
 H                     2.31859   2.03112   1.30749 
 H                     2.18734   0.48087   2.14704 
 H                     0.80901   1.11909   1.23998 
 
 Add virtual bond connecting atoms Cl19       and H11        Dist= 5.31D+00.
 Add virtual bond connecting atoms Cl19       and H13        Dist= 5.31D+00.
 Add virtual bond connecting atoms H21        and Cl5        Dist= 5.31D+00.
 Add virtual bond connecting atoms H21        and H13        Dist= 5.22D+00.
 Add virtual bond connecting atoms H28        and Cl5        Dist= 5.31D+00.

 GradGradGradGradGradGradGradGradGradGradGradGradGradGradGradGradGradGrad
 Initialization pass.
                           ----------------------------
                           !    Initial Parameters    !
                           ! (Angstroms and Degrees)  !
 --------------------------                            --------------------------
 ! Name  Definition              Value          Derivative Info.                !
 --------------------------------------------------------------------------------
 ! R1    R(1,2)                  1.5217         estimate D2E/DX2                !
 ! R2    R(1,6)                  1.0883         estimate D2E/DX2                !
 ! R3    R(1,7)                  1.0879         estimate D2E/DX2                !
 ! R4    R(1,8)                  1.0879         estimate D2E/DX2                !
 ! R5    R(2,3)                  1.5206         estimate D2E/DX2                !
 ! R6    R(2,4)                  1.5206         estimate D2E/DX2                !
 ! R7    R(2,5)                  1.811          estimate D2E/DX2                !
 ! R8    R(3,9)                  1.0882         estimate D2E/DX2                !
 ! R9    R(3,10)                 1.0877         estimate D2E/DX2                !
 ! R10   R(3,11)                 1.0871         estimate D2E/DX2                !
 ! R11   R(4,12)                 1.0882         estimate D2E/DX2                !
 ! R12   R(4,13)                 1.0872         estimate D2E/DX2                !
 ! R13   R(4,14)                 1.0878         estimate D2E/DX2                !
 ! R14   R(5,21)                 2.8084         estimate D2E/DX2                !
 ! R15   R(5,28)                 2.8077         estimate D2E/DX2                !
 ! R16   R(11,19)                2.8081         estimate D2E/DX2                !
 ! R17   R(13,19)                2.8094         estimate D2E/DX2                !
 ! R18   R(13,21)                2.7612         estimate D2E/DX2                !
 ! R19   R(15,16)                1.5206         estimate D2E/DX2                !
 ! R20   R(15,20)                1.0882         estimate D2E/DX2                !
 ! R21   R(15,21)                1.0871         estimate D2E/DX2                !
 ! R22   R(15,22)                1.0878         estimate D2E/DX2                !
 ! R23   R(16,17)                1.5217         estimate D2E/DX2                !
 ! R24   R(16,18)                1.5206         estimate D2E/DX2                !
 ! R25   R(16,19)                1.811          estimate D2E/DX2                !
 ! R26   R(17,23)                1.0883         estimate D2E/DX2                !
 ! R27   R(17,24)                1.0879         estimate D2E/DX2                !
 ! R28   R(17,25)                1.0879         estimate D2E/DX2                !
 ! R29   R(18,26)                1.0882         estimate D2E/DX2                !
 ! R30   R(18,27)                1.0877         estimate D2E/DX2                !
 ! R31   R(18,28)                1.0871         estimate D2E/DX2                !
 ! A1    A(2,1,6)              109.529          estimate D2E/DX2                !
 ! A2    A(2,1,7)              110.7227         estimate D2E/DX2                !
 ! A3    A(2,1,8)              110.7232         estimate D2E/DX2                !
 ! A4    A(6,1,7)              108.6187         estimate D2E/DX2                !
 ! A5    A(6,1,8)              108.619          estimate D2E/DX2                !
 ! A6    A(7,1,8)              108.5722         estimate D2E/DX2                !
 ! A7    A(1,2,3)              111.7014         estimate D2E/DX2                !
 ! A8    A(1,2,4)              111.7034         estimate D2E/DX2                !
 ! A9    A(1,2,5)              106.8599         estimate D2E/DX2                !
 ! A10   A(3,2,4)              111.4258         estimate D2E/DX2                !
 ! A11   A(3,2,5)              107.4254         estimate D2E/DX2                !
 ! A12   A(4,2,5)              107.4256         estimate D2E/DX2                !
 ! A13   A(2,3,9)              109.3982         estimate D2E/DX2                !
 ! A14   A(2,3,10)             110.8411         estimate D2E/DX2                !
 ! A15   A(2,3,11)             110.5414         estimate D2E/DX2                !
 ! A16   A(9,3,10)             108.6767         estimate D2E/DX2                !
 ! A17   A(9,3,11)             108.4604         estimate D2E/DX2                !
 ! A18   A(10,3,11)            108.8675         estimate D2E/DX2                !
 ! A19   A(2,4,12)             109.3985         estimate D2E/DX2                !
 ! A20   A(2,4,13)             110.5413         estimate D2E/DX2                !
 ! A21   A(2,4,14)             110.8408         estimate D2E/DX2                !
 ! A22   A(12,4,13)            108.4602         estimate D2E/DX2                !
 ! A23   A(12,4,14)            108.6768         estimate D2E/DX2                !
 ! A24   A(13,4,14)            108.8677         estimate D2E/DX2                !
 ! A25   A(2,5,21)             105.505          estimate D2E/DX2                !
 ! A26   A(2,5,28)             105.5181         estimate D2E/DX2                !
 ! A27   A(21,5,28)             52.4313         estimate D2E/DX2                !
 ! A28   A(3,11,19)            154.6457         estimate D2E/DX2                !
 ! A29   A(4,13,19)            154.5783         estimate D2E/DX2                !
 ! A30   A(4,13,21)            121.2987         estimate D2E/DX2                !
 ! A31   A(19,13,21)            62.6173         estimate D2E/DX2                !
 ! A32   A(16,15,20)           109.3988         estimate D2E/DX2                !
 ! A33   A(16,15,21)           110.5419         estimate D2E/DX2                !
 ! A34   A(16,15,22)           110.8404         estimate D2E/DX2                !
 ! A35   A(20,15,21)           108.4604         estimate D2E/DX2                !
 ! A36   A(20,15,22)           108.6765         estimate D2E/DX2                !
 ! A37   A(21,15,22)           108.8672         estimate D2E/DX2                !
 ! A38   A(15,16,17)           111.7029         estimate D2E/DX2                !
 ! A39   A(15,16,18)           111.429          estimate D2E/DX2                !
 ! A40   A(15,16,19)           107.423          estimate D2E/DX2                !
 ! A41   A(17,16,18)           111.6998         estimate D2E/DX2                !
 ! A42   A(17,16,19)           106.8597         estimate D2E/DX2                !
 ! A43   A(18,16,19)           107.427          estimate D2E/DX2                !
 ! A44   A(16,17,23)           109.5262         estimate D2E/DX2                !
 ! A45   A(16,17,24)           110.7236         estimate D2E/DX2                !
 ! A46   A(16,17,25)           110.7246         estimate D2E/DX2                !
 ! A47   A(23,17,24)           108.6185         estimate D2E/DX2                !
 ! A48   A(23,17,25)           108.6186         estimate D2E/DX2                !
 ! A49   A(24,17,25)           108.5732         estimate D2E/DX2                !
 ! A50   A(16,18,26)           109.3999         estimate D2E/DX2                !
 ! A51   A(16,18,27)           110.8404         estimate D2E/DX2                !
 ! A52   A(16,18,28)           110.541          estimate D2E/DX2                !
 ! A53   A(26,18,27)           108.676          estimate D2E/DX2                !
 ! A54   A(26,18,28)           108.4611         estimate D2E/DX2                !
 ! A55   A(27,18,28)           108.8668         estimate D2E/DX2                !
 ! A56   A(11,19,13)            52.4266         estimate D2E/DX2                !
 ! A57   A(11,19,16)           105.499          estimate D2E/DX2                !
 ! A58   A(13,19,16)           105.4882         estimate D2E/DX2                !
 ! A59   A(5,21,13)             62.6245         estimate D2E/DX2                !
 ! A60   A(5,21,15)            154.5973         estimate D2E/DX2                !
 ! A61   A(13,21,15)           121.2935         estimate D2E/DX2                !
 ! A62   A(5,28,18)            154.6464         estimate D2E/DX2                !
 ! D1    D(6,1,2,3)            -62.7854         estimate D2E/DX2                !
 ! D2    D(6,1,2,4)             62.775          estimate D2E/DX2                !
 ! D3    D(6,1,2,5)            179.9954         estimate D2E/DX2                !
 ! D4    D(7,1,2,3)            177.4542         estimate D2E/DX2                !
 ! D5    D(7,1,2,4)            -56.9854         estimate D2E/DX2                !
 ! D6    D(7,1,2,5)             60.2351         estimate D2E/DX2                !
 ! D7    D(8,1,2,3)             56.9756         estimate D2E/DX2                !
 ! D8    D(8,1,2,4)           -177.4639         estimate D2E/DX2                !
 ! D9    D(8,1,2,5)            -60.2435         estimate D2E/DX2                !
 ! D10   D(1,2,3,9)             61.0902         estimate D2E/DX2                !
 ! D11   D(1,2,3,10)           -58.7323         estimate D2E/DX2                !
 ! D12   D(1,2,3,11)          -179.5402         estimate D2E/DX2                !
 ! D13   D(4,2,3,9)            -64.6233         estimate D2E/DX2                !
 ! D14   D(4,2,3,10)           175.5542         estimate D2E/DX2                !
 ! D15   D(4,2,3,11)            54.7463         estimate D2E/DX2                !
 ! D16   D(5,2,3,9)            177.9677         estimate D2E/DX2                !
 ! D17   D(5,2,3,10)            58.1452         estimate D2E/DX2                !
 ! D18   D(5,2,3,11)           -62.6627         estimate D2E/DX2                !
 ! D19   D(1,2,4,12)           -61.1181         estimate D2E/DX2                !
 ! D20   D(1,2,4,13)           179.5124         estimate D2E/DX2                !
 ! D21   D(1,2,4,14)            58.7046         estimate D2E/DX2                !
 ! D22   D(3,2,4,12)            64.5943         estimate D2E/DX2                !
 ! D23   D(3,2,4,13)           -54.7752         estimate D2E/DX2                !
 ! D24   D(3,2,4,14)          -175.5831         estimate D2E/DX2                !
 ! D25   D(5,2,4,12)          -177.9968         estimate D2E/DX2                !
 ! D26   D(5,2,4,13)            62.6337         estimate D2E/DX2                !
 ! D27   D(5,2,4,14)           -58.1741         estimate D2E/DX2                !
 ! D28   D(1,2,5,21)          -152.7304         estimate D2E/DX2                !
 ! D29   D(1,2,5,28)           152.6955         estimate D2E/DX2                !
 ! D30   D(3,2,5,21)            87.2642         estimate D2E/DX2                !
 ! D31   D(3,2,5,28)            32.69           estimate D2E/DX2                !
 ! D32   D(4,2,5,21)           -32.7224         estimate D2E/DX2                !
 ! D33   D(4,2,5,28)           -87.2966         estimate D2E/DX2                !
 ! D34   D(2,3,11,19)          -28.2897         estimate D2E/DX2                !
 ! D35   D(9,3,11,19)           91.6448         estimate D2E/DX2                !
 ! D36   D(10,3,11,19)        -150.2656         estimate D2E/DX2                !
 ! D37   D(2,4,13,19)           28.3695         estimate D2E/DX2                !
 ! D38   D(2,4,13,21)          -63.0783         estimate D2E/DX2                !
 ! D39   D(12,4,13,19)         -91.5653         estimate D2E/DX2                !
 ! D40   D(12,4,13,21)         176.987          estimate D2E/DX2                !
 ! D41   D(14,4,13,19)         150.345          estimate D2E/DX2                !
 ! D42   D(14,4,13,21)          58.8973         estimate D2E/DX2                !
 ! D43   D(2,5,21,13)            6.9374         estimate D2E/DX2                !
 ! D44   D(2,5,21,15)          -98.9156         estimate D2E/DX2                !
 ! D45   D(28,5,21,13)         104.8053         estimate D2E/DX2                !
 ! D46   D(28,5,21,15)          -1.0477         estimate D2E/DX2                !
 ! D47   D(2,5,28,18)           98.814          estimate D2E/DX2                !
 ! D48   D(21,5,28,18)           0.9725         estimate D2E/DX2                !
 ! D49   D(3,11,19,13)           1.0121         estimate D2E/DX2                !
 ! D50   D(3,11,19,16)          98.8454         estimate D2E/DX2                !
 ! D51   D(4,13,19,11)          -1.0663         estimate D2E/DX2                !
 ! D52   D(4,13,19,16)         -98.9215         estimate D2E/DX2                !
 ! D53   D(21,13,19,11)        104.783          estimate D2E/DX2                !
 ! D54   D(21,13,19,16)          6.9278         estimate D2E/DX2                !
 ! D55   D(4,13,21,5)           30.7777         estimate D2E/DX2                !
 ! D56   D(4,13,21,15)        -178.0984         estimate D2E/DX2                !
 ! D57   D(19,13,21,5)        -120.3217         estimate D2E/DX2                !
 ! D58   D(19,13,21,15)         30.8022         estimate D2E/DX2                !
 ! D59   D(20,15,16,17)        -61.0921         estimate D2E/DX2                !
 ! D60   D(20,15,16,18)         64.6202         estimate D2E/DX2                !
 ! D61   D(20,15,16,19)       -177.9686         estimate D2E/DX2                !
 ! D62   D(21,15,16,17)        179.5375         estimate D2E/DX2                !
 ! D63   D(21,15,16,18)        -54.7501         estimate D2E/DX2                !
 ! D64   D(21,15,16,19)         62.661          estimate D2E/DX2                !
 ! D65   D(22,15,16,17)         58.7301         estimate D2E/DX2                !
 ! D66   D(22,15,16,18)       -175.5575         estimate D2E/DX2                !
 ! D67   D(22,15,16,19)        -58.1464         estimate D2E/DX2                !
 ! D68   D(16,15,21,5)          28.3463         estimate D2E/DX2                !
 ! D69   D(16,15,21,13)        -63.1205         estimate D2E/DX2                !
 ! D70   D(20,15,21,5)         -91.5894         estimate D2E/DX2                !
 ! D71   D(20,15,21,13)        176.9439         estimate D2E/DX2                !
 ! D72   D(22,15,21,5)         150.3214         estimate D2E/DX2                !
 ! D73   D(22,15,21,13)         58.8546         estimate D2E/DX2                !
 ! D74   D(15,16,17,23)         62.802          estimate D2E/DX2                !
 ! D75   D(15,16,17,24)        -56.957          estimate D2E/DX2                !
 ! D76   D(15,16,17,25)       -177.4384         estimate D2E/DX2                !
 ! D77   D(18,16,17,23)        -62.7611         estimate D2E/DX2                !
 ! D78   D(18,16,17,24)        177.48           estimate D2E/DX2                !
 ! D79   D(18,16,17,25)         56.9986         estimate D2E/DX2                !
 ! D80   D(19,16,17,23)       -179.9811         estimate D2E/DX2                !
 ! D81   D(19,16,17,24)         60.2599         estimate D2E/DX2                !
 ! D82   D(19,16,17,25)        -60.2215         estimate D2E/DX2                !
 ! D83   D(15,16,18,26)        -64.6609         estimate D2E/DX2                !
 ! D84   D(15,16,18,27)        175.5167         estimate D2E/DX2                !
 ! D85   D(15,16,18,28)         54.7104         estimate D2E/DX2                !
 ! D86   D(17,16,18,26)         61.0531         estimate D2E/DX2                !
 ! D87   D(17,16,18,27)        -58.7693         estimate D2E/DX2                !
 ! D88   D(17,16,18,28)       -179.5756         estimate D2E/DX2                !
 ! D89   D(19,16,18,26)        177.9304         estimate D2E/DX2                !
 ! D90   D(19,16,18,27)         58.108          estimate D2E/DX2                !
 ! D91   D(19,16,18,28)        -62.6983         estimate D2E/DX2                !
 ! D92   D(15,16,19,11)        -87.2816         estimate D2E/DX2                !
 ! D93   D(15,16,19,13)        -32.7175         estimate D2E/DX2                !
 ! D94   D(17,16,19,11)        152.7126         estimate D2E/DX2                !
 ! D95   D(17,16,19,13)       -152.7233         estimate D2E/DX2                !
 ! D96   D(18,16,19,11)         32.7083         estimate D2E/DX2                !
 ! D97   D(18,16,19,13)         87.2724         estimate D2E/DX2                !
 ! D98   D(16,18,28,5)         -28.236          estimate D2E/DX2                !
 ! D99   D(26,18,28,5)          91.701          estimate D2E/DX2                !
 ! D100  D(27,18,28,5)        -150.2102         estimate D2E/DX2                !
 --------------------------------------------------------------------------------
 Number of steps in this run=    168 maximum allowed number of steps=    168.
 GradGradGradGradGradGradGradGradGradGradGradGradGradGradGradGradGradGrad

                    Distance matrix (angstroms):
                    1          2          3          4          5
     1  C    0.000000
     2  C    1.521725   0.000000
     3  C    2.517787   1.520633   0.000000
     4  C    2.517820   1.520635   2.512773   0.000000
     5  Cl   2.682167   1.811018   2.691003   2.691007   0.000000
     6  H    1.088288   2.146442   2.777495   2.777450   3.663759
     7  H    1.087893   2.161185   3.464041   2.749707   2.864002
     8  H    1.087897   2.161194   2.749601   3.464075   2.864090
     9  H    2.761540   2.143721   1.088152   2.784498   3.668988
    10  H    2.764575   2.161587   1.087742   3.460267   2.857849
    11  H    3.462537   2.157391   1.087145   2.723284   2.895110
    12  H    2.761812   2.143734   2.784268   1.088161   3.669011
    13  H    3.462565   2.157398   2.723505   1.087152   2.894844
    14  H    2.764402   2.161597   3.460294   1.087757   2.858119
    15  C    6.056253   4.667675   4.989649   4.311446   3.819035
    16  C    6.316586   4.826848   4.667249   4.668092   4.212504
    17  C    7.818716   6.316663   6.055749   6.056747   5.722485
    18  C    6.055585   4.667251   4.310481   4.990044   3.818598
    19  Cl   5.723057   4.213031   3.818993   3.819891   4.330818
    20  H    6.735050   5.429040   5.803734   5.207723   4.281999
    21  H    5.046714   3.726423   4.261088   3.453308   2.808415
    22  H    6.495444   5.122614   5.525052   4.443324   4.524659
    23  H    8.381609   6.921932   6.752843   6.753918   6.068124
    24  H    8.194007   6.688503   6.530038   6.181802   6.239153
    25  H    8.193550   6.688168   6.180469   6.530678   6.239011
    26  H    6.734933   5.429130   5.207182   5.804544   4.282197
    27  H    6.493749   5.121328   4.441382   5.524788   4.523554
    28  H    5.046052   3.726077   3.452950   4.261369   2.807681
                    6          7          8          9         10
     6  H    0.000000
     7  H    1.767447   0.000000
     8  H    1.767454   1.766615   0.000000
     9  H    2.576222   3.764476   3.090665   0.000000
    10  H    3.135333   3.753005   2.549296   1.767857   0.000000
    11  H    3.767061   4.294278   3.749332   1.764975   1.769148
    12  H    2.576427   3.091175   3.764652   2.614126   3.788223
    13  H    3.767157   3.749302   4.294298   3.099002   3.712844
    14  H    3.134921   2.549177   3.752939   3.788301   4.294197
    15  C    6.753541   6.181206   6.530126   5.803919   5.524702
    16  C    6.922086   6.688318   6.687914   5.428922   5.121590
    17  C    8.381911   8.193858   8.193342   6.734929   6.494156
    18  C    6.752934   6.529696   6.180111   5.207051   4.441680
    19  Cl   6.068928   6.239754   6.239339   4.282281   4.524089
    20  H    7.527112   6.782694   7.114750   6.696294   6.208906
    21  H    5.794336   5.119214   5.530629   5.118190   4.797841
    22  H    7.093043   6.552784   7.107758   6.209468   6.206313
    23  H    9.041252   8.689228   8.688659   7.526784   7.091514
    24  H    8.689707   8.508539   8.689496   7.115095   7.106921
    25  H    8.689193   8.689550   8.507554   6.782346   6.551177
    26  H    7.527001   7.114905   6.782170   6.164869   5.227173
    27  H    7.091386   7.106375   6.550540   5.226743   4.479569
    28  H    5.793860   5.529955   5.118229   4.439667   3.516251
                   11         12         13         14         15
    11  H    0.000000
    12  H    3.098298   0.000000
    13  H    2.481317   1.764986   0.000000
    14  H    3.712837   1.767878   1.769168   0.000000
    15  C    4.260932   5.207697   3.453238   4.443733   0.000000
    16  C    3.726004   5.429348   3.726908   5.123352   1.520635
    17  C    5.046197   6.735502   5.047275   6.496198   2.517809
    18  C    3.452778   5.803938   4.261598   5.525765   2.512825
    19  Cl   2.808084   4.282687   2.809389   4.525732   2.690975
    20  H    5.117986   6.165213   4.439642   5.228786   1.088157
    21  H    3.712088   4.439707   2.761244   3.517601   1.087150
    22  H    4.797795   5.228397   3.517044   4.482758   1.087754
    23  H    5.793730   7.527466   5.794796   7.093741   2.777616
    24  H    5.530343   6.783360   5.119844   6.553562   2.749492
    25  H    5.118552   7.115195   5.531259   7.108537   3.464073
    26  H    4.439569   6.696721   5.118871   6.210490   2.784900
    27  H    3.515783   6.208737   4.798106   6.206709   3.460285
    28  H    2.761702   5.118263   3.712645   4.798471   2.723076
                   16         17         18         19         20
    16  C    0.000000
    17  C    1.521723   0.000000
    18  C    1.520639   2.517768   0.000000
    19  Cl   1.811032   2.682173   2.691047   0.000000
    20  H    2.143734   2.761595   2.784547   3.668981   0.000000
    21  H    2.157402   3.462561   2.723389   2.895063   1.764983
    22  H    2.161589   2.764580   3.460313   2.857811   1.767868
    23  H    2.146409   1.088293   2.777232   3.663752   2.576391
    24  H    2.161197   1.087897   3.464047   2.864250   3.090507
    25  H    2.161213   1.087900   2.749772   2.863908   3.764600
    26  H    2.143753   2.761246   1.088158   3.669032   2.614826
    27  H    2.161589   2.764829   1.087749   2.857551   3.788579
    28  H    2.157393   3.462524   1.087146   2.895489   3.098260
                   21         22         23         24         25
    21  H    0.000000
    22  H    1.769158   0.000000
    23  H    3.767156   3.135513   0.000000
    24  H    3.749255   2.549157   1.767452   0.000000
    25  H    4.294315   3.752955   1.767456   1.766632   0.000000
    26  H    3.099266   3.788706   2.575627   3.764175   3.090489
    27  H    3.712605   4.294157   3.135417   3.753304   2.549778
    28  H    2.480914   3.712578   3.766701   4.294300   3.749603
                   26         27         28
    26  H    0.000000
    27  H    1.767860   0.000000
    28  H    1.764989   1.769147   0.000000
 Framework group  C1[X(C8H18Cl2)]
 Deg. of freedom    78
                         Standard orientation:                         
 ---------------------------------------------------------------------
 Center     Atomic      Atomic             Coordinates (Angstroms)
 Number     Number       Type             X           Y           Z
 ---------------------------------------------------------------------
      1          6           0       -3.909229    0.034151   -0.000572
      2          6           0       -2.401501    0.240079   -0.000021
      3          6           0       -1.931397    0.956567   -1.256194
      4          6           0       -1.932239    0.956376    1.256579
      5         17           0       -1.646536   -1.406073    0.000104
      6          1           0       -4.408479    1.001166   -0.000583
      7          1           0       -4.222588   -0.518508    0.882539
      8          1           0       -4.221991   -0.518227   -0.884076
      9          1           0       -2.396011    1.939227   -1.307081
     10          1           0       -2.204799    0.395449   -2.147025
     11          1           0       -0.852165    1.086483   -1.239976
     12          1           0       -2.396490    1.939239    1.307046
     13          1           0       -0.852931    1.085843    1.241341
     14          1           0       -2.206689    0.395363    2.147172
     15          6           0        1.931744   -0.956267    1.256535
     16          6           0        2.401399   -0.240136   -0.000012
     17          6           0        3.909184   -0.034647   -0.000330
     18          6           0        1.931315   -0.956467   -1.256290
     19         17           0        1.646914    1.406251    0.000060
     20          1           0        2.396057   -1.939078    1.307339
     21          1           0        0.852454   -1.085822    1.240943
     22          1           0        2.205830   -0.395081    2.147128
     23          1           0        4.408109   -1.001837   -0.000721
     24          1           0        4.222641    0.517509    0.883065
     25          1           0        4.222220    0.518008   -0.883567
     26          1           0        2.396161   -1.939007   -1.307487
     27          1           0        2.204467   -0.395067   -2.147029
     28          1           0        0.852113   -1.086633   -1.239971
 ---------------------------------------------------------------------
 Rotational constants (GHZ):           1.5955351           0.4424036           0.4082522
   184 basis functions,   346 primitive gaussians,   194 cartesian basis functions
    50 alpha electrons       50 beta electrons
       nuclear repulsion energy       766.3463584947 Hartrees.
 NAtoms=   28 NActive=   28 NUniq=   28 SFac= 1.00D+00 NAtFMM=   60 NAOKFM=F Big=F
 Nuclear repulsion after empirical dispersion term =      766.3268197996 Hartrees.
   1 Symmetry operations used in ECPInt.
 ECPInt:  NShTT=    5050 NPrTT=   21114 LenC2=    4891 LenP2D=   14808.
 LDataN:  DoStor=T MaxTD1= 4 Len=   56
 ExpMin= 1.22D-01 ExpMax= 1.04D+04 ExpMxC= 1.57D+03 IAcc=3 IRadAn=         5 AccDes= 0.00D+00
 Harris functional with IExCor= 4639 and IRadAn=       5 diagonalized for initial guess.
 HarFok:  IExCor= 4639 AccDes= 0.00D+00 IRadAn=         5 IDoV= 1 UseB2=F ITyADJ=14
 ICtDFT=  3500011 ScaDFX=  1.000000  1.000000  1.000000  1.000000
 FoFCou: FMM=F IPFlag=           0 FMFlag=      100000 FMFlg1=           0
         NFxFlg=           0 DoJE=T BraDBF=F KetDBF=T FulRan=T
         wScrn=  0.000000 ICntrl=       500 IOpCl=  0 I1Cent=   200000004 NGrid=           0
         NMat0=    1 NMatS0=      1 NMatT0=    0 NMatD0=    1 NMtDS0=    0 NMtDT0=    0
 Petite list used in FoFCou.
     Accept linear search using points  2 and  3.
     Accept linear search using points  1 and  2.
     Minimum is close to point  2 DX=  1.50D-04 DF= -6.82D-13 DXR=  1.50D-04 DFR=  2.12D-08 which will be used.
 SCF Done:  E(RwB97XD) =  -1235.47696497     a.u. after    7 cycles
            Convg  =    0.1151D-08                    32 Fock formations.
              S**2 =  0.0000                  -V/T =  2.0042

 **********************************************************************

            Population analysis using the SCF Density.

 **********************************************************************

 Orbital symmetries:
       Occupied  (A) (A) (A) (A) (A) (A) (A) (A) (A) (A) (A) (A)
                 (A) (A) (A) (A) (A) (A) (A) (A) (A) (A) (A) (A)
                 (A) (A) (A) (A) (A) (A) (A) (A) (A) (A) (A) (A)
                 (A) (A) (A) (A) (A) (A) (A) (A) (A) (A) (A) (A)
                 (A) (A)
       Virtual   (A) (A) (A) (A) (A) (A) (A) (A) (A) (A) (A) (A)
                 (A) (A) (A) (A) (A) (A) (A) (A) (A) (A) (A) (A)
                 (A) (A) (A) (A) (A) (A) (A) (A) (A) (A) (A) (A)
                 (A) (A) (A) (A) (A) (A) (A) (A) (A) (A) (A) (A)
                 (A) (A) (A) (A) (A) (A) (A) (A) (A) (A) (A) (A)
                 (A) (A) (A) (A) (A) (A) (A) (A) (A) (A) (A) (A)
                 (A) (A) (A) (A) (A) (A) (A) (A) (A) (A) (A) (A)
                 (A) (A) (A) (A) (A) (A) (A) (A) (A) (A) (A) (A)
                 (A) (A) (A) (A) (A) (A) (A) (A) (A) (A) (A) (A)
                 (A) (A) (A) (A) (A) (A) (A) (A) (A) (A) (A) (A)
                 (A) (A) (A) (A) (A) (A) (A) (A) (A) (A) (A) (A)
                 (A) (A)
 The electronic state is 1-A.
 Alpha  occ. eigenvalues -- -101.65188-101.65187 -10.36006 -10.36005 -10.28643
 Alpha  occ. eigenvalues --  -10.28642 -10.28062 -10.28061 -10.28060 -10.28060
 Alpha  occ. eigenvalues --   -9.55981  -9.55980  -7.31304  -7.31303  -7.30416
 Alpha  occ. eigenvalues --   -7.30415  -7.30407  -7.30406  -0.96799  -0.96583
 Alpha  occ. eigenvalues --   -0.85557  -0.85281  -0.79086  -0.78937  -0.78794
 Alpha  occ. eigenvalues --   -0.78624  -0.63891  -0.63369  -0.55770  -0.55597
 Alpha  occ. eigenvalues --   -0.54511  -0.54156  -0.53985  -0.53681  -0.49072
 Alpha  occ. eigenvalues --   -0.48946  -0.48823  -0.48282  -0.45703  -0.45395
 Alpha  occ. eigenvalues --   -0.43932  -0.43489  -0.43296  -0.43291  -0.42629
 Alpha  occ. eigenvalues --   -0.42587  -0.37096  -0.36766  -0.36725  -0.36012
 Alpha virt. eigenvalues --    0.11673   0.11854   0.13102   0.14446   0.19106
 Alpha virt. eigenvalues --    0.19820   0.20078   0.20088   0.20364   0.20475
 Alpha virt. eigenvalues --    0.21026   0.21629   0.22378   0.22804   0.24424
 Alpha virt. eigenvalues --    0.24451   0.25004   0.25875   0.26394   0.27022
 Alpha virt. eigenvalues --    0.27105   0.27709   0.30031   0.30071   0.30752
 Alpha virt. eigenvalues --    0.33304   0.45734   0.46622   0.47660   0.47867
 Alpha virt. eigenvalues --    0.49654   0.52001   0.52510   0.52863   0.54760
 Alpha virt. eigenvalues --    0.54820   0.60239   0.60927   0.65315   0.66727
 Alpha virt. eigenvalues --    0.67022   0.67054   0.68083   0.68146   0.73728
 Alpha virt. eigenvalues --    0.75051   0.75124   0.75348   0.75806   0.76005
 Alpha virt. eigenvalues --    0.76146   0.76766   0.76855   0.77062   0.77795
 Alpha virt. eigenvalues --    0.78408   0.78502   0.80541   0.80953   0.81224
 Alpha virt. eigenvalues --    0.81800   0.82221   0.83321   0.84543   0.85538
 Alpha virt. eigenvalues --    0.85550   0.86148   0.86693   0.87199   0.87706
 Alpha virt. eigenvalues --    0.90590   0.90824   0.92061   0.92177   0.92343
 Alpha virt. eigenvalues --    0.93066   0.94672   0.95707   1.02933   1.04199
 Alpha virt. eigenvalues --    1.04828   1.07402   1.10058   1.10874   1.13100
 Alpha virt. eigenvalues --    1.14722   1.18630   1.21207   1.24364   1.27227
 Alpha virt. eigenvalues --    1.28747   1.31484   1.43589   1.45682   1.52043
 Alpha virt. eigenvalues --    1.52226   1.53040   1.53391   1.79372   1.79868
 Alpha virt. eigenvalues --    1.88860   1.90157   1.90365   1.90394   2.01612
 Alpha virt. eigenvalues --    2.02379   2.03112   2.03605   2.03671   2.05625
 Alpha virt. eigenvalues --    2.10840   2.11072   2.11324   2.11811   2.17380
 Alpha virt. eigenvalues --    2.18139   2.24062   2.24420   2.24924   2.25113
 Alpha virt. eigenvalues --    2.25333   2.25380   2.25850   2.26701   2.53678
 Alpha virt. eigenvalues --    2.53929   2.54046   2.54822   2.54871   2.55219
 Alpha virt. eigenvalues --    2.74264   2.74353   2.74408   2.75257
          Condensed to atoms (all electrons):
 Mulliken charges:
               1
     1  C   -0.219357
     2  C   -0.292337
     3  C   -0.233475
     4  C   -0.233463
     5  Cl  -0.129123
     6  H    0.115772
     7  H    0.125243
     8  H    0.125245
     9  H    0.113935
    10  H    0.121341
    11  H    0.135482
    12  H    0.113945
    13  H    0.135483
    14  H    0.121343
    15  C   -0.233471
    16  C   -0.292326
    17  C   -0.219366
    18  C   -0.233493
    19  Cl  -0.129157
    20  H    0.113938
    21  H    0.135485
    22  H    0.121342
    23  H    0.115766
    24  H    0.125239
    25  H    0.125250
    26  H    0.113936
    27  H    0.121347
    28  H    0.135478
 Sum of Mulliken charges =   0.00000
 Mulliken charges with hydrogens summed into heavy atoms:
               1
     1  C    0.146903
     2  C   -0.292337
     3  C    0.137281
     4  C    0.137308
     5  Cl  -0.129123
    15  C    0.137294
    16  C   -0.292326
    17  C    0.146889
    18  C    0.137268
    19  Cl  -0.129157
 Electronic spatial extent (au):  <R**2>=           2940.7598
 Charge=              0.0000 electrons
 Dipole moment (field-independent basis, Debye):
    X=             -0.0009    Y=             -0.0003    Z=             -0.0002  Tot=              0.0009
   1 Symmetry operations used in ECPInt.
 ECPInt:  NShTT=    5050 NPrTT=   21114 LenC2=    4891 LenP2D=   14808.
 LDataN:  DoStor=T MaxTD1= 5 Len=  102
 Calling FoFJK, ICntrl=      2127 FMM=F ISym2X=0 I1Cent= 0 IOpClX= 0 NMat=1 NMatS=1 NMatT=0.

 GradGradGradGradGradGradGradGradGradGradGradGradGradGradGradGradGradGrad
 FormGI is forming the generalized inverse of G from B-inverse, IUseBI=4.
 Internal  Forces:  Max     0.011361021 RMS     0.003479078
 Step number   1 out of a maximum of  168
 All quantities printed in internal units (Hartrees-Bohrs-Radians)
 Mixed Optimization -- RFO/linear search
 Second derivative matrix not updated -- first step.
 ITU=  0
     Eigenvalues ---    0.00337   0.00348   0.00479   0.00479   0.00614
     Eigenvalues ---    0.00617   0.01260   0.01274   0.01555   0.01897
     Eigenvalues ---    0.01932   0.02408   0.02643   0.03263   0.03359
     Eigenvalues ---    0.03752   0.04223   0.04414   0.04740   0.05031
     Eigenvalues ---    0.05485   0.05503   0.05655   0.05655   0.05718
     Eigenvalues ---    0.05787   0.05787   0.06034   0.06441   0.07481
     Eigenvalues ---    0.07544   0.07635   0.08408   0.08914   0.09008
     Eigenvalues ---    0.09386   0.09932   0.10013   0.10711   0.11184
     Eigenvalues ---    0.11192   0.11840   0.11862   0.13113   0.16000
     Eigenvalues ---    0.16000   0.16000   0.16000   0.16000   0.16000
     Eigenvalues ---    0.16642   0.17451   0.22496   0.23765   0.24716
     Eigenvalues ---    0.27361   0.28258   0.28814   0.30201   0.30201
     Eigenvalues ---    0.30679   0.31826   0.32429   0.34188   0.35011
     Eigenvalues ---    0.35011   0.35026   0.35026   0.35026   0.35027
     Eigenvalues ---    0.35056   0.35057   0.35057   0.35057   0.35073
     Eigenvalues ---    0.35074   0.35074   0.35075
 Linear search not attempted -- first point.
 Iteration  1 RMS(Cart)=  0.02041214 RMS(Int)=  0.00004216
 Iteration  2 RMS(Cart)=  0.00004593 RMS(Int)=  0.00000731
 Iteration  3 RMS(Cart)=  0.00000000 RMS(Int)=  0.00000731
 Variable       Old X    -DE/DX   Delta X   Delta X   Delta X     New X
                                 (Linear)    (Quad)   (Total)
    R1        2.87564   0.00356   0.00000   0.01153   0.01153   2.88717
    R2        2.05657   0.01109   0.00000   0.03105   0.03105   2.08762
    R3        2.05582   0.01002   0.00000   0.02801   0.02801   2.08383
    R4        2.05583   0.01001   0.00000   0.02800   0.02800   2.08383
    R5        2.87358   0.00354   0.00000   0.01252   0.01252   2.88610
    R6        2.87358   0.00282   0.00000   0.01182   0.01182   2.88540
    R7        3.42233   0.01035   0.00000   0.04353   0.04355   3.46588
    R8        2.05631   0.01136   0.00000   0.03179   0.03179   2.08810
    R9        2.05553   0.01018   0.00000   0.02845   0.02845   2.08398
   R10        2.05441   0.01039   0.00000   0.02935   0.02935   2.08375
   R11        2.05633   0.01135   0.00000   0.03177   0.03177   2.08810
   R12        2.05442   0.01034   0.00000   0.02911   0.02911   2.08353
   R13        2.05556   0.01017   0.00000   0.02842   0.02842   2.08398
   R14        5.30713   0.00124   0.00000   0.02960   0.02961   5.33674
   R15        5.30575   0.00066   0.00000   0.02552   0.02552   5.33127
   R16        5.30651   0.00066   0.00000   0.02538   0.02538   5.33189
   R17        5.30898   0.00123   0.00000   0.02936   0.02936   5.33834
   R18        5.21799   0.00208   0.00000   0.02659   0.02656   5.24455
   R19        2.87358   0.00282   0.00000   0.01182   0.01181   2.88540
   R20        2.05632   0.01136   0.00000   0.03179   0.03179   2.08811
   R21        2.05442   0.01034   0.00000   0.02912   0.02912   2.08353
   R22        2.05556   0.01017   0.00000   0.02842   0.02842   2.08398
   R23        2.87564   0.00357   0.00000   0.01154   0.01154   2.88718
   R24        2.87359   0.00353   0.00000   0.01251   0.01251   2.88610
   R25        3.42236   0.01035   0.00000   0.04353   0.04355   3.46590
   R26        2.05658   0.01109   0.00000   0.03104   0.03104   2.08762
   R27        2.05583   0.01002   0.00000   0.02800   0.02800   2.08383
   R28        2.05583   0.01001   0.00000   0.02799   0.02799   2.08383
   R29        2.05632   0.01136   0.00000   0.03178   0.03178   2.08810
   R30        2.05555   0.01017   0.00000   0.02843   0.02843   2.08398
   R31        2.05441   0.01039   0.00000   0.02935   0.02935   2.08376
    A1        1.91164  -0.00004   0.00000  -0.00099  -0.00099   1.91065
    A2        1.93248   0.00063   0.00000   0.00412   0.00411   1.93659
    A3        1.93248   0.00062   0.00000   0.00410   0.00410   1.93658
    A4        1.89575  -0.00039   0.00000  -0.00301  -0.00301   1.89275
    A5        1.89576  -0.00038   0.00000  -0.00301  -0.00301   1.89275
    A6        1.89494  -0.00048   0.00000  -0.00148  -0.00150   1.89344
    A7        1.94956  -0.00027   0.00000  -0.00237  -0.00238   1.94718
    A8        1.94959   0.00009   0.00000  -0.00225  -0.00226   1.94733
    A9        1.86506   0.00025   0.00000   0.00318   0.00319   1.86825
   A10        1.94475  -0.00006   0.00000  -0.00297  -0.00298   1.94177
   A11        1.87493   0.00054   0.00000   0.00402   0.00402   1.87895
   A12        1.87493  -0.00051   0.00000   0.00110   0.00111   1.87604
   A13        1.90936   0.00019   0.00000  -0.00056  -0.00056   1.90880
   A14        1.93454   0.00020   0.00000   0.00197   0.00197   1.93651
   A15        1.92931  -0.00022   0.00000   0.00216   0.00216   1.93147
   A16        1.89677  -0.00032   0.00000  -0.00387  -0.00387   1.89290
   A17        1.89299  -0.00014   0.00000  -0.00272  -0.00271   1.89028
   A18        1.90010   0.00027   0.00000   0.00281   0.00280   1.90289
   A19        1.90936   0.00006   0.00000   0.00031   0.00032   1.90968
   A20        1.92931   0.00004   0.00000   0.00030   0.00029   1.92960
   A21        1.93454   0.00012   0.00000   0.00179   0.00178   1.93632
   A22        1.89299  -0.00024   0.00000  -0.00204  -0.00204   1.89094
   A23        1.89677  -0.00024   0.00000  -0.00350  -0.00350   1.89327
   A24        1.90010   0.00025   0.00000   0.00299   0.00299   1.90309
   A25        1.84141  -0.00048   0.00000  -0.00466  -0.00465   1.83676
   A26        1.84164   0.00012   0.00000  -0.00103  -0.00104   1.84059
   A27        0.91510   0.00071   0.00000  -0.00088  -0.00088   0.91422
   A28        2.69908  -0.00000   0.00000  -0.00093  -0.00093   2.69815
   A29        2.69790  -0.00040   0.00000  -0.00104  -0.00104   2.69686
   A30        2.11706  -0.00215   0.00000  -0.00232  -0.00232   2.11475
   A31        1.09288   0.00236   0.00000   0.00538   0.00537   1.09825
   A32        1.90937   0.00007   0.00000   0.00032   0.00032   1.90969
   A33        1.92932   0.00004   0.00000   0.00028   0.00027   1.92959
   A34        1.93453   0.00011   0.00000   0.00179   0.00178   1.93631
   A35        1.89299  -0.00024   0.00000  -0.00205  -0.00205   1.89094
   A36        1.89676  -0.00024   0.00000  -0.00350  -0.00349   1.89327
   A37        1.90009   0.00025   0.00000   0.00302   0.00302   1.90311
   A38        1.94958   0.00009   0.00000  -0.00224  -0.00225   1.94733
   A39        1.94480  -0.00007   0.00000  -0.00302  -0.00303   1.94177
   A40        1.87489  -0.00051   0.00000   0.00114   0.00115   1.87604
   A41        1.94953  -0.00027   0.00000  -0.00235  -0.00236   1.94717
   A42        1.86505   0.00025   0.00000   0.00317   0.00318   1.86823
   A43        1.87496   0.00053   0.00000   0.00401   0.00401   1.87897
   A44        1.91159  -0.00004   0.00000  -0.00094  -0.00094   1.91065
   A45        1.93249   0.00063   0.00000   0.00411   0.00410   1.93659
   A46        1.93251   0.00062   0.00000   0.00408   0.00407   1.93658
   A47        1.89575  -0.00039   0.00000  -0.00301  -0.00300   1.89275
   A48        1.89575  -0.00039   0.00000  -0.00301  -0.00301   1.89275
   A49        1.89496  -0.00048   0.00000  -0.00150  -0.00151   1.89345
   A50        1.90939   0.00019   0.00000  -0.00060  -0.00060   1.90879
   A51        1.93453   0.00020   0.00000   0.00198   0.00197   1.93650
   A52        1.92930  -0.00022   0.00000   0.00219   0.00218   1.93149
   A53        1.89675  -0.00032   0.00000  -0.00386  -0.00386   1.89289
   A54        1.89300  -0.00014   0.00000  -0.00274  -0.00274   1.89027
   A55        1.90008   0.00027   0.00000   0.00284   0.00283   1.90291
   A56        0.91502   0.00071   0.00000  -0.00085  -0.00084   0.91417
   A57        1.84131   0.00012   0.00000  -0.00098  -0.00099   1.84031
   A58        1.84112  -0.00048   0.00000  -0.00463  -0.00462   1.83649
   A59        1.09300   0.00236   0.00000   0.00535   0.00535   1.09835
   A60        2.69823  -0.00040   0.00000  -0.00104  -0.00104   2.69719
   A61        2.11697  -0.00215   0.00000  -0.00232  -0.00231   2.11466
   A62        2.69909  -0.00000   0.00000  -0.00095  -0.00094   2.69815
    D1       -1.09581   0.00029   0.00000   0.00434   0.00434  -1.09148
    D2        1.09563   0.00006   0.00000  -0.00316  -0.00317   1.09247
    D3        3.14151  -0.00036   0.00000  -0.00114  -0.00114   3.14038
    D4        3.09716   0.00041   0.00000   0.00612   0.00612   3.10328
    D5       -0.99458   0.00018   0.00000  -0.00138  -0.00138  -0.99596
    D6        1.05130  -0.00024   0.00000   0.00064   0.00065   1.05195
    D7        0.99441   0.00018   0.00000   0.00254   0.00254   0.99695
    D8       -3.09733  -0.00005   0.00000  -0.00496  -0.00497  -3.10230
    D9       -1.05145  -0.00047   0.00000  -0.00294  -0.00294  -1.05439
   D10        1.06623  -0.00018   0.00000  -0.00233  -0.00233   1.06390
   D11       -1.02507  -0.00003   0.00000   0.00159   0.00160  -1.02348
   D12       -3.13357  -0.00036   0.00000  -0.00470  -0.00470  -3.13826
   D13       -1.12789  -0.00004   0.00000   0.00476   0.00476  -1.12313
   D14        3.06400   0.00011   0.00000   0.00868   0.00868   3.07268
   D15        0.95550  -0.00022   0.00000   0.00239   0.00239   0.95789
   D16        3.10612   0.00029   0.00000   0.00265   0.00265   3.10877
   D17        1.01482   0.00044   0.00000   0.00657   0.00657   1.02139
   D18       -1.09367   0.00011   0.00000   0.00028   0.00028  -1.09339
   D19       -1.06671   0.00013   0.00000   0.00161   0.00161  -1.06510
   D20        3.13308   0.00037   0.00000   0.00375   0.00375   3.13683
   D21        1.02459  -0.00005   0.00000  -0.00141  -0.00141   1.02318
   D22        1.12738  -0.00021   0.00000  -0.00554  -0.00554   1.12184
   D23       -0.95601   0.00003   0.00000  -0.00340  -0.00340  -0.95941
   D24       -3.06450  -0.00039   0.00000  -0.00856  -0.00855  -3.07306
   D25       -3.10663   0.00009   0.00000  -0.00167  -0.00167  -3.10830
   D26        1.09316   0.00033   0.00000   0.00047   0.00047   1.09363
   D27       -1.01533  -0.00009   0.00000  -0.00468  -0.00468  -1.02001
   D28       -2.66565   0.00022   0.00000  -0.00059  -0.00059  -2.66624
   D29        2.66504  -0.00047   0.00000   0.00114   0.00115   2.66619
   D30        1.52305   0.00012   0.00000  -0.00166  -0.00166   1.52139
   D31        0.57055  -0.00056   0.00000   0.00008   0.00008   0.57063
   D32       -0.57111   0.00019   0.00000  -0.00094  -0.00094  -0.57205
   D33       -1.52361  -0.00050   0.00000   0.00080   0.00080  -1.52281
   D34       -0.49375  -0.00000   0.00000  -0.00224  -0.00223  -0.49598
   D35        1.59950   0.00002   0.00000  -0.00332  -0.00332   1.59619
   D36       -2.62263  -0.00029   0.00000  -0.00791  -0.00791  -2.63054
   D37        0.49514   0.00032   0.00000   0.00782   0.00783   0.50297
   D38       -1.10092  -0.00057   0.00000   0.00041   0.00043  -1.10050
   D39       -1.59812   0.00038   0.00000   0.00854   0.00854  -1.58958
   D40        3.08901  -0.00052   0.00000   0.00113   0.00114   3.09014
   D41        2.62402   0.00066   0.00000   0.01220   0.01221   2.63622
   D42        1.02795  -0.00024   0.00000   0.00480   0.00480   1.03276
   D43        0.12108  -0.00110   0.00000  -0.00169  -0.00167   0.11941
   D44       -1.72640  -0.00088   0.00000  -0.00715  -0.00713  -1.73353
   D45        1.82920  -0.00047   0.00000   0.00028   0.00029   1.82948
   D46       -0.01829  -0.00025   0.00000  -0.00518  -0.00517  -0.02346
   D47        1.72463  -0.00042   0.00000  -0.00414  -0.00413   1.72050
   D48        0.01697   0.00016   0.00000   0.00118   0.00118   0.01815
   D49        0.01766   0.00016   0.00000   0.00117   0.00117   0.01883
   D50        1.72518  -0.00042   0.00000  -0.00415  -0.00414   1.72104
   D51       -0.01861  -0.00025   0.00000  -0.00518  -0.00517  -0.02378
   D52       -1.72651  -0.00089   0.00000  -0.00720  -0.00718  -1.73369
   D53        1.82881  -0.00047   0.00000   0.00031   0.00032   1.82912
   D54        0.12091  -0.00110   0.00000  -0.00171  -0.00169   0.11922
   D55        0.53717  -0.00015   0.00000  -0.00232  -0.00231   0.53487
   D56       -3.10840   0.00007   0.00000  -0.00190  -0.00188  -3.11028
   D57       -2.10001  -0.00038   0.00000  -0.00276  -0.00275  -2.10276
   D58        0.53760  -0.00015   0.00000  -0.00234  -0.00232   0.53528
   D59       -1.06626   0.00013   0.00000   0.00152   0.00152  -1.06474
   D60        1.12784  -0.00021   0.00000  -0.00564  -0.00564   1.12220
   D61       -3.10614   0.00009   0.00000  -0.00178  -0.00178  -3.10791
   D62        3.13352   0.00037   0.00000   0.00368   0.00367   3.13720
   D63       -0.95557   0.00003   0.00000  -0.00348  -0.00348  -0.95905
   D64        1.09364   0.00033   0.00000   0.00038   0.00038   1.09402
   D65        1.02503  -0.00005   0.00000  -0.00149  -0.00149   1.02354
   D66       -3.06406  -0.00039   0.00000  -0.00865  -0.00865  -3.07271
   D67       -1.01485  -0.00009   0.00000  -0.00479  -0.00479  -1.01964
   D68        0.49474   0.00033   0.00000   0.00787   0.00787   0.50261
   D69       -1.10166  -0.00057   0.00000   0.00051   0.00052  -1.10114
   D70       -1.59854   0.00038   0.00000   0.00860   0.00860  -1.58994
   D71        3.08825  -0.00052   0.00000   0.00123   0.00124   3.08949
   D72        2.62360   0.00066   0.00000   0.01225   0.01225   2.63585
   D73        1.02721  -0.00024   0.00000   0.00488   0.00489   1.03210
   D74        1.09610   0.00006   0.00000  -0.00334  -0.00334   1.09276
   D75       -0.99409   0.00017   0.00000  -0.00158  -0.00158  -0.99567
   D76       -3.09688  -0.00005   0.00000  -0.00512  -0.00513  -3.10201
   D77       -1.09539   0.00029   0.00000   0.00421   0.00421  -1.09118
   D78        3.09761   0.00040   0.00000   0.00597   0.00597   3.10358
   D79        0.99481   0.00018   0.00000   0.00243   0.00242   0.99723
   D80       -3.14126  -0.00036   0.00000  -0.00127  -0.00126   3.14066
   D81        1.05173  -0.00024   0.00000   0.00049   0.00050   1.05223
   D82       -1.05106  -0.00047   0.00000  -0.00305  -0.00305  -1.05411
   D83       -1.12855  -0.00003   0.00000   0.00491   0.00491  -1.12364
   D84        3.06334   0.00011   0.00000   0.00884   0.00884   3.07219
   D85        0.95488  -0.00022   0.00000   0.00250   0.00250   0.95737
   D86        1.06558  -0.00018   0.00000  -0.00219  -0.00219   1.06339
   D87       -1.02572  -0.00003   0.00000   0.00174   0.00175  -1.02397
   D88       -3.13418  -0.00036   0.00000  -0.00460  -0.00460  -3.13878
   D89        3.10547   0.00030   0.00000   0.00278   0.00278   3.10825
   D90        1.01418   0.00044   0.00000   0.00671   0.00671   1.02089
   D91       -1.09429   0.00011   0.00000   0.00037   0.00037  -1.09392
   D92       -1.52335  -0.00050   0.00000   0.00078   0.00079  -1.52257
   D93       -0.57103   0.00019   0.00000  -0.00090  -0.00090  -0.57193
   D94        2.66534  -0.00047   0.00000   0.00110   0.00111   2.66644
   D95       -2.66552   0.00022   0.00000  -0.00059  -0.00058  -2.66611
   D96        0.57087  -0.00057   0.00000   0.00002   0.00002   0.57089
   D97        1.52319   0.00012   0.00000  -0.00166  -0.00166   1.52153
   D98       -0.49281  -0.00000   0.00000  -0.00231  -0.00230  -0.49511
   D99        1.60048   0.00001   0.00000  -0.00344  -0.00343   1.59705
   D100      -2.62166  -0.00029   0.00000  -0.00802  -0.00802  -2.62968
         Item               Value     Threshold  Converged?
 Maximum Force            0.011361     0.000015     NO 
 RMS     Force            0.003479     0.000010     NO 
 Maximum Displacement     0.067563     0.000060     NO 
 RMS     Displacement     0.020414     0.000040     NO 
 GradGradGradGradGradGradGradGradGradGradGradGradGradGradGradGradGradGrad

                    Distance matrix (angstroms):
                    1          2          3          4          5
     1  C    0.000000
     2  C    1.527825   0.000000
     3  C    2.526275   1.527258   0.000000
     4  C    2.526102   1.526888   2.520845   0.000000
     5  Cl   2.709344   1.834063   2.719453   2.716317   0.000000
     6  H    1.104718   2.163314   2.788677   2.789072   3.706053
     7  H    1.102715   2.180703   3.488439   2.766829   2.897408
     8  H    1.102714   2.180696   2.767317   3.488176   2.898719
     9  H    2.774099   2.161643   1.104976   2.795754   3.712820
    10  H    2.778987   2.180207   1.102795   3.483695   2.894005
    11  H    3.486480   2.176473   1.102675   2.738768   2.928462
    12  H    2.775274   2.161969   2.795807   1.104975   3.710792
    13  H    3.485342   2.174705   2.737600   1.102555   2.923084
    14  H    2.778529   2.179747   3.483697   1.102796   2.889119
    15  C    6.100781   4.704435   5.027464   4.347157   3.848847
    16  C    6.360909   4.864195   4.705341   4.704775   4.244911
    17  C    7.869641   6.360972   6.101141   6.101180   5.759959
    18  C    6.101009   4.705345   4.352824   5.027786   3.846422
    19  Cl   5.760421   4.245341   3.846741   3.849569   4.371432
    20  H    6.789707   5.476331   5.853940   5.255782   4.315495
    21  H    5.077528   3.749930   4.288306   3.476355   2.824082
    22  H    6.550160   5.170517   5.573893   4.487783   4.568610
    23  H    8.438712   6.972662   6.807366   6.805872   6.106107
    24  H    8.255789   6.743961   6.586165   6.235292   6.290119
    25  H    8.255582   6.744031   6.235190   6.588022   6.289097
    26  H    6.791222   5.478276   5.263946   5.852932   4.314699
    27  H    6.550061   5.171479   4.493224   5.576774   4.564746
    28  H    5.078804   3.752484   3.485531   4.290215   2.821188
                    6          7          8          9         10
     6  H    0.000000
     7  H    1.790893   0.000000
     8  H    1.790894   1.789716   0.000000
     9  H    2.579199   3.791270   3.113509   0.000000
    10  H    3.152929   3.784432   2.562913   1.791264   0.000000
    11  H    3.792785   4.333187   3.783472   1.789475   1.795818
    12  H    2.581104   3.114166   3.792532   2.616353   3.813675
    13  H    3.792768   3.782162   4.331600   3.118246   3.743528
    14  H    3.153253   2.562056   3.783697   3.813320   4.331872
    15  C    6.805555   6.234839   6.587570   5.852440   5.576677
    16  C    6.972753   6.743839   6.743839   5.478107   5.171676
    17  C    8.438919   8.255693   8.255431   6.791213   6.550379
    18  C    6.807403   6.585927   6.234917   5.263835   4.493449
    19  Cl   6.106717   6.290617   6.289380   4.314765   4.565170
    20  H    7.591676   6.844839   7.180709   6.759156   6.271325
    21  H    5.834199   5.157973   5.574571   5.157065   4.839602
    22  H    7.153197   6.614892   7.177143   6.266032   6.270925
    23  H    9.106962   8.755547   8.756019   7.594421   7.155863
    24  H    8.755868   8.580208   8.764182   7.179523   7.175742
    25  H    8.756393   8.764234   8.578846   6.847611   6.613717
    26  H    7.594568   7.179417   6.847491   6.237287   5.293159
    27  H    7.155727   7.175344   6.613231   5.292817   4.535983
    28  H    5.837640   5.573253   5.158876   4.488602   3.556918
                   11         12         13         14         15
    11  H    0.000000
    12  H    3.118006   0.000000
    13  H    2.491979   1.789808   0.000000
    14  H    3.745114   1.791505   1.795845   0.000000
    15  C    4.289837   5.255753   3.476294   4.488126   0.000000
    16  C    3.752406   5.476571   3.750334   5.171126   1.526887
    17  C    5.078907   6.790061   5.077991   6.550781   2.526103
    18  C    3.485367   5.854105   4.288739   5.574473   2.520850
    19  Cl   2.821512   4.316067   2.824928   4.569522   2.716325
    20  H    5.160782   6.227373   4.477285   5.283373   1.104978
    21  H    3.734756   4.477337   2.775297   3.548322   1.102559
    22  H    4.837467   5.283040   3.547847   4.533081   1.102795
    23  H    5.837551   7.591961   5.834583   7.153779   2.789207
    24  H    5.573517   6.845327   5.158455   6.615519   2.766705
    25  H    5.159114   7.181067   5.575105   7.177785   3.488171
    26  H    4.488496   6.759485   5.157608   6.266838   2.795998
    27  H    3.556539   6.271217   4.839870   6.271268   3.483680
    28  H    2.789374   5.161031   3.735252   4.838028   2.738566
                   16         17         18         19         20
    16  C    0.000000
    17  C    1.527828   0.000000
    18  C    1.527259   2.526268   0.000000
    19  Cl   1.834076   2.709342   2.719486   0.000000
    20  H    2.161978   2.775114   2.795993   3.710802   0.000000
    21  H    2.174699   3.485343   2.737443   2.923294   1.789811
    22  H    2.179735   2.778677   3.483683   2.888912   1.791504
    23  H    2.163314   1.104719   2.788526   3.706054   2.581082
    24  H    2.180711   1.102716   3.488443   2.897558   3.113707
    25  H    2.180698   1.102714   2.767434   2.898562   3.792481
    26  H    2.161639   2.773846   1.104975   3.712837   2.616822
    27  H    2.180202   2.779192   1.102794   2.893768   3.813921
    28  H    2.176489   3.486488   1.102679   2.928805   3.117929
                   21         22         23         24         25
    21  H    0.000000
    22  H    1.795859   0.000000
    23  H    3.792775   3.153702   0.000000
    24  H    3.782164   2.562089   1.790892   0.000000
    25  H    4.331598   3.783724   1.790891   1.789719   0.000000
    26  H    3.118362   3.813571   2.578763   3.791016   3.113326
    27  H    3.743281   4.331825   3.153044   3.784654   2.563276
    28  H    2.491581   3.744881   3.792553   4.333215   3.783687
                   26         27         28
    26  H    0.000000
    27  H    1.791259   0.000000
    28  H    1.789470   1.795830   0.000000
 Framework group  C1[X(C8H18Cl2)]
 Deg. of freedom    78
                         Standard orientation:                         
 ---------------------------------------------------------------------
 Center     Atomic      Atomic             Coordinates (Angstroms)
 Number     Number       Type             X           Y           Z
 ---------------------------------------------------------------------
      1          6           0       -3.934658    0.037429   -0.000859
      2          6           0       -2.420290    0.239761   -0.000148
      3          6           0       -1.950378    0.965913   -1.258878
      4          6           0       -1.950605    0.959393    1.261958
      5         17           0       -1.655270   -1.427131   -0.001234
      6          1           0       -4.437608    1.021014    0.001030
      7          1           0       -4.258311   -0.521675    0.892803
      8          1           0       -4.257945   -0.518053   -0.896909
      9          1           0       -2.422652    1.963855   -1.304064
     10          1           0       -2.231647    0.405191   -2.165870
     11          1           0       -0.856097    1.100959   -1.244605
     12          1           0       -2.421384    1.957795    1.312282
     13          1           0       -0.856172    1.092169    1.247359
     14          1           0       -2.232385    0.394159    2.165988
     15          6           0        1.950184   -0.959360    1.261901
     16          6           0        2.420207   -0.239802   -0.000120
     17          6           0        3.934623   -0.037806   -0.000612
     18          6           0        1.950326   -0.965819   -1.258941
     19         17           0        1.655579    1.427285   -0.001251
     20          1           0        2.421021   -1.957724    1.312469
     21          1           0        0.855762   -1.092221    1.246961
     22          1           0        2.231649   -0.394019    2.165961
     23          1           0        4.437349   -1.021507    0.001017
     24          1           0        4.258315    0.520942    0.893259
     25          1           0        4.258125    0.517879   -0.896457
     26          1           0        2.422801   -1.963655   -1.304346
     27          1           0        2.231416   -0.404876   -2.165851
     28          1           0        0.856071   -1.101106   -1.244603
 ---------------------------------------------------------------------
 Rotational constants (GHZ):           1.5649273           0.4362170           0.4016095
   184 basis functions,   346 primitive gaussians,   194 cartesian basis functions
    50 alpha electrons       50 beta electrons
       nuclear repulsion energy       759.8415255429 Hartrees.
 NAtoms=   28 NActive=   28 NUniq=   28 SFac= 1.00D+00 NAtFMM=   60 NAOKFM=F Big=F
 Nuclear repulsion after empirical dispersion term =      759.8220182118 Hartrees.
   1 Symmetry operations used in ECPInt.
 ECPInt:  NShTT=    5050 NPrTT=   21114 LenC2=    4889 LenP2D=   14742.
 LDataN:  DoStor=T MaxTD1= 4 Len=   56
 Initial guess from the checkpoint file:  "/scratch/user/peterchao1/peterchao1/6113327_1660079103000000872677030/Gau-200218.chk"
 B after Tr=     0.000000   -0.000000   -0.000000
         Rot=    1.000000   -0.000003    0.000001   -0.000452 Ang=  -0.05 deg.
 ExpMin= 1.22D-01 ExpMax= 1.04D+04 ExpMxC= 1.57D+03 IAcc=3 IRadAn=         5 AccDes= 0.00D+00
 Harris functional with IExCor= 4639 and IRadAn=       5 diagonalized for initial guess.
 HarFok:  IExCor= 4639 AccDes= 0.00D+00 IRadAn=         5 IDoV= 1 UseB2=F ITyADJ=14
 ICtDFT=  3500011 ScaDFX=  1.000000  1.000000  1.000000  1.000000
 FoFCou: FMM=F IPFlag=           0 FMFlag=      100000 FMFlg1=           0
         NFxFlg=           0 DoJE=T BraDBF=F KetDBF=T FulRan=T
         wScrn=  0.000000 ICntrl=       500 IOpCl=  0 I1Cent=   200000004 NGrid=           0
         NMat0=    1 NMatS0=      1 NMatT0=    0 NMatD0=    1 NMtDS0=    0 NMtDT0=    0
 Petite list used in FoFCou.
     Minimum is close to point  3 DX=  5.69D-02 DF= -2.76D-07 DXR=  5.39D-02 DFR=  2.91D-03 which will be used.
     Accept linear search using points  1 and  2.
     Minimum is close to point  2 DX= -1.11D-04 DF= -4.55D-13 DXR=  1.11D-04 DFR=  1.26D-08 which will be used.
 SCF Done:  E(RwB97XD) =  -1235.48049981     a.u. after    5 cycles
            Convg  =    0.6563D-09                    27 Fock formations.
              S**2 =  0.0000                  -V/T =  2.0046
   1 Symmetry operations used in ECPInt.
 ECPInt:  NShTT=    5050 NPrTT=   21114 LenC2=    4889 LenP2D=   14742.
 LDataN:  DoStor=T MaxTD1= 5 Len=  102
 Calling FoFJK, ICntrl=      2127 FMM=F ISym2X=0 I1Cent= 0 IOpClX= 0 NMat=1 NMatS=1 NMatT=0.

 GradGradGradGradGradGradGradGradGradGradGradGradGradGradGradGradGradGrad
 Using GEDIIS/GDIIS optimizer.
 FormGI is forming the generalized inverse of G from B-inverse, IUseBI=4.
 Internal  Forces:  Max     0.001570406 RMS     0.000309001
 Step number   2 out of a maximum of  168
 All quantities printed in internal units (Hartrees-Bohrs-Radians)
 Mixed Optimization -- En-DIIS/RFO-DIIS
 Trust test= 9.73D-01 RLast= 1.63D-01 DXMaxT set to 4.89D-01
 ITU=  1  0
 Use linear search instead of GDIIS.
     Eigenvalues ---    0.00338   0.00349   0.00479   0.00479   0.00617
     Eigenvalues ---    0.00620   0.01261   0.01272   0.01551   0.01900
     Eigenvalues ---    0.01921   0.02393   0.02632   0.03252   0.03337
     Eigenvalues ---    0.03795   0.04258   0.04426   0.04728   0.05007
     Eigenvalues ---    0.05473   0.05508   0.05608   0.05611   0.05710
     Eigenvalues ---    0.05780   0.05780   0.06034   0.06430   0.07459
     Eigenvalues ---    0.07524   0.07619   0.08405   0.08914   0.09017
     Eigenvalues ---    0.09362   0.09928   0.10025   0.10719   0.11201
     Eigenvalues ---    0.11213   0.11863   0.11884   0.13131   0.15973
     Eigenvalues ---    0.16000   0.16000   0.16000   0.16000   0.16004
     Eigenvalues ---    0.16619   0.17419   0.21738   0.23791   0.24733
     Eigenvalues ---    0.27459   0.28292   0.28913   0.30201   0.30236
     Eigenvalues ---    0.30692   0.31865   0.32476   0.34345   0.35011
     Eigenvalues ---    0.35015   0.35026   0.35026   0.35027   0.35038
     Eigenvalues ---    0.35057   0.35057   0.35057   0.35066   0.35073
     Eigenvalues ---    0.35074   0.35075   0.36535
 Quartic linear search produced a step of  0.01326.
 Iteration  1 RMS(Cart)=  0.00444414 RMS(Int)=  0.00001793
 Iteration  2 RMS(Cart)=  0.00001663 RMS(Int)=  0.00000707
 Iteration  3 RMS(Cart)=  0.00000000 RMS(Int)=  0.00000707
 Variable       Old X    -DE/DX   Delta X   Delta X   Delta X     New X
                                 (Linear)    (Quad)   (Total)
    R1        2.88717  -0.00130   0.00015  -0.00424  -0.00409   2.88308
    R2        2.08762  -0.00000   0.00041   0.00030   0.00071   2.08833
    R3        2.08383  -0.00004   0.00037   0.00015   0.00052   2.08435
    R4        2.08383  -0.00004   0.00037   0.00017   0.00054   2.08437
    R5        2.88610  -0.00107   0.00017  -0.00370  -0.00354   2.88256
    R6        2.88540  -0.00080   0.00016  -0.00234  -0.00218   2.88322
    R7        3.46588   0.00157   0.00058   0.00733   0.00791   3.47379
    R8        2.08810   0.00001   0.00042   0.00035   0.00077   2.08887
    R9        2.08398  -0.00005   0.00038   0.00014   0.00052   2.08450
   R10        2.08375  -0.00012   0.00039  -0.00008   0.00031   2.08406
   R11        2.08810   0.00002   0.00042   0.00036   0.00078   2.08888
   R12        2.08353  -0.00004   0.00039   0.00027   0.00065   2.08418
   R13        2.08398  -0.00007   0.00038   0.00009   0.00047   2.08445
   R14        5.33674   0.00037   0.00039   0.02148   0.02187   5.35861
   R15        5.33127   0.00041   0.00034   0.02582   0.02616   5.35743
   R16        5.33189   0.00041   0.00034   0.02562   0.02596   5.35784
   R17        5.33834   0.00036   0.00039   0.02119   0.02158   5.35992
   R18        5.24455   0.00026   0.00035   0.00014   0.00048   5.24504
   R19        2.88540  -0.00080   0.00016  -0.00234  -0.00218   2.88322
   R20        2.08811   0.00002   0.00042   0.00036   0.00078   2.08888
   R21        2.08353  -0.00005   0.00039   0.00026   0.00065   2.08418
   R22        2.08398  -0.00006   0.00038   0.00009   0.00047   2.08445
   R23        2.88718  -0.00130   0.00015  -0.00424  -0.00409   2.88308
   R24        2.88610  -0.00107   0.00017  -0.00370  -0.00353   2.88257
   R25        3.46590   0.00157   0.00058   0.00733   0.00791   3.47381
   R26        2.08762  -0.00000   0.00041   0.00030   0.00071   2.08832
   R27        2.08383  -0.00004   0.00037   0.00015   0.00052   2.08435
   R28        2.08383  -0.00003   0.00037   0.00017   0.00055   2.08437
   R29        2.08810   0.00001   0.00042   0.00035   0.00077   2.08887
   R30        2.08398  -0.00005   0.00038   0.00014   0.00052   2.08450
   R31        2.08376  -0.00012   0.00039  -0.00009   0.00030   2.08407
    A1        1.91065  -0.00033  -0.00001  -0.00262  -0.00263   1.90802
    A2        1.93659   0.00022   0.00005   0.00173   0.00178   1.93837
    A3        1.93658   0.00024   0.00005   0.00182   0.00187   1.93845
    A4        1.89275  -0.00000  -0.00004  -0.00056  -0.00060   1.89215
    A5        1.89275  -0.00001  -0.00004  -0.00059  -0.00063   1.89212
    A6        1.89344  -0.00013  -0.00002   0.00015   0.00012   1.89357
    A7        1.94718   0.00015  -0.00003   0.00345   0.00339   1.95056
    A8        1.94733   0.00020  -0.00003   0.00381   0.00375   1.95108
    A9        1.86825  -0.00031   0.00004  -0.00581  -0.00576   1.86249
   A10        1.94177   0.00018  -0.00004   0.00372   0.00366   1.94543
   A11        1.87895  -0.00016   0.00005  -0.00476  -0.00470   1.87425
   A12        1.87604  -0.00010   0.00001  -0.00137  -0.00134   1.87470
   A13        1.90880  -0.00033  -0.00001  -0.00345  -0.00345   1.90534
   A14        1.93651   0.00003   0.00003   0.00155   0.00157   1.93808
   A15        1.93147   0.00042   0.00003   0.00217   0.00219   1.93365
   A16        1.89290   0.00001  -0.00005  -0.00117  -0.00122   1.89168
   A17        1.89028  -0.00006  -0.00004  -0.00068  -0.00071   1.88957
   A18        1.90289  -0.00008   0.00004   0.00147   0.00151   1.90440
   A19        1.90968  -0.00028   0.00000  -0.00415  -0.00414   1.90554
   A20        1.92960   0.00029   0.00000   0.00442   0.00442   1.93402
   A21        1.93632   0.00006   0.00002   0.00164   0.00165   1.93797
   A22        1.89094  -0.00008  -0.00003  -0.00166  -0.00168   1.88926
   A23        1.89327  -0.00000  -0.00005  -0.00166  -0.00171   1.89156
   A24        1.90309  -0.00000   0.00004   0.00123   0.00126   1.90435
   A25        1.83676  -0.00032  -0.00006  -0.00339  -0.00345   1.83331
   A26        1.84059  -0.00020  -0.00001  -0.00323  -0.00325   1.83735
   A27        0.91422  -0.00013  -0.00001  -0.00234  -0.00235   0.91187
   A28        2.69815  -0.00022  -0.00001  -0.00098  -0.00100   2.69715
   A29        2.69686  -0.00013  -0.00001  -0.00088  -0.00090   2.69597
   A30        2.11475  -0.00006  -0.00003   0.00139   0.00136   2.11611
   A31        1.09825   0.00011   0.00007  -0.00076  -0.00068   1.09757
   A32        1.90969  -0.00028   0.00000  -0.00417  -0.00416   1.90554
   A33        1.92959   0.00029   0.00000   0.00440   0.00440   1.93399
   A34        1.93631   0.00006   0.00002   0.00167   0.00167   1.93798
   A35        1.89094  -0.00008  -0.00003  -0.00167  -0.00169   1.88925
   A36        1.89327  -0.00000  -0.00005  -0.00166  -0.00171   1.89156
   A37        1.90311  -0.00000   0.00004   0.00125   0.00128   1.90438
   A38        1.94733   0.00020  -0.00003   0.00381   0.00376   1.95109
   A39        1.94177   0.00018  -0.00004   0.00370   0.00364   1.94542
   A40        1.87604  -0.00010   0.00002  -0.00136  -0.00133   1.87471
   A41        1.94717   0.00015  -0.00003   0.00346   0.00339   1.95056
   A42        1.86823  -0.00031   0.00004  -0.00582  -0.00577   1.86246
   A43        1.87897  -0.00016   0.00005  -0.00475  -0.00469   1.87428
   A44        1.91065  -0.00033  -0.00001  -0.00261  -0.00262   1.90803
   A45        1.93659   0.00022   0.00005   0.00172   0.00177   1.93837
   A46        1.93658   0.00024   0.00005   0.00182   0.00187   1.93845
   A47        1.89275  -0.00000  -0.00004  -0.00055  -0.00059   1.89215
   A48        1.89275  -0.00001  -0.00004  -0.00059  -0.00063   1.89212
   A49        1.89345  -0.00013  -0.00002   0.00014   0.00012   1.89357
   A50        1.90879  -0.00033  -0.00001  -0.00346  -0.00346   1.90533
   A51        1.93650   0.00003   0.00003   0.00156   0.00159   1.93809
   A52        1.93149   0.00042   0.00003   0.00216   0.00217   1.93366
   A53        1.89289   0.00001  -0.00005  -0.00117  -0.00122   1.89167
   A54        1.89027  -0.00006  -0.00004  -0.00070  -0.00072   1.88954
   A55        1.90291  -0.00008   0.00004   0.00149   0.00152   1.90443
   A56        0.91417  -0.00013  -0.00001  -0.00231  -0.00233   0.91185
   A57        1.84031  -0.00020  -0.00001  -0.00317  -0.00318   1.83713
   A58        1.83649  -0.00032  -0.00006  -0.00334  -0.00340   1.83309
   A59        1.09835   0.00011   0.00007  -0.00077  -0.00070   1.09765
   A60        2.69719  -0.00013  -0.00001  -0.00090  -0.00092   2.69627
   A61        2.11466  -0.00006  -0.00003   0.00141   0.00138   2.11604
   A62        2.69815  -0.00022  -0.00001  -0.00100  -0.00102   2.69713
    D1       -1.09148  -0.00026   0.00006  -0.00586  -0.00581  -1.09729
    D2        1.09247   0.00023  -0.00004   0.00457   0.00453   1.09700
    D3        3.14038   0.00003  -0.00002   0.00150   0.00148  -3.14133
    D4        3.10328  -0.00019   0.00008  -0.00457  -0.00449   3.09879
    D5       -0.99596   0.00030  -0.00002   0.00586   0.00585  -0.99011
    D6        1.05195   0.00011   0.00001   0.00279   0.00280   1.05475
    D7        0.99695  -0.00033   0.00003  -0.00714  -0.00712   0.98983
    D8       -3.10230   0.00016  -0.00007   0.00329   0.00323  -3.09907
    D9       -1.05439  -0.00004  -0.00004   0.00022   0.00018  -1.05421
   D10        1.06390   0.00025  -0.00003   0.00817   0.00814   1.07204
   D11       -1.02348   0.00043   0.00002   0.01086   0.01089  -1.01259
   D12       -3.13826   0.00022  -0.00006   0.00649   0.00643  -3.13183
   D13       -1.12313  -0.00025   0.00006  -0.00228  -0.00222  -1.12535
   D14        3.07268  -0.00008   0.00012   0.00042   0.00053   3.07320
   D15        0.95789  -0.00028   0.00003  -0.00396  -0.00393   0.95396
   D16        3.10877  -0.00014   0.00004   0.00017   0.00020   3.10897
   D17        1.02139   0.00003   0.00009   0.00286   0.00295   1.02434
   D18       -1.09339  -0.00017   0.00000  -0.00151  -0.00151  -1.09490
   D19       -1.06510  -0.00023   0.00002  -0.00652  -0.00650  -1.07160
   D20        3.13683  -0.00014   0.00005  -0.00459  -0.00453   3.13229
   D21        1.02318  -0.00037  -0.00002  -0.01022  -0.01024   1.01294
   D22        1.12184   0.00025  -0.00007   0.00373   0.00366   1.12550
   D23       -0.95941   0.00034  -0.00005   0.00566   0.00563  -0.95378
   D24       -3.07306   0.00011  -0.00011   0.00003  -0.00008  -3.07314
   D25       -3.10830   0.00010  -0.00002  -0.00077  -0.00080  -3.10910
   D26        1.09363   0.00019   0.00001   0.00116   0.00117   1.09480
   D27       -1.02001  -0.00004  -0.00006  -0.00447  -0.00454  -1.02455
   D28       -2.66624  -0.00006  -0.00001   0.00037   0.00037  -2.66587
   D29        2.66619   0.00015   0.00002   0.00375   0.00377   2.66995
   D30        1.52139   0.00003  -0.00002   0.00202   0.00199   1.52338
   D31        0.57063   0.00023   0.00000   0.00541   0.00539   0.57602
   D32       -0.57205  -0.00004  -0.00001   0.00097   0.00096  -0.57109
   D33       -1.52281   0.00016   0.00001   0.00435   0.00436  -1.51845
   D34       -0.49598   0.00006  -0.00003  -0.00668  -0.00671  -0.50269
   D35        1.59619  -0.00013  -0.00004  -0.01003  -0.01008   1.58611
   D36       -2.63054  -0.00019  -0.00010  -0.01100  -0.01110  -2.64164
   D37        0.50297  -0.00011   0.00010  -0.00159  -0.00148   0.50149
   D38       -1.10050  -0.00015   0.00001  -0.00212  -0.00211  -1.10261
   D39       -1.58958   0.00011   0.00011   0.00188   0.00200  -1.58758
   D40        3.09014   0.00006   0.00002   0.00135   0.00137   3.09151
   D41        2.63622   0.00016   0.00016   0.00412   0.00429   2.64051
   D42        1.03276   0.00011   0.00006   0.00359   0.00366   1.03642
   D43        0.11941  -0.00000  -0.00002   0.00011   0.00009   0.11950
   D44       -1.73353  -0.00008  -0.00009  -0.00152  -0.00161  -1.73515
   D45        1.82948  -0.00004   0.00000  -0.00189  -0.00188   1.82761
   D46       -0.02346  -0.00012  -0.00007  -0.00352  -0.00358  -0.02704
   D47        1.72050  -0.00018  -0.00005   0.00712   0.00706   1.72756
   D48        0.01815   0.00010   0.00002   0.00946   0.00947   0.02762
   D49        0.01883   0.00010   0.00002   0.00929   0.00929   0.02812
   D50        1.72104  -0.00018  -0.00005   0.00697   0.00691   1.72795
   D51       -0.02378  -0.00012  -0.00007  -0.00347  -0.00353  -0.02731
   D52       -1.73369  -0.00008  -0.00010  -0.00152  -0.00162  -1.73530
   D53        1.82912  -0.00004   0.00000  -0.00183  -0.00182   1.82730
   D54        0.11922  -0.00000  -0.00002   0.00012   0.00009   0.11931
   D55        0.53487  -0.00021  -0.00003  -0.00170  -0.00173   0.53314
   D56       -3.11028  -0.00033  -0.00002  -0.00296  -0.00298  -3.11326
   D57       -2.10276  -0.00008  -0.00004  -0.00048  -0.00051  -2.10327
   D58        0.53528  -0.00021  -0.00003  -0.00173  -0.00176   0.53352
   D59       -1.06474  -0.00023   0.00002  -0.00663  -0.00661  -1.07135
   D60        1.12220   0.00025  -0.00007   0.00361   0.00354   1.12574
   D61       -3.10791   0.00010  -0.00002  -0.00088  -0.00091  -3.10882
   D62        3.13720  -0.00014   0.00005  -0.00467  -0.00462   3.13258
   D63       -0.95905   0.00034  -0.00005   0.00557   0.00554  -0.95351
   D64        1.09402   0.00019   0.00001   0.00108   0.00109   1.09511
   D65        1.02354  -0.00037  -0.00002  -0.01032  -0.01035   1.01319
   D66       -3.07271   0.00011  -0.00011  -0.00008  -0.00019  -3.07290
   D67       -1.01964  -0.00004  -0.00006  -0.00457  -0.00464  -1.02427
   D68        0.50261  -0.00011   0.00010  -0.00153  -0.00142   0.50119
   D69       -1.10114  -0.00015   0.00001  -0.00204  -0.00202  -1.10317
   D70       -1.58994   0.00011   0.00011   0.00198   0.00209  -1.58785
   D71        3.08949   0.00007   0.00002   0.00147   0.00149   3.09098
   D72        2.63585   0.00016   0.00016   0.00421   0.00438   2.64023
   D73        1.03210   0.00011   0.00006   0.00370   0.00378   1.03588
   D74        1.09276   0.00023  -0.00004   0.00432   0.00428   1.09704
   D75       -0.99567   0.00030  -0.00002   0.00561   0.00560  -0.99007
   D76       -3.10201   0.00016  -0.00007   0.00305   0.00299  -3.09902
   D77       -1.09118  -0.00027   0.00006  -0.00609  -0.00605  -1.09723
   D78        3.10358  -0.00020   0.00008  -0.00481  -0.00473   3.09885
   D79        0.99723  -0.00034   0.00003  -0.00736  -0.00734   0.98989
   D80        3.14066   0.00003  -0.00002   0.00126   0.00125  -3.14128
   D81        1.05223   0.00010   0.00001   0.00255   0.00256   1.05479
   D82       -1.05411  -0.00004  -0.00004  -0.00001  -0.00005  -1.05416
   D83       -1.12364  -0.00025   0.00007  -0.00210  -0.00204  -1.12568
   D84        3.07219  -0.00008   0.00012   0.00059   0.00070   3.07289
[...]
 0001883,-0.00002752,-0.00001648,0.00006482,-0.00002186,0.00004781,-0.0
 0003756,-0.00010956,0.00001765,-0.00004849,0.00018008,-0.00016561,0.00
 000357,-0.00003393,0.00801760,-0.00106605,-0.04997048,-0.02886618,-0.0
 0000721,0.00038616,-0.00089720,0.00283033,-0.00478923,-0.00111214,0.00
 006567,0.00128679,0.00023232,-0.00100842,0.00045225,0.00078813,-0.0002
 8980,-0.00091150,-0.00247675,-0.00192346,0.05266026,-0.00000603,-0.000
 15159,-0.00004573,0.00014212,0.00056524,0.00011533,-0.00000555,-0.0000
 9464,-0.00005006,-0.00005301,-0.00005805,-0.00005465,-0.00048202,-0.00
 026908,0.00011798,-0.00005285,-0.00001965,0.00000269,0.00000213,0.0000
 1558,0.00000707,0.00003291,0.00000254,-0.00001556,-0.00000911,-0.00002
 933,0.00002873,0.00000170,0.00001008,-0.00002456,-0.00000574,0.0000387
 9,0.00000337,0.00002344,-0.00002423,-0.00004259,-0.00001757,0.00000709
 ,0.00016560,-0.00005901,0.00002529,-0.00000541,-0.07581063,0.04198983,
 0.06860254,0.00265630,-0.00680186,-0.00933757,0.00073296,-0.00081745,-
 0.00080443,-0.00052106,0.00110310,-0.00160468,-0.00024274,-0.00048998,
 0.00034500,0.00349120,-0.00521912,-0.01099956,-0.00457507,0.01550235,0
 .02528593,0.07424191,-0.00000069,0.00002300,-0.00000886,0.00000658,-0.
 00008608,0.00000746,-0.00000541,0.00000708,-0.00000136,-0.00004682,0.0
 0002007,-0.00002308,0.00003510,0.00006673,-0.00000945,0.00001010,0.000
 00569,0.00000037,0.00000036,-0.00000421,0.00000222,0.00000138,-0.00000
 414,-0.00000108,-0.00000240,0.00000704,-0.00000272,0.00001008,-0.00000
 706,-0.00000045,-0.00000811,0.00001440,0.00001883,0.00000516,0.0000040
 6,0.00000583,-0.00000626,0.00000907,-0.00000356,0.00002529,-0.00000902
 ,0.00000219,0.04121773,-0.11548005,-0.11315872,-0.00520825,0.00612030,
 0.01459853,-0.00078622,0.00015739,0.00000653,0.00108875,-0.00113942,0.
 00232846,-0.00005064,0.00133480,0.00056749,0.01010266,-0.01091092,-0.0
 2301769,-0.00072673,-0.00042878,0.00103140,-0.04571380,0.11933629,-0.0
 0000246,0.00002479,0.00002816,-0.00004127,-0.00009322,-0.00005468,-0.0
 0001484,0.00003420,0.00002109,0.00002244,0.00001111,0.00001193,0.00006
 132,0.00003597,0.00004599,0.00000867,0.00000388,-0.00000332,0.00000356
 ,-0.00000483,-0.00000016,-0.00001313,0.00000174,0.00000391,0.00001833,
 0.00000742,0.00000144,-0.00002456,-0.00000045,0.00001392,0.00001142,-0
 .00005136,-0.00002752,-0.00001108,0.00000435,0.00000939,0.00005166,-0.
 00000814,-0.00003394,0.00000542,-0.00000220,0.00000695,0.06663108,-0.1
 0885348,-0.22813180,0.00905394,-0.01522047,-0.02187085,0.00133056,-0.0
 0047508,0.00088729,-0.00272442,0.00409729,-0.00366754,-0.00008185,-0.0
 0030559,0.00133852,-0.00162066,0.00243486,0.00331725,-0.00099534,0.001
 48989,0.00169994,-0.07108559,0.11695248,0.24669933,0.00000094,0.000056
 72,0.,-0.00003227,-0.00020171,0.,0.00005145,0.00005939,0.00004583,0.00
 005145,0.00005940,-0.00004583,0.00007941,0.00011025,0.,0.00001780,0.00
 000448,0.,-0.00001090,-0.00000085,-0.00000796,-0.00001090,-0.00000085,
 0.00000796,0.00001508,0.00001047,-0.00001418,-0.00005284,0.00001010,0.
 00000867,0.00004212,-0.00009074,-0.00008778,0.00001508,0.00001047,0.00
 001418,0.00004214,-0.00009075,0.00008777,-0.00005285,0.00001010,-0.000
 00867,0.00114334,-0.00049719,0.00033237,-0.01005748,-0.02891935,-0.000
 00092,-0.08859225,-0.09221453,-0.00000243,0.00114336,-0.00049713,-0.00
 033250,-0.00616566,-0.00319209,0.00000014,-0.00040566,0.00068705,-0.00
 054725,0.00024173,0.00022180,0.00026577,-0.00006103,0.00003413,0.00001
 864,0.09449378,0.00000081,0.00001933,0.,-0.00000476,-0.00005803,0.,0.0
 0003121,0.00001035,0.00001773,0.00003121,0.00001035,-0.00001773,-0.000
 00020,0.00003458,0.,0.00000448,-0.00000113,0.,-0.00000446,0.00000117,-
 0.00000504,-0.00000446,0.00000117,0.00000504,-0.00000085,0.00000029,-0
 .00000564,-0.00001965,0.00000569,0.00000388,0.00000623,-0.00001188,-0.
 00003466,-0.00000086,0.00000029,0.00000564,0.00000623,-0.00001189,0.00
 003466,-0.00001965,0.00000569,-0.00000387,0.00049505,0.00014786,0.0002
 6629,0.00147074,-0.00009631,0.00000001,-0.09436046,-0.27575214,-0.0000
 0612,0.00049498,0.00014787,-0.00026629,-0.00058841,0.00163432,0.000000
 05,0.00022301,0.00040796,-0.00005680,-0.00002530,0.00025992,-0.0000867
 7,-0.00006194,-0.00003546,0.00008644,0.10261984,0.29385476,0.,0.,-0.00
 000665,0.,0.,0.00001633,0.00000781,-0.00000112,0.00000469,-0.00000781,
 0.00000112,0.00000469,0.,0.,-0.00002776,0.,0.,0.00000117,-0.00000248,0
 .00000119,-0.00000091,0.00000248,-0.00000119,-0.00000091,-0.00000503,-
 0.00000075,-0.00000229,0.00000269,0.00000037,-0.00000332,0.00000237,0.
 00000179,-0.00000273,0.00000503,0.00000075,-0.00000229,-0.00000238,-0.
 00000179,-0.00000273,-0.00000269,-0.00000037,-0.00000332,-0.00023904,-
 0.00022798,-0.00014668,0.00000040,0.00000122,-0.00159007,-0.00000252,-
 0.00000620,-0.04937983,0.00023896,0.00022805,-0.00014668,0.00000026,0.
 00000015,0.00115862,-0.00051866,0.00022866,-0.00000858,0.00012165,0.00
 006695,-0.00005686,-0.00005640,-0.00013767,-0.00003208,0.00000251,0.00
 000670,0.04539617,0.00000012,-0.00002861,-0.00001531,0.00003576,0.0001
 1583,0.00003238,0.00000323,-0.00004152,-0.00002833,-0.00002365,-0.0000
 1457,0.00000628,-0.00005991,-0.00006161,-0.00007694,-0.00001090,-0.000
 00446,0.00000248,-0.00000035,0.00000395,0.00000132,0.00000912,-0.00000
 057,-0.00000379,-0.00002150,-0.00000946,-0.00000186,0.00003291,0.00000
 138,-0.00001313,-0.00002081,0.00006155,0.00005048,0.00000240,-0.000007
 05,-0.00000996,-0.00000400,0.00001196,-0.00000359,0.00000212,0.0000003
 6,-0.00000356,0.00137544,-0.00039111,0.00134764,-0.01037540,0.01684121
 ,0.02829400,-0.07500648,0.04096249,0.06819703,-0.00685388,-0.00045000,
 -0.00138267,0.00120996,0.00062371,-0.00022686,-0.00001887,-0.00003993,
 -0.00006114,0.00017602,-0.00033319,-0.00004598,-0.00029697,0.00011287,
 -0.00094761,0.00416403,-0.00521368,-0.01154947,0.08262996,-0.00000020,
 -0.00000495,0.00000629,-0.00000255,0.00001371,-0.00001479,-0.00001937,
 0.00000850,-0.00000252,-0.00000394,-0.00000965,0.00001015,0.00000905,-
 0.00001110,0.00003245,-0.00000085,0.00000117,-0.00000119,0.00000395,-0
 .00000235,0.00000287,-0.00000057,0.00000016,-0.00000124,0.00000526,0.0
 0000086,0.00000491,0.00000254,-0.00000414,0.00000174,-0.00000182,-0.00
 001117,0.00001008,-0.00000659,-0.00000034,0.00000011,-0.00001345,0.000
 02138,-0.00002630,0.00001558,-0.00000421,0.00000483,-0.00017798,-0.000
 27442,-0.00028533,-0.00170214,-0.00235374,-0.00065148,0.04394833,-0.11
 326374,-0.10784424,0.00057349,0.00054429,0.00038962,-0.00039566,0.0007
 6660,0.00090439,0.00010103,-0.00009966,-0.00009036,-0.00011365,0.00005
 298,0.00020012,0.00042634,0.00015474,0.00031299,0.01043319,-0.01060269
 ,-0.02275030,-0.04660853,0.11539565,0.00000041,0.00001758,0.00000390,-
 0.00002183,-0.00007752,-0.00000839,0.00000005,0.00001978,0.00001756,0.
 00000582,0.00001125,-0.00000663,0.00006759,0.00004052,0.00002063,0.000
 00796,0.00000504,-0.00000091,-0.00000132,-0.00000287,-0.00000013,-0.00
 000379,-0.00000124,0.00000097,0.00000966,0.00000745,-0.00000054,-0.000
 01556,-0.00000108,0.00000391,0.00001251,-0.00002339,-0.00002591,0.0000
 0518,0.00000752,0.00000222,0.00000003,-0.00001362,0.00000874,-0.000007
 07,-0.00000222,-0.00000016,-0.00065182,0.00062730,0.00084838,-0.001229
 63,0.00043120,-0.00002838,0.07155429,-0.10792766,-0.23172234,0.0005182
 7,0.00039859,0.00085478,-0.00016370,0.00077067,0.00036820,0.00005635,0
 .00009322,-0.00003554,0.00004781,0.00008284,0.00009667,-0.00017097,-0.
 00015913,0.00023576,-0.00137400,0.00219670,0.00246445,-0.07664545,0.11
 688556,0.24297318,0.00000012,-0.00002861,0.00001531,0.00003576,0.00011
 584,-0.00003237,-0.00002365,-0.00001458,-0.00000628,0.00000323,-0.0000
 4152,0.00002833,-0.00005990,-0.00006162,0.00007694,-0.00001090,-0.0000
 0446,-0.00000248,0.00000912,-0.00000057,0.00000379,-0.00000035,0.00000
 395,-0.00000132,0.00000240,-0.00000705,0.00000996,0.00000213,0.0000003
 6,0.00000356,-0.00000400,0.00001196,0.00000359,-0.00002150,-0.00000946
 ,0.00000186,-0.00002082,0.00006156,-0.00005048,0.00003291,0.00000138,0
 .00001313,-0.00685381,-0.00045014,0.00138320,-0.01037755,0.01684361,-0
 .02829175,-0.07501756,0.04097687,-0.06820600,0.00137541,-0.00039104,-0
 .00134769,0.00121000,0.00062362,0.00022685,0.00014930,0.00007157,0.000
 24863,-0.00048313,0.00097855,-0.00176731,0.00007586,-0.00018013,0.0000
 7927,0.00416505,-0.00521485,0.01154888,0.00330955,-0.00640054,0.008353
 37,0.08264206,-0.00000020,-0.00000495,-0.00000629,-0.00000255,0.000013
 70,0.00001479,-0.00000394,-0.00000965,-0.00001015,-0.00001937,0.000008
 51,0.00000252,0.00000905,-0.00001110,-0.00003246,-0.00000085,0.0000011
 7,0.00000119,-0.00000057,0.00000016,0.00000124,0.00000395,-0.00000235,
 -0.00000287,-0.00000659,-0.00000034,-0.00000011,0.00001558,-0.00000421
 ,-0.00000483,-0.00001345,0.00002138,0.00002630,0.00000526,0.00000086,-
 0.00000491,-0.00000182,-0.00001117,-0.00001008,0.00000254,-0.00000414,
 -0.00000174,0.00057352,0.00054435,-0.00038968,-0.00170218,-0.00235376,
 0.00065141,0.04396297,-0.11328227,0.10785089,-0.00017802,-0.00027439,0
 .00028524,-0.00039574,0.00076675,-0.00090432,-0.00012554,0.00036541,-0
 .00022415,0.00006283,0.00044475,0.00027256,-0.00000822,-0.00000304,0.0
 0021502,0.01043488,-0.01060448,0.02274838,-0.00640087,0.00887496,-0.01
 316235,-0.04662435,0.11541575,-0.00000041,-0.00001758,0.00000390,0.000
 02183,0.00007752,-0.00000838,-0.00000582,-0.00001125,-0.00000663,-0.00
 000005,-0.00001978,0.00001756,-0.00006758,-0.00004051,0.00002063,-0.00
 000796,-0.00000504,-0.00000091,0.00000379,0.00000124,0.00000097,0.0000
 0132,0.00000287,-0.00000013,-0.00000518,-0.00000752,0.00000222,0.00000
 707,0.00000222,-0.00000016,-0.00000003,0.00001362,0.00000874,-0.000009
 66,-0.00000745,-0.00000054,-0.00001251,0.00002339,-0.00002591,0.000015
 56,0.00000108,0.00000390,-0.00051762,-0.00039857,0.00085463,0.00123033
 ,-0.00043275,-0.00002618,-0.07156299,0.10793456,-0.23169304,0.00065174
 ,-0.00062736,0.00084841,0.00016359,-0.00077068,0.00036802,0.00016681,-
 0.00003281,-0.00000765,-0.00003675,0.00021362,0.00017970,0.00022415,0.
 00004327,0.00035080,0.00137475,-0.00219740,0.00246517,-0.00835551,0.01
 316504,-0.01659316,0.07665427,-0.11689281,0.24294126,0.00001174,0.0000
 6973,-0.00005143,0.00008803,-0.00016544,0.00015891,0.00018618,-0.00010
 319,-0.00004531,0.00002060,0.00003173,-0.00001321,-0.00018040,0.000267
 80,-0.00014796,0.00001508,-0.00000085,0.00000503,-0.00002150,0.0000052
 6,-0.00000966,0.00000240,-0.00000659,0.00000518,-0.00011249,-0.0000018
 8,-0.00002847,0.00002343,0.00000516,-0.00001108,-0.00005161,0.00016383
 ,0.00004781,-0.00001303,0.00000452,0.00000722,-0.00001384,0.00002585,0
 .00002985,-0.00000911,-0.00000240,-0.00001833,0.00004470,-0.00010321,-
 0.00029322,0.00233596,0.00973048,-0.00006236,0.00003643,0.00044468,-0.
 00007626,-0.08308580,-0.08939332,-0.00335389,0.00110888,0.00212150,0.0
 0127650,0.00024257,0.00000474,-0.00012763,-0.00005701,-0.00014717,0.00
 000158,-0.00008744,0.00014545,-0.00011057,-0.00040557,0.00022295,0.000
 51870,0.00014927,-0.00012551,-0.00016683,-0.00001887,0.00010104,-0.000
 05634,0.08293678,0.00000321,0.00003964,-0.00000784,-0.00002575,-0.0001
 3471,0.00000977,0.00005773,0.00002950,0.00000903,0.00004063,0.00003378
 ,-0.00002125,-0.00005756,0.00008512,-0.00003445,0.00001047,0.00000029,
 0.00000075,-0.00000946,0.00000086,-0.00000745,-0.00000705,-0.00000034,
 0.00000752,-0.00000189,0.00000714,-0.00001166,-0.00002423,0.00000406,0
 .00000435,0.00003004,-0.00004206,-0.00003756,0.00000452,0.00000528,0.0
 0001116,0.00003178,-0.00004145,0.00004250,-0.00002933,0.00000704,-0.00
 000742,0.00003194,0.00031912,0.00098047,-0.00583990,-0.01388592,0.0013
 8023,-0.00066783,0.00041182,0.00063780,-0.08789421,-0.27928322,-0.0092
 4476,0.00060514,-0.00173660,-0.00289729,0.00000472,0.00060833,-0.00022
 292,0.00008654,-0.00004444,-0.00002619,0.00017145,0.00023244,-0.000004
 98,0.00068697,0.00040797,-0.00022867,0.00007159,0.00036538,0.00003284,
 -0.00003994,-0.00009967,-0.00009322,0.09617083,0.29980617,0.00000143,0
 .00003509,0.00002593,-0.00000108,-0.00012804,-0.00005116,-0.00000310,0
 .00005287,0.00006541,0.00003939,0.00002243,-0.00001607,0.00006300,0.00
 009533,0.00001537,0.00001418,0.00000564,-0.00000229,0.00000186,-0.0000
 0491,-0.00000054,-0.00000996,0.00000011,0.00000222,0.00002848,0.000011
 66,-0.00000255,-0.00004259,0.00000583,0.00000938,0.00001656,-0.0000783
 0,-0.00010955,0.00000722,0.00001116,0.00000585,0.00003334,-0.00004269,
 0.00003802,-0.00002873,0.00000273,0.00000144,-0.00032837,-0.00009157,0
 .00065886,-0.01012390,-0.02282774,-0.00035481,-0.00063178,0.00017899,0
 .00071936,-0.00260508,-0.00754499,-0.05018495,0.00038896,-0.00504389,-
 0.00257924,0.00012755,0.00022307,-0.00087562,-0.00004558,-0.00003723,-
 0.00003785,0.00013023,0.00021252,0.00031965,0.00054733,0.00005683,-0.0
 0000868,-0.00024863,0.00022419,-0.00000760,0.00006113,0.00009035,-0.00
 003554,0.00169052,0.01187492,0.04999825,-0.00000603,-0.00015159,0.0000
 4572,0.00014212,0.00056523,-0.00011529,-0.00005301,-0.00005806,0.00005
 465,-0.00000554,-0.00009464,0.00005005,-0.00048211,-0.00026904,-0.0001
 1797,-0.00005284,-0.00001964,-0.00000269,0.00003291,0.00000254,0.00001
 556,0.00000212,0.00001558,-0.00000707,0.00002344,-0.00002424,0.0000425
 8,-0.00005900,0.00002529,0.00000542,-0.00001758,0.00000711,-0.00016560
 ,-0.00000911,-0.00002933,-0.00002873,-0.00000574,0.00003880,-0.0000033
 7,0.00000171,0.00001008,0.00002456,-0.00052074,0.00110266,0.00160455,0
 .00265637,-0.00680162,0.00933523,0.00073294,-0.00081750,0.00080432,-0.
 07582074,0.04200401,-0.06861038,-0.00024276,-0.00048994,-0.00034492,-0
 .00008744,0.00017146,-0.00013019,0.00023140,0.00001764,0.00023137,0.00
 065396,-0.00011640,0.00049935,-0.00006103,-0.00006195,0.00005641,0.000
 07584,-0.00000821,-0.00022414,-0.00029687,0.00042629,0.00017102,0.0034
 9210,-0.00522020,0.01099903,0.07425217,-0.00000069,0.00002301,0.000008
 86,0.00000658,-0.00008608,-0.00000746,-0.00004682,0.00002007,0.0000230
 8,-0.00000541,0.00000708,0.00000136,0.00003510,0.00006673,0.00000945,0
 .00001010,0.00000569,-0.00000037,0.00000138,-0.00000414,0.00000108,0.0
 0000036,-0.00000421,-0.00000222,0.00000516,0.00000406,-0.00000583,0.00
 002529,-0.00000902,-0.00000220,-0.00000625,0.00000907,0.00000357,-0.00
 000240,0.00000704,0.00000272,-0.00000811,0.00001439,-0.00001883,0.0000
 1008,-0.00000706,0.00000045,0.00108835,-0.00113886,-0.00232833,-0.0052
 0857,0.00612027,-0.01459567,-0.00078611,0.00015735,-0.00000650,0.04123
 209,-0.11550008,0.11316645,-0.00005069,0.00133483,-0.00056750,0.000145
 43,0.00023246,-0.00021254,0.00005620,-0.00015817,0.00003329,-0.0001164
 2,0.00077327,-0.00077934,0.00003415,-0.00003547,0.00013766,-0.00018012
 ,-0.00000302,-0.00004328,0.00011280,0.00015476,0.00015913,0.01010417,-
 0.01091267,0.02301573,-0.04572874,0.11935726,0.00000246,-0.00002478,0.
 00002816,0.00004125,0.00009317,-0.00005467,-0.00002244,-0.00001111,0.0
 0001193,0.00001484,-0.00003419,0.00002108,-0.00006127,-0.00003595,0.00
 004600,-0.00000867,-0.00000387,-0.00000332,0.00001313,-0.00000174,0.00
 000390,-0.00000356,0.00000483,-0.00000016,0.00001108,-0.00000435,0.000
 00938,-0.00000541,0.00000219,0.00000695,-0.00005166,0.00000815,-0.0000
 3393,-0.00001833,-0.00000742,0.00000144,-0.00001143,0.00005136,-0.0000
 2752,0.00002456,0.00000045,0.00001391,0.00272429,-0.00409716,-0.003668
 42,-0.00905622,0.01522343,-0.02187070,-0.00133061,0.00047507,0.0008873
 9,-0.06663905,0.10886113,-0.22810380,0.00008198,0.00030563,0.00133857,
 0.00011061,0.00000496,0.00031963,0.00012228,-0.00008673,0.00026600,-0.
 00049951,0.00077954,-0.00143547,-0.00001863,-0.00008643,-0.00003208,-0
 .00007926,-0.00021505,0.00035080,0.00094766,-0.00031302,0.00023565,0.0
 0162155,-0.00243573,0.00331817,0.07109460,-0.11696114,0.24666963,0.000
 00785,0.00012156,-0.00000754,-0.00021817,-0.00045264,0.00005077,0.0001
 5782,-0.00007719,-0.00004216,0.00007090,0.00008632,-0.00002317,-0.0010
 9109,0.00026095,-0.00037612,0.00004213,0.00000623,-0.00000237,-0.00002
 082,-0.00000182,-0.00001251,-0.00000400,-0.00001345,0.00000003,-0.0000
 5162,0.00003005,-0.00001657,-0.00001757,-0.00000626,0.00005166,-0.0007
 4247,-0.00065250,0.00001766,-0.00001384,0.00003178,0.00003334,0.000019
 86,0.00001000,0.00001648,-0.00000574,-0.00000811,-0.00001142,0.0006220
 0,-0.00016592,-0.00087256,-0.00987777,-0.00079209,-0.00094451,0.000531
 23,0.00130357,0.00217849,-0.32513893,0.01126258,-0.00322339,0.00093656
 ,-0.00000784,-0.00030210,-0.00005703,0.00008654,0.00004558,0.00038342,
 -0.00017155,0.00032565,0.00023134,0.00005621,-0.00012229,0.00024169,-0
 .00002528,-0.00012167,-0.00048300,0.00006281,0.00003681,0.00017601,-0.
 00011366,-0.00004783,-0.00663750,0.00180977,-0.00008140,-0.00457653,-0
 .00072690,0.00099577,0.34551526,-0.00002452,-0.00031264,0.00008997,-0.
 00019309,0.00088662,-0.00043171,-0.00036434,0.00006788,0.00000245,-0.0
 0009713,-0.00014101,0.00007751,0.00027448,-0.00094033,0.00034183,-0.00
 009075,-0.00001189,-0.00000179,0.00006155,-0.00001117,0.00002339,0.000
 01196,0.00002138,-0.00001362,0.00016384,-0.00004207,0.00007830,0.00000
 710,0.00000907,-0.00000815,-0.00065246,-0.00088302,-0.00004846,0.00002
 585,-0.00004145,-0.00004269,0.00001000,0.00000005,-0.00006483,0.000038
 80,0.00001439,0.00005136,-0.00040564,-0.00010743,0.00089745,0.01604618
 ,-0.00239042,-0.00015224,0.00047299,-0.00116652,-0.00269465,0.00948383
 ,-0.04975449,0.00160855,0.00064429,0.00063098,0.00039599,-0.00014716,-
 0.00004445,0.00003724,-0.00017155,0.00034802,0.00001798,0.00001767,-0.
 00015818,0.00008669,0.00022181,0.00025992,-0.00006694,0.00097838,0.000
 44479,-0.00021367,-0.00033320,0.00005300,-0.00008281,-0.02957016,0.003
 81715,-0.00032007,0.01550443,-0.00042854,-0.00149123,-0.01191315,0.049
 88038,0.00001762,0.00025704,-0.00004809,-0.00016959,-0.00087433,0.0001
 2531,0.00002135,0.00012666,0.00003922,-0.00000367,0.00014704,-0.000058
 31,-0.00005954,0.00034734,-0.00027592,0.00008777,0.00003466,-0.0000027
 3,-0.00005048,-0.00001008,-0.00002591,-0.00000359,-0.00002630,0.000008
 74,-0.00004780,0.00003756,-0.00010954,0.00016560,-0.00000357,-0.000033
 94,-0.00001766,0.00004841,0.00018007,0.00002985,0.00004250,0.00003802,
 0.00001648,-0.00006483,-0.00002188,-0.00000337,-0.00001883,-0.00002752
 ,0.00111217,-0.00006578,0.00128671,0.02886866,0.00000687,0.00038385,0.
 00089685,-0.00283014,-0.00478997,-0.00799874,0.00106553,-0.04996915,-0
 .00023230,0.00100846,0.00045243,-0.00000158,0.00002619,-0.00003785,-0.
 00032526,-0.00001781,-0.00104945,-0.00023134,-0.00003332,0.00026604,-0
 .00026578,0.00008680,-0.00005682,0.00176745,-0.00027254,0.00017951,0.0
 0004594,-0.00020012,0.00009665,-0.00079030,0.00029006,-0.00091147,-0.0
 2528409,-0.00103163,0.00170148,0.00245536,0.00192415,0.05266049\\-0.00
 000023,0.00000062,-0.00000029,-0.00000026,0.00000076,0.00000004,0.0000
 0005,-0.00000021,0.00000084,-0.00000020,0.,0.00000050,0.00000026,0.000
 00034,0.00000002,-0.00000018,0.00000081,0.00000003,0.00000012,0.000000
 74,0.00000005,0.00000009,0.00000072,0.,-0.00000034,0.00000054,-0.00000
 008,-0.00000005,0.00000039,-0.00000011,-0.00000062,0.00000040,-0.00000
 042,-0.00000039,0.00000048,-0.00000002,0.00000019,0.00000011,-0.000000
 47,-0.00000001,0.00000044,-0.00000008,0.00000018,0.00000008,0.00000036
 ,0.00000042,-0.00000079,0.00000004,0.00000018,-0.00000065,-0.00000028,
 -0.00000007,0.00000030,0.00000100,-0.00000037,-0.00000024,0.,0.0000003
 9,-0.00000049,-0.00000002,-0.00000016,-0.00000023,-0.00000030,0.000000
 01,-0.00000045,-0.00000007,0.00000018,-0.00000081,0.00000003,-0.000000
 11,-0.00000073,0.00000006,-0.00000009,-0.00000072,0.,0.00000034,-0.000
 00054,-0.00000009,0.00000006,-0.00000037,-0.00000011,0.00000062,-0.000
 00052,-0.00000063\\\@


    THE DOUGHNUT CREED
 AS YOU RAMBLE ON THROUGH LIFE, BROTHER
 WHATEVER BE YOUR GOAL
 KEEP YOUR EYE UPON THE DOUGHNUT
 AND NOT UPON THE HOLE.
 File lengths (MBytes):  RWF=    130 Int=      0 D2E=      0 Chk=      4 Scr=      1
 Normal termination of Gaussian 16 at Tue Aug  9 16:34:27 2022.
real 1763.12
user 6537.96
sys 42.50
