 Entering Gaussian System, Link 0=g16
 Input=gaussian_test.inp
 Output=gaussian_test.log
 Initial command:
 /sw/restricted/lms/sw/Gaussian/g16_B01/g16/l1.exe "/scratch/user/peterchao1/peterchao1/9993808_1712001847000000336085588/Gau-247693.inp" -scrdir="/scratch/user/peterchao1/peterchao1/9993808_1712001847000000336085588/"
 Entering Link 1 = /sw/restricted/lms/sw/Gaussian/g16_B01/g16/l1.exe PID=    247700.
  
 Copyright (c) 1988-2017, Gaussian, Inc.  All Rights Reserved.
  
 This is part of the Gaussian(R) 16 program.  It is based on
 the Gaussian(R) 09 system (copyright 2009, Gaussian, Inc.),
 the Gaussian(R) 03 system (copyright 2003, Gaussian, Inc.),
 the Gaussian(R) 98 system (copyright 1998, Gaussian, Inc.),
 the Gaussian(R) 94 system (copyright 1995, Gaussian, Inc.),
 the Gaussian 92(TM) system (copyright 1992, Gaussian, Inc.),
 the Gaussian 90(TM) system (copyright 1990, Gaussian, Inc.),
 the Gaussian 88(TM) system (copyright 1988, Gaussian, Inc.),
 the Gaussian 86(TM) system (copyright 1986, Carnegie Mellon
 University), and the Gaussian 82(TM) system (copyright 1983,
 Carnegie Mellon University). Gaussian is a federally registered
 trademark of Gaussian, Inc.
  
 This software contains proprietary and confidential information,
 including trade secrets, belonging to Gaussian, Inc.
  
 This software is provided under written license and may be
 used, copied, transmitted, or stored only in accord with that
 written license.
  
 The following legend is applicable only to US Government
 contracts under FAR:
  
                    RESTRICTED RIGHTS LEGEND
  
 Use, reproduction and disclosure by the US Government is
 subject to restrictions as set forth in subparagraphs (a)
 and (c) of the Commercial Computer Software - Restricted
 Rights clause in FAR 52.227-19.
  
 Gaussian, Inc.
 340 Quinnipiac St., Bldg. 40, Wallingford CT 06492
  
  
 ---------------------------------------------------------------
 Warning -- This program may not be used in any manner that
 competes with the business of Gaussian, Inc. or will provide
 assistance to any competitor of Gaussian, Inc.  The licensee
 of this program is prohibited from giving any competitor of
 Gaussian, Inc. access to this program.  By using this program,
 the user acknowledges that Gaussian, Inc. is engaged in the
 business of creating and licensing software in the field of
 computational chemistry and represents and warrants to the
 licensee that it is not a competitor of Gaussian, Inc. and that
 it will not use this program in any manner prohibited above.
 ---------------------------------------------------------------
  

 Cite this work as:
 Gaussian 16, Revision B.01,
 M. J. Frisch, G. W. Trucks, H. B. Schlegel, G. E. Scuseria, 
 M. A. Robb, J. R. Cheeseman, G. Scalmani, V. Barone, 
 G. A. Petersson, H. Nakatsuji, X. Li, M. Caricato, A. V. Marenich, 
 J. Bloino, B. G. Janesko, R. Gomperts, B. Mennucci, H. P. Hratchian, 
 J. V. Ortiz, A. F. Izmaylov, J. L. Sonnenberg, D. Williams-Young, 
 F. Ding, F. Lipparini, F. Egidi, J. Goings, B. Peng, A. Petrone, 
 T. Henderson, D. Ranasinghe, V. G. Zakrzewski, J. Gao, N. Rega, 
 G. Zheng, W. Liang, M. Hada, M. Ehara, K. Toyota, R. Fukuda, 
 J. Hasegawa, M. Ishida, T. Nakajima, Y. Honda, O. Kitao, H. Nakai, 
 T. Vreven, K. Throssell, J. A. Montgomery, Jr., J. E. Peralta, 
 F. Ogliaro, M. J. Bearpark, J. J. Heyd, E. N. Brothers, K. N. Kudin, 
 V. N. Staroverov, T. A. Keith, R. Kobayashi, J. Normand, 
 K. Raghavachari, A. P. Rendell, J. C. Burant, S. S. Iyengar, 
 J. Tomasi, M. Cossi, J. M. Millam, M. Klene, C. Adamo, R. Cammi, 
 J. W. Ochterski, R. L. Martin, K. Morokuma, O. Farkas, 
 J. B. Foresman, and D. J. Fox, Gaussian, Inc., Wallingford CT, 2016.
 
 ******************************************
 Gaussian 16:  ES64L-G16RevB.01 20-Dec-2017
                 1-Apr-2024 
 ******************************************
 %nprocshared=4
 Will use up to    4 processors via shared memory.
 %mem=8000mb
 %chk=dimer.chk
 %nprocshared=4
 Will use up to    4 processors via shared memory.
 %mem=8000mb
 ----------------------------------------------------------------------
 #T wB97XD/def2svpp opt=tight freq int(grid=ultrafine) scf=(verytight,q
 c) Volume=tight
 ----------------------------------------------------------------------
 -----
 Dimer
 -----
 Symbolic Z-matrix:
 Charge =  0 Multiplicity = 1
 O                     2.58335   2.23711  -1.38945 
 C                     1.90902   1.03079  -1.41265 
 C                     2.38783   0.06248  -0.28574 
 C                     3.9315   -0.05157  -0.25438 
 O                     4.38875  -0.86997   0.77118 
 N                     1.93102   0.58663   1.0531 
 O                     1.40072  -0.1901    1.79686 
 O                     2.17703   1.74069   1.26749 
 N                     1.75892  -1.26515  -0.50757 
 O                     0.55515  -1.30111  -0.45249 
 O                     2.48485  -2.19592  -0.74291 
 H                     2.35944   2.71622  -0.57554 
 H                     2.13226   0.56736  -2.37887 
 H                     0.82118   1.15238  -1.32401 
 H                     4.3342    0.9498   -0.07499 
 H                     4.26584  -0.3917   -1.24241 
 H                     4.23881  -1.79753   0.53943 
 O                    -2.58319  -2.23776   1.38831 
 C                    -1.90853  -1.03163   1.41176 
 C                    -2.38771  -0.0626    0.28563 
 C                    -3.93138   0.05148   0.25503 
 O                    -4.38908   0.87084  -0.76955 
 N                    -1.75868   1.26487   0.50796 
 O                    -0.55495   1.30091   0.45198 
 O                    -2.48447   2.19542   0.74467 
 N                    -1.93134  -0.58616  -1.05365 
 O                    -2.17787  -1.74001  -1.26859 
 O                    -1.40086   0.19072  -1.7971 
 H                    -2.35983  -2.71654   0.57406 
 H                    -0.82078  -1.15348   1.32243 
 H                    -2.13105  -0.56864   2.37836 
 H                    -4.26532   0.39064   1.2435 
 H                    -4.33414  -0.9497    0.07483 
 H                    -4.2392    1.79815  -0.53688 
 
 Add virtual bond connecting atoms O24        and H14        Dist= 4.26D+00.
 Add virtual bond connecting atoms H30        and O10        Dist= 4.25D+00.

 GradGradGradGradGradGradGradGradGradGradGradGradGradGradGradGradGradGrad
 Initialization pass.
                           ----------------------------
                           !    Initial Parameters    !
                           ! (Angstroms and Degrees)  !
 --------------------------                            --------------------------
 ! Name  Definition              Value          Derivative Info.                !
 --------------------------------------------------------------------------------
 ! R1    R(1,2)                  1.3822         estimate D2E/DX2                !
 ! R2    R(1,12)                 0.9706         estimate D2E/DX2                !
 ! R3    R(2,3)                  1.561          estimate D2E/DX2                !
 ! R4    R(2,13)                 1.0946         estimate D2E/DX2                !
 ! R5    R(2,14)                 1.0982         estimate D2E/DX2                !
 ! R6    R(3,4)                  1.5482         estimate D2E/DX2                !
 ! R7    R(3,6)                  1.5086         estimate D2E/DX2                !
 ! R8    R(3,9)                  1.4857         estimate D2E/DX2                !
 ! R9    R(4,5)                  1.3895         estimate D2E/DX2                !
 ! R10   R(4,15)                 1.0941         estimate D2E/DX2                !
 ! R11   R(4,16)                 1.0971         estimate D2E/DX2                !
 ! R12   R(5,17)                 0.9678         estimate D2E/DX2                !
 ! R13   R(6,7)                  1.199          estimate D2E/DX2                !
 ! R14   R(6,8)                  1.1993         estimate D2E/DX2                !
 ! R15   R(9,10)                 1.2056         estimate D2E/DX2                !
 ! R16   R(9,11)                 1.2036         estimate D2E/DX2                !
 ! R17   R(10,30)                2.2506         estimate D2E/DX2                !
 ! R18   R(14,24)                2.2517         estimate D2E/DX2                !
 ! R19   R(18,19)                1.3822         estimate D2E/DX2                !
 ! R20   R(18,29)                0.9706         estimate D2E/DX2                !
 ! R21   R(19,20)                1.561          estimate D2E/DX2                !
 ! R22   R(19,30)                1.0982         estimate D2E/DX2                !
 ! R23   R(19,31)                1.0946         estimate D2E/DX2                !
 ! R24   R(20,21)                1.5482         estimate D2E/DX2                !
 ! R25   R(20,23)                1.4857         estimate D2E/DX2                !
 ! R26   R(20,26)                1.5087         estimate D2E/DX2                !
 ! R27   R(21,22)                1.3895         estimate D2E/DX2                !
 ! R28   R(21,32)                1.0971         estimate D2E/DX2                !
 ! R29   R(21,33)                1.0941         estimate D2E/DX2                !
 ! R30   R(22,34)                0.9677         estimate D2E/DX2                !
 ! R31   R(23,24)                1.2056         estimate D2E/DX2                !
 ! R32   R(23,25)                1.2036         estimate D2E/DX2                !
 ! R33   R(26,27)                1.1993         estimate D2E/DX2                !
 ! R34   R(26,28)                1.199          estimate D2E/DX2                !
 ! A1    A(2,1,12)             109.4102         estimate D2E/DX2                !
 ! A2    A(1,2,3)              112.3096         estimate D2E/DX2                !
 ! A3    A(1,2,13)             106.5479         estimate D2E/DX2                !
 ! A4    A(1,2,14)             112.6611         estimate D2E/DX2                !
 ! A5    A(3,2,13)             108.1832         estimate D2E/DX2                !
 ! A6    A(3,2,14)             108.3161         estimate D2E/DX2                !
 ! A7    A(13,2,14)            108.6708         estimate D2E/DX2                !
 ! A8    A(2,3,4)              111.4788         estimate D2E/DX2                !
 ! A9    A(2,3,6)              109.4065         estimate D2E/DX2                !
 ! A10   A(2,3,9)              108.4621         estimate D2E/DX2                !
 ! A11   A(4,3,6)              108.0313         estimate D2E/DX2                !
 ! A12   A(4,3,9)              111.0549         estimate D2E/DX2                !
 ! A13   A(6,3,9)              108.3484         estimate D2E/DX2                !
 ! A14   A(3,4,5)              112.7349         estimate D2E/DX2                !
 ! A15   A(3,4,15)             107.6307         estimate D2E/DX2                !
 ! A16   A(3,4,16)             107.9662         estimate D2E/DX2                !
 ! A17   A(5,4,15)             107.273          estimate D2E/DX2                !
 ! A18   A(5,4,16)             112.4463         estimate D2E/DX2                !
 ! A19   A(15,4,16)            108.616          estimate D2E/DX2                !
 ! A20   A(4,5,17)             109.681          estimate D2E/DX2                !
 ! A21   A(3,6,7)              117.345          estimate D2E/DX2                !
 ! A22   A(3,6,8)              115.5226         estimate D2E/DX2                !
 ! A23   A(7,6,8)              127.098          estimate D2E/DX2                !
 ! A24   A(3,9,10)             116.2644         estimate D2E/DX2                !
 ! A25   A(3,9,11)             117.705          estimate D2E/DX2                !
 ! A26   A(10,9,11)            126.0212         estimate D2E/DX2                !
 ! A27   A(9,10,30)            130.1293         estimate D2E/DX2                !
 ! A28   A(2,14,24)            132.5597         estimate D2E/DX2                !
 ! A29   A(19,18,29)           109.4103         estimate D2E/DX2                !
 ! A30   A(18,19,20)           112.31           estimate D2E/DX2                !
 ! A31   A(18,19,30)           112.6605         estimate D2E/DX2                !
 ! A32   A(18,19,31)           106.5496         estimate D2E/DX2                !
 ! A33   A(20,19,30)           108.3149         estimate D2E/DX2                !
 ! A34   A(20,19,31)           108.1843         estimate D2E/DX2                !
 ! A35   A(30,19,31)           108.6694         estimate D2E/DX2                !
 ! A36   A(19,20,21)           111.4736         estimate D2E/DX2                !
 ! A37   A(19,20,23)           108.4653         estimate D2E/DX2                !
 ! A38   A(19,20,26)           109.398          estimate D2E/DX2                !
 ! A39   A(21,20,23)           111.0553         estimate D2E/DX2                !
 ! A40   A(21,20,26)           108.038          estimate D2E/DX2                !
 ! A41   A(23,20,26)           108.3517         estimate D2E/DX2                !
 ! A42   A(20,21,22)           112.7358         estimate D2E/DX2                !
 ! A43   A(20,21,32)           107.9672         estimate D2E/DX2                !
 ! A44   A(20,21,33)           107.6302         estimate D2E/DX2                !
 ! A45   A(22,21,32)           112.4461         estimate D2E/DX2                !
 ! A46   A(22,21,33)           107.2719         estimate D2E/DX2                !
 ! A47   A(32,21,33)           108.616          estimate D2E/DX2                !
 ! A48   A(21,22,34)           109.6797         estimate D2E/DX2                !
 ! A49   A(20,23,24)           116.2639         estimate D2E/DX2                !
 ! A50   A(20,23,25)           117.7047         estimate D2E/DX2                !
 ! A51   A(24,23,25)           126.022          estimate D2E/DX2                !
 ! A52   A(14,24,23)           130.1565         estimate D2E/DX2                !
 ! A53   A(20,26,27)           115.5179         estimate D2E/DX2                !
 ! A54   A(20,26,28)           117.3492         estimate D2E/DX2                !
 ! A55   A(27,26,28)           127.0985         estimate D2E/DX2                !
 ! A56   A(10,30,19)           132.607          estimate D2E/DX2                !
 ! D1    D(12,1,2,3)           -66.0256         estimate D2E/DX2                !
 ! D2    D(12,1,2,13)          175.6935         estimate D2E/DX2                !
 ! D3    D(12,1,2,14)           56.6185         estimate D2E/DX2                !
 ! D4    D(1,2,3,4)            -49.292          estimate D2E/DX2                !
 ! D5    D(1,2,3,6)             70.1336         estimate D2E/DX2                !
 ! D6    D(1,2,3,9)           -171.866          estimate D2E/DX2                !
 ! D7    D(13,2,3,4)            68.0188         estimate D2E/DX2                !
 ! D8    D(13,2,3,6)          -172.5556         estimate D2E/DX2                !
 ! D9    D(13,2,3,9)           -54.5552         estimate D2E/DX2                !
 ! D10   D(14,2,3,4)          -174.3571         estimate D2E/DX2                !
 ! D11   D(14,2,3,6)           -54.9316         estimate D2E/DX2                !
 ! D12   D(14,2,3,9)            63.0688         estimate D2E/DX2                !
 ! D13   D(1,2,14,24)          -87.1974         estimate D2E/DX2                !
 ! D14   D(3,2,14,24)           37.6596         estimate D2E/DX2                !
 ! D15   D(13,2,14,24)         154.9711         estimate D2E/DX2                !
 ! D16   D(2,3,4,5)            177.8033         estimate D2E/DX2                !
 ! D17   D(2,3,4,15)            59.7057         estimate D2E/DX2                !
 ! D18   D(2,3,4,16)           -57.3711         estimate D2E/DX2                !
 ! D19   D(6,3,4,5)             57.5652         estimate D2E/DX2                !
 ! D20   D(6,3,4,15)           -60.5325         estimate D2E/DX2                !
 ! D21   D(6,3,4,16)          -177.6092         estimate D2E/DX2                !
 ! D22   D(9,3,4,5)            -61.1235         estimate D2E/DX2                !
 ! D23   D(9,3,4,15)          -179.2211         estimate D2E/DX2                !
 ! D24   D(9,3,4,16)            63.7021         estimate D2E/DX2                !
 ! D25   D(2,3,6,7)            132.0678         estimate D2E/DX2                !
 ! D26   D(2,3,6,8)            -49.9131         estimate D2E/DX2                !
 ! D27   D(4,3,6,7)           -106.4024         estimate D2E/DX2                !
 ! D28   D(4,3,6,8)             71.6167         estimate D2E/DX2                !
 ! D29   D(9,3,6,7)             13.9964         estimate D2E/DX2                !
 ! D30   D(9,3,6,8)           -167.9845         estimate D2E/DX2                !
 ! D31   D(2,3,9,10)           -62.3362         estimate D2E/DX2                !
 ! D32   D(2,3,9,11)           116.6215         estimate D2E/DX2                !
 ! D33   D(4,3,9,10)           174.8327         estimate D2E/DX2                !
 ! D34   D(4,3,9,11)            -6.2096         estimate D2E/DX2                !
 ! D35   D(6,3,9,10)            56.3351         estimate D2E/DX2                !
 ! D36   D(6,3,9,11)          -124.7071         estimate D2E/DX2                !
 ! D37   D(3,4,5,17)            75.4016         estimate D2E/DX2                !
 ! D38   D(15,4,5,17)         -166.291          estimate D2E/DX2                !
 ! D39   D(16,4,5,17)          -46.9397         estimate D2E/DX2                !
 ! D40   D(3,9,10,30)          -72.7975         estimate D2E/DX2                !
 ! D41   D(11,9,10,30)         108.3434         estimate D2E/DX2                !
 ! D42   D(9,10,30,19)         169.3779         estimate D2E/DX2                !
 ! D43   D(2,14,24,23)        -169.3894         estimate D2E/DX2                !
 ! D44   D(29,18,19,20)         66.0289         estimate D2E/DX2                !
 ! D45   D(29,18,19,30)        -56.6136         estimate D2E/DX2                !
 ! D46   D(29,18,19,31)       -175.6876         estimate D2E/DX2                !
 ! D47   D(18,19,20,21)         49.2756         estimate D2E/DX2                !
 ! D48   D(18,19,20,23)        171.8491         estimate D2E/DX2                !
 ! D49   D(18,19,20,26)        -70.1494         estimate D2E/DX2                !
 ! D50   D(30,19,20,21)        174.3394         estimate D2E/DX2                !
 ! D51   D(30,19,20,23)        -63.0871         estimate D2E/DX2                !
 ! D52   D(30,19,20,26)         54.9144         estimate D2E/DX2                !
 ! D53   D(31,19,20,21)        -68.0382         estimate D2E/DX2                !
 ! D54   D(31,19,20,23)         54.5352         estimate D2E/DX2                !
 ! D55   D(31,19,20,26)        172.5368         estimate D2E/DX2                !
 ! D56   D(18,19,30,10)         87.2127         estimate D2E/DX2                !
 ! D57   D(20,19,30,10)        -37.6436         estimate D2E/DX2                !
 ! D58   D(31,19,30,10)       -154.9551         estimate D2E/DX2                !
 ! D59   D(19,20,21,22)       -177.8226         estimate D2E/DX2                !
 ! D60   D(19,20,21,32)         57.3508         estimate D2E/DX2                !
 ! D61   D(19,20,21,33)        -59.7262         estimate D2E/DX2                !
 ! D62   D(23,20,21,22)         61.1033         estimate D2E/DX2                !
 ! D63   D(23,20,21,32)        -63.7233         estimate D2E/DX2                !
 ! D64   D(23,20,21,33)        179.1997         estimate D2E/DX2                !
 ! D65   D(26,20,21,22)        -57.5939         estimate D2E/DX2                !
 ! D66   D(26,20,21,32)        177.5795         estimate D2E/DX2                !
 ! D67   D(26,20,21,33)         60.5026         estimate D2E/DX2                !
 ! D68   D(19,20,23,24)         62.3605         estimate D2E/DX2                !
 ! D69   D(19,20,23,25)       -116.5909         estimate D2E/DX2                !
 ! D70   D(21,20,23,24)       -174.8125         estimate D2E/DX2                !
 ! D71   D(21,20,23,25)          6.2362         estimate D2E/DX2                !
 ! D72   D(26,20,23,24)        -56.3044         estimate D2E/DX2                !
 ! D73   D(26,20,23,25)        124.7442         estimate D2E/DX2                !
 ! D74   D(19,20,26,27)         49.9326         estimate D2E/DX2                !
 ! D75   D(19,20,26,28)       -132.0481         estimate D2E/DX2                !
 ! D76   D(21,20,26,27)        -71.5897         estimate D2E/DX2                !
 ! D77   D(21,20,26,28)        106.4295         estimate D2E/DX2                !
 ! D78   D(23,20,26,27)        168.0052         estimate D2E/DX2                !
 ! D79   D(23,20,26,28)        -13.9756         estimate D2E/DX2                !
 ! D80   D(20,21,22,34)        -75.4128         estimate D2E/DX2                !
 ! D81   D(32,21,22,34)         46.9304         estimate D2E/DX2                !
 ! D82   D(33,21,22,34)        166.2808         estimate D2E/DX2                !
 ! D83   D(20,23,24,14)         72.7205         estimate D2E/DX2                !
 ! D84   D(25,23,24,14)       -108.4274         estimate D2E/DX2                !
 --------------------------------------------------------------------------------
 Number of steps in this run=    184 maximum allowed number of steps=    204.
 GradGradGradGradGradGradGradGradGradGradGradGradGradGradGradGradGradGrad

                    Distance matrix (angstroms):
                    1          2          3          4          5
     1  O    0.000000
     2  C    1.382194   0.000000
     3  C    2.446501   1.561019   0.000000
     4  C    2.888587   2.569725   1.548187   0.000000
     5  O    4.193061   3.811966   2.447499   1.389478   0.000000
     6  N    3.019207   2.505522   1.508609   2.473600   2.870819
     7  O    4.176415   3.471286   2.318497   3.260617   3.231502
     8  O    2.733284   2.785486   2.296382   2.933681   3.457402
     9  N    3.704476   2.472447   1.485708   2.501385   2.950826
    10  O    4.184548   2.862273   2.290397   3.605592   4.047192
    11  O    4.481012   3.345414   2.306255   2.632426   2.770461
    12  H    0.970628   1.935015   2.669661   3.199247   4.335039
    13  H    1.992611   1.094621   2.168274   2.851983   4.132865
    14  H    2.070303   1.098200   2.172625   3.502529   4.605147
    15  H    2.539773   2.770809   2.149437   1.094119   2.007623
    16  H    3.124582   2.758089   2.156017   1.097119   2.073265
    17  H    4.768581   4.151851   2.750755   1.942400   0.967752
    18  O    7.377909   6.221638   5.727541   7.065342   7.131602
    19  C    6.221602   5.177307   4.747351   6.151620   6.331842
    20  C    5.727642   4.747787   4.811228   6.342245   6.841640
    21  C    7.065607   6.152265   6.342315   7.880029   8.386896
    22  O    7.132016   6.332866   6.842079   8.387383   9.080452
    23  N    4.837210   4.146753   4.389683   5.890020   6.512897
    24  O    3.757153   3.101765   3.276877   4.738814   5.408773
    25  O    5.498994   5.031215   5.417614   6.871079   7.525859
    26  N    5.335347   4.182309   4.434596   5.941161   6.584382
    27  O    6.204935   4.939709   5.006057   6.419016   6.930957
    28  O    4.497534   3.436400   4.081038   5.556324   6.421901
    29  H    7.268348   6.017681   5.567988   6.882519   6.999425
    30  H    5.517101   4.438858   3.789458   5.126856   5.246281
    31  H    6.655379   5.766456   5.283564   6.629713   6.721725
    32  H    7.566112   6.751842   6.834526   8.344280   8.758151
    33  H    7.755733   6.716539   6.807306   8.320798   8.751003
    34  H    6.889608   6.257509   6.855159   8.382217   9.125322
                    6          7          8          9         10
     6  N    0.000000
     7  O    1.199044   0.000000
     8  O    1.199309   2.147283   0.000000
     9  N    2.427830   2.567960   3.515779   0.000000
    10  O    2.779097   2.647432   3.852452   1.205568   0.000000
    11  O    3.357823   3.413081   4.430961   1.203624   2.146809
    12  H    2.714985   3.872217   2.093251   4.026967   4.405621
    13  H    3.437919   4.306462   3.830756   2.645608   3.112781
    14  H    2.683746   3.446439   2.983346   2.718525   2.617240
    15  H    2.679500   3.661760   2.661045   3.424199   4.414782
    16  H    3.417289   4.181717   3.899980   2.754553   3.901315
    17  H    3.357669   3.495677   4.159328   2.743989   3.847036
    18  O    5.335516   4.497932   6.205031   4.836769   3.757005
    19  C    4.182052   3.436214   4.939467   4.145909   3.101253
    20  C    4.434180   4.080714   5.005270   4.389740   3.277063
    21  C    5.940624   5.555789   6.418028   5.890208   4.739094
    22  O    6.583805   6.421349   6.929640   6.513753   5.409556
    23  N    3.790927   3.709446   4.036473   4.450375   3.586163
    24  O    2.655483   2.802929   2.884813   3.586001   2.970006
    25  O    4.709557   4.678938   4.712715   5.616940   4.785211
    26  N    4.553200   4.402821   5.261234   3.791733   2.656157
    27  O    5.261794   4.960389   6.124713   4.037695   2.885836
    28  O    4.402481   4.572788   4.959380   3.710348   2.803485
    29  H    5.436153   4.692525   6.397714   4.498951   3.399166
    30  H    3.266944   2.467430   4.167260   3.164845   2.250630
    31  H    4.426215   3.599274   5.012638   4.893419   3.970626
    32  H    6.202365   5.722536   6.582328   6.488404   5.382877
    33  H    6.524533   6.035801   7.145340   6.128953   4.930182
    34  H    6.485945   6.419354   6.665363   6.735140   5.709495
                   11         12         13         14         15
    11  O    0.000000
    12  H    4.916590   0.000000
    13  H    3.230549   2.814460   0.000000
    14  H    3.783734   2.317765   1.781546   0.000000
    15  H    3.709684   2.696383   3.209781   3.733957   0.000000
    16  H    2.583925   3.706510   2.600679   3.775786   1.779648
    17  H    2.208954   5.014884   4.306593   4.884116   2.816803
    18  O    5.498089   7.268303   6.655517   5.517204   7.755780
    19  C    5.029911   6.017577   5.766596   4.439105   6.716258
    20  C    5.417640   5.567656   5.284551   3.789994   6.807277
    21  C    6.871297   6.882218   6.631076   5.127580   8.320792
    22  O    7.527064   6.998963   6.723826   5.247232   8.751240
    23  N    5.616885   4.498808   4.894868   3.166142   6.128811
    24  O    4.784982   3.398899   3.971514   2.251655   4.929984
    25  O    6.796397   5.047534   5.807001   4.036668   6.979805
    26  N    4.710694   5.435529   4.427143   3.266792   6.524865
    27  O    4.714360   6.397295   5.013369   4.166924   7.146102
    28  O    4.680404   4.691502   3.600452   2.466995   6.035960
    29  H    5.047413   7.287511   6.299415   5.356303   7.659845
    30  H    4.034793   5.356359   5.037993   3.875136   5.740239
    31  H    5.804903   6.299227   6.488260   5.038364   7.079828
    32  H    7.496734   7.252902   7.354034   5.748463   8.717958
    33  H    6.980001   7.659361   7.080704   5.740448   8.875279
    34  H    7.823552   6.662308   6.745608   5.161783   8.627644
                   16         17         18         19         20
    16  H    0.000000
    17  H    2.269809   0.000000
    18  O    7.565580   6.888701   0.000000
    19  C    6.751076   6.255986   1.382203   0.000000
    20  C    6.834687   6.854572   2.446523   1.561030   0.000000
    21  C    8.344646   8.381628   2.888355   2.569647   1.548179
    22  O    8.759296   9.125463   4.192970   3.811906   2.447485
    23  N    6.488678   6.734184   3.704498   2.472496   1.485694
    24  O    5.382930   5.708600   4.184824   2.862537   2.290384
    25  O    7.497226   7.822294   4.480757   3.345234   2.306243
    26  N    6.203102   6.486604   3.019258   2.505441   1.508660
    27  O    6.583318   6.666786   2.733347   2.785433   2.296371
    28  O    5.723500   6.420157   4.176398   3.471118   2.318573
    29  H    7.252859   6.662418   0.970628   1.935024   2.669710
    30  H    5.747388   5.160171   2.070297   1.098192   2.172613
    31  H    7.352652   6.742916   1.992635   1.094615   2.168293
    32  H    8.920346   8.809318   3.123947   2.757832   2.156011
    33  H    8.718151   8.627289   2.539715   2.770862   2.149410
    34  H    8.810730   9.271678   4.768367   4.151733   2.750805
                   21         22         23         24         25
    21  C    0.000000
    22  O    1.389454   0.000000
    23  N    2.501374   2.950637   0.000000
    24  O    3.605569   4.046932   1.205576   0.000000
    25  O    2.632443   2.770361   1.203629   2.146827   0.000000
    26  N    2.473739   2.871247   2.427911   2.778926   3.358142
    27  O    2.933537   3.457604   3.515844   3.852463   4.431123
    28  O    3.260996   3.232315   2.568101   2.646978   3.413743
    29  H    3.198983   4.335023   4.027078   4.405951   4.916502
    30  H    3.502442   4.605106   2.718721   2.617706   3.783756
    31  H    2.852069   4.132813   2.645531   3.112918   3.230158
    32  H    1.097103   2.073227   2.754728   3.901533   2.584084
    33  H    1.094100   2.007574   3.424162   4.414722   3.709682
    34  H    1.942345   0.967725   2.743911   3.846924   2.208911
                   26         27         28         29         30
    26  N    0.000000
    27  O    1.199312   0.000000
    28  O    1.199022   2.147270   0.000000
    29  H    2.715064   2.093344   3.872229   0.000000
    30  H    2.683463   2.983140   3.445991   2.317732   0.000000
    31  H    3.437863   3.830736   4.306306   2.814475   1.781518
    32  H    3.417389   3.899710   4.182146   3.705890   3.775632
    33  H    2.679382   2.660613   3.661798   2.696081   3.733862
    34  H    3.358304   4.159691   3.496875   5.014840   4.884132
                   31         32         33         34
    31  H    0.000000
    32  H    2.600628   0.000000
    33  H    3.210150   1.779620   0.000000
    34  H    4.306352   2.269696   2.816711   0.000000
 Framework group  C1[X(C6H12N4O12)]
 Deg. of freedom    96
                         Standard orientation:                         
 ---------------------------------------------------------------------
 Center     Atomic      Atomic             Coordinates (Angstroms)
 Number     Number       Type             X           Y           Z
 ---------------------------------------------------------------------
      1          8           0        2.607860   -2.280841    1.267170
      2          6           0        1.928939   -1.079571    1.347650
      3          6           0        2.391124   -0.063425    0.256497
      4          6           0        3.933859    0.058813    0.212808
      5          8           0        4.376235    0.920903   -0.783060
      6          7           0        1.921434   -0.533930   -1.097725
      7          8           0        1.379651    0.270422   -1.802847
      8          8           0        2.169702   -1.677035   -1.362331
      9          7           0        1.759354    1.251056    0.539930
     10          8           0        0.554903    1.283818    0.499698
     11          8           0        2.484094    2.174605    0.805489
     12          1           0        2.376769   -2.726959    0.436692
     13          1           0        2.161132   -0.655414    2.329675
     14          1           0        0.840672   -1.202324    1.266106
     15          1           0        4.338588   -0.932469   -0.012251
     16          1           0        4.277901    0.359374    1.210289
     17          1           0        4.225140    1.837410   -0.511530
     18          8           0       -2.607707    2.281436   -1.266016
     19          6           0       -1.928450    1.080362   -1.346740
     20          6           0       -2.391005    0.063522   -0.256376
     21          6           0       -3.933754   -0.058713   -0.213449
     22          8           0       -4.376584   -0.921719    0.781391
     23          7           0       -1.759128   -1.250784   -0.540313
     24          8           0       -0.554703   -1.283658   -0.499189
     25          8           0       -2.483740   -2.174047   -0.807231
     26          7           0       -1.921746    0.533419    1.098263
     27          8           0       -2.170538    1.676289    1.363407
     28          8           0       -1.379802   -0.271071    1.803065
     29          1           0       -2.377152    2.727200   -0.435199
     30          1           0       -0.840270    1.203338   -1.264487
     31          1           0       -2.159929    0.656662   -2.329124
     32          1           0       -4.277403   -0.358293   -1.211343
     33          1           0       -4.338532    0.932348    0.012403
     34          1           0       -4.225563   -1.837945    0.508967
 ---------------------------------------------------------------------
 Rotational constants (GHZ):           0.5229366           0.1990517           0.1825758
   332 basis functions,   598 primitive gaussians,   354 cartesian basis functions
    86 alpha electrons       86 beta electrons
       nuclear repulsion energy      2243.9298186232 Hartrees.
 NAtoms=   34 NActive=   34 NUniq=   34 SFac= 1.00D+00 NAtFMM=   60 NAOKFM=F Big=F
 Nuclear repulsion after empirical dispersion term =     2243.9015585311 Hartrees.
   1 Symmetry operations used in ECPInt.
 ECPInt:  NShTT=   12246 NPrTT=   49150 LenC2=   11209 LenP2D=   30177.
 LDataN:  DoStor=T MaxTD1= 4 Len=   56
 ExpMin= 1.22D-01 ExpMax= 2.27D+03 ExpMxC= 3.41D+02 IAcc=3 IRadAn=         5 AccDes= 0.00D+00
 Harris functional with IExCor= 4639 and IRadAn=       5 diagonalized for initial guess.
 HarFok:  IExCor= 4639 AccDes= 0.00D+00 IRadAn=         5 IDoV= 1 UseB2=F ITyADJ=14
 ICtDFT=  3500011 ScaDFX=  1.000000  1.000000  1.000000  1.000000
 FoFCou: FMM=F IPFlag=           0 FMFlag=      100000 FMFlg1=           0
         NFxFlg=           0 DoJE=T BraDBF=F KetDBF=T FulRan=T
         wScrn=  0.000000 ICntrl=       500 IOpCl=  0 I1Cent=   200000004 NGrid=           0
         NMat0=    1 NMatS0=      1 NMatT0=    0 NMatD0=    1 NMtDS0=    0 NMtDT0=    0
 Petite list used in FoFCou.
     Accept linear search using points  3 and  4.
     Accept linear search using points  2 and  3.
     Accept linear search using points  1 and  2.
     Accept linear search using points  1 and  2.
     Accept linear search using points  1 and  2.
     Minimum is close to point  2 DX= -2.53D-04 DF= -1.82D-12 DXR=  2.53D-04 DFR=  6.68D-08 which will be used.
 Restarting incremental Fock formation.
 SCF Done:  E(RwB97XD) =  -1355.63579727     a.u. after    9 cycles
            Convg  =    0.2529D-09                    50 Fock formations.
              S**2 =  0.0000                  -V/T =  2.0066

 **********************************************************************

            Population analysis using the SCF Density.

 **********************************************************************

 Orbital symmetries:
       Occupied  (A) (A) (A) (A) (A) (A) (A) (A) (A) (A) (A) (A)
                 (A) (A) (A) (A) (A) (A) (A) (A) (A) (A) (A) (A)
                 (A) (A) (A) (A) (A) (A) (A) (A) (A) (A) (A) (A)
                 (A) (A) (A) (A) (A) (A) (A) (A) (A) (A) (A) (A)
                 (A) (A) (A) (A) (A) (A) (A) (A) (A) (A) (A) (A)
                 (A) (A) (A) (A) (A) (A) (A) (A) (A) (A) (A) (A)
                 (A) (A) (A) (A) (A) (A) (A) (A) (A) (A) (A) (A)
                 (A) (A)
       Virtual   (A) (A) (A) (A) (A) (A) (A) (A) (A) (A) (A) (A)
                 (A) (A) (A) (A) (A) (A) (A) (A) (A) (A) (A) (A)
                 (A) (A) (A) (A) (A) (A) (A) (A) (A) (A) (A) (A)
                 (A) (A) (A) (A) (A) (A) (A) (A) (A) (A) (A) (A)
                 (A) (A) (A) (A) (A) (A) (A) (A) (A) (A) (A) (A)
                 (A) (A) (A) (A) (A) (A) (A) (A) (A) (A) (A) (A)
                 (A) (A) (A) (A) (A) (A) (A) (A) (A) (A) (A) (A)
                 (A) (A) (A) (A) (A) (A) (A) (A) (A) (A) (A) (A)
                 (A) (A) (A) (A) (A) (A) (A) (A) (A) (A) (A) (A)
                 (A) (A) (A) (A) (A) (A) (A) (A) (A) (A) (A) (A)
                 (A) (A) (A) (A) (A) (A) (A) (A) (A) (A) (A) (A)
                 (A) (A) (A) (A) (A) (A) (A) (A) (A) (A) (A) (A)
                 (A) (A) (A) (A) (A) (A) (A) (A) (A) (A) (A) (A)
                 (A) (A) (A) (A) (A) (A) (A) (A) (A) (A) (A) (A)
                 (A) (A) (A) (A) (A) (A) (A) (A) (A) (A) (A) (A)
                 (A) (A) (A) (A) (A) (A) (A) (A) (A) (A) (A) (A)
                 (A) (A) (A) (A) (A) (A) (A) (A) (A) (A) (A) (A)
                 (A) (A) (A) (A) (A) (A) (A) (A) (A) (A) (A) (A)
                 (A) (A) (A) (A) (A) (A) (A) (A) (A) (A) (A) (A)
                 (A) (A) (A) (A) (A) (A) (A) (A) (A) (A) (A) (A)
                 (A) (A) (A) (A) (A) (A)
 The electronic state is 1-A.
 Alpha  occ. eigenvalues --  -19.33677 -19.33676 -19.33357 -19.33355 -19.32737
 Alpha  occ. eigenvalues --  -19.32737 -19.32553 -19.32551 -19.28160 -19.28160
 Alpha  occ. eigenvalues --  -19.28011 -19.28011 -14.72946 -14.72944 -14.72224
 Alpha  occ. eigenvalues --  -14.72224 -10.43153 -10.43152 -10.38611 -10.38610
 Alpha  occ. eigenvalues --  -10.38418 -10.38417  -1.39576  -1.39369  -1.37884
 Alpha  occ. eigenvalues --   -1.37721  -1.21447  -1.21307  -1.20609  -1.20584
 Alpha  occ. eigenvalues --   -1.15563  -1.15561  -1.14939  -1.14933  -1.00186
 Alpha  occ. eigenvalues --   -1.00116  -0.83791  -0.83740  -0.82363  -0.82262
 Alpha  occ. eigenvalues --   -0.81294  -0.81139  -0.72348  -0.71222  -0.70160
 Alpha  occ. eigenvalues --   -0.70135  -0.69399  -0.68470  -0.67852  -0.67784
 Alpha  occ. eigenvalues --   -0.65822  -0.65529  -0.64897  -0.63752  -0.63751
 Alpha  occ. eigenvalues --   -0.63629  -0.62203  -0.62136  -0.59560  -0.59542
 Alpha  occ. eigenvalues --   -0.57039  -0.56719  -0.56035  -0.55873  -0.53619
 Alpha  occ. eigenvalues --   -0.53598  -0.47923  -0.47748  -0.46964  -0.46862
 Alpha  occ. eigenvalues --   -0.45682  -0.44820  -0.43875  -0.43633  -0.43317
 Alpha  occ. eigenvalues --   -0.43271  -0.42955  -0.42491  -0.41971  -0.41910
 Alpha  occ. eigenvalues --   -0.41592  -0.41497  -0.39814  -0.39778  -0.38439
 Alpha  occ. eigenvalues --   -0.38400
 Alpha virt. eigenvalues --   -0.04125  -0.03884  -0.02024  -0.01895   0.12727
 Alpha virt. eigenvalues --    0.13018   0.13359   0.13578   0.15484   0.16054
 Alpha virt. eigenvalues --    0.17297   0.17368   0.18585   0.18668   0.20394
 Alpha virt. eigenvalues --    0.20845   0.21975   0.22047   0.24648   0.24807
 Alpha virt. eigenvalues --    0.25089   0.25913   0.25986   0.27237   0.28747
 Alpha virt. eigenvalues --    0.29414   0.30576   0.31219   0.35657   0.36886
 Alpha virt. eigenvalues --    0.37935   0.39167   0.44281   0.44383   0.45505
 Alpha virt. eigenvalues --    0.48429   0.51200   0.51484   0.53021   0.53726
 Alpha virt. eigenvalues --    0.53926   0.53987   0.55698   0.55997   0.56231
 Alpha virt. eigenvalues --    0.57472   0.58874   0.59572   0.61175   0.63145
 Alpha virt. eigenvalues --    0.63324   0.64102   0.65665   0.66546   0.67396
 Alpha virt. eigenvalues --    0.67789   0.68933   0.70163   0.70487   0.70656
 Alpha virt. eigenvalues --    0.71056   0.72265   0.74427   0.74601   0.75665
 Alpha virt. eigenvalues --    0.76661   0.77578   0.78308   0.78701   0.78906
 Alpha virt. eigenvalues --    0.80757   0.82020   0.83561   0.84386   0.86164
 Alpha virt. eigenvalues --    0.88404   0.89856   0.90900   0.91131   0.93672
 Alpha virt. eigenvalues --    0.95247   0.95268   0.96318   0.96866   0.98973
 Alpha virt. eigenvalues --    0.99463   1.00783   1.00968   1.02652   1.03964
 Alpha virt. eigenvalues --    1.04913   1.06794   1.08270   1.09165   1.10722
 Alpha virt. eigenvalues --    1.11596   1.12096   1.13617   1.14208   1.14672
 Alpha virt. eigenvalues --    1.15429   1.16116   1.16503   1.17007   1.18767
 Alpha virt. eigenvalues --    1.21234   1.21400   1.22518   1.22588   1.23553
 Alpha virt. eigenvalues --    1.24894   1.26199   1.28688   1.28734   1.29681
 Alpha virt. eigenvalues --    1.31749   1.32862   1.33791   1.35526   1.38032
 Alpha virt. eigenvalues --    1.40440   1.41469   1.43432   1.44556   1.45190
 Alpha virt. eigenvalues --    1.47779   1.50706   1.50851   1.50966   1.54085
 Alpha virt. eigenvalues --    1.56030   1.58766   1.64037   1.64120   1.64459
 Alpha virt. eigenvalues --    1.66710   1.66754   1.69627   1.75939   1.76088
 Alpha virt. eigenvalues --    1.76962   1.77065   1.81773   1.81796   1.82318
 Alpha virt. eigenvalues --    1.83806   1.85870   1.87187   1.88119   1.88350
 Alpha virt. eigenvalues --    1.89728   1.91126   1.98874   1.98962   2.04586
 Alpha virt. eigenvalues --    2.04619   2.08934   2.09740   2.13296   2.13341
 Alpha virt. eigenvalues --    2.15296   2.16586   2.19694   2.19941   2.23174
 Alpha virt. eigenvalues --    2.23908   2.31252   2.31309   2.31673   2.32232
 Alpha virt. eigenvalues --    2.38023   2.38033   2.45136   2.45600   2.47551
 Alpha virt. eigenvalues --    2.48188   2.51789   2.52220   2.52967   2.53633
 Alpha virt. eigenvalues --    2.55783   2.56197   2.62607   2.62890   2.65582
 Alpha virt. eigenvalues --    2.65685   2.66264   2.66612   2.67211   2.67992
 Alpha virt. eigenvalues --    2.68765   2.68860   2.69648   2.69995   2.71483
 Alpha virt. eigenvalues --    2.71980   2.72788   2.74197   2.75734   2.75779
 Alpha virt. eigenvalues --    2.78384   2.78678   2.82622   2.83328   2.86567
 Alpha virt. eigenvalues --    2.86742   2.89872   2.89908   2.90592   2.90638
 Alpha virt. eigenvalues --    3.02551   3.03012   3.07261   3.07297   3.08132
 Alpha virt. eigenvalues --    3.08343   3.10683   3.11091   3.11278   3.12350
 Alpha virt. eigenvalues --    3.14401   3.15088   3.20810   3.21965   3.29732
 Alpha virt. eigenvalues --    3.30399   3.35897   3.36741   3.39184   3.39292
 Alpha virt. eigenvalues --    3.44873   3.44925   3.47343   3.47426   3.49226
 Alpha virt. eigenvalues --    3.49812   3.53056   3.54115   3.79599   3.80413
 Alpha virt. eigenvalues --    3.81154   3.81755   3.86187   3.87212   3.89485
 Alpha virt. eigenvalues --    3.89727
          Condensed to atoms (all electrons):
 Mulliken charges:
               1
     1  O   -0.465494
     2  C    0.077822
     3  C   -0.165426
     4  C    0.123727
     5  O   -0.479419
     6  N    0.283805
     7  O   -0.212120
     8  O   -0.237408
     9  N    0.263442
    10  O   -0.226326
    11  O   -0.230944
    12  H    0.344499
    13  H    0.133954
    14  H    0.178462
    15  H    0.146617
    16  H    0.128226
    17  H    0.336590
    18  O   -0.465490
    19  C    0.077871
    20  C   -0.165434
    21  C    0.123719
    22  O   -0.479408
    23  N    0.263455
    24  O   -0.226331
    25  O   -0.230959
    26  N    0.283796
    27  O   -0.237445
    28  O   -0.212077
    29  H    0.344499
    30  H    0.178421
    31  H    0.133967
    32  H    0.128224
    33  H    0.146600
    34  H    0.336585
 Sum of Mulliken charges =   0.00000
 Mulliken charges with hydrogens summed into heavy atoms:
               1
     1  O   -0.120995
     2  C    0.390238
     3  C   -0.165426
     4  C    0.398571
     5  O   -0.142829
     6  N    0.283805
     7  O   -0.212120
     8  O   -0.237408
     9  N    0.263442
    10  O   -0.226326
    11  O   -0.230944
    18  O   -0.120992
    19  C    0.390259
    20  C   -0.165434
    21  C    0.398543
    22  O   -0.142823
    23  N    0.263455
    24  O   -0.226331
    25  O   -0.230959
    26  N    0.283796
    27  O   -0.237445
    28  O   -0.212077
 Electronic spatial extent (au):  <R**2>=           6202.1522
 Charge=              0.0000 electrons
 Dipole moment (field-independent basis, Debye):
    X=              0.0008    Y=              0.0015    Z=              0.0003  Tot=              0.0018
 Evaluate density.
 Using the total density.
 Monte-Carlo method of calculating molar volume:
 based on  0.001 e/bohr**3 density envelope.
 Number of points per bohr**3 =  100 CutOff= 1.00D-04
 Using the SCF density.
 There are      2109 points.  Will hold      2109 in memory.
 LenV=  1047702865 MDV=  1048576000.
 Box volume = 9380.675 fraction occupied=0.219
 Integrated density= 1.2524181730879049D+02 error=-4.6758182691209512D+01
 Molar volume = 2054.942 bohr**3/mol (183.381 cm**3/mol)
 Recommended a0 for SCRF calculation =  5.09 angstrom (  9.63 bohr)
   1 Symmetry operations used in ECPInt.
 ECPInt:  NShTT=   12246 NPrTT=   49150 LenC2=   11209 LenP2D=   30177.
 LDataN:  DoStor=T MaxTD1= 5 Len=  102
 Calling FoFJK, ICntrl=      2127 FMM=F ISym2X=0 I1Cent= 0 IOpClX= 0 NMat=1 NMatS=1 NMatT=0.

 GradGradGradGradGradGradGradGradGradGradGradGradGradGradGradGradGradGrad
 FormGI is forming the generalized inverse of G from B-inverse, IUseBI=4.
 Internal  Forces:  Max     0.014506850 RMS     0.004139387
 Step number   1 out of a maximum of  184
 All quantities printed in internal units (Hartrees-Bohrs-Radians)
 Mixed Optimization -- RFO/linear search
 Second derivative matrix not updated -- first step.
 ITU=  0
     Eigenvalues ---    0.00230   0.00230   0.00230   0.00254   0.00255
     Eigenvalues ---    0.00261   0.00262   0.00262   0.00973   0.01220
     Eigenvalues ---    0.01560   0.01577   0.01702   0.01831   0.01831
     Eigenvalues ---    0.01927   0.01927   0.02552   0.02919   0.03639
     Eigenvalues ---    0.03946   0.04057   0.04655   0.04775   0.04846
     Eigenvalues ---    0.04846   0.05050   0.05132   0.05490   0.05683
     Eigenvalues ---    0.06012   0.06034   0.06034   0.06159   0.08555
     Eigenvalues ---    0.08810   0.09091   0.09699   0.11604   0.11604
     Eigenvalues ---    0.13327   0.14001   0.14001   0.14079   0.15437
     Eigenvalues ---    0.15634   0.16000   0.16000   0.16000   0.16000
     Eigenvalues ---    0.16661   0.17514   0.17810   0.19044   0.21264
     Eigenvalues ---    0.22116   0.22116   0.22363   0.24997   0.24997
     Eigenvalues ---    0.25000   0.25000   0.25000   0.25000   0.26336
     Eigenvalues ---    0.26735   0.27806   0.27806   0.31486   0.31491
     Eigenvalues ---    0.32401   0.33332   0.33882   0.33925   0.34003
     Eigenvalues ---    0.34005   0.34284   0.34285   0.34341   0.34343
     Eigenvalues ---    0.47410   0.47414   0.48702   0.48703   0.53249
     Eigenvalues ---    0.53249   0.53839   0.53844   0.96137   1.02073
     Eigenvalues ---    1.03021   1.03023   1.05169   1.05171   1.05305
     Eigenvalues ---    1.05316
 Linear search not attempted -- first point.
 Iteration  1 RMS(Cart)=  0.15077526 RMS(Int)=  0.00574131
 Iteration  2 RMS(Cart)=  0.00790527 RMS(Int)=  0.00094866
 Iteration  3 RMS(Cart)=  0.00005007 RMS(Int)=  0.00094808
 Iteration  4 RMS(Cart)=  0.00000009 RMS(Int)=  0.00094808
 Variable       Old X    -DE/DX   Delta X   Delta X   Delta X     New X
                                 (Linear)    (Quad)   (Total)
    R1        2.61197   0.00273   0.00000   0.00539   0.00539   2.61736
    R2        1.83422  -0.00102   0.00000  -0.00184  -0.00184   1.83238
    R3        2.94990   0.00089   0.00000   0.00310   0.00310   2.95300
    R4        2.06853   0.00487   0.00000   0.01344   0.01344   2.08197
    R5        2.07530   0.00798   0.00000   0.02228   0.02228   2.09758
    R6        2.92565  -0.00597   0.00000  -0.02006  -0.02006   2.90559
    R7        2.85086   0.00692   0.00000   0.02067   0.02067   2.87153
    R8        2.80758   0.01283   0.00000   0.03573   0.03573   2.84331
    R9        2.62573  -0.00072   0.00000  -0.00145  -0.00145   2.62428
   R10        2.06759   0.00272   0.00000   0.00748   0.00748   2.07507
   R11        2.07326   0.00515   0.00000   0.01431   0.01431   2.08756
   R12        1.82879  -0.00014   0.00000  -0.00024  -0.00024   1.82854
   R13        2.26587   0.00639   0.00000   0.00596   0.00596   2.27183
   R14        2.26637   0.01450   0.00000   0.01353   0.01353   2.27990
   R15        2.27819   0.00274   0.00000   0.00263   0.00263   2.28082
   R16        2.27452   0.01042   0.00000   0.00992   0.00992   2.28444
   R17        4.25307   0.00290   0.00000   0.05931   0.05931   4.31238
   R18        4.25501   0.00289   0.00000   0.05922   0.05922   4.31423
   R19        2.61199   0.00272   0.00000   0.00537   0.00537   2.61736
   R20        1.83422  -0.00102   0.00000  -0.00184  -0.00184   1.83238
   R21        2.94992   0.00089   0.00000   0.00309   0.00309   2.95300
   R22        2.07528   0.00798   0.00000   0.02226   0.02226   2.09754
   R23        2.06852   0.00487   0.00000   0.01344   0.01344   2.08197
   R24        2.92564  -0.00597   0.00000  -0.02004  -0.02004   2.90559
   R25        2.80756   0.01283   0.00000   0.03574   0.03574   2.84330
   R26        2.85095   0.00691   0.00000   0.02066   0.02066   2.87161
   R27        2.62569  -0.00069   0.00000  -0.00140  -0.00140   2.62429
   R28        2.07322   0.00516   0.00000   0.01433   0.01433   2.08756
   R29        2.06755   0.00273   0.00000   0.00751   0.00751   2.07506
   R30        1.82874  -0.00011   0.00000  -0.00020  -0.00020   1.82853
   R31        2.27821   0.00271   0.00000   0.00261   0.00261   2.28081
   R32        2.27453   0.01041   0.00000   0.00992   0.00992   2.28445
   R33        2.26637   0.01451   0.00000   0.01354   0.01354   2.27991
   R34        2.26582   0.00641   0.00000   0.00598   0.00598   2.27180
    A1        1.90957  -0.00320   0.00000  -0.01781  -0.01781   1.89176
    A2        1.96017  -0.00151   0.00000  -0.00363  -0.00503   1.95515
    A3        1.85961   0.00145   0.00000  -0.00217  -0.00249   1.85712
    A4        1.96631   0.00049   0.00000   0.01262   0.01106   1.97737
    A5        1.88815  -0.00325   0.00000  -0.04519  -0.04513   1.84303
    A6        1.89047   0.00411   0.00000   0.06047   0.06088   1.95135
    A7        1.89666  -0.00162   0.00000  -0.02783  -0.02684   1.86982
    A8        1.94567   0.00013   0.00000  -0.00525  -0.00513   1.94054
    A9        1.90950   0.00577   0.00000   0.04928   0.04944   1.95894
   A10        1.89302  -0.00380   0.00000  -0.01655  -0.01648   1.87654
   A11        1.88550  -0.00495   0.00000  -0.03106  -0.03104   1.85447
   A12        1.93827   0.00377   0.00000   0.01172   0.01130   1.94957
   A13        1.89104  -0.00081   0.00000  -0.00708  -0.00689   1.88414
   A14        1.96759   0.00027   0.00000   0.00308   0.00309   1.97069
   A15        1.87851  -0.00202   0.00000  -0.01815  -0.01824   1.86027
   A16        1.88437  -0.00197   0.00000  -0.01194  -0.01207   1.87229
   A17        1.87227   0.00102   0.00000   0.00702   0.00700   1.87927
   A18        1.96256   0.00248   0.00000   0.02415   0.02415   1.98671
   A19        1.89571   0.00005   0.00000  -0.00619  -0.00652   1.88919
   A20        1.91429  -0.00390   0.00000  -0.02172  -0.02172   1.89258
   A21        2.04806   0.00902   0.00000   0.03162   0.02707   2.07513
   A22        2.01625  -0.00099   0.00000  -0.00547  -0.01003   2.00622
   A23        2.21828  -0.00815   0.00000  -0.03205  -0.03672   2.18156
   A24        2.02920   0.00111   0.00000   0.00795   0.00820   2.03739
   A25        2.05434   0.00306   0.00000   0.00883   0.00735   2.06170
   A26        2.19948  -0.00423   0.00000  -0.01808  -0.01943   2.18005
   A27        2.27119   0.00671   0.00000   0.00317   0.00345   2.27463
   A28        2.31360   0.00734   0.00000   0.05319   0.05328   2.36689
   A29        1.90957  -0.00320   0.00000  -0.01782  -0.01782   1.89175
   A30        1.96018  -0.00152   0.00000  -0.00366  -0.00505   1.95513
   A31        1.96630   0.00049   0.00000   0.01257   0.01102   1.97732
   A32        1.85964   0.00145   0.00000  -0.00216  -0.00249   1.85715
   A33        1.89045   0.00411   0.00000   0.06029   0.06070   1.95116
   A34        1.88817  -0.00324   0.00000  -0.04509  -0.04503   1.84314
   A35        1.89664  -0.00161   0.00000  -0.02766  -0.02668   1.86996
   A36        1.94558   0.00014   0.00000  -0.00518  -0.00506   1.94052
   A37        1.89308  -0.00381   0.00000  -0.01660  -0.01654   1.87654
   A38        1.90935   0.00577   0.00000   0.04924   0.04940   1.95876
   A39        1.93828   0.00376   0.00000   0.01171   0.01129   1.94957
   A40        1.88562  -0.00496   0.00000  -0.03109  -0.03107   1.85455
   A41        1.89109  -0.00080   0.00000  -0.00702  -0.00683   1.88427
   A42        1.96761   0.00027   0.00000   0.00308   0.00310   1.97071
   A43        1.88438  -0.00197   0.00000  -0.01196  -0.01210   1.87228
   A44        1.87850  -0.00202   0.00000  -0.01815  -0.01824   1.86027
   A45        1.96255   0.00249   0.00000   0.02417   0.02417   1.98673
   A46        1.87225   0.00102   0.00000   0.00703   0.00701   1.87926
   A47        1.89571   0.00005   0.00000  -0.00620  -0.00653   1.88918
   A48        1.91427  -0.00389   0.00000  -0.02165  -0.02165   1.89262
   A49        2.02919   0.00112   0.00000   0.00800   0.00825   2.03744
   A50        2.05433   0.00306   0.00000   0.00880   0.00733   2.06166
   A51        2.19950  -0.00423   0.00000  -0.01811  -0.01947   2.18003
   A52        2.27166   0.00668   0.00000   0.00310   0.00338   2.27504
   A53        2.01617  -0.00098   0.00000  -0.00546  -0.01000   2.00617
   A54        2.04813   0.00902   0.00000   0.03165   0.02712   2.07525
   A55        2.21829  -0.00816   0.00000  -0.03208  -0.03674   2.18155
   A56        2.31443   0.00730   0.00000   0.05293   0.05302   2.36745
    D1       -1.15236  -0.00254   0.00000  -0.04052  -0.04065  -1.19301
    D2        3.06643   0.00135   0.00000   0.01783   0.01793   3.08436
    D3        0.98818   0.00211   0.00000   0.04610   0.04614   1.03432
    D4       -0.86031   0.00297   0.00000   0.03848   0.03855  -0.82176
    D5        1.22406   0.00065   0.00000   0.02862   0.02878   1.25284
    D6       -2.99963   0.00075   0.00000   0.03843   0.03877  -2.96086
    D7        1.18715   0.00183   0.00000   0.00518   0.00550   1.19266
    D8       -3.01166  -0.00049   0.00000  -0.00468  -0.00426  -3.01593
    D9       -0.95217  -0.00040   0.00000   0.00513   0.00572  -0.94645
   D10       -3.04311   0.00037   0.00000  -0.01957  -0.01981  -3.06291
   D11       -0.95874  -0.00195   0.00000  -0.02944  -0.02957  -0.98831
   D12        1.10076  -0.00185   0.00000  -0.01962  -0.01959   1.08117
   D13       -1.52188  -0.00074   0.00000  -0.00794  -0.00831  -1.53020
   D14        0.65728   0.00070   0.00000   0.04086   0.04183   0.69911
   D15        2.70476  -0.00178   0.00000   0.00525   0.00563   2.71039
   D16        3.10325   0.00099   0.00000  -0.01158  -0.01147   3.09178
   D17        1.04206   0.00087   0.00000  -0.01032  -0.01014   1.03192
   D18       -1.00131   0.00291   0.00000   0.01275   0.01275  -0.98857
   D19        1.00470  -0.00302   0.00000  -0.04915  -0.04915   0.95555
   D20       -1.05649  -0.00313   0.00000  -0.04789  -0.04783  -1.10432
   D21       -3.09987  -0.00110   0.00000  -0.02483  -0.02494  -3.12480
   D22       -1.06681  -0.00117   0.00000  -0.02818  -0.02824  -1.09504
   D23       -3.12800  -0.00128   0.00000  -0.02691  -0.02691   3.12827
   D24        1.11181   0.00075   0.00000  -0.00385  -0.00402   1.10779
   D25        2.30502   0.00265   0.00000   0.15444   0.15448   2.45950
   D26       -0.87115  -0.00114   0.00000  -0.01584  -0.01519  -0.88634
   D27       -1.85707   0.00323   0.00000   0.15848   0.15792  -1.69915
   D28        1.24995  -0.00056   0.00000  -0.01180  -0.01174   1.23821
   D29        0.24428   0.00443   0.00000   0.15061   0.15022   0.39450
   D30       -2.93188   0.00064   0.00000  -0.01967  -0.01945  -2.95133
   D31       -1.08797   0.00392   0.00000   0.10897   0.10893  -0.97905
   D32        2.03543   0.00045   0.00000   0.03582   0.03537   2.07079
   D33        3.05141   0.00389   0.00000   0.11912   0.11922  -3.11256
   D34       -0.10838   0.00042   0.00000   0.04596   0.04566  -0.06272
   D35        0.98323   0.00823   0.00000   0.15455   0.15474   1.13797
   D36       -2.17655   0.00476   0.00000   0.08140   0.08118  -2.09537
   D37        1.31601  -0.00014   0.00000  -0.00696  -0.00689   1.30911
   D38       -2.90233  -0.00181   0.00000  -0.02297  -0.02303  -2.92536
   D39       -0.81925   0.00037   0.00000  -0.01181  -0.01181  -0.83107
   D40       -1.27056   0.00341   0.00000   0.01839   0.01831  -1.25225
   D41        1.89095   0.00711   0.00000   0.09812   0.09708   1.98803
   D42        2.95620  -0.00048   0.00000  -0.00361  -0.00306   2.95314
   D43       -2.95640   0.00052   0.00000   0.00433   0.00378  -2.95263
   D44        1.15242   0.00254   0.00000   0.04039   0.04052   1.19294
   D45       -0.98809  -0.00210   0.00000  -0.04594  -0.04597  -1.03407
   D46       -3.06633  -0.00135   0.00000  -0.01785  -0.01795  -3.08428
   D47        0.86002  -0.00298   0.00000  -0.03864  -0.03870   0.82132
   D48        2.99933  -0.00076   0.00000  -0.03859  -0.03893   2.96040
   D49       -1.22434  -0.00065   0.00000  -0.02875  -0.02892  -1.25326
   D50        3.04280  -0.00039   0.00000   0.01920   0.01943   3.06223
   D51       -1.10108   0.00183   0.00000   0.01924   0.01920  -1.08187
   D52        0.95844   0.00194   0.00000   0.02908   0.02922   0.98765
   D53       -1.18749  -0.00183   0.00000  -0.00539  -0.00571  -1.19320
   D54        0.95182   0.00040   0.00000  -0.00534  -0.00594   0.94588
   D55        3.01134   0.00050   0.00000   0.00450   0.00408   3.01541
   D56        1.52215   0.00074   0.00000   0.00801   0.00838   1.53053
   D57       -0.65701  -0.00068   0.00000  -0.04059  -0.04155  -0.69855
   D58       -2.70448   0.00179   0.00000  -0.00509  -0.00547  -2.70994
   D59       -3.10359  -0.00099   0.00000   0.01165   0.01154  -3.09205
   D60        1.00096  -0.00291   0.00000  -0.01269  -0.01269   0.98827
   D61       -1.04242  -0.00087   0.00000   0.01040   0.01023  -1.03219
   D62        1.06645   0.00117   0.00000   0.02828   0.02834   1.09480
   D63       -1.11218  -0.00075   0.00000   0.00395   0.00412  -1.10806
   D64        3.12763   0.00129   0.00000   0.02704   0.02703  -3.12853
   D65       -1.00520   0.00302   0.00000   0.04921   0.04921  -0.95599
   D66        3.09935   0.00109   0.00000   0.02487   0.02498   3.12433
   D67        1.05597   0.00313   0.00000   0.04797   0.04790   1.10387
   D68        1.08840  -0.00392   0.00000  -0.10895  -0.10890   0.97949
   D69       -2.03489  -0.00045   0.00000  -0.03578  -0.03532  -2.07022
   D70       -3.05105  -0.00388   0.00000  -0.11905  -0.11915   3.11298
   D71        0.10884  -0.00041   0.00000  -0.04588  -0.04557   0.06327
   D72       -0.98270  -0.00822   0.00000  -0.15449  -0.15468  -1.13738
   D73        2.17720  -0.00475   0.00000  -0.08133  -0.08110   2.09609
   D74        0.87149   0.00114   0.00000   0.01550   0.01485   0.88634
   D75       -2.30467  -0.00265   0.00000  -0.15445  -0.15448  -2.45916
   D76       -1.24948   0.00055   0.00000   0.01141   0.01135  -1.23812
   D77        1.85755  -0.00323   0.00000  -0.15854  -0.15799   1.69956
   D78        2.93224  -0.00065   0.00000   0.01928   0.01906   2.95131
   D79       -0.24392  -0.00443   0.00000  -0.15067  -0.15027  -0.39419
   D80       -1.31620   0.00014   0.00000   0.00697   0.00691  -1.30929
   D81        0.81909  -0.00037   0.00000   0.01181   0.01181   0.83090
   D82        2.90215   0.00181   0.00000   0.02297   0.02303   2.92518
   D83        1.26921  -0.00340   0.00000  -0.01822  -0.01813   1.25108
   D84       -1.89242  -0.00710   0.00000  -0.09796  -0.09693  -1.98935
         Item               Value     Threshold  Converged?
 Maximum Force            0.014507     0.000015     NO 
 RMS     Force            0.004139     0.000010     NO 
 Maximum Displacement     0.809930     0.000060     NO 
 RMS     Displacement     0.153051     0.000040     NO 
 GradGradGradGradGradGradGradGradGradGradGradGradGradGradGradGradGradGrad

                    Distance matrix (angstroms):
                    1          2          3          4          5
     1  O    0.000000
     2  C    1.385048   0.000000
     3  C    2.446087   1.562660   0.000000
     4  C    2.855558   2.557851   1.537573   0.000000
     5  O    4.162344   3.803585   2.440332   1.388710   0.000000
     6  N    3.091588   2.558968   1.519548   2.445607   2.806766
     7  O    4.274144   3.579071   2.349425   3.176396   3.058344
     8  O    2.835616   2.855101   2.304589   2.892522   3.367199
     9  N    3.709137   2.474109   1.504616   2.517728   2.982220
    10  O    4.161651   2.816120   2.313976   3.622919   4.114213
    11  O    4.497802   3.370010   2.332417   2.668932   2.811992
    12  H    0.969654   1.925091   2.673216   3.176244   4.315306
    13  H    1.998525   1.101731   2.140453   2.808576   4.089821
    14  H    2.089591   1.109989   2.227673   3.530901   4.648887
    15  H    2.479451   2.737241   2.129272   1.098078   2.015001
    16  H    3.062744   2.729809   2.143184   1.104690   2.094870
    17  H    4.726008   4.129506   2.726747   1.927368   0.967623
    18  O    7.376409   6.192502   5.812116   7.189680   7.348941
    19  C    6.192409   5.110607   4.814082   6.257500   6.535926
    20  C    5.812423   4.814485   5.012003   6.545137   7.122811
    21  C    7.190200   6.258032   6.545167   8.079982   8.651200
    22  O    7.349721   6.536728   7.123107   8.651546   9.394863
    23  N    4.923786   4.211117   4.592399   6.090902   6.784643
    24  O    3.850016   3.172695   3.484749   4.945355   5.669585
    25  O    5.608461   5.116645   5.620839   7.070760   7.790795
    26  N    5.481283   4.348340   4.758832   6.249551   6.974723
    27  O    6.337605   5.090043   5.314846   6.728562   7.334064
    28  O    4.881155   3.890795   4.682636   6.118769   7.047120
    29  H    7.288699   6.017730   5.680871   7.029409   7.236453
    30  H    5.468417   4.346457   3.829066   5.219078   5.438931
    31  H    6.585804   5.657529   5.304520   6.701601   6.896282
    32  H    7.655733   6.811007   6.981744   8.497080   8.973108
    33  H    7.857408   6.800498   6.978807   8.491971   8.985836
    34  H    7.107838   6.454109   7.125337   8.635744   9.425482
                    6          7          8          9         10
     6  N    0.000000
     7  O    1.202198   0.000000
     8  O    1.206469   2.136456   0.000000
     9  N    2.445892   2.636359   3.539987   0.000000
    10  O    2.876540   2.907629   3.944660   1.206959   0.000000
    11  O    3.352056   3.393856   4.435544   1.208875   2.141972
    12  H    2.800737   3.987144   2.217829   4.042314   4.412742
    13  H    3.462688   4.374308   3.885446   2.597895   2.998181
    14  H    2.819289   3.689650   3.132176   2.761237   2.605950
    15  H    2.652611   3.577426   2.606831   3.435050   4.422881
    16  H    3.400940   4.123142   3.876255   2.759675   3.877106
    17  H    3.279555   3.315812   4.067423   2.753093   3.894239
    18  O    5.481149   4.881099   6.337671   4.923050   3.849659
    19  C    4.348157   3.890742   5.090107   4.210232   3.172046
    20  C    4.758966   4.682873   5.315231   4.591947   3.484195
    21  C    6.249717   6.118965   6.729066   6.090387   4.944734
    22  O    6.975022   7.047430   7.334661   6.784479   5.669164
    23  N    4.148160   4.327957   4.389068   4.645821   3.777591
    24  O    3.010008   3.372534   3.221678   3.777822   3.141970
    25  O    5.062731   5.276274   5.079368   5.813880   4.981686
    26  N    4.979182   5.083267   5.651764   4.147676   3.009270
    27  O    5.651553   5.596765   6.480848   4.388331   3.220848
    28  O    5.083153   5.456768   5.596881   4.327427   3.371588
    29  H    5.604567   5.084344   6.553054   4.616040   3.510001
    30  H    3.393432   2.888616   4.273147   3.198313   2.282015
    31  H    4.535062   3.989391   5.105499   4.919441   4.013378
    32  H    6.450445   6.218071   6.837950   6.629417   5.538695
    33  H    6.785224   6.539856   7.408593   6.298134   5.103828
    34  H    6.876307   7.038059   7.078254   6.989600   5.950738
                   11         12         13         14         15
    11  O    0.000000
    12  H    4.941674   0.000000
    13  H    3.206369   2.813156   0.000000
    14  H    3.837674   2.337442   1.779435   0.000000
    15  H    3.746563   2.642030   3.163287   3.735043   0.000000
    16  H    2.625623   3.660232   2.530900   3.772298   1.784819
    17  H    2.228646   4.985265   4.242986   4.912092   2.815421
    18  O    5.607149   7.288527   6.586182   5.468763   7.857188
    19  C    5.115307   6.017484   5.657785   4.346794   6.800284
    20  C    5.620182   5.680916   5.305304   3.829645   6.979022
    21  C    7.069975   7.029663   6.702530   5.219761   8.492284
    22  O    7.790550   7.236856   6.897612   5.439726   8.986415
    23  N    5.813776   4.616462   4.920668   3.199511   6.298890
    24  O    4.981872   3.510087   4.014251   2.282992   5.104597
    25  O    6.995735   5.187923   5.862150   4.100645   7.149855
    26  N    5.062218   5.604425   4.535719   3.393494   6.785194
    27  O    5.078495   6.552758   5.105869   4.272944   7.408234
    28  O    5.275907   5.084099   3.989983   2.888363   6.539738
    29  H    5.186979   7.329175   6.253929   5.335071   7.781924
    30  H    4.098975   5.334730   4.905303   3.759269   5.813207
    31  H    5.860413   6.253392   6.350392   4.905562   7.129540
    32  H    7.638462   7.365128   7.385284   5.798200   8.847303
    33  H    7.148747   7.781939   7.130100   5.813522   9.019861
    34  H    8.071252   6.903133   6.914767   5.346532   8.854525
                   16         17         18         19         20
    16  H    0.000000
    17  H    2.279758   0.000000
    18  O    7.655030   7.106572   0.000000
    19  C    6.810344   6.452839   1.385046   0.000000
    20  C    6.981697   7.124669   2.446077   1.562663   0.000000
    21  C    8.497068   8.634964   2.855316   2.557839   1.537573
    22  O    8.973565   9.425143   4.162262   3.803597   2.440350
    23  N    6.630034   6.989430   3.709081   2.474103   1.504608
    24  O    5.539357   5.950894   4.161916   2.816360   2.313995
    25  O    7.639477   8.071128   4.497392   3.369750   2.332388
    26  N    6.450254   6.875741   3.091647   2.558849   1.519590
    27  O    6.837327   7.077369   2.835627   2.854886   2.304596
    28  O    6.217936   7.037565   4.274181   3.578927   2.349535
    29  H    7.364644   6.902294   0.969654   1.925084   2.673163
    30  H    5.797248   5.345217   2.089541   1.109969   2.227517
    31  H    7.384293   6.912949   1.998548   1.101729   2.140546
    32  H    9.030787   9.011796   3.062089   2.729646   2.143175
    33  H    8.846870   8.853490   2.479388   2.737348   2.129266
    34  H    9.012781   9.554170   4.725855   4.129529   2.726878
                   21         22         23         24         25
    21  C    0.000000
    22  O    1.388714   0.000000
    23  N    2.517717   2.982101   0.000000
    24  O    3.622928   4.114008   1.206955   0.000000
    25  O    2.668899   2.811989   1.208877   2.141959   0.000000
    26  N    2.445715   2.807147   2.446031   2.876438   3.352458
    27  O    2.892567   3.367648   3.540080   3.944610   4.435827
    28  O    3.176772   3.059106   2.636619   2.907301   3.394718
    29  H    3.175790   4.315096   4.042353   4.413125   4.941425
    30  H    3.530762   4.648743   2.761386   2.606428   3.837681
    31  H    2.808937   4.090055   2.597730   2.998159   3.205891
    32  H    1.104688   2.094883   2.759787   3.877309   2.625604
    33  H    1.098076   2.014996   3.435036   4.422898   3.746527
    34  H    1.927395   0.967618   2.753118   3.894179   2.228767
                   26         27         28         29         30
    26  N    0.000000
    27  O    1.206477   0.000000
    28  O    1.202185   2.136450   0.000000
    29  H    2.800748   2.217721   3.987128   0.000000
    30  H    2.818650   3.131315   3.688926   2.337296   0.000000
    31  H    3.462658   3.885378   4.374247   2.813167   1.779512
    32  H    3.401023   3.876153   4.123591   3.659445   3.772239
    33  H    2.652487   2.606636   3.577479   2.641492   3.734843
    34  H    3.280173   4.068021   3.316970   4.985098   4.912116
                   31         32         33         34
    31  H    0.000000
    32  H    2.531190   0.000000
    33  H    3.163909   1.784808   0.000000
    34  H    4.243096   2.279759   2.815418   0.000000
 Framework group  C1[X(C6H12N4O12)]
 Deg. of freedom    96
                         Standard orientation:                         
 ---------------------------------------------------------------------
 Center     Atomic      Atomic             Coordinates (Angstroms)
 Number     Number       Type             X           Y           Z
 ---------------------------------------------------------------------
      1          8           0        2.569387   -2.286042    1.332777
      2          6           0        1.897751   -1.074736    1.332011
      3          6           0        2.488685   -0.077773    0.283791
      4          6           0        4.022787   -0.023689    0.371738
      5          8           0        4.590430    0.804869   -0.587317
      6          7           0        2.158480   -0.481293   -1.143501
      7          8           0        1.881354    0.375420   -1.940072
      8          8           0        2.415674   -1.626927   -1.420885
      9          7           0        1.868865    1.269061    0.540177
     10          8           0        0.663263    1.323900    0.523857
     11          8           0        2.599014    2.184611    0.840224
     12          1           0        2.381850   -2.740337    0.496910
     13          1           0        2.083975   -0.615071    2.315800
     14          1           0        0.798270   -1.182516    1.224305
     15          1           0        4.383542   -1.044123    0.186412
     16          1           0        4.282361    0.251717    1.409579
     17          1           0        4.443068    1.724097   -0.323502
     18          8           0       -2.569010    2.286027   -1.332646
     19          6           0       -1.897361    1.074731   -1.331674
     20          6           0       -2.488661    0.077750   -0.283671
     21          6           0       -4.022773    0.024150   -0.371753
     22          8           0       -4.590751   -0.804665    0.586887
     23          7           0       -1.869240   -1.269216   -0.540276
     24          8           0       -0.663673   -1.324571   -0.523435
     25          8           0       -2.599620   -2.184320   -0.841129
     26          7           0       -2.158324    0.481169    1.143663
     27          8           0       -2.415238    1.626882    1.421017
     28          8           0       -1.881061   -0.375491    1.940223
     29          1           0       -2.381818    2.740270   -0.496673
     30          1           0       -0.797975    1.182556   -1.223254
     31          1           0       -2.083084    0.615128   -2.315584
     32          1           0       -4.282341   -0.250691   -1.409743
     33          1           0       -4.383238    1.044606   -0.185992
     34          1           0       -4.443806   -1.723826    0.322626
 ---------------------------------------------------------------------
 Rotational constants (GHZ):           0.5118021           0.1805473           0.1686195
   332 basis functions,   598 primitive gaussians,   354 cartesian basis functions
    86 alpha electrons       86 beta electrons
       nuclear repulsion energy      2189.8771055104 Hartrees.
 NAtoms=   34 NActive=   34 NUniq=   34 SFac= 1.00D+00 NAtFMM=   60 NAOKFM=F Big=F
 Nuclear repulsion after empirical dispersion term =     2189.8496743077 Hartrees.
   1 Symmetry operations used in ECPInt.
 ECPInt:  NShTT=   12246 NPrTT=   49150 LenC2=   11084 LenP2D=   29676.
 LDataN:  DoStor=T MaxTD1= 4 Len=   56
 Initial guess from the checkpoint file:  "dimer.chk"
 B after Tr=    -0.000000   -0.000000    0.000000
         Rot=    0.999809   -0.006903    0.017490    0.005422 Ang=  -2.24 deg.
 ExpMin= 1.22D-01 ExpMax= 2.27D+03 ExpMxC= 3.41D+02 IAcc=3 IRadAn=         5 AccDes= 0.00D+00
 Harris functional with IExCor= 4639 and IRadAn=       5 diagonalized for initial guess.
 HarFok:  IExCor= 4639 AccDes= 0.00D+00 IRadAn=         5 IDoV= 1 UseB2=F ITyADJ=14
 ICtDFT=  3500011 ScaDFX=  1.000000  1.000000  1.000000  1.000000
 FoFCou: FMM=F IPFlag=           0 FMFlag=      100000 FMFlg1=           0
         NFxFlg=           0 DoJE=T BraDBF=F KetDBF=T FulRan=T
         wScrn=  0.000000 ICntrl=       500 IOpCl=  0 I1Cent=   200000004 NGrid=           0
         NMat0=    1 NMatS0=      1 NMatT0=    0 NMatD0=    1 NMtDS0=    0 NMtDT0=    0
 Petite list used in FoFCou.
     Minimum is close to point  4 DX=  3.06D-02 DF= -3.83D-05 DXR=  2.48D-02 DFR=  6.18D-04 which will be used.
     Minimum is close to point  2 DX=  1.03D-02 DF= -8.88D-07 DXR=  1.02D-02 DFR=  1.04D-04 which will be used.
     Accept linear search using points  1 and  2.
     Minimum is close to point  2 DX= -3.45D-02 DF= -6.12D-06 DXR=  3.98D-02 DFR=  1.28D-03 which will be used.
     Minimum is close to point  2 DX=  2.84D-02 DF= -2.72D-06 DXR=  3.06D-02 DFR=  9.39D-04 which will be used.
     Minimum is close to point  2 DX=  9.39D-02 DF= -1.70D-05 DXR=  9.45D-02 DFR=  9.00D-03 which will be used.
     Minimum is close to point  2 DX=  7.27D-02 DF= -6.11D-06 DXR=  6.78D-02 DFR=  4.62D-03 which will be used.
     Accept linear search using points  1 and  2.
     Minimum is close to point  2 DX= -7.00D-02 DF= -5.30D-06 DXR=  7.53D-02 DFR=  5.70D-03 which will be used.
     Accept linear search using points  1 and  2.
 Restarting incremental Fock formation.
     Accept linear search using points  1 and  2.
     Accept linear search using points  1 and  2.
     Accept linear search using points  1 and  2.
     Accept linear search using points  1 and  2.
 Restarting incremental Fock formation.
     Accept linear search using points  1 and  2.
     Accept linear search using points  1 and  2.
     Accept linear search using points  1 and  2.
     Minimum is close to point  2 DX= -8.11D-04 DF= -1.83D-10 DXR=  8.11D-04 DFR=  6.59D-07 which will be used.
     Minimum is close to point  2 DX= -4.58D-05 DF=  0.00D+00 DXR=  4.58D-05 DFR=  0.00D+00 which will be used.
 SCF Done:  E(RwB97XD) =  -1355.63724208     a.u. after   24 cycles
            Convg  =    0.1077D-07                    80 Fock formations.
              S**2 =  0.0000                  -V/T =  2.0068
   1 Symmetry operations used in ECPInt.
 ECPInt:  NShTT=   12246 NPrTT=   49150 LenC2=   11084 LenP2D=   29676.
 LDataN:  DoStor=T MaxTD1= 5 Len=  102
 Calling FoFJK, ICntrl=      2127 FMM=F ISym2X=0 I1Cent= 0 IOpClX= 0 NMat=1 NMatS=1 NMatT=0.

 GradGradGradGradGradGradGradGradGradGradGradGradGradGradGradGradGradGrad
 Using GEDIIS/GDIIS optimizer.
 FormGI is forming the generalized inverse of G from B-inverse, IUseBI=4.
 Internal  Forces:  Max     0.008503517 RMS     0.003065879
 Step number   2 out of a maximum of  184
 All quantities printed in internal units (Hartrees-Bohrs-Radians)
 Mixed Optimization -- RFO/linear search
 Trust test= 1.07D-01 RLast= 6.10D-01 DXMaxT set to 3.00D-01
 ITU=  0  0
 Use linear search instead of GDIIS.
     Eigenvalues ---    0.00229   0.00230   0.00230   0.00253   0.00255
     Eigenvalues ---    0.00267   0.00472   0.00588   0.00984   0.01191
     Eigenvalues ---    0.01572   0.01629   0.01674   0.01828   0.01831
     Eigenvalues ---    0.01926   0.01927   0.02878   0.03249   0.03646
     Eigenvalues ---    0.03726   0.04297   0.04699   0.04765   0.04802
     Eigenvalues ---    0.04820   0.04824   0.05457   0.05589   0.05802
     Eigenvalues ---    0.06133   0.06140   0.06157   0.06437   0.08594
     Eigenvalues ---    0.08691   0.09159   0.09449   0.11445   0.11526
     Eigenvalues ---    0.13337   0.14005   0.14007   0.15302   0.15358
     Eigenvalues ---    0.15361   0.15914   0.16000   0.16000   0.16000
     Eigenvalues ---    0.16976   0.18049   0.18188   0.19757   0.20892
     Eigenvalues ---    0.22111   0.22113   0.22740   0.24852   0.24922
     Eigenvalues ---    0.24940   0.25000   0.25000   0.25520   0.26424
     Eigenvalues ---    0.27485   0.27806   0.28474   0.31488   0.32064
     Eigenvalues ---    0.32257   0.32337   0.33379   0.33986   0.34004
     Eigenvalues ---    0.34207   0.34284   0.34335   0.34342   0.34688
     Eigenvalues ---    0.47411   0.47431   0.48630   0.48703   0.53249
     Eigenvalues ---    0.53258   0.53841   0.53856   0.96180   0.99904
     Eigenvalues ---    1.02136   1.03022   1.03942   1.05170   1.05291
     Eigenvalues ---    1.05312
 Quartic linear search produced a step of -0.48850.
 Iteration  1 RMS(Cart)=  0.06580331 RMS(Int)=  0.00947950
 Iteration  2 RMS(Cart)=  0.00980129 RMS(Int)=  0.00505676
 Iteration  3 RMS(Cart)=  0.00018210 RMS(Int)=  0.00505437
 Iteration  4 RMS(Cart)=  0.00000297 RMS(Int)=  0.00505437
 Iteration  5 RMS(Cart)=  0.00000006 RMS(Int)=  0.00505437
 Variable       Old X    -DE/DX   Delta X   Delta X   Delta X     New X
                                 (Linear)    (Quad)   (Total)
    R1        2.61736   0.00098  -0.00263   0.00827   0.00564   2.62300
    R2        1.83238   0.00084   0.00090  -0.00170  -0.00080   1.83158
    R3        2.95300  -0.00850  -0.00151  -0.01142  -0.01294   2.94006
    R4        2.08197   0.00111  -0.00656   0.01956   0.01300   2.09497
    R5        2.09758  -0.00503  -0.01088   0.02246   0.01157   2.10915
    R6        2.90559   0.00036   0.00980  -0.02600  -0.01620   2.88939
    R7        2.87153  -0.00550  -0.01010   0.01899   0.00890   2.88043
    R8        2.84331   0.00006  -0.01745   0.04785   0.03040   2.87371
    R9        2.62428  -0.00172   0.00071  -0.00377  -0.00306   2.62123
   R10        2.07507  -0.00002  -0.00365   0.00998   0.00633   2.08139
   R11        2.08756   0.00072  -0.00699   0.02017   0.01319   2.10075
   R12        1.82854   0.00109   0.00012   0.00068   0.00080   1.82934
   R13        2.27183   0.00245  -0.00291   0.00931   0.00640   2.27822
   R14        2.27990   0.00716  -0.00661   0.02190   0.01529   2.29519
   R15        2.28082   0.00071  -0.00128   0.00394   0.00266   2.28348
   R16        2.28444   0.00115  -0.00485   0.01410   0.00926   2.29370
   R17        4.31238   0.00083  -0.02897   0.07049   0.04152   4.35390
   R18        4.31423   0.00082  -0.02893   0.07024   0.04131   4.35554
   R19        2.61736   0.00098  -0.00262   0.00825   0.00562   2.62298
   R20        1.83238   0.00084   0.00090  -0.00170  -0.00080   1.83158
   R21        2.95300  -0.00849  -0.00151  -0.01141  -0.01292   2.94009
   R22        2.09754  -0.00502  -0.01087   0.02246   0.01159   2.10913
   R23        2.08197   0.00111  -0.00657   0.01957   0.01300   2.09497
   R24        2.90559   0.00035   0.00979  -0.02599  -0.01620   2.88939
   R25        2.84330   0.00005  -0.01746   0.04786   0.03040   2.87369
   R26        2.87161  -0.00552  -0.01009   0.01894   0.00885   2.88046
   R27        2.62429  -0.00172   0.00068  -0.00369  -0.00301   2.62128
   R28        2.08756   0.00072  -0.00700   0.02021   0.01321   2.10077
   R29        2.07506  -0.00002  -0.00367   0.01002   0.00635   2.08142
   R30        1.82853   0.00109   0.00010   0.00073   0.00083   1.82937
   R31        2.28081   0.00072  -0.00127   0.00391   0.00263   2.28345
   R32        2.28445   0.00115  -0.00484   0.01410   0.00925   2.29370
   R33        2.27991   0.00716  -0.00661   0.02191   0.01530   2.29521
   R34        2.27180   0.00246  -0.00292   0.00934   0.00642   2.27822
    A1        1.89176   0.00023   0.00870  -0.02233  -0.01363   1.87813
    A2        1.95515   0.00193   0.00246  -0.00643  -0.00337   1.95177
    A3        1.85712   0.00043   0.00122   0.01467   0.01604   1.87316
    A4        1.97737   0.00046  -0.00540   0.00842   0.00370   1.98107
    A5        1.84303   0.00039   0.02204  -0.04134  -0.01932   1.82370
    A6        1.95135  -0.00539  -0.02974   0.03259   0.00279   1.95414
    A7        1.86982   0.00258   0.01311  -0.01339  -0.00086   1.86895
    A8        1.94054  -0.00006   0.00251   0.00657   0.00891   1.94945
    A9        1.95894  -0.00268  -0.02415   0.04651   0.02217   1.98111
[...]
 000128,0.00000086,-0.00007675,-0.00003346,-0.00001179,-0.00000972,-0.0
 0000413,-0.00000197,0.00001206,0.00000042,0.00000508,-0.00005076,0.000
 05928,-0.00003213,0.01785277,-0.12430452,-0.15453751,0.00642343,-0.027
 98380,-0.03669189,0.00022719,-0.00022469,-0.00203149,0.00067164,-0.000
 54533,0.00060266,-0.00056842,0.00058172,-0.00034335,-0.00108479,-0.000
 91796,-0.00073210,0.00064270,0.00050542,0.00032666,0.00010560,0.000906
 14,0.00022069,-0.00179540,-0.00738084,0.00232807,0.00020832,0.00349048
 ,-0.00288912,0.00142733,0.00222969,-0.00112768,-0.02134406,0.15664121,
 -0.00014546,-0.00005379,-0.00011336,0.00015966,-0.00001736,0.00003217,
 -0.00010393,0.00002259,0.00010407,0.00002390,-0.00004674,0.00001442,-0
 .00002304,0.00004402,-0.00010162,-0.00034346,-0.00062013,0.00058510,0.
 00040332,0.00030717,-0.00042249,0.00007468,0.00038063,-0.00014593,0.00
 028389,-0.00016161,0.00016114,-0.00027380,0.00002559,-0.00044046,-0.00
 020830,0.00013254,-0.00003186,0.00003688,-0.00002824,0.00009728,0.0000
 4570,0.00001505,-0.00003422,0.00008157,0.00005197,0.00011519,-0.000007
 03,-0.00000248,0.00000786,0.00002614,-0.00000579,-0.00001521,-0.000005
 13,-0.00001122,0.00005315,0.08345272,-0.19736628,-0.37228777,0.0007035
 7,-0.00054218,0.00115209,0.00015558,0.00240533,0.00075293,0.00013907,-
 0.00019103,-0.00019296,-0.00003765,0.00008191,-0.00041385,0.00040350,-
 0.00016226,-0.00115259,-0.00023531,0.00017565,-0.00016845,-0.00038497,
 0.00021377,0.00031849,0.00144219,0.01216004,0.00401213,0.00028965,-0.0
 0738681,-0.00507774,-0.00129141,-0.00500992,0.00068397,-0.08528627,0.1
 9305468,0.37010658,-0.00004801,0.00006113,-0.00009993,0.00012848,-0.00
 008596,0.00009582,0.00006465,0.00017007,0.00006664,-0.00010627,0.00001
 150,-0.00008851,0.00006360,-0.00003724,0.00001236,-0.00132999,-0.00194
 048,0.00125906,-0.00020141,0.00065191,-0.00108514,0.00013794,0.0008359
 0,-0.00022855,-0.00133407,-0.00015488,0.00067584,-0.00067075,-0.000201
 10,0.00119879,-0.00024969,0.00026572,-0.00020158,0.00004090,-0.0000767
 4,0.00008157,-0.00000737,0.00001925,-0.00003232,0.00002979,0.00002378,
 -0.00000743,0.00000023,-0.00000881,0.00000679,0.00004641,-0.00000503,-
 0.00000481,-0.00001753,0.00003548,0.00001183,-0.01013610,-0.01047414,0
 .00063996,-0.30979673,0.02638650,0.04299257,-0.01236075,0.00423920,0.0
 0024115,0.00072644,0.00055645,-0.00118622,-0.00042033,0.00014532,-0.00
 009130,-0.00286374,0.00062779,-0.00154732,0.00142961,-0.00307379,0.000
 97565,0.00093018,-0.00018092,0.00003484,0.00139102,0.00109190,0.001630
 06,-0.00011306,-0.00056474,-0.00023584,-0.00029806,-0.00001333,-0.0000
 9130,0.00029486,-0.00039094,0.00100506,0.33483702,0.00003069,-0.000019
 78,-0.00002057,-0.00006015,0.00000752,-0.00009537,-0.00018818,0.000108
 65,-0.00004617,-0.00008389,-0.00000710,-0.00005525,0.00003621,-0.00006
 818,0.00001102,-0.00094785,-0.00109456,0.00071787,0.00038016,0.0002721
 0,-0.00053718,0.00008007,0.00019584,-0.00008549,0.00116016,0.00031896,
 -0.00019132,-0.00072647,0.00018367,0.00013364,-0.00028865,0.00002077,0
 .00012787,-0.00002338,-0.00003346,0.00005197,0.00002447,0.00001910,-0.
 00002777,0.00002379,-0.00010851,0.00019375,-0.00001867,-0.00000901,0.0
 0000044,0.00003680,-0.00000004,-0.00000808,0.00003639,0.00004416,0.000
 01781,-0.04278023,-0.00929516,0.00600215,0.03059431,-0.05463989,-0.007
 17169,0.02014263,-0.00197442,-0.00240332,-0.00155981,-0.00261500,0.002
 79743,0.00188704,-0.00029694,0.00074743,0.00359950,0.00104546,0.000736
 91,-0.00248492,-0.00159707,0.00013432,-0.00129097,0.00056487,-0.000484
 63,-0.00023950,0.00001323,-0.00202085,0.00013794,0.00088380,0.00016715
 ,-0.00013221,-0.00015092,0.00040344,-0.00031924,0.00195904,0.00169190,
 -0.01834377,0.06556055,-0.00005286,-0.00022117,-0.00004005,0.00002292,
 0.00002245,-0.00011301,0.00019565,0.00027780,0.00002189,-0.00003037,-0
 .00012569,-0.00001675,-0.00002645,-0.00005974,-0.00009353,-0.00060915,
 -0.00111610,0.00159370,0.00040066,0.00029173,-0.00131086,0.00028034,0.
 00073979,-0.00038118,0.00338783,0.00007694,0.00088640,-0.00117089,-0.0
 0090350,-0.00118570,-0.00145482,0.00074097,-0.00030855,-0.00001570,-0.
 00001179,0.00011518,-0.00000728,0.00003799,-0.00005760,-0.00000744,0.0
 0019375,-0.00010075,-0.00006366,-0.00001107,-0.00000324,0.00006260,0.0
 0000751,-0.00003032,0.00012273,0.00005961,0.00011671,0.00020863,0.0014
 1613,0.00483698,0.04794174,-0.00816422,-0.06150968,-0.02683972,0.00806
 678,-0.00104199,0.00208679,0.00273694,-0.00300064,-0.00233946,0.000564
 65,-0.00055042,-0.00118316,-0.00174161,-0.00048384,0.00060474,0.000852
 82,-0.00021539,0.00015216,0.00037059,0.00062327,-0.00130801,0.00058093
 ,0.00316662,0.00017383,-0.00111598,-0.00047189,0.00002475,-0.00001422,
 -0.00020137,-0.00162408,0.00033711,0.00008017,-0.04596120,0.00005714,0
 .06092208,-0.00001464,-0.00009879,-0.00000705,0.00000746,0.00003561,-0
 .00007539,0.00006655,0.00018248,-0.00002043,-0.00001088,-0.00004745,-0
 .00000277,-0.00001477,-0.00003258,-0.00004380,-0.00030159,-0.00016593,
 0.00057339,0.00038264,0.00003493,-0.00043081,0.00017400,0.00005362,-0.
 00017474,0.00125349,-0.00008674,0.00029813,-0.00115576,-0.00023431,0.0
 0053907,-0.00061870,0.00038233,-0.00017692,-0.00001022,0.00000230,0.00
 004570,-0.00001058,0.00001567,-0.00002496,-0.00000737,0.00002447,-0.00
 000728,-0.00002696,-0.00000419,-0.00000157,0.00002550,0.00000345,-0.00
 001477,0.00006120,0.00003116,0.00005349,0.00376673,-0.01239864,-0.0173
 6094,-0.06116073,0.02099124,0.04661660,0.00152888,-0.00438723,-0.01567
 498,0.00022543,-0.00039841,-0.00069664,-0.00005569,-0.00002757,0.00047
 319,0.00170128,-0.00103352,0.00074186,-0.00053657,-0.00019400,-0.00048
 572,-0.00054565,0.00009201,0.00012350,-0.00157911,0.00378735,-0.000111
 04,0.00017351,-0.00088699,0.00016536,0.00082185,-0.00018483,-0.0010059
 7,-0.00085287,-0.00330621,-0.00051164,-0.00036437,0.01145881,0.0270494
 7,0.05748653,-0.00002804,-0.00000588,-0.00002322,0.00003703,-0.0000021
 5,0.00000764,-0.00003186,-0.00003931,0.00002874,-0.00000167,0.00000953
 ,-0.00000726,0.00000410,0.00000566,0.00000179,-0.00002318,0.00000988,0
 .00003035,0.00006033,-0.00001103,0.00001673,0.00000725,-0.00000382,-0.
 00000835,-0.00018211,0.00000353,-0.00003661,0.00018089,0.00006514,-0.0
 0015526,0.00006799,-0.00003327,0.00002706,-0.00000011,-0.00000128,0.00
 001505,0.00001567,-0.00000203,-0.00000326,0.00001925,0.00001910,0.0000
 3799,0.00000410,-0.00000012,0.00000273,0.00000093,-0.00000273,0.000001
 80,-0.00001388,-0.00000477,-0.00000922,-0.00016052,-0.02716966,-0.0331
 5690,0.01925261,-0.08887078,-0.09058681,-0.00334655,0.00834228,0.01851
 223,-0.00022022,0.00051530,-0.00030693,0.00006285,-0.00007763,-0.00012
 459,-0.00089375,0.00108894,0.00107809,-0.00006993,-0.00040853,0.000202
 93,0.00015396,-0.00013065,-0.00014622,0.00352768,-0.00376711,0.0013591
 3,-0.00041811,0.00127394,0.00006153,-0.00126108,0.00012817,0.00157216,
 -0.00383519,-0.00462753,0.00095122,0.00057150,0.00027393,-0.00357490,-
 0.01390172,0.11357289,0.00002710,0.00004439,0.00002834,-0.00002353,-0.
 00000727,0.00002088,0.00001718,-0.00005115,-0.00002054,0.00001442,0.00
 001178,0.00001070,-0.00000394,0.00001093,0.00001359,0.00019478,0.00001
 874,-0.00025833,-0.00015194,0.00000318,0.00013557,-0.00007982,0.000005
 25,0.00007833,-0.00028609,-0.00004073,-0.00007526,0.00024950,0.0000663
 1,0.00004590,0.00013662,-0.00004008,0.00001955,0.00001426,0.00000086,-
 0.00003422,-0.00002496,-0.00000326,0.00001651,-0.00003232,-0.00002777,
 -0.00005760,0.00000819,0.00000202,-0.00000154,-0.00001357,0.00000101,0
 .00000433,-0.00000787,-0.00001111,-0.00001322,-0.00191621,-0.00073478,
 0.00629455,0.03967039,-0.09906552,-0.27274757,0.00416229,-0.00761370,-
 0.02218403,0.00097584,-0.00036850,0.00032405,-0.00007942,0.00022405,0.
 00060850,-0.00137123,-0.00108424,-0.00024477,0.00095820,0.00031342,0.0
 0050843,-0.00006888,0.00054554,-0.00003499,-0.00293897,0.00294462,-0.0
 0001038,0.00022329,-0.00004654,0.00012617,0.00106920,0.00016864,-0.001
 35690,0.00001530,0.00129332,0.00177230,-0.00024571,-0.00088802,-0.0015
 0269,-0.03966380,0.10404799,0.28843534,-0.00004204,-0.00006926,-0.0000
 2220,0.00003996,0.00003271,-0.00002854,-0.00001824,0.00002744,0.000029
 75,0.00000720,-0.00001282,-0.00000387,-0.00001331,-0.00000073,-0.00002
 006,-0.00007595,0.00008074,0.00013498,0.00005097,-0.00002248,-0.000063
 13,0.00004014,-0.00005745,-0.00006008,0.00022762,-0.00000157,0.0000466
 1,-0.00017151,-0.00003240,-0.00009558,-0.00012593,0.00005406,-0.000009
 44,-0.00001496,0.00001206,0.00002614,0.00002550,0.00000093,-0.00001357
 ,0.00004641,0.00003680,0.00006260,-0.00000601,-0.00000066,0.00000060,0
 .00000883,0.00000020,-0.00000409,0.00001256,0.00000454,0.00001334,-0.0
 0002477,0.00021836,-0.00042334,0.00145295,-0.00036421,0.00113734,-0.01
 475133,0.01497245,0.03032329,-0.07344179,0.02898701,0.06645314,0.00652
 039,-0.00332794,-0.02169566,-0.00085340,0.00231479,0.00048157,0.001069
 74,-0.00018252,0.00010986,0.00124859,-0.00151078,-0.00022415,-0.007904
 79,-0.00108693,-0.00444513,0.00112991,0.00070352,0.00107095,0.00071794
 ,-0.00072655,0.00260417,-0.00004308,-0.00024295,0.00022190,0.00006309,
 -0.00027425,-0.00022523,-0.00038358,0.00016802,-0.00084112,0.08006945,
 0.00003355,0.00000840,0.00000873,-0.00004176,-0.00000481,-0.00000991,0
 .00000140,0.00000563,-0.00000770,-0.00002169,0.00000631,-0.00000638,0.
 00002122,-0.00001294,0.00001657,0.00000116,0.00008969,-0.00003285,-0.0
 0001926,-0.00003271,0.00003431,0.00001335,-0.00005773,0.00000731,-0.00
 005903,0.00004354,-0.00000835,0.00003867,-0.00001845,0.00002643,0.0000
 3291,-0.00003526,0.00000187,-0.00002192,0.00000042,-0.00000579,0.00000
 345,-0.00000273,0.00000101,-0.00000503,-0.00000004,0.00000751,-0.00000
 167,-0.00000023,-0.00000047,0.00000020,-0.00000035,0.00000162,-0.00000
 863,0.00000543,-0.00000612,-0.00000980,-0.00009181,0.00088147,0.000387
 37,0.00011021,-0.00047826,-0.00526338,0.00047605,0.00042954,0.03322022
 ,-0.09454917,-0.09078861,-0.00300323,0.00872738,0.02372675,0.00040863,
 -0.00048693,0.00045746,0.00039029,0.00025203,0.00019098,-0.00149855,-0
 .00121791,0.00033654,-0.00094468,-0.00104175,-0.00079602,0.00095272,0.
 00082499,-0.00004116,0.00054599,0.00030101,-0.00009264,-0.00038171,0.0
 0023000,-0.00019364,0.00002559,0.00008185,0.00006029,0.00029536,-0.000
 01725,0.00016476,-0.03449959,0.09152671,-0.00000170,-0.00000610,0.0000
 1731,0.00001211,0.00001361,-0.00000170,0.00000993,-0.00000815,-0.00000
 585,0.00000999,0.00000249,-0.00000093,-0.00000935,0.00000151,0.0000066
 0,0.00005047,-0.00002940,-0.00006016,-0.00002896,0.00000329,0.00003129
 ,-0.00002474,0.00002169,0.00002423,0.00000514,-0.00002331,-0.00000259,
 -0.00001078,0.00001487,0.00003275,-0.00000188,0.00001410,-0.00000033,0
 .00001006,0.00000508,-0.00001521,-0.00001477,0.00000180,0.00000433,-0.
 00000481,-0.00000808,-0.00003032,0.00000147,0.00000051,-0.00000163,-0.
 00000409,0.00000162,0.00000167,0.00000498,-0.00000281,-0.00000377,0.00
 017071,-0.00011730,0.00016942,0.00043163,0.00050484,0.00004460,0.00307
 895,-0.00228122,-0.00211391,0.06533811,-0.08612119,-0.24165264,-0.0008
 5799,0.00260116,-0.03236039,0.00125023,-0.00172402,0.00007651,-0.00054
 336,0.00027314,-0.00012525,-0.00152076,0.00004645,0.00127040,-0.001194
 10,0.00033950,0.00035288,0.00006455,0.00011128,0.00032181,0.00007408,-
 0.00025430,0.00062419,-0.00006275,0.00003445,-0.00003457,0.00002338,-0
 .00014198,0.00027335,-0.00008309,0.00002686,0.00025885,-0.06572040,0.0
 8922455,0.27187843,-0.00001778,0.00004197,0.00000002,0.00004378,-0.000
 02856,0.00003435,0.00000388,-0.00003857,-0.00000625,0.00001070,0.00000
 779,0.00000612,-0.00000116,0.00001529,-0.00000442,0.00002981,-0.000269
 56,0.00000014,0.00004564,0.00010022,-0.00003744,-0.00004053,0.00017836
 ,0.00002702,-0.00017266,-0.00004572,-0.00003357,0.00013864,0.00007710,
 -0.00000732,0.00008484,-0.00001378,0.00001056,0.00004114,-0.00000972,-
 0.00000703,-0.00002696,0.00000410,0.00000819,0.00000023,-0.00001867,-0
 .00006366,0.00000710,0.00000036,0.00000186,-0.00000601,-0.00000167,0.0
 0000147,-0.00001294,-0.00000969,-0.00000470,0.00127901,0.00152315,0.00
 051863,-0.00067892,-0.00267400,-0.00013034,-0.01223648,-0.03123100,-0.
 00307372,-0.07938840,-0.08748437,-0.00324651,0.00562908,0.02100907,-0.
 00228110,-0.00570601,0.00310555,0.00111180,-0.00221044,-0.00234464,-0.
 00077769,0.00043731,-0.00023623,-0.00002699,0.00058343,-0.00388303,-0.
 00152847,0.00059989,0.00218220,0.00033293,0.00016350,0.00079947,-0.000
 04740,-0.00098733,0.00094854,-0.00002591,0.00017838,0.00011690,0.00008
 712,-0.00009813,0.00024811,-0.00002960,0.00513005,0.01044563,0.0009381
 5,0.08737297,0.00001327,0.00001602,0.00000306,-0.00001493,-0.00000765,
 0.00000515,0.00000224,-0.00000109,-0.00000546,-0.00000617,0.00000218,0
 .,0.00000709,-0.00000250,0.00000430,0.00000380,0.00000140,-0.00001199,
 0.00000355,0.00000106,0.00000875,0.00000285,-0.00000085,0.00000567,-0.
 00004576,0.00001614,-0.00000752,0.00003334,-0.00000422,0.00001558,0.00
 002540,-0.00002031,0.00000106,-0.00000085,-0.00000413,-0.00000248,-0.0
 0000419,-0.00000012,0.00000202,-0.00000881,-0.00000901,-0.00001107,0.0
 0000036,-0.00000011,0.00000008,-0.00000066,-0.00000023,0.00000051,-0.0
 0000401,0.00000120,-0.00000204,0.00281176,-0.00192513,0.00156251,-0.00
 063299,-0.00039004,0.00077162,-0.00298637,0.00068563,-0.00127450,-0.08
 427510,-0.30027795,-0.02141251,-0.00041526,-0.01788937,0.00541431,0.00
 245167,0.00016137,0.00002777,0.00004610,0.00045769,0.00019119,-0.00054
 811,0.00018145,-0.00002497,-0.00070183,-0.00091532,0.00002025,0.000968
 49,0.00049768,-0.00038345,0.00021752,0.00053442,-0.00032896,0.00078381
 ,-0.00019181,0.00001094,-0.00007886,0.00000892,-0.00017247,-0.00006744
 ,-0.00015235,0.00012274,-0.00395283,-0.00700584,-0.00059417,0.08550146
 ,0.32546796,-0.00003077,-0.00000676,-0.00001288,0.00004025,0.00000278,
 0.00001358,-0.00000590,-0.00000861,0.00001133,0.00001579,-0.00000434,0
 .00000614,-0.00001431,0.00001258,-0.00001661,-0.00001243,-0.00011105,0
 .00004694,0.00003443,0.00004649,-0.00004470,-0.00000763,0.00007145,-0.
 00000697,0.00001827,-0.00003281,0.00000671,-0.00001309,0.00002295,-0.0
 0004595,-0.00001472,0.00002227,-0.00000090,0.00001808,-0.00000197,0.00
 000786,-0.00000157,0.00000273,-0.00000154,0.00000679,0.00000044,-0.000
 00324,0.00000186,0.00000008,0.00000092,0.00000060,-0.00000047,-0.00000
 163,0.00000273,-0.00000545,0.00000595,0.00010939,0.00096069,-0.0005796
 0,-0.00117024,-0.00129519,-0.00025726,0.00522993,0.00230433,-0.0002268
 4,-0.00931531,-0.02987363,-0.05314830,0.00548906,0.03601755,-0.0022953
 9,0.00172548,-0.00201827,0.00035792,-0.00051703,0.00039971,-0.00008289
 ,-0.00144448,0.00000631,0.00065757,0.00028568,0.00169493,0.00059633,0.
 00004125,-0.00063261,-0.00067692,0.00006581,-0.00030351,0.00014964,0.0
 0005706,0.00015457,0.00048808,0.00019244,0.00019993,-0.00004203,-0.000
 08688,0.00012169,-0.00000501,-0.00998173,-0.02400865,0.00059984,0.0112
 3768,0.01319271,0.05883056,0.00023191,0.00011915,0.00000855,-0.0002992
 0,-0.00011534,-0.00004783,-0.00003355,0.00004687,-0.00001826,-0.000174
 91,0.00002927,-0.00003309,0.00017872,-0.00007154,0.00007631,-0.0002118
 9,0.00021490,0.00004453,0.00010120,-0.00003325,0.00000291,0.00013563,-
 0.00014127,0.00000730,-0.00051994,0.00032277,-0.00004091,0.00037287,-0
 .00009935,0.00000770,0.00026635,-0.00027639,0.00001150,-0.00015621,-0.
 00005076,-0.00000513,0.00006120,-0.00001388,-0.00000787,-0.00001753,0.
 00003639,0.00012272,-0.00001294,-0.00000401,0.00000273,0.00001256,-0.0
 0000863,0.00000498,-0.00008832,0.00003411,-0.00002266,-0.00060189,-0.0
 0099776,0.00016105,-0.00008556,0.00079370,-0.00098869,0.00186492,0.002
 49871,0.00024316,0.00227534,0.01979477,0.00035737,-0.03993944,-0.11091
 743,-0.02452351,-0.00929734,0.00633520,-0.00097906,0.00421272,-0.00117
 431,-0.00015632,0.00282236,-0.00457202,0.00164528,0.00037018,0.0037081
 0,-0.00017591,-0.00054112,-0.00199812,-0.00038933,-0.00015516,-0.00156
 179,0.00075102,0.00007737,0.00016634,-0.00006569,-0.00004437,0.0000162
 8,0.00011753,0.00007310,0.00000565,0.00004243,0.00000940,-0.00103776,-
 0.00139044,-0.00019566,0.00087147,-0.00195651,0.03930922,-0.00001611,-
 0.00015309,0.00001624,0.00000733,0.00010720,-0.00006468,0.00001518,0.0
 0003805,0.00001381,0.00001771,-0.00001098,-0.00000337,-0.00002970,-0.0
 0001610,-0.00000295,0.00004355,0.00034510,-0.00003125,-0.00010532,-0.0
 0014687,0.00006648,0.00000693,-0.00022699,-0.00003507,0.00037301,0.000
 00764,0.00006862,-0.00028382,-0.00007931,-0.00001647,-0.00018412,0.000
 07456,-0.00002479,-0.00004093,0.00005928,-0.00001122,0.00003116,-0.000
 00477,-0.00001111,0.00003548,0.00004416,0.00005961,-0.00000969,0.00000
 120,-0.00000545,0.00000454,0.00000543,-0.00000281,0.00003411,0.0000097
 7,0.00001070,0.00014902,0.00009321,-0.00001941,-0.00092949,-0.00061247
 ,0.00037913,-0.00121336,0.00084794,-0.00136692,-0.00215874,-0.02551143
 ,0.00063626,-0.08445526,-0.45907326,-0.03059737,-0.00044534,0.00427248
 ,0.00075661,0.00149890,-0.00143248,0.00014388,-0.00167806,-0.00512020,
 -0.00182864,0.00063486,-0.00101998,-0.00084246,-0.00001856,0.00013459,
 0.00015478,-0.00015882,-0.00000908,0.00018691,0.00008178,-0.00015707,0
 .00007446,-0.00008825,0.00034762,-0.00025947,0.00006580,0.00001960,-0.
 00000689,-0.00124767,0.00188627,-0.00193081,0.00198394,0.00076490,0.00
 306912,0.08807994,0.48451510,0.00002766,0.00006392,-0.00005704,-0.0000
 8194,-0.00007665,-0.00000308,-0.00004019,0.00003036,0.00001692,-0.0000
 4676,-0.00000568,-0.00000239,0.00004406,-0.00000975,-0.00001011,-0.000
 17269,0.00013058,0.00016854,0.00009074,-0.00001471,-0.00008300,0.00008
 670,-0.00008554,-0.00006843,-0.00006010,0.00009745,0.00000824,0.000044
 24,-0.00004702,-0.00006391,0.00002688,-0.00005996,-0.00000101,-0.00004
 016,-0.00003213,0.00005315,0.00005349,-0.00000922,-0.00001322,0.000011
 83,0.00001781,0.00011671,-0.00000470,-0.00000204,0.00000595,0.00001334
 ,-0.00000612,-0.00000377,-0.00002266,0.00001070,0.00000701,-0.00052160
 ,-0.00036301,-0.00014360,0.00028377,0.00039977,-0.00019093,-0.00075872
 ,-0.00028515,0.00118731,0.00626441,0.04153026,-0.00075293,-0.03132134,
 -0.07672400,-0.04407885,-0.00532593,0.00514594,0.00047622,0.00290411,-
 0.00142491,0.00016036,0.00354828,-0.00294593,-0.00096508,-0.00091379,-
 0.00217544,0.00136013,0.00055226,0.00066102,-0.00034626,-0.00001231,0.
 00099379,-0.00137313,0.00005503,-0.00003036,0.00009596,-0.00003665,-0.
 00001448,0.00002512,-0.00001856,0.00003582,-0.00015482,0.00116108,0.00
 089886,0.00042081,-0.00298390,0.00287134,-0.00433072,0.02719412,0.0314
 2450,0.04853986\\0.00000039,0.00000157,0.00000288,0.00000018,0.0000012
 6,0.00000099,0.00000022,-0.00000020,0.00000058,-0.00000022,-0.00000011
 ,0.00000018,0.00000014,-0.00000142,-0.00000055,0.00000023,-0.00000130,
 -0.00000005,-0.00000029,-0.00000242,0.00000016,-0.00000020,-0.00000248
 ,0.00000277,-0.00000017,0.00000093,-0.00000200,-0.00000038,0.00000094,
 -0.00000174,0.00000013,0.00000027,-0.00000265,0.00000024,0.00000047,0.
 00000345,0.00000017,0.00000272,0.00000066,0.00000011,0.00000141,0.0000
 0141,0.00000011,-0.00000021,0.00000159,0.00000025,0.00000120,-0.000000
 34,-0.00000040,-0.00000140,-0.00000170,-0.00000033,-0.00000158,-0.0000
 0325,-0.00000038,-0.00000112,-0.00000099,0.00000004,0.,-0.00000057,0.0
 0000010,0.00000001,-0.00000020,-0.00000012,0.00000139,0.00000057,0.000
 00018,-0.00000087,0.00000163,0.00000029,-0.00000082,0.00000182,0.00000
 002,-0.00000024,0.00000276,-0.00000015,0.00000098,0.00000014,0.0000000
 7,0.00000244,-0.00000232,0.00000038,0.00000276,-0.00000008,-0.00000025
 ,-0.00000051,-0.00000346,-0.00000022,-0.00000148,-0.00000147,-0.000000
 14,-0.00000257,-0.00000065,-0.00000022,-0.00000122,0.00000031,-0.00000
 014,0.00000018,-0.00000161,0.00000037,0.00000140,0.00000173\\\@


 TIME IS NATURE'S WAY OF MAKING SURE EVERYTHING
 DOESN'T HAPPEN AT ONCE.
                     - WOODY ALLEN
 File lengths (MBytes):  RWF=    486 Int=      0 D2E=      0 Chk=      9 Scr=      1
 Normal termination of Gaussian 16 at Mon Apr  1 19:11:05 2024.
real 14816.56
user 57873.01
sys 38.40
