 Entering Gaussian System, Link 0=g16
 Input=gaussian_test.inp
 Output=gaussian_test.log
 Initial command:
 /sw/restricted/lms/sw/Gaussian/g16_B01/g16/l1.exe "/scratch/user/peterchao1/peterchao1/6097833_1659647604000000861152458/Gau-193378.inp" -scrdir="/scratch/user/peterchao1/peterchao1/6097833_1659647604000000861152458/"
 Entering Link 1 = /sw/restricted/lms/sw/Gaussian/g16_B01/g16/l1.exe PID=    193379.
  
 Copyright (c) 1988-2017, Gaussian, Inc.  All Rights Reserved.
  
 This is part of the Gaussian(R) 16 program.  It is based on
 the Gaussian(R) 09 system (copyright 2009, Gaussian, Inc.),
 the Gaussian(R) 03 system (copyright 2003, Gaussian, Inc.),
 the Gaussian(R) 98 system (copyright 1998, Gaussian, Inc.),
 the Gaussian(R) 94 system (copyright 1995, Gaussian, Inc.),
 the Gaussian 92(TM) system (copyright 1992, Gaussian, Inc.),
 the Gaussian 90(TM) system (copyright 1990, Gaussian, Inc.),
 the Gaussian 88(TM) system (copyright 1988, Gaussian, Inc.),
 the Gaussian 86(TM) system (copyright 1986, Carnegie Mellon
 University), and the Gaussian 82(TM) system (copyright 1983,
 Carnegie Mellon University). Gaussian is a federally registered
 trademark of Gaussian, Inc.
  
 This software contains proprietary and confidential information,
 including trade secrets, belonging to Gaussian, Inc.
  
 This software is provided under written license and may be
 used, copied, transmitted, or stored only in accord with that
 written license.
  
 The following legend is applicable only to US Government
 contracts under FAR:
  
                    RESTRICTED RIGHTS LEGEND
  
 Use, reproduction and disclosure by the US Government is
 subject to restrictions as set forth in subparagraphs (a)
 and (c) of the Commercial Computer Software - Restricted
 Rights clause in FAR 52.227-19.
  
 Gaussian, Inc.
 340 Quinnipiac St., Bldg. 40, Wallingford CT 06492
  
  
 ---------------------------------------------------------------
 Warning -- This program may not be used in any manner that
 competes with the business of Gaussian, Inc. or will provide
 assistance to any competitor of Gaussian, Inc.  The licensee
 of this program is prohibited from giving any competitor of
 Gaussian, Inc. access to this program.  By using this program,
 the user acknowledges that Gaussian, Inc. is engaged in the
 business of creating and licensing software in the field of
 computational chemistry and represents and warrants to the
 licensee that it is not a competitor of Gaussian, Inc. and that
 it will not use this program in any manner prohibited above.
 ---------------------------------------------------------------
  

 Cite this work as:
 Gaussian 16, Revision B.01,
 M. J. Frisch, G. W. Trucks, H. B. Schlegel, G. E. Scuseria, 
 M. A. Robb, J. R. Cheeseman, G. Scalmani, V. Barone, 
 G. A. Petersson, H. Nakatsuji, X. Li, M. Caricato, A. V. Marenich, 
 J. Bloino, B. G. Janesko, R. Gomperts, B. Mennucci, H. P. Hratchian, 
 J. V. Ortiz, A. F. Izmaylov, J. L. Sonnenberg, D. Williams-Young, 
 F. Ding, F. Lipparini, F. Egidi, J. Goings, B. Peng, A. Petrone, 
 T. Henderson, D. Ranasinghe, V. G. Zakrzewski, J. Gao, N. Rega, 
 G. Zheng, W. Liang, M. Hada, M. Ehara, K. Toyota, R. Fukuda, 
 J. Hasegawa, M. Ishida, T. Nakajima, Y. Honda, O. Kitao, H. Nakai, 
 T. Vreven, K. Throssell, J. A. Montgomery, Jr., J. E. Peralta, 
 F. Ogliaro, M. J. Bearpark, J. J. Heyd, E. N. Brothers, K. N. Kudin, 
 V. N. Staroverov, T. A. Keith, R. Kobayashi, J. Normand, 
 K. Raghavachari, A. P. Rendell, J. C. Burant, S. S. Iyengar, 
 J. Tomasi, M. Cossi, J. M. Millam, M. Klene, C. Adamo, R. Cammi, 
 J. W. Ochterski, R. L. Martin, K. Morokuma, O. Farkas, 
 J. B. Foresman, and D. J. Fox, Gaussian, Inc., Wallingford CT, 2016.
 
 ******************************************
 Gaussian 16:  ES64L-G16RevB.01 20-Dec-2017
                 4-Aug-2022 
 ******************************************
 %nprocshared=4
 Will use up to    4 processors via shared memory.
 %mem=8000mb
 ----------------------------------------------------------------------
 #T wB97XD/def2svpp opt=tight freq int(grid=ultrafine) scf=(verytight,q
 c)
 ----------------------------------------------------------------------
 --------------
 Comment gs min
 --------------
 Symbolic Z-matrix:
 Charge =  0 Multiplicity = 1
 O                     2.91508   0.12184   1.20217 
 C                     2.41734  -0.08804  -0.12348 
 C                     3.00663   0.9522   -1.08961 
 C                     2.57059   0.60424  -2.52474 
 O                     2.9606   -0.72587  -2.87234 
 C                     2.52743   2.36376  -0.70721 
 O                     2.84563   3.3407   -1.69752 
 C                     4.52688   0.99764  -1.07193 
 O                     5.15025   0.33852  -0.075 
 O                     5.16999   1.63319  -1.90056 
 H                     2.31626  -0.3582    1.8087 
 H                     1.32422  -0.01769  -0.09484 
 H                     2.69029  -1.11075  -0.40232 
 H                     2.98295   1.28522  -3.27832 
 H                     1.4784    0.64682  -2.60788 
 H                     3.84576  -0.66537  -3.2817 
 H                     2.95347   2.69748   0.24525 
 H                     1.43726   2.37624  -0.60413 
 H                     3.81656   3.34127  -1.82413 
 H                     4.53377   0.02063   0.62581 
 

 GradGradGradGradGradGradGradGradGradGradGradGradGradGradGradGradGradGrad
 Initialization pass.
                           ----------------------------
                           !    Initial Parameters    !
                           ! (Angstroms and Degrees)  !
 --------------------------                            --------------------------
 ! Name  Definition              Value          Derivative Info.                !
 --------------------------------------------------------------------------------
 ! R1    R(1,2)                  1.4315         estimate D2E/DX2                !
 ! R2    R(1,11)                 0.9782         estimate D2E/DX2                !
 ! R3    R(2,3)                  1.5371         estimate D2E/DX2                !
 ! R4    R(2,12)                 1.0958         estimate D2E/DX2                !
 ! R5    R(2,13)                 1.0946         estimate D2E/DX2                !
 ! R6    R(3,4)                  1.5397         estimate D2E/DX2                !
 ! R7    R(3,6)                  1.5389         estimate D2E/DX2                !
 ! R8    R(3,8)                  1.521          estimate D2E/DX2                !
 ! R9    R(4,5)                  1.429          estimate D2E/DX2                !
 ! R10   R(4,14)                 1.0962         estimate D2E/DX2                !
 ! R11   R(4,15)                 1.0962         estimate D2E/DX2                !
 ! R12   R(5,16)                 0.9771         estimate D2E/DX2                !
 ! R13   R(6,7)                  1.427          estimate D2E/DX2                !
 ! R14   R(6,17)                 1.0955         estimate D2E/DX2                !
 ! R15   R(6,18)                 1.0951         estimate D2E/DX2                !
 ! R16   R(7,19)                 0.9792         estimate D2E/DX2                !
 ! R17   R(8,9)                  1.3479         estimate D2E/DX2                !
 ! R18   R(8,10)                 1.2264         estimate D2E/DX2                !
 ! R19   R(9,20)                 0.986          estimate D2E/DX2                !
 ! A1    A(2,1,11)             106.8218         estimate D2E/DX2                !
 ! A2    A(1,2,3)              110.459          estimate D2E/DX2                !
 ! A3    A(1,2,12)             108.2555         estimate D2E/DX2                !
 ! A4    A(1,2,13)             106.6298         estimate D2E/DX2                !
 ! A5    A(3,2,12)             110.8197         estimate D2E/DX2                !
 ! A6    A(3,2,13)             112.122          estimate D2E/DX2                !
 ! A7    A(12,2,13)            108.3849         estimate D2E/DX2                !
 ! A8    A(2,3,4)              108.9247         estimate D2E/DX2                !
 ! A9    A(2,3,6)              110.1923         estimate D2E/DX2                !
 ! A10   A(2,3,8)              113.3336         estimate D2E/DX2                !
 ! A11   A(4,3,6)              110.53           estimate D2E/DX2                !
 ! A12   A(4,3,8)              107.4954         estimate D2E/DX2                !
 ! A13   A(6,3,8)              106.3158         estimate D2E/DX2                !
 ! A14   A(3,4,5)              111.0861         estimate D2E/DX2                !
 ! A15   A(3,4,14)             113.1928         estimate D2E/DX2                !
 ! A16   A(3,4,15)             110.1253         estimate D2E/DX2                !
 ! A17   A(5,4,14)             107.959          estimate D2E/DX2                !
 ! A18   A(5,4,15)             106.836          estimate D2E/DX2                !
 ! A19   A(14,4,15)            107.3695         estimate D2E/DX2                !
 ! A20   A(4,5,16)             106.9485         estimate D2E/DX2                !
 ! A21   A(3,6,7)              112.7097         estimate D2E/DX2                !
 ! A22   A(3,6,17)             111.9849         estimate D2E/DX2                !
 ! A23   A(3,6,18)             110.1098         estimate D2E/DX2                !
 ! A24   A(7,6,17)             107.9448         estimate D2E/DX2                !
 ! A25   A(7,6,18)             106.2303         estimate D2E/DX2                !
 ! A26   A(17,6,18)            107.5685         estimate D2E/DX2                !
 ! A27   A(6,7,19)             108.1342         estimate D2E/DX2                !
 ! A28   A(3,8,9)              117.1433         estimate D2E/DX2                !
 ! A29   A(3,8,10)             122.1225         estimate D2E/DX2                !
 ! A30   A(9,8,10)             120.7038         estimate D2E/DX2                !
 ! A31   A(8,9,20)             113.2146         estimate D2E/DX2                !
 ! D1    D(11,1,2,3)           162.5031         estimate D2E/DX2                !
 ! D2    D(11,1,2,12)           41.0016         estimate D2E/DX2                !
 ! D3    D(11,1,2,13)          -75.4303         estimate D2E/DX2                !
 ! D4    D(1,2,3,4)            173.9782         estimate D2E/DX2                !
 ! D5    D(1,2,3,6)            -64.615          estimate D2E/DX2                !
 ! D6    D(1,2,3,8)             54.3735         estimate D2E/DX2                !
 ! D7    D(12,2,3,4)           -66.0507         estimate D2E/DX2                !
 ! D8    D(12,2,3,6)            55.3561         estimate D2E/DX2                !
 ! D9    D(12,2,3,8)           174.3446         estimate D2E/DX2                !
 ! D10   D(13,2,3,4)            55.2026         estimate D2E/DX2                !
 ! D11   D(13,2,3,6)           176.6094         estimate D2E/DX2                !
 ! D12   D(13,2,3,8)           -64.4021         estimate D2E/DX2                !
 ! D13   D(2,3,4,5)            -56.3502         estimate D2E/DX2                !
 ! D14   D(2,3,4,14)          -177.9999         estimate D2E/DX2                !
 ! D15   D(2,3,4,15)            61.8077         estimate D2E/DX2                !
 ! D16   D(6,3,4,5)           -177.5509         estimate D2E/DX2                !
 ! D17   D(6,3,4,14)            60.7995         estimate D2E/DX2                !
 ! D18   D(6,3,4,15)           -59.3929         estimate D2E/DX2                !
 ! D19   D(8,3,4,5)             66.818          estimate D2E/DX2                !
 ! D20   D(8,3,4,14)           -54.8316         estimate D2E/DX2                !
 ! D21   D(8,3,4,15)          -175.024          estimate D2E/DX2                !
 ! D22   D(2,3,6,7)           -169.6566         estimate D2E/DX2                !
 ! D23   D(2,3,6,17)            68.3956         estimate D2E/DX2                !
 ! D24   D(2,3,6,18)           -51.2392         estimate D2E/DX2                !
 ! D25   D(4,3,6,7)            -49.2108         estimate D2E/DX2                !
 ! D26   D(4,3,6,17)          -171.1585         estimate D2E/DX2                !
 ! D27   D(4,3,6,18)            69.2067         estimate D2E/DX2                !
 ! D28   D(8,3,6,7)             67.1555         estimate D2E/DX2                !
 ! D29   D(8,3,6,17)           -54.7923         estimate D2E/DX2                !
 ! D30   D(8,3,6,18)          -174.4271         estimate D2E/DX2                !
 ! D31   D(2,3,8,9)            -12.0161         estimate D2E/DX2                !
 ! D32   D(2,3,8,10)           169.9742         estimate D2E/DX2                !
 ! D33   D(4,3,8,9)           -132.4348         estimate D2E/DX2                !
 ! D34   D(4,3,8,10)            49.5555         estimate D2E/DX2                !
 ! D35   D(6,3,8,9)            109.1794         estimate D2E/DX2                !
 ! D36   D(6,3,8,10)           -68.8303         estimate D2E/DX2                !
 ! D37   D(3,4,5,16)           -90.9678         estimate D2E/DX2                !
 ! D38   D(14,4,5,16)           33.6909         estimate D2E/DX2                !
 ! D39   D(15,4,5,16)          148.9023         estimate D2E/DX2                !
 ! D40   D(3,6,7,19)           -58.3103         estimate D2E/DX2                !
 ! D41   D(17,6,7,19)           65.8917         estimate D2E/DX2                !
 ! D42   D(18,6,7,19)         -178.9751         estimate D2E/DX2                !
 ! D43   D(3,8,9,20)            -9.7122         estimate D2E/DX2                !
 ! D44   D(10,8,9,20)          168.3274         estimate D2E/DX2                !
 --------------------------------------------------------------------------------
 Number of steps in this run=    104 maximum allowed number of steps=    120.
 GradGradGradGradGradGradGradGradGradGradGradGradGradGradGradGradGradGrad

                    Distance matrix (angstroms):
                    1          2          3          4          5
     1  O    0.000000
     2  C    1.431483   0.000000
     3  C    2.439290   1.537130   0.000000
     4  C    3.773757   2.503755   1.539742   0.000000
     5  O    4.162009   2.873707   2.448707   1.429030   0.000000
     6  C    2.970220   2.522733   1.538949   2.530057   3.797530
     7  O    4.332907   3.797011   2.469900   2.871960   4.234432
     8  C    2.921721   2.555077   1.521032   2.468297   2.943670
     9  O    2.583428   2.766424   2.449723   3.567419   3.708450
    10  O    4.122588   3.701044   2.408633   2.864475   3.375044
    11  H    0.978214   1.953592   3.254836   4.446310   4.739461
    12  H    2.057314   1.095756   2.181916   2.800830   3.300570
    13  H    2.035730   1.094618   2.197317   2.731334   2.514398
    14  H    4.629563   3.486943   2.214027   1.096201   2.051780
    15  H    4.105622   2.755698   2.175750   1.096177   2.037433
    16  H    4.646607   3.513979   2.850602   1.952167   0.977110
    17  H    2.747925   2.860510   2.197881   3.493007   4.630199
    18  H    3.244841   2.695229   2.174052   2.848362   4.133815
    19  H    4.509533   4.075561   2.627387   3.087819   4.286378
    20  H    1.721218   2.247781   2.478436   3.757744   3.907580
                    6          7          8          9         10
     6  C    0.000000
     7  O    1.427017   0.000000
     8  C    2.448899   2.950914   0.000000
     9  O    3.373495   4.117879   1.347924   0.000000
    10  O    2.990140   2.891274   1.226435   2.238131   0.000000
    11  H    3.712609   5.124029   3.875974   3.473506   5.086061
    12  H    2.737520   4.020206   3.498947   3.842627   4.558067
    13  H    3.491662   4.638651   2.875195   2.873835   3.990344
    14  H    2.825129   2.596687   2.708243   3.981795   2.608151
    15  H    2.767832   3.155164   3.431537   4.471355   3.886009
    16  H    4.188272   4.422497   2.848264   3.604499   2.990738
    17  H    1.095472   2.049321   2.664590   3.239305   3.263461
    18  H    1.095104   2.027114   3.415425   4.268322   4.020712
    19  H    1.965933   0.979150   2.561828   3.722189   2.180631
    20  H    3.360447   4.389823   1.958805   0.986020   3.063931
                   11         12         13         14         15
    11  H    0.000000
    12  H    2.173374   0.000000
    13  H    2.365341   1.776365   0.000000
    14  H    5.387307   3.818836   3.754690   0.000000
    15  H    4.606328   2.603981   3.069564   1.766555   0.000000
    16  H    5.324086   4.115061   3.134374   2.132898   2.789313
    17  H    3.491073   3.184692   3.871851   3.796168   3.810694
    18  H    3.751207   2.450113   3.710783   3.275786   2.647187
    19  H    5.397632   4.526015   4.807339   2.652719   3.652577
    20  H    2.541671   3.289683   2.394888   4.387079   4.492677
                   16         17         18         19         20
    16  H    0.000000
    17  H    4.954222   0.000000
    18  H    4.713984   1.767352   0.000000
    19  H    4.263628   2.332750   2.842666   0.000000
    20  H    4.026486   3.131725   4.080444   4.188466   0.000000
 Framework group  C1[X(C5H10O5)]
 Deg. of freedom    54
                         Standard orientation:                         
 ---------------------------------------------------------------------
 Center     Atomic      Atomic             Coordinates (Angstroms)
 Number     Number       Type             X           Y           Z
 ---------------------------------------------------------------------
      1          8           0        2.312804   -0.685263   -0.446040
      2          6           0        1.389131    0.304291   -0.911610
      3          6           0       -0.020660    0.021172   -0.368377
      4          6           0       -0.950540    1.183273   -0.762901
      5          8           0       -0.440075    2.432510   -0.292837
      6          6           0       -0.550106   -1.309123   -0.932618
      7          8           0       -1.935216   -1.512492   -0.656054
      8          6           0       -0.067863   -0.108205    1.146407
      9          8           0        1.110902   -0.213644    1.791616
     10          8           0       -1.126257   -0.153600    1.764373
     11          1           0        3.099282   -0.633238   -1.025391
     12          1           0        1.394401    0.290266   -2.007263
     13          1           0        1.772968    1.273219   -0.576892
     14          1           0       -1.970943    1.069122   -0.378967
     15          1           0       -1.018080    1.258403   -1.854413
     16          1           0       -0.823730    2.581663    0.593338
     17          1           0        0.002351   -2.169860   -0.540213
     18          1           0       -0.450653   -1.321745   -2.023123
     19          1           0       -2.058643   -1.489707    0.315019
     20          1           0        1.876010   -0.346658    1.184037
 ---------------------------------------------------------------------
 Rotational constants (GHZ):           1.3612607           1.1830165           1.1137259
   160 basis functions,   290 primitive gaussians,   170 cartesian basis functions
    40 alpha electrons       40 beta electrons
       nuclear repulsion energy       612.6964793472 Hartrees.
 NAtoms=   20 NActive=   20 NUniq=   20 SFac= 1.00D+00 NAtFMM=   60 NAOKFM=F Big=F
 Nuclear repulsion after empirical dispersion term =      612.6830222661 Hartrees.
   1 Symmetry operations used in ECPInt.
 ECPInt:  NShTT=    3240 NPrTT=   13040 LenC2=    3202 LenP2D=   10003.
 LDataN:  DoStor=T MaxTD1= 4 Len=   56
 ExpMin= 1.22D-01 ExpMax= 2.27D+03 ExpMxC= 3.41D+02 IAcc=3 IRadAn=         5 AccDes= 0.00D+00
 Harris functional with IExCor= 4639 and IRadAn=       5 diagonalized for initial guess.
 HarFok:  IExCor= 4639 AccDes= 0.00D+00 IRadAn=         5 IDoV= 1 UseB2=F ITyADJ=14
 ICtDFT=  3500011 ScaDFX=  1.000000  1.000000  1.000000  1.000000
 FoFCou: FMM=F IPFlag=           0 FMFlag=      100000 FMFlg1=           0
         NFxFlg=           0 DoJE=T BraDBF=F KetDBF=T FulRan=T
         wScrn=  0.000000 ICntrl=       500 IOpCl=  0 I1Cent=   200000004 NGrid=           0
         NMat0=    1 NMatS0=      1 NMatT0=    0 NMatD0=    1 NMtDS0=    0 NMtDT0=    0
 Petite list used in FoFCou.
     Accept linear search using points  2 and  3.
     Accept linear search using points  1 and  2.
     Accept linear search using points  2 and  3.
     Minimum is close to point  2 DX=  7.81D-04 DF= -8.64D-12 DXR=  7.80D-04 DFR=  6.13D-07 which will be used.
 SCF Done:  E(RwB97XD) =  -572.019743622     a.u. after    8 cycles
            Convg  =    0.2614D-09                    40 Fock formations.
              S**2 =  0.0000                  -V/T =  2.0081

 **********************************************************************

            Population analysis using the SCF Density.

 **********************************************************************

 Orbital symmetries:
       Occupied  (A) (A) (A) (A) (A) (A) (A) (A) (A) (A) (A) (A)
                 (A) (A) (A) (A) (A) (A) (A) (A) (A) (A) (A) (A)
                 (A) (A) (A) (A) (A) (A) (A) (A) (A) (A) (A) (A)
                 (A) (A) (A) (A)
       Virtual   (A) (A) (A) (A) (A) (A) (A) (A) (A) (A) (A) (A)
                 (A) (A) (A) (A) (A) (A) (A) (A) (A) (A) (A) (A)
                 (A) (A) (A) (A) (A) (A) (A) (A) (A) (A) (A) (A)
                 (A) (A) (A) (A) (A) (A) (A) (A) (A) (A) (A) (A)
                 (A) (A) (A) (A) (A) (A) (A) (A) (A) (A) (A) (A)
                 (A) (A) (A) (A) (A) (A) (A) (A) (A) (A) (A) (A)
                 (A) (A) (A) (A) (A) (A) (A) (A) (A) (A) (A) (A)
                 (A) (A) (A) (A) (A) (A) (A) (A) (A) (A) (A) (A)
                 (A) (A) (A) (A) (A) (A) (A) (A) (A) (A) (A) (A)
                 (A) (A) (A) (A) (A) (A) (A) (A) (A) (A) (A) (A)
 The electronic state is 1-A.
 Alpha  occ. eigenvalues --  -19.30346 -19.29288 -19.26186 -19.24930 -19.24758
 Alpha  occ. eigenvalues --  -10.43960 -10.37182 -10.35336 -10.35176 -10.33679
 Alpha  occ. eigenvalues --   -1.19266  -1.15592  -1.11953  -1.10968  -1.09846
 Alpha  occ. eigenvalues --   -0.92125  -0.78866  -0.77741  -0.74047  -0.70878
 Alpha  occ. eigenvalues --   -0.64928  -0.62119  -0.61380  -0.59764  -0.55984
 Alpha  occ. eigenvalues --   -0.55298  -0.54034  -0.53260  -0.51712  -0.50888
 Alpha  occ. eigenvalues --   -0.48851  -0.48199  -0.45370  -0.42697  -0.42071
 Alpha  occ. eigenvalues --   -0.40517  -0.40069  -0.37464  -0.36029  -0.35230
 Alpha virt. eigenvalues --    0.07031   0.09484   0.13049   0.14534   0.15967
 Alpha virt. eigenvalues --    0.18286   0.20842   0.21412   0.21971   0.22871
 Alpha virt. eigenvalues --    0.23503   0.24109   0.25837   0.27293   0.28862
 Alpha virt. eigenvalues --    0.30289   0.33840   0.35136   0.41974   0.42925
 Alpha virt. eigenvalues --    0.51335   0.54326   0.55257   0.55474   0.58279
 Alpha virt. eigenvalues --    0.58838   0.60950   0.63347   0.65747   0.65979
 Alpha virt. eigenvalues --    0.67467   0.68883   0.70835   0.71194   0.73538
 Alpha virt. eigenvalues --    0.74918   0.75421   0.76275   0.76760   0.77914
 Alpha virt. eigenvalues --    0.79677   0.80109   0.81558   0.82154   0.83435
 Alpha virt. eigenvalues --    0.88846   1.00641   1.01274   1.03896   1.06086
 Alpha virt. eigenvalues --    1.07256   1.09872   1.12909   1.14330   1.15792
 Alpha virt. eigenvalues --    1.16647   1.17739   1.22172   1.24557   1.26727
 Alpha virt. eigenvalues --    1.28879   1.31001   1.39442   1.41713   1.48932
 Alpha virt. eigenvalues --    1.51106   1.53729   1.54747   1.63486   1.65443
 Alpha virt. eigenvalues --    1.66335   1.70994   1.76914   1.79072   1.81556
 Alpha virt. eigenvalues --    1.84746   1.88750   1.90181   1.92165   2.01150
 Alpha virt. eigenvalues --    2.03480   2.06066   2.10215   2.11388   2.12917
 Alpha virt. eigenvalues --    2.16749   2.18148   2.21460   2.26541   2.27638
 Alpha virt. eigenvalues --    2.46838   2.48693   2.61388   2.62436   2.67581
 Alpha virt. eigenvalues --    2.68007   2.69724   2.72016   2.73515   2.74307
 Alpha virt. eigenvalues --    2.79642   2.89439   2.90519   2.91122   2.93398
 Alpha virt. eigenvalues --    2.97317   3.02009   3.02610   3.07284   3.07450
 Alpha virt. eigenvalues --    3.08350   3.11017   3.12672   3.24641   3.35952
 Alpha virt. eigenvalues --    3.40833   3.45252   3.46935   3.64017   3.71377
          Condensed to atoms (all electrons):
 Mulliken charges:
               1
     1  O   -0.519947
     2  C    0.027131
     3  C   -0.362399
     4  C    0.070595
     5  O   -0.508679
     6  C    0.092842
     7  O   -0.507900
     8  C    0.263876
     9  O   -0.373232
    10  O   -0.274977
    11  H    0.345896
    12  H    0.111134
    13  H    0.138917
    14  H    0.137881
    15  H    0.109440
    16  H    0.334550
    17  H    0.118224
    18  H    0.108240
    19  H    0.334956
    20  H    0.353452
 Sum of Mulliken charges =   0.00000
 Mulliken charges with hydrogens summed into heavy atoms:
               1
     1  O   -0.174051
     2  C    0.277182
     3  C   -0.362399
     4  C    0.317916
     5  O   -0.174130
     6  C    0.319306
     7  O   -0.172944
     8  C    0.263876
     9  O   -0.019779
    10  O   -0.274977
 Electronic spatial extent (au):  <R**2>=           1364.2716
 Charge=              0.0000 electrons
 Dipole moment (field-independent basis, Debye):
    X=              3.7578    Y=              0.3821    Z=             -2.9192  Tot=              4.7738
   1 Symmetry operations used in ECPInt.
 ECPInt:  NShTT=    3240 NPrTT=   13040 LenC2=    3202 LenP2D=   10003.
 LDataN:  DoStor=T MaxTD1= 5 Len=  102
 Calling FoFJK, ICntrl=      2127 FMM=F ISym2X=0 I1Cent= 0 IOpClX= 0 NMat=1 NMatS=1 NMatT=0.

 GradGradGradGradGradGradGradGradGradGradGradGradGradGradGradGradGradGrad
 FormGI is forming the generalized inverse of G from B-inverse, IUseBI=4.
 Internal  Forces:  Max     0.035290687 RMS     0.006303258
 Step number   1 out of a maximum of  104
 All quantities printed in internal units (Hartrees-Bohrs-Radians)
 Mixed Optimization -- RFO/linear search
 Second derivative matrix not updated -- first step.
 ITU=  0
     Eigenvalues ---    0.00240   0.00251   0.00275   0.00488   0.00954
     Eigenvalues ---    0.01275   0.01308   0.01334   0.02381   0.04585
     Eigenvalues ---    0.04671   0.04782   0.04960   0.04985   0.05488
     Eigenvalues ---    0.05490   0.05532   0.05805   0.11609   0.11703
     Eigenvalues ---    0.11834   0.13812   0.13884   0.13992   0.14612
     Eigenvalues ---    0.15493   0.16000   0.16000   0.16000   0.16000
     Eigenvalues ---    0.21979   0.22009   0.22023   0.24992   0.25000
     Eigenvalues ---    0.28542   0.28612   0.28775   0.30267   0.34106
     Eigenvalues ---    0.34108   0.34156   0.34188   0.34229   0.34284
     Eigenvalues ---    0.40777   0.41129   0.41421   0.50233   0.51550
     Eigenvalues ---    0.51733   0.51950   0.55465   0.92588
 Linear search not attempted -- first point.
 Iteration  1 RMS(Cart)=  0.06236131 RMS(Int)=  0.00224457
 Iteration  2 RMS(Cart)=  0.00268558 RMS(Int)=  0.00053524
 Iteration  3 RMS(Cart)=  0.00000358 RMS(Int)=  0.00053523
 Iteration  4 RMS(Cart)=  0.00000000 RMS(Int)=  0.00053523
 Variable       Old X    -DE/DX   Delta X   Delta X   Delta X     New X
                                 (Linear)    (Quad)   (Total)
    R1        2.70511   0.00219   0.00000   0.00520   0.00520   2.71031
    R2        1.84856  -0.01160   0.00000  -0.02186  -0.02186   1.82670
    R3        2.90476  -0.00691   0.00000  -0.02294  -0.02294   2.88182
    R4        2.07068   0.00595   0.00000   0.01676   0.01676   2.08743
    R5        2.06853   0.00610   0.00000   0.01713   0.01713   2.08566
    R6        2.90969  -0.00328   0.00000  -0.01099  -0.01099   2.89870
    R7        2.90819   0.00337   0.00000   0.01125   0.01125   2.91944
    R8        2.87433   0.00969   0.00000   0.03067   0.03067   2.90500
    R9        2.70047  -0.00876   0.00000  -0.02063  -0.02063   2.67985
   R10        2.07152   0.00206   0.00000   0.00582   0.00582   2.07734
   R11        2.07147   0.00503   0.00000   0.01419   0.01419   2.08566
   R12        1.84647  -0.00970   0.00000  -0.01820  -0.01820   1.82827
   R13        2.69667  -0.01629   0.00000  -0.03811  -0.03811   2.65857
   R14        2.07014   0.00712   0.00000   0.02004   0.02004   2.09019
   R15        2.06945   0.00516   0.00000   0.01450   0.01450   2.08394
   R16        1.85033  -0.00755   0.00000  -0.01427  -0.01427   1.83605
   R17        2.54721  -0.02100   0.00000  -0.03698  -0.03698   2.51023
   R18        2.31763  -0.03529   0.00000  -0.03757  -0.03757   2.28005
   R19        1.86331  -0.00283   0.00000  -0.00548  -0.00548   1.85783
    A1        1.86439   0.01020   0.00000   0.05882   0.05882   1.92321
    A2        1.92787  -0.00496   0.00000  -0.01543  -0.01500   1.91287
    A3        1.88941   0.00495   0.00000   0.03781   0.03719   1.92661
    A4        1.86104   0.00897   0.00000   0.07425   0.07390   1.93494
    A5        1.93417  -0.00302   0.00000  -0.03596  -0.03660   1.89757
    A6        1.95690  -0.00671   0.00000  -0.05350  -0.05400   1.90290
    A7        1.89167   0.00169   0.00000   0.00005  -0.00337   1.88830
    A8        1.90109  -0.00180   0.00000  -0.02075  -0.02071   1.88038
    A9        1.92322   0.00171   0.00000   0.01191   0.01155   1.93477
   A10        1.97805   0.00018   0.00000   0.00849   0.00831   1.98636
   A11        1.92911  -0.00135   0.00000  -0.01582  -0.01579   1.91332
   A12        1.87615   0.00096   0.00000   0.00330   0.00342   1.87957
   A13        1.85556   0.00028   0.00000   0.01274   0.01263   1.86819
   A14        1.93882   0.00017   0.00000   0.00479   0.00511   1.94393
   A15        1.97559  -0.00986   0.00000  -0.06996  -0.07037   1.90522
   A16        1.92205  -0.00040   0.00000  -0.01194  -0.01249   1.90956
   A17        1.88424   0.00782   0.00000   0.06406   0.06423   1.94847
   A18        1.86464   0.00045   0.00000   0.01132   0.01120   1.87584
   A19        1.87395   0.00255   0.00000   0.00725   0.00529   1.87925
   A20        1.86660   0.00422   0.00000   0.02434   0.02434   1.89094
   A21        1.96716  -0.00167   0.00000  -0.00418  -0.00415   1.96301
   A22        1.95451  -0.00662   0.00000  -0.04055  -0.04086   1.91364
   A23        1.92178   0.00013   0.00000  -0.01390  -0.01432   1.90746
   A24        1.88399   0.00797   0.00000   0.06971   0.06991   1.95391
   A25        1.85407  -0.00066   0.00000  -0.01098  -0.01116   1.84291
   A26        1.87743   0.00139   0.00000   0.00283   0.00201   1.87944
   A27        1.88730  -0.00188   0.00000  -0.01084  -0.01084   1.87646
   A28        2.04454   0.01038   0.00000   0.03953   0.03951   2.08405
   A29        2.13144  -0.00558   0.00000  -0.02108  -0.02110   2.11034
   A30        2.10668  -0.00480   0.00000  -0.01811  -0.01813   2.08855
   A31        1.97597  -0.00876   0.00000  -0.05053  -0.05053   1.92543
    D1        2.83621   0.00205   0.00000   0.05447   0.05448   2.89069
    D2        0.71561   0.00566   0.00000   0.08409   0.08550   0.80111
    D3       -1.31651  -0.00340   0.00000   0.02685   0.02545  -1.29106
    D4        3.03649   0.00144   0.00000   0.01534   0.01530   3.05179
    D5       -1.12775  -0.00031   0.00000  -0.01005  -0.01018  -1.13792
    D6        0.94900   0.00136   0.00000   0.02008   0.02004   0.96904
    D7       -1.15280   0.00243   0.00000   0.02920   0.02869  -1.12412
    D8        0.96615   0.00068   0.00000   0.00382   0.00322   0.96936
    D9        3.04289   0.00234   0.00000   0.03394   0.03343   3.07632
   D10        0.96347  -0.00218   0.00000  -0.03314  -0.03250   0.93097
   D11        3.08242  -0.00393   0.00000  -0.05852  -0.05797   3.02445
   D12       -1.12403  -0.00227   0.00000  -0.02840  -0.02775  -1.15178
   D13       -0.98350   0.00037   0.00000  -0.03781  -0.03778  -1.02128
   D14       -3.10668  -0.00287   0.00000  -0.07467  -0.07407   3.10243
   D15        1.07875   0.00079   0.00000  -0.02838  -0.02869   1.05005
   D16       -3.09885   0.00027   0.00000  -0.02924  -0.02942  -3.12827
   D17        1.06115  -0.00298   0.00000  -0.06610  -0.06571   0.99544
   D18       -1.03660   0.00068   0.00000  -0.01980  -0.02034  -1.05694
   D19        1.16619   0.00010   0.00000  -0.03792  -0.03799   1.12820
   D20       -0.95699  -0.00314   0.00000  -0.07478  -0.07428  -1.03127
   D21       -3.05475   0.00052   0.00000  -0.02849  -0.02891  -3.08365
   D22       -2.96107   0.00338   0.00000   0.05935   0.05931  -2.90176
   D23        1.19373  -0.00090   0.00000   0.00128   0.00164   1.19537
   D24       -0.89429   0.00157   0.00000   0.03346   0.03337  -0.86092
   D25       -0.85889   0.00138   0.00000   0.03096   0.03082  -0.82807
   D26       -2.98728  -0.00290   0.00000  -0.02711  -0.02684  -3.01412
   D27        1.20788  -0.00044   0.00000   0.00507   0.00489   1.21277
   D28        1.17208   0.00198   0.00000   0.03394   0.03375   1.20583
   D29       -0.95631  -0.00230   0.00000  -0.02413  -0.02391  -0.98022
   D30       -3.04433   0.00016   0.00000   0.00805   0.00782  -3.03651
   D31       -0.20972  -0.00261   0.00000  -0.08915  -0.08914  -0.29886
   D32        2.96661  -0.00287   0.00000  -0.09996  -0.09995   2.86666
   D33       -2.31142  -0.00113   0.00000  -0.07067  -0.07065  -2.38208
   D34        0.86491  -0.00138   0.00000  -0.08148  -0.08146   0.78345
   D35        1.90554  -0.00019   0.00000  -0.06051  -0.06054   1.84500
   D36       -1.20132  -0.00044   0.00000  -0.07132  -0.07134  -1.27266
   D37       -1.58769   0.00280   0.00000   0.03223   0.03221  -1.55548
   D38        0.58802  -0.00409   0.00000  -0.00830  -0.00878   0.57924
   D39        2.59884   0.00290   0.00000   0.03696   0.03746   2.63630
   D40       -1.01771   0.00225   0.00000   0.04488   0.04475  -0.97296
   D41        1.15003  -0.00155   0.00000   0.04086   0.04091   1.19094
   D42       -3.12370   0.00350   0.00000   0.07171   0.07179  -3.05191
   D43       -0.16951  -0.00152   0.00000  -0.04328  -0.04329  -0.21280
   D44        2.93787  -0.00130   0.00000  -0.03272  -0.03271   2.90516
         Item               Value     Threshold  Converged?
 Maximum Force            0.035291     0.000015     NO 
 RMS     Force            0.006303     0.000010     NO 
 Maximum Displacement     0.277853     0.000060     NO 
 RMS     Displacement     0.062216     0.000040     NO 
 GradGradGradGradGradGradGradGradGradGradGradGradGradGradGradGradGradGrad

                    Distance matrix (angstroms):
                    1          2          3          4          5
     1  O    0.000000
     2  C    1.434235   0.000000
     3  C    2.418676   1.524993   0.000000
     4  C    3.743000   2.470603   1.533924   0.000000
     5  O    4.149835   2.859668   2.439244   1.418115   0.000000
     6  C    2.967624   2.527791   1.544900   2.516244   3.782561
     7  O    4.318313   3.770094   2.455092   2.825906   4.176563
     8  C    2.924321   2.565460   1.537261   2.479770   2.927908
     9  O    2.638890   2.840535   2.476496   3.602759   3.757485
    10  O    4.116793   3.672379   2.392637   2.818718   3.265630
    11  H    0.966648   1.987086   3.256987   4.445479   4.753071
    12  H    2.093084   1.104622   2.151099   2.723305   3.259780
    13  H    2.098253   1.103683   2.154350   2.633543   2.426851
    14  H    4.562398   3.430546   2.160612   1.099282   2.090264
    15  H    4.050469   2.698802   2.167087   1.103686   2.041886
    16  H    4.627471   3.493607   2.837215   1.952077   0.967476
    17  H    2.711585   2.842020   2.181513   3.474569   4.604059
    18  H    3.225247   2.682067   2.174493   2.827468   4.115522
    19  H    4.498045   4.031507   2.578840   2.989965   4.171372
    20  H    1.765489   2.338936   2.471496   3.786762   3.995239
                    6          7          8          9         10
     6  C    0.000000
     7  O    1.406852   0.000000
     8  C    2.478250   2.983791   0.000000
     9  O    3.380504   4.114482   1.328355   0.000000
    10  O    3.027576   2.962138   1.206551   2.192433   0.000000
    11  H    3.739585   5.131627   3.868765   3.498434   5.068101
    12  H    2.715174   3.946288   3.501392   3.917599   4.513425
    13  H    3.477517   4.575861   2.854777   2.976903   3.900628
    14  H    2.716036   2.447286   2.690569   3.977256   2.548988
    15  H    2.750695   3.108264   3.446631   4.505475   3.860487
    16  H    4.169509   4.373248   2.823381   3.636661   2.866850
    17  H    1.106079   2.089497   2.672800   3.201589   3.317927
    18  H    1.102774   2.007313   3.443028   4.284362   4.053012
    19  H    1.935433   0.971598   2.568433   3.699803   2.240060
    20  H    3.298816   4.314080   1.907361   0.983121   2.994555
                   11         12         13         14         15
    11  H    0.000000
    12  H    2.285127   0.000000
    13  H    2.457595   1.788725   0.000000
    14  H    5.349395   3.709221   3.663932   0.000000
    15  H    4.591252   2.482570   2.953027   1.778536   0.000000
    16  H    5.318577   4.069551   3.046482   2.201146   2.804027
    17  H    3.471520   3.162261   3.854496   3.698116   3.788118
    18  H    3.776691   2.401557   3.680687   3.170607   2.612119
    19  H    5.397405   4.439754   4.720046   2.450256   3.564034
    20  H    2.566066   3.385918   2.585265   4.359477   4.515342
                   16         17         18         19         20
    16  H    0.000000
    17  H    4.924343   0.000000
    18  H    4.694043   1.783413   0.000000
    19  H    4.154990   2.381076   2.815984   0.000000
    20  H    4.094453   2.990757   4.036133   4.098493   0.000000
 Framework group  C1[X(C5H10O5)]
 Deg. of freedom    54
                         Standard orientation:                         
 ---------------------------------------------------------------------
 Center     Atomic      Atomic             Coordinates (Angstroms)
 Number     Number       Type             X           Y           Z
 ---------------------------------------------------------------------
      1          8           0        2.336476   -0.564973   -0.476307
      2          6           0        1.334856    0.329217   -0.980501
      3          6           0       -0.016496   -0.016414   -0.364067
      4          6           0       -1.026212    1.040694   -0.828738
      5          8           0       -0.621875    2.345078   -0.446451
      6          6           0       -0.485737   -1.416793   -0.817351
      7          8           0       -1.843482   -1.647954   -0.530426
      8          6           0       -0.015334   -0.017444    1.173193
      9          8           0        1.140977   -0.074369    1.824524
     10          8           0       -1.049697    0.007912    1.793852
     11          1           0        3.136405   -0.508441   -1.016055
     12          1           0        1.256878    0.239822   -2.078735
     13          1           0        1.584231    1.376392   -0.736875
     14          1           0       -2.019541    0.790906   -0.429582
     15          1           0       -1.093863    1.024113   -1.930224
     16          1           0       -0.981491    2.529976    0.432468
     17          1           0        0.168292   -2.190070   -0.372716
     18          1           0       -0.397315   -1.493370   -1.913904
     19          1           0       -1.969254   -1.505884    0.422464
     20          1           0        1.870001   -0.304553    1.206409
 ---------------------------------------------------------------------
 Rotational constants (GHZ):           1.3588871           1.1798472           1.1331522
   160 basis functions,   290 primitive gaussians,   170 cartesian basis functions
    40 alpha electrons       40 beta electrons
       nuclear repulsion energy       614.5102092683 Hartrees.
 NAtoms=   20 NActive=   20 NUniq=   20 SFac= 1.00D+00 NAtFMM=   60 NAOKFM=F Big=F
 Nuclear repulsion after empirical dispersion term =      614.4965973075 Hartrees.
   1 Symmetry operations used in ECPInt.
 ECPInt:  NShTT=    3240 NPrTT=   13040 LenC2=    3204 LenP2D=   10018.
 LDataN:  DoStor=T MaxTD1= 4 Len=   56
 Initial guess from the checkpoint file:  "/scratch/user/peterchao1/peterchao1/6097833_1659647604000000861152458/Gau-193379.chk"
 B after Tr=     0.000000    0.000000    0.000000
         Rot=    0.998832    0.036513   -0.010715   -0.029786 Ang=   5.54 deg.
 ExpMin= 1.22D-01 ExpMax= 2.27D+03 ExpMxC= 3.41D+02 IAcc=3 IRadAn=         5 AccDes= 0.00D+00
 Harris functional with IExCor= 4639 and IRadAn=       5 diagonalized for initial guess.
 HarFok:  IExCor= 4639 AccDes= 0.00D+00 IRadAn=         5 IDoV= 1 UseB2=F ITyADJ=14
 ICtDFT=  3500011 ScaDFX=  1.000000  1.000000  1.000000  1.000000
 FoFCou: FMM=F IPFlag=           0 FMFlag=      100000 FMFlg1=           0
         NFxFlg=           0 DoJE=T BraDBF=F KetDBF=T FulRan=T
         wScrn=  0.000000 ICntrl=       500 IOpCl=  0 I1Cent=   200000004 NGrid=           0
         NMat0=    1 NMatS0=      1 NMatT0=    0 NMatD0=    1 NMtDS0=    0 NMtDT0=    0
 Petite list used in FoFCou.
     Accept linear search using points  3 and  4.
     Accept linear search using points  2 and  3.
     Accept linear search using points  1 and  2.
     Accept linear search using points  1 and  2.
     Accept linear search using points  1 and  2.
     Accept linear search using points  1 and  2.
     Minimum is close to point  2 DX= -9.92D-05 DF= -1.02D-12 DXR=  9.92D-05 DFR=  1.02D-08 which will be used.
 SCF Done:  E(RwB97XD) =  -572.026203713     a.u. after   11 cycles
            Convg  =    0.4389D-08                    46 Fock formations.
              S**2 =  0.0000                  -V/T =  2.0079
   1 Symmetry operations used in ECPInt.
 ECPInt:  NShTT=    3240 NPrTT=   13040 LenC2=    3204 LenP2D=   10018.
 LDataN:  DoStor=T MaxTD1= 5 Len=  102
 Calling FoFJK, ICntrl=      2127 FMM=F ISym2X=0 I1Cent= 0 IOpClX= 0 NMat=1 NMatS=1 NMatT=0.

 GradGradGradGradGradGradGradGradGradGradGradGradGradGradGradGradGradGrad
 Using GEDIIS/GDIIS optimizer.
 FormGI is forming the generalized inverse of G from B-inverse, IUseBI=4.
 Internal  Forces:  Max     0.009826554 RMS     0.002293350
 Step number   2 out of a maximum of  104
 All quantities printed in internal units (Hartrees-Bohrs-Radians)
 Mixed Optimization -- RFO/linear search
 Trust test= 8.45D-01 RLast= 3.84D-01 DXMaxT set to 5.05D-01
 ITU=  1  0
 Use linear search instead of GDIIS.
     Eigenvalues ---    0.00239   0.00254   0.00275   0.00522   0.00955
     Eigenvalues ---    0.01249   0.01307   0.01335   0.02445   0.04657
     Eigenvalues ---    0.04845   0.04938   0.04947   0.05164   0.05707
     Eigenvalues ---    0.05796   0.05843   0.06115   0.10909   0.11312
     Eigenvalues ---    0.11587   0.13595   0.13787   0.13980   0.14666
     Eigenvalues ---    0.15468   0.15634   0.16000   0.16000   0.16269
     Eigenvalues ---    0.21779   0.22036   0.22104   0.24819   0.27293
     Eigenvalues ---    0.28388   0.28639   0.29216   0.31451   0.33809
     Eigenvalues ---    0.34107   0.34126   0.34172   0.34223   0.34279
     Eigenvalues ---    0.39284   0.41088   0.42118   0.50300   0.51577
     Eigenvalues ---    0.51631   0.51943   0.55461   0.92800
 Quartic linear search produced a step of -0.03501.
 Iteration  1 RMS(Cart)=  0.07379913 RMS(Int)=  0.00240393
 Iteration  2 RMS(Cart)=  0.00284142 RMS(Int)=  0.00008796
 Iteration  3 RMS(Cart)=  0.00000396 RMS(Int)=  0.00008791
 Iteration  4 RMS(Cart)=  0.00000000 RMS(Int)=  0.00008791
 Variable       Old X    -DE/DX   Delta X   Delta X   Delta X     New X
                                 (Linear)    (Quad)   (Total)
    R1        2.71031  -0.00762  -0.00018  -0.01616  -0.01634   2.69397
    R2        1.82670  -0.00118   0.00077  -0.00805  -0.00728   1.81942
    R3        2.88182   0.00034   0.00080  -0.00510  -0.00429   2.87753
    R4        2.08743   0.00049  -0.00059   0.00587   0.00528   2.09272
    R5        2.08566   0.00034  -0.00060   0.00556   0.00496   2.09062
    R6        2.89870   0.00370   0.00038   0.00918   0.00956   2.90826
    R7        2.91944   0.00279  -0.00039   0.01217   0.01178   2.93122
    R8        2.90500  -0.00273  -0.00107  -0.00016  -0.00123   2.90377
    R9        2.67985  -0.00739   0.00072  -0.02246  -0.02174   2.65811
   R10        2.07734   0.00021  -0.00020   0.00214   0.00194   2.07928
   R11        2.08566   0.00003  -0.00050   0.00392   0.00342   2.08909
   R12        1.82827  -0.00052   0.00064  -0.00588  -0.00524   1.82303
   R13        2.65857  -0.00468   0.00133  -0.02091  -0.01958   2.63899
   R14        2.09019   0.00109  -0.00070   0.00840   0.00770   2.09789
   R15        2.08394   0.00049  -0.00051   0.00526   0.00475   2.08869
   R16        1.83605   0.00028   0.00050  -0.00335  -0.00285   1.83320
   R17        2.51023  -0.00024   0.00129  -0.01041  -0.00912   2.50111
   R18        2.28005   0.00228   0.00132  -0.00784  -0.00653   2.27352
   R19        1.85783   0.00210   0.00019   0.00245   0.00265   1.86048
    A1        1.92321   0.00065  -0.00206   0.01964   0.01759   1.94080
    A2        1.91287  -0.00381   0.00053  -0.02260  -0.02214   1.89074
    A3        1.92661   0.00102  -0.00130   0.01526   0.01397   1.94058
    A4        1.93494   0.00046  -0.00259   0.01234   0.00949   1.94443
    A5        1.89757   0.00179   0.00128   0.00335   0.00473   1.90230
    A6        1.90290   0.00088   0.00189  -0.01358  -0.01171   1.89119
    A7        1.88830  -0.00024   0.00012   0.00515   0.00533   1.89363
    A8        1.88038   0.00185   0.00073   0.01634   0.01695   1.89733
    A9        1.93477   0.00090  -0.00040   0.01038   0.00962   1.94439
   A10        1.98636  -0.00305  -0.00029  -0.03227  -0.03251   1.95385
   A11        1.91332  -0.00060   0.00055   0.00707   0.00743   1.92075
   A12        1.87957   0.00068  -0.00012   0.00496   0.00500   1.88456
   A13        1.86819   0.00023  -0.00044  -0.00572  -0.00620   1.86199
   A14        1.94393   0.00262  -0.00018   0.01301   0.01285   1.95678
   A15        1.90522  -0.00072   0.00246  -0.02253  -0.02013   1.88509
   A16        1.90956  -0.00086   0.00044  -0.00746  -0.00708   1.90247
   A17        1.94847  -0.00090  -0.00225   0.01375   0.01158   1.96005
   A18        1.87584  -0.00057  -0.00039   0.00256   0.00220   1.87803
   A19        1.87925   0.00035  -0.00019   0.00037   0.00008   1.87932
   A20        1.89094   0.00001  -0.00085   0.00664   0.00579   1.89673
   A21        1.96301   0.00185   0.00015   0.00842   0.00858   1.97159
   A22        1.91364  -0.00079   0.00143  -0.02134  -0.01999   1.89366
   A23        1.90746  -0.00154   0.00050  -0.00973  -0.00938   1.89808
   A24        1.95391  -0.00106  -0.00245   0.00957   0.00715   1.96106
   A25        1.84291   0.00141   0.00039   0.01849   0.01888   1.86179
   A26        1.87944   0.00010  -0.00007  -0.00493  -0.00526   1.87418
   A27        1.87646   0.00331   0.00038   0.01628   0.01666   1.89312
   A28        2.08405  -0.00967  -0.00138  -0.02561  -0.02702   2.05703
   A29        2.11034  -0.00016   0.00074  -0.00640  -0.00570   2.10464
   A30        2.08855   0.00983   0.00063   0.03171   0.03230   2.12085
   A31        1.92543  -0.00043   0.00177  -0.01611  -0.01434   1.91109
    D1        2.89069   0.00185  -0.00191   0.09954   0.09764   2.98833
    D2        0.80111   0.00141  -0.00299   0.10017   0.09726   0.89838
    D3       -1.29106   0.00076  -0.00089   0.07578   0.07480  -1.21626
    D4        3.05179  -0.00086  -0.00054  -0.04405  -0.04462   3.00717
    D5       -1.13792   0.00009   0.00036  -0.01911  -0.01862  -1.15654
    D6        0.96904  -0.00111  -0.00070  -0.04164  -0.04222   0.92682
    D7       -1.12412  -0.00083  -0.00100  -0.03703  -0.03811  -1.16223
    D8        0.96936   0.00012  -0.00011  -0.01209  -0.01211   0.95725
    D9        3.07632  -0.00107  -0.00117  -0.03461  -0.03571   3.04061
   D10        0.93097   0.00039   0.00114  -0.03661  -0.03568   0.89529
   D11        3.02445   0.00134   0.00203  -0.01168  -0.00969   3.01476
   D12       -1.15178   0.00015   0.00097  -0.03420  -0.03328  -1.18506
   D13       -1.02128   0.00070   0.00132  -0.08167  -0.08037  -1.10165
   D14        3.10243   0.00057   0.00259  -0.09215  -0.08950   3.01293
   D15        1.05005   0.00105   0.00100  -0.07525  -0.07430   0.97576
   D16       -3.12827  -0.00116   0.00103  -0.10826  -0.10725   3.04766
   D17        0.99544  -0.00129   0.00230  -0.11874  -0.11638   0.87906
   D18       -1.05694  -0.00080   0.00071  -0.10184  -0.10118  -1.15812
   D19        1.12820  -0.00148   0.00133  -0.10796  -0.10664   1.02157
   D20       -1.03127  -0.00162   0.00260  -0.11844  -0.11577  -1.14704
   D21       -3.08365  -0.00113   0.00101  -0.10154  -0.10056   3.09897
   D22       -2.90176  -0.00309  -0.00208  -0.09089  -0.09301  -2.99477
   D23        1.19537  -0.00247  -0.00006  -0.09332  -0.09335   1.10202
   D24       -0.86092  -0.00122  -0.00117  -0.06916  -0.07046  -0.93137
   D25       -0.82807  -0.00064  -0.00108  -0.05985  -0.06092  -0.88898
   D26       -3.01412  -0.00001   0.00094  -0.06228  -0.06126  -3.07538
   D27        1.21277   0.00123  -0.00017  -0.03811  -0.03836   1.17441
   D28        1.20583  -0.00002  -0.00118  -0.05346  -0.05458   1.15125
   D29       -0.98022   0.00061   0.00084  -0.05589  -0.05493  -1.03515
   D30       -3.03651   0.00185  -0.00027  -0.03172  -0.03203  -3.06854
   D31       -0.29886   0.00045   0.00312  -0.01826  -0.01520  -0.31407
   D32        2.86666   0.00066   0.00350  -0.00394  -0.00060   2.86607
   D33       -2.38208  -0.00046   0.00247  -0.02233  -0.01985  -2.40193
   D34        0.78345  -0.00025   0.00285  -0.00801  -0.00524   0.77821
   D35        1.84500  -0.00023   0.00212  -0.03016  -0.02785   1.81715
   D36       -1.27266  -0.00002   0.00250  -0.01584  -0.01325  -1.28590
   D37       -1.55548   0.00025  -0.00113   0.02599   0.02483  -1.53065
   D38        0.57924   0.00055   0.00031   0.01604   0.01640   0.59564
   D39        2.63630   0.00012  -0.00131   0.02585   0.02451   2.66081
   D40       -0.97296   0.00072  -0.00157   0.05126   0.04976  -0.92320
   D41        1.19094   0.00028  -0.00143   0.03678   0.03532   1.22626
   D42       -3.05191   0.00069  -0.00251   0.04681   0.04425  -3.00766
   D43       -0.21280   0.00280   0.00152   0.08837   0.09001  -0.12279
   D44        2.90516   0.00246   0.00115   0.07371   0.07472   2.97988
         Item               Value     Threshold  Converged?
 Maximum Force            0.009827     0.000015     NO 
 RMS     Force            0.002293     0.000010     NO 
 Maximum Displacement     0.299800     0.000060     NO 
 RMS     Displacement     0.073520     0.000040     NO 
 GradGradGradGradGradGradGradGradGradGradGradGradGradGradGradGradGradGrad

                    Distance matrix (angstroms):
                    1          2          3          4          5
     1  O    0.000000
     2  C    1.425589   0.000000
     3  C    2.390908   1.522722   0.000000
     4  C    3.733702   2.488080   1.538983   0.000000
     5  O    4.177232   2.935447   2.444783   1.406611   0.000000
     6  C    2.963263   2.539438   1.551132   2.532073   3.789986
     7  O    4.277022   3.781705   2.458947   2.878155   4.175272
     8  C    2.832968   2.535524   1.536610   2.487853   2.882995
     9  O    2.475823   2.764358   2.452271   3.600006   3.736916
    10  O    4.024072   3.642770   2.385378   2.817872   3.167641
    11  H    0.962793   1.987949   3.245631   4.460943   4.802650
    12  H    2.097575   1.107418   2.154697   2.767238   3.385757
    13  H    2.099412   1.106310   2.145624   2.627824   2.499922
    14  H    4.530249   3.431314   2.150841   1.100306   2.089002
    15  H    4.033698   2.679981   2.167628   1.105497   2.034998
    16  H    4.638898   3.564893   2.833712   1.943755   0.964705
    17  H    2.644572   2.795844   2.175123   3.485058   4.601983
    18  H    3.285718   2.719706   2.174849   2.818147   4.133174
    19  H    4.420609   4.019655   2.575291   3.032145   4.131149
    20  H    1.571805   2.204617   2.412891   3.731512   3.942552
                    6          7          8          9         10
     6  C    0.000000
     7  O    1.396492   0.000000
     8  C    2.477042   2.952106   0.000000
     9  O    3.344701   4.048208   1.323530   0.000000
    10  O    3.024040   2.928385   1.203097   2.205428   0.000000
    11  H    3.775426   5.136393   3.763069   3.287329   4.962180
    12  H    2.727547   3.989374   3.483753   3.841544   4.502801
    13  H    3.483765   4.581770   2.826305   2.926435   3.863927
    14  H    2.661888   2.429819   2.740793   4.024891   2.613460
    15  H    2.811182   3.257509   3.451619   4.473802   3.879693
    16  H    4.138266   4.308653   2.776353   3.643438   2.740349
    17  H    1.110153   2.088590   2.681378   3.155202   3.347526
    18  H    1.105288   2.014336   3.441810   4.255606   4.041344
    19  H    1.936371   0.970089   2.526565   3.628864   2.200311
    20  H    3.256040   4.249053   1.894952   0.984521   2.999202
                   11         12         13         14         15
    11  H    0.000000
    12  H    2.333129   0.000000
    13  H    2.442625   1.796568   0.000000
    14  H    5.340870   3.712014   3.672041   0.000000
    15  H    4.609126   2.495784   2.883578   1.780876   0.000000
    16  H    5.344679   4.178702   3.142636   2.209353   2.802692
    17  H    3.425928   3.095869   3.818357   3.674262   3.819993
    18  H    3.902843   2.439281   3.702798   3.060460   2.646291
    19  H    5.348513   4.460266   4.700753   2.474403   3.688781
    20  H    2.321446   3.243901   2.475063   4.346127   4.416807
                   16         17         18         19         20
    16  H    0.000000
    17  H    4.896811   0.000000
    18  H    4.670439   1.785291   0.000000
    19  H    4.053095   2.404781   2.825393   0.000000
    20  H    4.076867   2.943637   3.995377   4.037561   0.000000
 Framework group  C1[X(C5H10O5)]
 Deg. of freedom    54
                         Standard orientation:                         
 ---------------------------------------------------------------------
 Center     Atomic      Atomic             Coordinates (Angstroms)
 Number     Number       Type             X           Y           Z
 ---------------------------------------------------------------------
      1          8           0        2.323521   -0.450332   -0.452629
      2          6           0        1.306073    0.371641   -1.019605
      3          6           0       -0.026901   -0.016153   -0.393923
      4          6           0       -1.098233    0.989424   -0.851672
      5          8           0       -0.824719    2.294764   -0.404648
      6          6           0       -0.442908   -1.455713   -0.794693
      7          8           0       -1.741627   -1.778575   -0.395597
      8          6           0        0.028388    0.015789    1.141360
      9          8           0        1.219611   -0.003100    1.717870
     10          8           0       -0.984531    0.016707    1.790543
     11          1           0        3.160738   -0.336202   -0.914163
     12          1           0        1.243625    0.231949   -2.116401
     13          1           0        1.489908    1.442654   -0.812102
     14          1           0       -2.076813    0.625557   -0.504319
     15          1           0       -1.121585    1.012469   -1.956682
     16          1           0       -1.210948    2.408318    0.472043
     17          1           0        0.310925   -2.164881   -0.393124
     18          1           0       -0.419988   -1.538416   -1.896644
     19          1           0       -1.825466   -1.597089    0.553669
     20          1           0        1.913052   -0.149997    1.034611
 ---------------------------------------------------------------------
 Rotational constants (GHZ):           1.3867591           1.2060391           1.1309686
   160 basis functions,   290 primitive gaussians,   170 cartesian basis functions
    40 alpha electrons       40 beta electrons
       nuclear repulsion energy       617.8764416366 Hartrees.
 NAtoms=   20 NActive=   20 NUniq=   20 SFac= 1.00D+00 NAtFMM=   60 NAOKFM=F Big=F
 Nuclear repulsion after empirical dispersion term =      617.8628273709 Hartrees.
   1 Symmetry operations used in ECPInt.
 ECPInt:  NShTT=    3240 NPrTT=   13040 LenC2=    3204 LenP2D=   10035.
 LDataN:  DoStor=T MaxTD1= 4 Len=   56
 Initial guess from the checkpoint file:  "/scratch/user/peterchao1/peterchao1/6097833_1659647604000000861152458/Gau-193379.chk"
 B after Tr=    -0.000000   -0.000000   -0.000000
         Rot=    0.999426    0.009111   -0.013842   -0.029552 Ang=   3.88 deg.
 ExpMin= 1.22D-01 ExpMax= 2.27D+03 ExpMxC= 3.41D+02 IAcc=3 IRadAn=         5 AccDes= 0.00D+00
 Harris functional with IExCor= 4639 and IRadAn=       5 diagonalized for initial guess.
 HarFok:  IExCor= 4639 AccDes= 0.00D+00 IRadAn=         5 IDoV= 1 UseB2=F ITyADJ=14
 ICtDFT=  3500011 ScaDFX=  1.000000  1.000000  1.000000  1.000000
 FoFCou: FMM=F IPFlag=           0 FMFlag=      100000 FMFlg1=           0
         NFxFlg=           0 DoJE=T BraDBF=F KetDBF=T FulRan=T
         wScrn=  0.000000 ICntrl=       500 IOpCl=  0 I1Cent=   200000004 NGrid=           0
         NMat0=    1 NMatS0=      1 NMatT0=    0 NMatD0=    1 NMtDS0=    0 NMtDT0=    0
 Petite list used in FoFCou.
     Minimum is close to point  4 DX=  5.79D-02 DF= -2.04D-05 DXR=  4.60D-02 DFR=  2.12D-03 which will be used.
     Accept linear search using points  2 and  3.
     Accept linear search using points  1 and  2.
     Minimum is close to point  2 DX= -9.10D-02 DF= -8.28D-06 DXR=  9.01D-02 DFR=  9.51D-03 which will be used.
     Accept linear search using points  1 and  2.
     Accept linear search using points  1 and  2.
     Accept linear search using points  1 and  2.
     Minimum is close to point  2 DX= -1.29D-05 DF=  0.00D+00 DXR=  1.29D-05 DFR=  0.00D+00 which will be used.
 SCF Done:  E(RwB97XD) =  -572.026632173     a.u. after    9 cycles
            Convg  =    0.1062D-08                    41 Fock formations.
              S**2 =  0.0000                  -V/T =  2.0077
   1 Symmetry operations used in ECPInt.
 ECPInt:  NShTT=    3240 NPrTT=   13040 LenC2=    3204 LenP2D=   10035.
 LDataN:  DoStor=T MaxTD1= 5 Len=  102
 Calling FoFJK, ICntrl=      2127 FMM=F ISym2X=0 I1Cent= 0 IOpClX= 0 NMat=1 NMatS=1 NMatT=0.

 GradGradGradGradGradGradGradGradGradGradGradGradGradGradGradGradGradGrad
 Using GEDIIS/GDIIS optimizer.
 FormGI is forming the generalized inverse of G from B-inverse, IUseBI=4.
 Internal  Forces:  Max     0.020373079 RMS     0.004948099
 Step number   3 out of a maximum of  104
 All quantities printed in internal units (Hartrees-Bohrs-Radians)
 Mixed Optimization -- RFO/linear search
 Trust test= 1.98D-01 RLast= 4.40D-01 DXMaxT set to 5.05D-01
 ITU=  0  1  0
 Use linear search instead of GDIIS.
     Eigenvalues ---    0.00192   0.00252   0.00351   0.00519   0.00977
     Eigenvalues ---    0.01059   0.01306   0.01330   0.02326   0.04699
     Eigenvalues ---    0.04704   0.04804   0.05166   0.05413   0.05760
     Eigenvalues ---    0.05924   0.06036   0.07130   0.11106   0.11288
     Eigenvalues ---    0.11547   0.13508   0.13878   0.14105   0.15297
     Eigenvalues ---    0.15460   0.15859   0.16000   0.16169   0.16788
     Eigenvalues ---    0.21563   0.22057   0.23277   0.23767   0.28041
     Eigenvalues ---    0.28399   0.28637   0.29679   0.33650   0.34106
     Eigenvalues ---    0.34117   0.34166   0.34220   0.34271   0.37266
     Eigenvalues ---    0.40901   0.41356   0.50186   0.51361   0.51568
     Eigenvalues ---    0.51913   0.54904   0.68902   0.93661
 Quartic linear search produced a step of -0.41808.
 Iteration  1 RMS(Cart)=  0.07321753 RMS(Int)=  0.00256908
 Iteration  2 RMS(Cart)=  0.00277084 RMS(Int)=  0.00007531
 Iteration  3 RMS(Cart)=  0.00000950 RMS(Int)=  0.00007484
 Iteration  4 RMS(Cart)=  0.00000000 RMS(Int)=  0.00007484
 Variable       Old X    -DE/DX   Delta X   Delta X   Delta X     New X
                                 (Linear)    (Quad)   (Total)
    R1        2.69397  -0.00181   0.00683  -0.02497  -0.01814   2.67584
    R2        1.81942   0.00369   0.00305  -0.00332  -0.00027   1.81914
    R3        2.87753   0.01103   0.00179   0.01501   0.01681   2.89433
    R4        2.09272  -0.00140  -0.00221   0.00277   0.00056   2.09328
    R5        2.09062  -0.00065  -0.00208   0.00329   0.00121   2.09184
    R6        2.90826  -0.00011  -0.00400   0.01444   0.01045   2.91870
    R7        2.93122   0.00020  -0.00492   0.01458   0.00966   2.94088
    R8        2.90377   0.01202   0.00051   0.01171   0.01223   2.91600
    R9        2.65811  -0.00233   0.00909  -0.02895  -0.01986   2.63825
   R10        2.07928   0.00037  -0.00081   0.00224   0.00143   2.08071
   R11        2.08909  -0.00068  -0.00143   0.00159   0.00016   2.08925
   R12        1.82303   0.00231   0.00219  -0.00232  -0.00013   1.82289
   R13        2.63899  -0.00077   0.00819  -0.02164  -0.01345   2.62553
   R14        2.09789  -0.00099  -0.00322   0.00610   0.00288   2.10076
   R15        2.08869  -0.00067  -0.00199   0.00335   0.00137   2.09006
   R16        1.83320   0.00158   0.00119  -0.00031   0.00088   1.83409
   R17        2.50111   0.00015   0.00381  -0.00664  -0.00283   2.49828
   R18        2.27352   0.01024   0.00273   0.00191   0.00464   2.27816
   R19        1.86048   0.00217  -0.00111   0.00638   0.00528   1.86575
    A1        1.94080  -0.00087  -0.00735   0.01255   0.00520   1.94599
    A2        1.89074   0.01911   0.00925   0.01403   0.02325   1.91399
    A3        1.94058  -0.00996  -0.00584  -0.02135  -0.02718   1.91340
    A4        1.94443  -0.00451  -0.00397   0.00483   0.00075   1.94517
    A5        1.90230  -0.00335  -0.00198   0.00263   0.00074   1.90304
    A6        1.89119  -0.00256   0.00490  -0.00132   0.00348   1.89467
    A7        1.89363   0.00135  -0.00223   0.00160  -0.00066   1.89296
    A8        1.89733  -0.00433  -0.00709   0.00553  -0.00134   1.89600
    A9        1.94439  -0.00369  -0.00402   0.00639   0.00248   1.94687
   A10        1.95385   0.01259   0.01359   0.01720   0.03080   1.98464
   A11        1.92075   0.00448  -0.00311   0.00315  -0.00004   1.92072
   A12        1.88456  -0.00655  -0.00209  -0.02287  -0.02505   1.85951
   A13        1.86199  -0.00245   0.00259  -0.01058  -0.00823   1.85376
   A14        1.95678  -0.00054  -0.00537   0.01545   0.01006   1.96685
   A15        1.88509   0.00123   0.00842  -0.01213  -0.00369   1.88139
   A16        1.90247   0.00019   0.00296  -0.00716  -0.00417   1.89831
   A17        1.96005  -0.00052  -0.00484   0.00417  -0.00070   1.95935
   A18        1.87803  -0.00005  -0.00092  -0.00016  -0.00108   1.87695
   A19        1.87932  -0.00031  -0.00003  -0.00098  -0.00095   1.87837
   A20        1.89673  -0.00089  -0.00242   0.00168  -0.00074   1.89599
   A21        1.97159   0.00060  -0.00359   0.01344   0.00982   1.98141
   A22        1.89366   0.00062   0.00836  -0.01872  -0.01036   1.88330
   A23        1.89808  -0.00020   0.00392  -0.01046  -0.00662   1.89146
   A24        1.96106  -0.00093  -0.00299  -0.00412  -0.00708   1.95398
   A25        1.86179  -0.00001  -0.00789   0.02726   0.01934   1.88113
   A26        1.87418  -0.00013   0.00220  -0.00795  -0.00570   1.86848
   A27        1.89312   0.00098  -0.00697   0.02688   0.01992   1.91304
   A28        2.05703   0.02037   0.01130  -0.00543   0.00585   2.06287
   A29        2.10464  -0.01082   0.00238  -0.02384  -0.02148   2.08317
   A30        2.12085  -0.00952  -0.01351   0.02958   0.01606   2.13691
   A31        1.91109   0.00695   0.00599   0.00763   0.01363   1.92472
    D1        2.98833  -0.00055  -0.04082   0.12889   0.08794   3.07627
    D2        0.89838  -0.00257  -0.04066   0.12961   0.08905   0.98743
    D3       -1.21626   0.00571  -0.03127   0.13903   0.10778  -1.10848
    D4        3.00717   0.00288   0.01865   0.08559   0.10433   3.11150
    D5       -1.15654   0.00323   0.00779   0.09727   0.10497  -1.05157
    D6        0.92682   0.00611   0.01765   0.09980   0.11749   1.04431
    D7       -1.16223   0.00030   0.01593   0.06969   0.08571  -1.07652
    D8        0.95725   0.00066   0.00506   0.08138   0.08635   1.04360
    D9        3.04061   0.00353   0.01493   0.08391   0.09887   3.13948
   D10        0.89529  -0.00140   0.01492   0.07232   0.08730   0.98259
   D11        3.01476  -0.00104   0.00405   0.08401   0.08794   3.10270
   D12       -1.18506   0.00184   0.01391   0.08654   0.10046  -1.08461
   D13       -1.10165  -0.00460   0.03360  -0.12607  -0.09249  -1.19413
   D14        3.01293  -0.00446   0.03742  -0.13307  -0.09570   2.91723
   D15        0.97576  -0.00487   0.03106  -0.12140  -0.09035   0.88541
   D16        3.04766  -0.00007   0.04484  -0.13953  -0.09466   2.95300
   D17        0.87906   0.00008   0.04866  -0.14653  -0.09788   0.78118
   D18       -1.15812  -0.00033   0.04230  -0.13486  -0.09253  -1.25064
   D19        1.02157   0.00415   0.04458  -0.11568  -0.07108   0.95048
   D20       -1.14704   0.00429   0.04840  -0.12268  -0.07430  -1.22134
   D21        3.09897   0.00388   0.04204  -0.11101  -0.06894   3.03003
   D22       -2.99477   0.00519   0.03889  -0.09770  -0.05885  -3.05362
   D23        1.10202   0.00549   0.03903  -0.08775  -0.04875   1.05326
   D24       -0.93137   0.00541   0.02946  -0.06240  -0.03298  -0.96435
   D25       -0.88898   0.00032   0.02547  -0.08442  -0.05893  -0.94791
   D26       -3.07538   0.00063   0.02561  -0.07447  -0.04883  -3.12421
   D27        1.17441   0.00055   0.01604  -0.04913  -0.03306   1.14135
   D28        1.15125  -0.00649   0.02282  -0.11582  -0.09299   1.05826
   D29       -1.03515  -0.00618   0.02296  -0.10587  -0.08290  -1.11805
   D30       -3.06854  -0.00626   0.01339  -0.08053  -0.06713  -3.13566
   D31       -0.31407  -0.00113   0.00636  -0.02879  -0.02256  -0.33663
   D32        2.86607  -0.00202   0.00025  -0.03865  -0.03839   2.82767
   D33       -2.40193   0.00089   0.00830  -0.03117  -0.02272  -2.42465
   D34        0.77821  -0.00000   0.00219  -0.04102  -0.03856   0.73965
   D35        1.81715   0.00031   0.01164  -0.01748  -0.00605   1.81110
   D36       -1.28590  -0.00057   0.00554  -0.02734  -0.02188  -1.30779
   D37       -1.53065   0.00023  -0.01038   0.04085   0.03048  -1.50017
   D38        0.59564   0.00106  -0.00686   0.03942   0.03255   0.62820
   D39        2.66081   0.00035  -0.01025   0.04054   0.03029   2.69110
   D40       -0.92320   0.00041  -0.02080   0.07428   0.05354  -0.86966
   D41        1.22626   0.00098  -0.01477   0.05651   0.04178   1.26804
   D42       -3.00766   0.00031  -0.01850   0.06147   0.04286  -2.96479
   D43       -0.12279  -0.00145  -0.03763   0.09238   0.05455  -0.06823
   D44        2.97988  -0.00058  -0.03124   0.10108   0.07003   3.04991
         Item               Value     Threshold  Converged?
 Maximum Force            0.020373     0.000015     NO 
 RMS     Force            0.004948     0.000010     NO 
 Maximum Displacement     0.256411     0.000060     NO 
 RMS     Displacement     0.072711     0.000040     NO 
 GradGradGradGradGradGradGradGradGradGradGradGradGradGradGradGradGradGrad

                    Distance matrix (angstroms):
                    1          2          3          4          5
     1  O    0.000000
     2  C    1.415992   0.000000
     3  C    2.410483   1.531615   0.000000
     4  C    3.752213   2.498593   1.544511   0.000000
     5  O    4.271743   3.001281   2.449146   1.396102   0.000000
     6  C    2.934681   2.553148   1.556244   2.540759   3.787111
     7  O    4.245041   3.796640   2.465444   2.922800   4.164805
     8  C    2.964856   2.574443   1.543080   2.474621   2.827501
     9  O    2.680312   2.826318   2.460993   3.598524   3.713751
    10  O    4.154350   3.665521   2.378744   2.760878   3.029599
    11  H    0.962648   1.982612   3.267712   4.471194   4.879565
    12  H    2.070245   1.107714   2.163240   2.734818   3.405089
    13  H    2.092073   1.106951   2.156452   2.681542   2.626477
    14  H    4.544312   3.433800   2.153452   1.101062   2.079943
    15  H    3.982766   2.643604   2.169434   1.105583   2.025295
    16  H    4.750489   3.629224   2.823616   1.933950   0.964634
    17  H    2.580224   2.776968   2.172897   3.490869   4.599501
    18  H    3.236861   2.741282   2.174908   2.804421   4.136028
    19  H    4.414867   4.026368   2.578187   3.069010   4.089530
    20  H    1.801994   2.270224   2.433473   3.743146   3.942824
                    6          7          8          9         10
     6  C    0.000000
     7  O    1.389372   0.000000
     8  C    2.478696   2.902939   0.000000
     9  O    3.345281   3.977813   1.322031   0.000000
    10  O    3.019669   2.869916   1.205552   2.216030   0.000000
    11  H    3.792829   5.142448   3.866254   3.452095   5.067203
    12  H    2.782116   4.047356   3.516919   3.912172   4.505880
    13  H    3.501627   4.607347   2.825572   2.920838   3.855603
    14  H    2.624830   2.439800   2.758503   4.047135   2.599981
    15  H    2.862275   3.385786   3.440184   4.464626   3.837665
    16  H    4.094918   4.236055   2.700875   3.605080   2.562025
    17  H    1.111676   2.078724   2.714169   3.174652   3.407222
    18  H    1.106012   2.022906   3.444287   4.277822   4.016691
    19  H    1.943559   0.970556   2.461992   3.530405   2.140161
    20  H    3.291012   4.222631   1.904552   0.987315   3.018204
                   11         12         13         14         15
    11  H    0.000000
    12  H    2.333381   0.000000
    13  H    2.401023   1.796900   0.000000
    14  H    5.348148   3.658197   3.730016   0.000000
    15  H    4.553066   2.411236   2.889649   1.780935   0.000000
    16  H    5.437086   4.195254   3.268855   2.206154   2.798784
    17  H    3.416479   3.130257   3.787435   3.660971   3.844126
    18  H    3.918225   2.508494   3.745139   2.966724   2.680288
    19  H    5.363545   4.502755   4.701284   2.521637   3.793986
    20  H    2.496094   3.339238   2.441057   4.374337   4.417268
                   16         17         18         19         20
    16  H    0.000000
    17  H    4.864912   0.000000
    18  H    4.630892   1.783354   0.000000
    19  H    3.950227   2.424210   2.838133   0.000000
    20  H    4.062902   2.980906   4.061695   3.982175   0.000000
 Framework group  C1[X(C5H10O5)]
 Deg. of freedom    54
                         Standard orientation:                         
 ---------------------------------------------------------------------
 Center     Atomic      Atomic             Coordinates (Angstroms)
 Number     Number       Type             X           Y           Z
 ---------------------------------------------------------------------
      1          8           0        2.438583   -0.312873   -0.266158
      2          6           0        1.412844    0.428330   -0.901383
      3          6           0        0.046802   -0.040792   -0.391779
      4          6           0       -1.050711    0.811332   -1.066216
      5          8           0       -1.038039    2.140861   -0.640429
      6          6           0       -0.188420   -1.549339   -0.693197
      7          8           0       -1.459278   -1.992261   -0.348093
      8          6           0       -0.139097    0.128444    1.130686
      9          8           0        0.941164    0.264788    1.880494
     10          8           0       -1.250981    0.108429    1.596164
     11          1           0        3.307007   -0.079451   -0.609736
     12          1           0        1.463487    0.270657   -1.996648
     13          1           0        1.511392    1.512033   -0.698365
     14          1           0       -2.019245    0.322421   -0.878483
     15          1           0       -0.881131    0.809692   -2.158715
     16          1           0       -1.562586    2.211206    0.166058
     17          1           0        0.607944   -2.129056   -0.177877
     18          1           0       -0.057239   -1.712437   -1.779223
     19          1           0       -1.664348   -1.718007    0.560043
     20          1           0        1.754622    0.173528    1.328455
 ---------------------------------------------------------------------
 Rotational constants (GHZ):           1.3804001           1.1995906           1.1230863
   160 basis functions,   290 primitive gaussians,   170 cartesian basis functions
    40 alpha electrons       40 beta electrons
       nuclear repulsion energy       616.2340140912 Hartrees.
 NAtoms=   20 NActive=   20 NUniq=   20 SFac= 1.00D+00 NAtFMM=   60 NAOKFM=F Big=F
 Nuclear repulsion after empirical dispersion term =      616.2204620545 Hartrees.
   1 Symmetry operations used in ECPInt.
 ECPInt:  NShTT=    3240 NPrTT=   13040 LenC2=    3204 LenP2D=   10029.
 LDataN:  DoStor=T MaxTD1= 4 Len=   56
 Initial guess from the checkpoint file:  "/scratch/user/peterchao1/peterchao1/6097833_1659647604000000861152458/Gau-193379.chk"
 B after Tr=    -0.000000   -0.000000    0.000000
         Rot=    0.996030    0.044177    0.057642   -0.051476 Ang=  10.21 deg.
 ExpMin= 1.22D-01 ExpMax= 2.27D+03 ExpMxC= 3.41D+02 IAcc=3 IRadAn=         5 AccDes= 0.00D+00
 Harris functional with IExCor= 4639 and IRadAn=       5 diagonalized for initial guess.
 HarFok:  IExCor= 4639 AccDes= 0.00D+00 IRadAn=         5 IDoV= 1 UseB2=F ITyADJ=14
 ICtDFT=  3500011 ScaDFX=  1.000000  1.000000  1.000000  1.000000
 FoFCou: FMM=F IPFlag=           0 FMFlag=      100000 FMFlg1=           0
         NFxFlg=           0 DoJE=T BraDBF=F KetDBF=T FulRan=T
         wScrn=  0.000000 ICntrl=       500 IOpCl=  0 I1Cent=   200000004 NGrid=           0
         NMat0=    1 NMatS0=      1 NMatT0=    0 NMatD0=    1 NMtDS0=    0 NMtDT0=    0
 Petite list used in FoFCou.
     Minimum is close to point  4 DX=  1.67D-02 DF= -2.31D-06 DXR=  1.37D-02 DFR=  1.89D-04 which will be used.
     Accept linear search using points  1 and  2.
     Minimum is close to point  2 DX= -2.24D-02 DF= -5.61D-07 DXR=  2.29D-02 DFR=  5.26D-04 which will be used.
     Accept linear search using points  1 and  2.
     Accept linear search using points  1 and  2.
     Accept linear search using points  1 and  2.
     Accept linear search using points  1 and  2.
     Minimum is close to point  2 DX= -7.84D-05 DF= -3.41D-13 DXR=  7.84D-05 DFR=  7.33D-09 which will be used.
 SCF Done:  E(RwB97XD) =  -572.027173828     a.u. after   11 cycles
            Convg  =    0.1959D-09                    45 Fock formations.
              S**2 =  0.0000                  -V/T =  2.0078
   1 Symmetry operations used in ECPInt.
 ECPInt:  NShTT=    3240 NPrTT=   13040 LenC2=    3204 LenP2D=   10029.
 LDataN:  DoStor=T MaxTD1= 5 Len=  102
 Calling FoFJK, ICntrl=      2127 FMM=F ISym2X=0 I1Cent= 0 IOpClX= 0 NMat=1 NMatS=1 NMatT=0.

 GradGradGradGradGradGradGradGradGradGradGradGradGradGradGradGradGradGrad
 Using GEDIIS/GDIIS optimizer.
 FormGI is forming the generalized inverse of G from B-inverse, IUseBI=4.
 Internal  Forces:  Max     0.010174244 RMS     0.002317718
 Step number   4 out of a maximum of  104
 All quantities printed in internal units (Hartrees-Bohrs-Radians)
 Mixed Optimization -- RFO/linear search
 Trust test= 1.71D-01 RLast= 4.94D-01 DXMaxT set to 5.05D-01
 ITU=  0  0  1  0
 Use linear search instead of GDIIS.
     Eigenvalues ---    0.00241   0.00263   0.00430   0.00531   0.00994
     Eigenvalues ---    0.01089   0.01305   0.01329   0.02533   0.04674
     Eigenvalues ---    0.04731   0.04835   0.04992   0.05402   0.05836
     Eigenvalues ---    0.05939   0.06093   0.07495   0.11143   0.11339
     Eigenvalues ---    0.11590   0.13647   0.13917   0.14152   0.15503
     Eigenvalues ---    0.15631   0.15798   0.15995   0.16022   0.17133
     Eigenvalues ---    0.21838   0.22024   0.22810   0.25436   0.28053
     Eigenvalues ---    0.28383   0.28697   0.29981   0.33622   0.34096
     Eigenvalues ---    0.34122   0.34167   0.34220   0.34277   0.37530
     Eigenvalues ---    0.40775   0.41375   0.50102   0.51090   0.51595
     Eigenvalues ---    0.51857   0.54342   0.62282   0.91264
 Quartic linear search produced a step of -0.46686.
 Iteration  1 RMS(Cart)=  0.11335548 RMS(Int)=  0.00634267
 Iteration  2 RMS(Cart)=  0.00819475 RMS(Int)=  0.00016617
 Iteration  3 RMS(Cart)=  0.00004551 RMS(Int)=  0.00016360
 Iteration  4 RMS(Cart)=  0.00000001 RMS(Int)=  0.00016360
 Variable       Old X    -DE/DX   Delta X   Delta X   Delta X     New X
                                 (Linear)    (Quad)   (Total)
    R1        2.67584   0.00191   0.00847  -0.00519   0.00327   2.67911
    R2        1.81914   0.00332   0.00013   0.01182   0.01195   1.83109
    R3        2.89433  -0.00442  -0.00785   0.01810   0.01026   2.90459
    R4        2.09328  -0.00092  -0.00026  -0.00704  -0.00730   2.08598
    R5        2.09184  -0.00006  -0.00057  -0.00450  -0.00507   2.08677
    R6        2.91870  -0.00131  -0.00488   0.00233  -0.00255   2.91616
    R7        2.94088  -0.00106  -0.00451  -0.00186  -0.00637   2.93451
    R8        2.91600  -0.00244  -0.00571   0.00972   0.00401   2.92001
    R9        2.63825   0.00396   0.00927   0.00245   0.01172   2.64997
   R10        2.08071   0.00045  -0.00067   0.00030  -0.00037   2.08034
   R11        2.08925  -0.00066  -0.00008  -0.00517  -0.00524   2.08400
   R12        1.82289   0.00257   0.00006   0.00896   0.00902   1.83191
   R13        2.62553   0.00262   0.00628   0.00790   0.01418   2.63971
   R14        2.10076  -0.00177  -0.00134  -0.00805  -0.00939   2.09137
   R15        2.09006  -0.00107  -0.00064  -0.00559  -0.00623   2.08383
   R16        1.83409   0.00015  -0.00041   0.00503   0.00462   1.83870
   R17        2.49828   0.00205   0.00132   0.00987   0.01120   2.50947
   R18        2.27816   0.00415  -0.00217   0.01745   0.01528   2.29345
   R19        1.86575  -0.00229  -0.00246   0.00198  -0.00049   1.86527
    A1        1.94599  -0.00409  -0.00243  -0.02857  -0.03099   1.91500
    A2        1.91399  -0.00232  -0.01086   0.04531   0.03440   1.94839
    A3        1.91340   0.00389   0.01269  -0.02223  -0.00988   1.90352
    A4        1.94517  -0.00155  -0.00035  -0.03083  -0.03135   1.91382
    A5        1.90304  -0.00024  -0.00034   0.00356   0.00312   1.90616
    A6        1.89467   0.00091  -0.00162   0.01332   0.01191   1.90658
    A7        1.89296  -0.00067   0.00031  -0.00881  -0.00871   1.88425
    A8        1.89600  -0.00007   0.00062  -0.01876  -0.01822   1.87778
    A9        1.94687   0.00170  -0.00116  -0.00530  -0.00670   1.94017
   A10        1.98464  -0.00445  -0.01438   0.03932   0.02492   2.00956
   A11        1.92072  -0.00159   0.00002  -0.00175  -0.00178   1.91893
   A12        1.85951   0.00310   0.01170  -0.01762  -0.00576   1.85374
   A13        1.85376   0.00137   0.00384   0.00351   0.00742   1.86117
   A14        1.96685  -0.00179  -0.00470  -0.00451  -0.00918   1.95767
   A15        1.88139   0.00115   0.00172   0.02444   0.02611   1.90751
   A16        1.89831   0.00047   0.00195   0.00266   0.00451   1.90282
   A17        1.95935   0.00045   0.00033  -0.01390  -0.01352   1.94582
   A18        1.87695   0.00018   0.00050  -0.00630  -0.00581   1.87114
   A19        1.87837  -0.00042   0.00044  -0.00223  -0.00199   1.87638
   A20        1.89599  -0.00092   0.00034  -0.01130  -0.01096   1.88503
   A21        1.98141   0.00076  -0.00458   0.00647   0.00187   1.98328
   A22        1.88330   0.00043   0.00484   0.01690   0.02169   1.90499
   A23        1.89146   0.00049   0.00309  -0.00077   0.00233   1.89380
   A24        1.95398   0.00060   0.00331  -0.01084  -0.00766   1.94632
   A25        1.88113  -0.00231  -0.00903  -0.01049  -0.01953   1.86160
   A26        1.86848  -0.00002   0.00266  -0.00170   0.00082   1.86931
   A27        1.91304  -0.00084  -0.00930   0.00701  -0.00229   1.91075
   A28        2.06287  -0.00408  -0.00273   0.01993   0.01669   2.07957
   A29        2.08317   0.01017   0.01003   0.00247   0.01197   2.09513
   A30        2.13691  -0.00613  -0.00750  -0.02348  -0.03146   2.10545
[...]
 0764,0.00608546,0.00499630,-0.00857309,0.02839597,0.00147451,-0.005721
 57,-0.00788867,0.00500323,0.69375091,0.00485539,0.00138160,-0.00013418
 ,-0.03019402,0.00185914,-0.00456720,0.00297195,-0.09721247,0.00244346,
 -0.00876633,0.00148536,-0.00216728,-0.00077675,-0.00250449,0.00142758,
 0.04127303,-0.00055381,-0.00208162,-0.00256283,-0.00015009,0.00152079,
 0.04617095,0.27960729,-0.01627198,-0.00373669,-0.00045398,0.03105824,-
 0.00114966,0.00880085,-0.01238982,-0.00045594,-0.08904929,-0.04249727,
 0.00493198,0.00320465,0.00945162,0.00067932,0.00134185,0.00902312,-0.0
 0591683,0.00704327,0.00434591,0.00056099,-0.00701365,-0.18516284,-0.14
 904345,0.95102482,-0.01353341,-0.00875544,0.01307657,0.00217077,0.0019
 4138,0.00062236,-0.01610693,0.00571510,-0.03691461,-0.00846418,0.00376
 304,0.00515165,0.00215704,-0.00208772,-0.00058948,-0.00197104,-0.00444
 565,-0.00126154,0.00110328,0.00224504,-0.00039126,-0.20547948,0.014062
 82,-0.09094377,0.44462243,-0.01090549,0.00316649,0.00132382,0.00442386
 ,-0.00129084,0.00382149,0.00172117,0.01818799,0.00772685,0.00243073,0.
 00016508,-0.00132406,-0.00000855,0.00132415,-0.00036886,-0.00426237,-0
 .00037138,-0.00136173,0.00063279,0.00044991,-0.00025538,0.02156112,-0.
 06328341,0.04219428,0.03214182,0.06411867,0.02376428,0.00598807,0.0018
 0923,-0.00366729,0.00140647,-0.01380815,-0.00794872,0.00738034,-0.0081
 0310,-0.00081412,0.00022017,0.00168241,-0.00212757,-0.00158715,0.00052
 184,-0.00185321,-0.00346214,-0.00483729,-0.00096456,0.00131788,0.00295
 384,-0.13378162,0.04059304,-0.27349576,-0.05943758,-0.12496574,0.60112
 645,0.00218057,0.00011364,0.00165474,-0.00910144,0.00436514,-0.0036092
 0,-0.02746378,-0.01055191,0.03934490,-0.00035620,0.00229758,0.00539024
 ,0.00070398,-0.00317545,-0.00254516,-0.00371933,-0.00705943,0.00088086
 ,0.00250475,0.00310542,-0.00142649,-0.32585143,-0.06820201,0.29981722,
 0.03969103,0.00118491,-0.00041610,0.33313052,-0.00173560,-0.00043950,-
 0.00013707,0.00349345,-0.00029925,0.00188384,-0.00425112,0.02511771,0.
 00421281,0.00361837,-0.00379689,-0.00005720,-0.00475476,-0.00028747,-0
 .00193701,-0.00770063,-0.00669129,0.00361671,0.00453138,-0.00013289,-0
 .00342211,-0.06938088,-0.10046651,0.10165009,-0.00394246,0.00938948,0.
 02516324,0.07843693,0.06115389,0.00726055,0.00118049,0.00033903,0.0002
 7251,-0.00163464,-0.00147533,0.01848720,0.00432741,-0.00604616,0.00113
 302,-0.00346098,-0.00778445,-0.00765550,-0.00041168,0.00170358,0.00200
 322,0.00679556,-0.00283498,-0.00349209,-0.00119279,0.00436872,0.304864
 19,0.10174838,-0.53611798,0.02442390,0.02643385,-0.10919737,-0.3376294
 1,-0.13463105,0.65093157,-0.06118059,-0.12388327,0.08208804,0.00418920
 ,0.01181377,-0.01032683,-0.00143112,-0.00074860,-0.00159281,0.00048379
 ,0.00014652,-0.00036641,-0.00013547,0.00015976,-0.00015256,0.00032590,
 -0.00010007,-0.00010219,-0.00010428,0.00008066,0.00009255,0.00001252,-
 0.00013108,-0.00090675,-0.00384506,0.00045986,0.00192943,-0.00000135,0
 .00005531,0.00027731,0.05698347,-0.11713894,-0.29727129,0.23098043,0.0
 0280744,0.00666098,-0.00999254,-0.00013146,0.00018014,-0.00191652,-0.0
 0009591,0.00048424,-0.00026678,0.00011183,-0.00015558,0.00000981,-0.00
 020888,-0.00028615,-0.00025843,0.00010941,0.00007971,0.00013685,-0.000
 70178,0.00013184,-0.00023214,0.00152537,0.00036039,-0.00057158,0.00032
 725,-0.00011278,-0.00009253,0.11507493,0.28982645,0.05835609,0.1870145
 2,-0.19905462,0.01244197,0.03128544,-0.02471707,-0.00384954,-0.0035144
 3,-0.00576405,0.00086332,0.00214935,-0.00075085,0.00008915,-0.00043948
 ,0.00054984,-0.00036890,-0.00036212,-0.00015207,-0.00001826,-0.0004810
 1,0.00043769,-0.00024474,0.00005789,-0.00136951,-0.00133728,-0.0004505
 5,0.00198426,-0.00035354,-0.00015355,0.00083390,-0.07094679,-0.2159760
 5,0.22728172,-0.00613220,-0.00157328,-0.01162476,-0.30495154,0.0284909
 0,0.00322272,-0.01428694,0.00049867,0.00132129,-0.00036511,0.00024501,
 -0.00123024,0.00036226,-0.00012992,0.00045706,0.00028786,0.00147467,-0
 .00049459,0.00062701,-0.00004166,-0.00000584,0.00209938,-0.00192776,0.
 00115083,-0.00011463,0.00018964,0.00024702,-0.00150981,0.00007877,0.00
 106828,-0.00041219,-0.00061735,-0.00012648,0.32712873,-0.00906828,0.00
 435456,-0.00177539,0.03149736,-0.05884334,-0.00124489,-0.02375525,0.00
 106061,0.00132326,-0.00014247,0.00033594,-0.00107526,-0.00019598,0.000
 12743,-0.00062178,-0.00228155,0.00089251,-0.00013244,0.00054531,0.0003
 3718,-0.00026074,0.00112432,-0.00341712,0.00369458,-0.00002265,0.00048
 257,-0.00066006,-0.00212289,0.00047542,0.00064812,0.00089888,-0.000210
 12,0.00037650,-0.02653443,0.05499466,-0.04309510,-0.00076104,-0.016672
 65,0.00821393,-0.00042077,-0.04755937,0.02023173,-0.00103031,0.0001922
 1,0.00219816,0.00042801,0.00094776,-0.00060044,-0.00009171,-0.00037341
 ,-0.00005919,-0.00113956,0.00031769,-0.00017358,-0.00005106,-0.0000459
 1,-0.00253200,0.00366121,-0.00330459,-0.00028457,-0.00083847,0.0025267
 8,0.00243279,-0.00048849,-0.00049726,-0.00111527,-0.00050150,0.0010645
 8,0.00545319,-0.00052965,0.06378888,0.00519779,-0.01602631,-0.00912921
 ,-0.07716838,0.06846785,0.01893987,0.00404160,-0.01484545,-0.00327306,
 0.00053663,0.00055546,-0.00033281,-0.00066933,0.00019670,-0.00001215,-
 0.00148819,0.00008537,0.00214723,0.00046934,-0.00132273,0.00015362,0.0
 0073141,-0.00106868,-0.00094494,-0.00029656,0.00041611,0.00024838,0.00
 012462,0.00012919,0.00009889,0.00028650,0.00022487,0.00148722,-0.00572
 673,0.02908871,0.00762776,0.07279922,-0.00206607,0.00323827,-0.0047915
 1,0.06377145,-0.27524186,-0.06589407,0.00574527,-0.02026031,-0.0035661
 5,0.00056055,-0.00205899,-0.00132809,-0.00023701,0.00179804,-0.0014220
 5,-0.00265204,0.00027447,0.00305112,-0.00013447,-0.00200904,0.00031224
 ,0.00138869,0.00003219,0.00011776,-0.00074913,0.00033406,-0.00024565,-
 0.00026025,0.00001723,0.00023001,-0.00063613,0.00093218,-0.00041970,-0
 .00012635,-0.00003329,0.00026927,-0.06526741,0.29298481,0.00057811,-0.
 03282071,-0.02510812,0.01779202,-0.06199892,-0.06907384,-0.00512194,0.
 01946879,0.00705356,-0.00099062,0.00141549,0.00124713,0.00039337,-0.00
 078791,-0.00103925,0.00253971,0.00067646,-0.00351645,0.00007515,0.0023
 6463,-0.00031940,-0.00127250,-0.00012352,0.00049369,-0.00011188,-0.000
 03317,0.00093574,0.00015085,-0.00013215,-0.00024712,-0.00009996,-0.001
 95408,0.00148479,0.00088453,0.00032941,0.00302599,-0.01685308,0.074200
 10,0.08599781,0.00046321,0.00043688,-0.00053293,-0.00170201,-0.0013861
 4,-0.00047883,0.00393342,0.00782296,-0.00951094,-0.07488605,-0.0560413
 2,0.04760034,0.00490907,0.01825654,-0.00722594,0.00061292,0.00007729,0
 .00069446,-0.00058594,-0.00009609,-0.00005302,0.00061603,0.00079658,-0
 .00082816,0.00004211,-0.00018846,0.00081326,-0.00164207,-0.00019069,-0
 .00016359,0.00003177,0.00000687,-0.00022061,0.00046634,0.00005793,-0.0
 0015425,-0.00013088,0.00005596,0.00003305,0.07133070,0.00010647,0.0004
 8246,-0.00085568,-0.00075926,-0.00082556,-0.00086365,0.00118131,0.0068
 4281,-0.00292798,-0.04949541,-0.19261719,0.12269424,0.00114706,-0.0347
 3799,0.01035510,0.00076530,0.00012662,-0.00025694,-0.00023328,-0.00213
 773,-0.00153038,-0.00060078,-0.00003502,0.00103440,-0.00007198,0.00006
 908,-0.00035796,-0.00090560,0.00039747,-0.00122774,0.00001116,-0.00005
 275,-0.00024322,-0.00001611,0.00000257,-0.00001192,-0.00004872,0.00011
 365,-0.00028243,0.05210711,0.22122827,0.00028693,0.00159306,-0.0023321
 5,-0.00351979,-0.00364617,-0.00245868,0.00877489,0.02087665,-0.0214048
 6,0.04478486,0.12424703,-0.15580036,-0.00345052,-0.01689205,0.01254773
 ,0.00112136,0.00305456,-0.00211039,-0.00045238,0.00002712,0.00300130,0
 .00253827,0.00101606,-0.00260267,-0.00044357,-0.00036943,0.00112493,-0
 .00013611,-0.00087047,0.00241329,-0.00019613,-0.00018934,-0.00049981,0
 .00001814,-0.00020095,0.00004114,-0.00008240,0.00000029,0.00012202,-0.
 04728887,-0.12680150,0.16472721,0.00094569,-0.00003068,0.00034416,-0.0
 0030799,-0.00031967,0.00137458,-0.01044721,-0.00180810,-0.00052742,-0.
 30909073,-0.02898692,0.00036987,-0.01274083,0.00621773,0.00523931,-0.0
 0012226,0.00036712,0.00015390,0.00019693,-0.00047353,-0.00043462,0.000
 92947,-0.00053527,-0.00035620,-0.00077535,0.00035114,-0.00112336,0.000
 03696,0.00003756,-0.00059226,0.00000390,0.00004121,-0.00002054,0.00077
 658,0.00035071,-0.00045156,-0.00007266,-0.00005265,-0.00001685,-0.0051
 2405,-0.00061276,-0.00088716,0.33466383,-0.00001106,-0.00011177,-0.000
 22637,0.00057248,0.00015629,0.00067302,-0.00428756,0.00075872,0.001922
 29,-0.03960766,-0.05534271,0.00284484,0.04011955,-0.00315883,-0.007083
 93,-0.00105653,0.00050415,0.00035365,0.00062200,-0.00056980,-0.0003035
 8,-0.00060813,-0.00012086,-0.00023952,-0.00048482,0.00007439,-0.000567
 83,-0.00061791,0.00064410,-0.00082281,0.00001775,-0.00000066,0.0000311
 5,0.00011005,0.00023298,0.00020267,0.00003263,0.00001148,-0.00017948,-
 0.02206275,0.00117605,-0.00163044,0.02335802,0.06126775,0.00075214,-0.
 00002093,0.00090738,-0.00222046,-0.00023731,-0.00017948,-0.03179516,-0
 .00427131,-0.00225332,-0.00179289,0.00278873,-0.05084402,0.01653770,-0
 .00315692,-0.00137603,-0.00053282,0.00133855,0.00105898,-0.00006440,0.
 00007094,0.00028280,0.00193282,-0.00133150,-0.00699403,-0.00255645,0.0
 0082599,-0.00077829,-0.00001395,0.00016803,0.00168393,0.00001855,0.000
 06735,0.00004414,0.00061039,0.00016515,-0.00102577,0.00020496,0.000233
 58,-0.00002071,0.01952478,0.00101136,0.00203595,-0.00216849,0.00564915
 ,0.05643849,-0.00042629,0.00004108,-0.00056681,-0.00027962,-0.00013627
 ,0.00019744,0.00067130,-0.00125705,-0.00051007,-0.01980490,-0.00071226
 ,0.00583805,-0.44338326,-0.05391456,0.12339387,-0.00069669,0.00000678,
 -0.00044051,-0.00022175,-0.00038235,-0.00035970,0.00435142,0.00005432,
 -0.00550516,-0.00061896,-0.00035796,0.00221809,-0.00354565,0.00088724,
 0.00327053,-0.00000280,-0.00002468,-0.00002789,-0.00006030,-0.00004617
 ,0.00003129,-0.00000093,-0.00018199,0.00048576,0.00168784,-0.00206530,
 -0.00106031,0.00088778,0.00346966,0.00107046,0.46027388,-0.00034998,-0
 .00017167,0.00022021,0.00022569,0.00019606,0.00024751,0.00025563,-0.00
 010356,-0.00054544,0.04416941,-0.00016961,-0.01365105,-0.10443257,-0.0
 5813710,0.02135082,-0.00012684,-0.00010747,-0.00036798,-0.00025038,0.0
 0021801,0.00047101,0.00200019,0.00178146,-0.00826538,0.00013761,-0.001
 25788,0.00328910,-0.00021757,0.00109496,0.00575154,-0.00004955,0.00006
 567,-0.00003545,-0.00011150,-0.00016094,0.00008089,-0.00022113,0.00003
 198,-0.00002509,0.00103220,0.00032407,0.00076008,0.00267373,-0.0056558
 2,-0.00274472,0.05491058,0.06221073,-0.00039711,-0.00000594,0.00034366
 ,0.00002188,0.00012826,-0.00080580,0.00230297,0.00088485,-0.00011362,0
 .01499468,0.00064885,-0.00380559,0.11339193,0.00519334,-0.04116192,-0.
 00058995,-0.00110435,0.00034187,0.00008065,0.00048812,-0.00056841,-0.0
 0007282,-0.00182448,-0.00690874,0.00021668,-0.00044040,0.00175506,0.00
 000618,0.00274499,0.00202787,0.00004996,0.00000666,-0.00014562,-0.0002
 7356,0.00008769,0.00015266,0.00032022,-0.00004350,-0.00009462,-0.00148
 915,0.00009165,0.00141682,-0.00123228,-0.00068786,0.00050461,-0.127716
 19,-0.00616118,0.04742241,-0.00015760,0.00064284,0.00020395,-0.0001404
 5,-0.00067529,-0.00071560,0.00329696,0.00526436,0.01000777,-0.00068989
 ,0.00128752,-0.00083737,0.00033881,0.00060147,0.00083116,-0.08868586,-
 0.02136826,-0.08102289,0.00915581,0.00002457,0.01617170,0.00124026,0.0
 0017085,0.00157714,-0.00035021,-0.00019125,-0.00012699,-0.00020668,-0.
 00004222,-0.00015037,-0.00002133,-0.00003978,0.00007068,0.00010881,0.0
 0008331,-0.00004767,0.00004228,0.00008985,0.00006675,-0.00008551,-0.00
 010371,0.00001837,0.00031440,0.00013773,0.00034025,0.00010360,-0.00004
 625,-0.00007788,0.08270415,0.00015732,-0.00022466,0.00132156,-0.000560
 57,0.00084992,-0.00189537,-0.00957505,-0.00763952,-0.02900694,0.003277
 28,-0.00435371,0.00283164,0.00011304,-0.00185435,-0.00285981,-0.021453
 91,-0.06364070,-0.05579243,0.00529959,0.00035431,0.03439258,-0.0026105
 6,0.00074861,-0.00176103,0.00057571,0.00013268,0.00143094,0.00063805,0
 .00020096,0.00012741,0.00009291,0.00030581,0.00036771,0.00004134,-0.00
 009157,0.00024661,0.00015176,0.00011100,0.00009346,0.00001216,0.000065
 91,-0.00019197,-0.00018603,0.00007859,0.00013323,-0.00034283,-0.000070
 70,0.00008793,0.02100183,0.07356693,0.00021967,0.00196023,-0.00007686,
 0.00020794,-0.00072216,-0.00154783,-0.00346199,-0.00431329,-0.00611794
 ,0.00085592,-0.00049637,0.00139655,0.00014956,-0.00055308,-0.00057039,
 -0.07800997,-0.05537226,-0.25584168,0.00129526,0.01064386,-0.02647199,
 -0.00163753,-0.00000251,-0.00258284,0.00050176,0.00067514,0.00174082,0
 .00023619,-0.00025478,0.00085328,0.00000414,0.00033444,0.00023089,0.00
 007466,-0.00009313,-0.00001826,-0.00000360,-0.00015671,0.00025829,-0.0
 0003665,0.00033194,0.00039641,-0.00005879,-0.00003129,0.00003493,-0.00
 017670,0.00001094,-0.00004652,0.08112154,0.04916247,0.28624573,0.00040
 471,0.00018758,-0.00029154,0.00039832,-0.00067851,0.00005302,-0.009071
 15,0.00208170,0.00001160,0.00012514,-0.00091734,-0.00061308,0.00039655
 ,0.00022167,-0.00005296,-0.31302431,0.01533094,-0.00536388,-0.01055932
 ,-0.00445019,0.00707105,0.00163224,0.00140615,0.00067212,-0.00020856,0
 .00008697,-0.00052888,-0.00046465,-0.00003469,0.00028230,-0.00004146,0
 .00010867,0.00004970,0.00044660,0.00059617,-0.00035181,0.00043059,-0.0
 0001388,0.00004755,-0.00003084,0.00003984,-0.00003151,0.00030294,0.000
 28289,0.00063458,-0.00002307,-0.00018832,-0.00016492,-0.00820790,0.001
 49596,-0.00013686,0.33636330,-0.00060380,-0.00004921,-0.00014882,0.002
 00324,0.00146664,-0.00020525,0.03215496,-0.00605742,0.00042640,0.00078
 854,0.00075427,0.00057463,-0.00071379,0.00034007,0.00020450,0.02367865
 ,-0.04857767,-0.00235803,-0.03191549,-0.00293381,0.00806072,-0.0035967
 5,-0.00684617,-0.00146686,0.00108957,0.00092550,0.00135830,0.00173829,
 0.00203210,-0.00110125,0.00001753,-0.00003108,0.00008816,-0.00100492,-
 0.00053479,0.00030036,-0.00033346,0.00027166,-0.00027937,-0.00010499,-
 0.00011342,-0.00023436,-0.00051059,-0.00022999,-0.00035515,0.00015588,
 0.00022187,0.00028772,-0.00831082,0.00208415,-0.00063647,-0.01337539,0
 .06069960,0.00035519,-0.00008963,-0.00026690,-0.00079637,0.00086323,0.
 00039429,0.01081973,-0.00298736,0.00031181,0.00147432,0.00003786,0.000
 23262,-0.00049941,0.00035718,0.00003104,-0.01467006,-0.00094677,-0.052
 09233,0.03133337,0.00407204,-0.00439805,-0.00113032,-0.00181250,-0.000
 99270,0.00042629,0.00075819,0.00097853,0.00007550,0.00028596,0.0000534
 4,-0.00000345,0.00010637,0.00005449,-0.00006382,0.00025429,0.00019099,
 -0.00001699,0.00011656,-0.00008335,0.00000641,0.00016613,0.00001152,-0
 .00028340,-0.00037385,0.00001593,0.00005577,0.00010348,0.00003583,-0.0
 2801246,0.00202356,0.00233047,-0.00185289,-0.00634862,0.05542692,-0.00
 036958,0.00008114,-0.00032203,-0.00035909,0.00062780,0.00058901,0.0008
 6944,0.00259451,-0.00092119,-0.00011365,-0.00108505,-0.00019410,-0.000
 41895,0.00085048,0.00026203,-0.01523692,0.00022568,0.00084216,-0.47550
 649,0.03374604,0.07891750,0.00501686,0.00149178,-0.00372189,-0.0008148
 3,-0.00052597,0.00098611,-0.00282590,-0.00191827,0.00172992,-0.0000005
 3,-0.00001101,0.00005562,-0.00003206,-0.00002115,0.00000250,0.00017803
 ,0.00025793,-0.00023460,-0.00019672,-0.00052339,-0.00075161,0.00008174
 ,0.00010980,-0.00007851,0.00028984,0.00003204,0.00009197,0.00096751,0.
 00114223,-0.00128457,0.00146891,-0.00159922,0.00271310,0.48638195,0.00
 037028,-0.00004534,-0.00072026,-0.00007421,-0.00010215,0.00086132,-0.0
 0177417,0.00118441,-0.00049738,-0.00010031,-0.00102953,-0.00034056,0.0
 0017278,0.00072926,0.00030234,-0.03525758,-0.00079495,0.00691057,0.073
 92435,-0.03347331,0.00904502,-0.00042636,-0.00481080,0.00808550,-0.000
 41712,0.00012444,-0.00323899,0.00073783,0.00373241,-0.00273639,-0.0000
 3283,-0.00002076,0.00011394,0.00037210,0.00018091,-0.00022218,0.000151
 64,0.00004326,-0.00009030,-0.00063323,-0.00033089,-0.00079923,0.000321
 97,0.00035905,0.00005386,-0.00006051,-0.00040448,-0.00039890,0.0008220
 8,0.00035838,0.00020180,-0.00185869,-0.00340683,0.00391605,-0.03556317
 ,0.03780351,-0.00012172,-0.00011004,-0.00027258,0.00003869,-0.00036820
 ,0.00004608,-0.00045597,0.00034155,0.00112198,-0.00000881,-0.00083954,
 0.00075453,-0.00007822,0.00045611,-0.00037466,0.03180028,-0.00039318,-
 0.00728443,0.04787460,0.01802301,-0.03043283,-0.00103735,0.00152314,0.
 00448662,-0.00045206,-0.00034721,-0.00204403,0.00041805,0.00103473,-0.
 00269464,-0.00002379,-0.00002478,-0.00005194,-0.00003135,-0.00004063,-
 0.00001153,-0.00005200,-0.00010239,0.00008831,-0.00067921,-0.00033436,
 -0.00052893,0.00013890,0.00027142,-0.00022664,0.00011121,-0.00019381,0
 .00021341,0.00090941,-0.00053911,-0.00017512,0.00020580,0.00242783,-0.
 00218912,-0.07852788,-0.02110985,0.03959418,-0.00141326,0.00399908,0.0
 0001257,-0.00950695,-0.00159855,-0.01650683,-0.00057343,0.00269072,-0.
 00297123,-0.00067610,-0.00138036,0.00027020,-0.00107456,0.00014523,0.0
 0055891,-0.00079949,0.00038374,-0.00158571,-0.00075652,-0.00099464,0.0
 0129630,0.03011633,0.00091092,0.00243259,-0.23720745,-0.04916007,0.182
 58345,-0.00168413,0.00268312,-0.01548858,0.00485913,-0.00136807,0.0041
 0082,0.00128796,-0.00005189,0.00267408,0.00071564,0.00050767,0.0016545
 7,0.00029064,0.00007804,0.00075753,-0.00045915,-0.00009614,-0.00040350
 ,0.00079857,0.00055702,0.00053675,0.00027283,0.00072977,0.00014002,-0.
 00033802,0.00044258,0.00006950,0.00062045,-0.00067484,-0.00002858,0.21
 552751,0.00792582,-0.00668658,0.00256698,-0.00373666,0.00163320,-0.005
 54313,0.00053762,0.00002583,-0.00130577,-0.00096980,0.00002960,0.00071
 886,0.00026279,-0.00066053,0.00005706,0.00042454,0.00017575,0.00188415
 ,-0.00022949,-0.00010532,-0.00072855,-0.00153919,-0.00762673,0.0093186
 1,-0.04222050,-0.03310138,0.04750954,0.00016797,0.00797086,0.00006908,
 -0.00324751,-0.00088625,0.00059086,0.00058213,-0.00018616,0.00089763,-
 0.00036639,-0.00059078,0.00015879,0.00004118,0.00002157,0.00025110,-0.
 00020298,-0.00007311,-0.00038811,-0.00004362,0.00009442,0.00001656,0.0
 0065116,-0.00098203,-0.00068876,-0.00032153,-0.00001548,-0.00050216,0.
 00008781,-0.00009661,0.00032531,0.04219664,0.04105976,-0.00391159,0.00
 038350,-0.01181982,-0.00533104,-0.00176071,0.00890911,-0.00113807,-0.0
 0137471,0.00223472,0.00145518,-0.00041756,-0.00119243,0.00030706,0.000
 53994,0.00029346,0.00049786,0.00153160,0.00107964,0.00022667,-0.000447
 71,-0.00043784,0.02168942,0.00909670,-0.04551001,0.15030483,0.04699540
 ,-0.20687592,-0.00427756,0.00132348,0.00168668,0.00137296,0.00033436,-
 0.00146078,-0.00065747,-0.00024409,-0.00273992,-0.00052789,-0.00056111
 ,-0.00120448,-0.00001015,0.00000893,-0.00010047,0.00053220,0.00019876,
 0.00069114,-0.00030914,-0.00029545,-0.00056338,-0.00032748,-0.00017244
 ,-0.00003796,0.00036061,-0.00059447,-0.00004544,-0.00015354,0.00066363
 ,-0.00001868,-0.16010285,-0.05520805,0.25711238\\-0.00000036,0.0000012
 2,0.00000049,-0.00000023,0.00000069,0.00000023,-0.00000023,0.00000013,
 0.00000013,0.00000019,-0.00000076,0.00000007,-0.00000028,-0.00000091,0
 .00000073,0.00000049,0.00000037,-0.00000093,0.00000047,-0.00000043,-0.
 00000118,0.00000020,-0.00000054,0.00000041,-0.00000015,0.00000011,0.00
 000011,0.00000017,-0.00000094,-0.00000015,-0.00000053,0.00000146,0.000
 00070,-0.00000028,0.00000083,0.00000036,-0.00000051,0.00000033,0.00000
 099,0.00000026,-0.00000102,-0.00000032,0.,-0.00000039,0.00000006,-0.00
 000022,-0.00000135,0.00000077,0.00000028,0.00000067,-0.00000084,0.0000
 0033,0.00000056,-0.00000085,0.00000064,-0.00000062,-0.00000108,-0.0000
 0024,0.00000058,0.00000028\\\@


 Ideas are like rabbits. You get a couple and learn
 how to handle them, and pretty soon you have a dozen.
                                    -- John Steinbeck
 Job cpu time:       0 days  0 hours  9 minutes 55.6 seconds.
 Elapsed time:       0 days  0 hours  2 minutes 30.0 seconds.
 File lengths (MBytes):  RWF=     70 Int=      0 D2E=      0 Chk=      3 Scr=      1
 Normal termination of Gaussian 16 at Thu Aug  4 16:35:46 2022.
real 1341.47
user 5032.83
sys 25.47
