 Entering Gaussian System, Link 0=g16
 Input=gaussian_test.inp
 Output=gaussian_test.log
 Initial command:
 /sw/restricted/lms/sw/Gaussian/g16_B01/g16/l1.exe "/scratch/user/peterchao1/peterchao1/9993845_1712002034000000280698398/Gau-147415.inp" -scrdir="/scratch/user/peterchao1/peterchao1/9993845_1712002034000000280698398/"
 Entering Link 1 = /sw/restricted/lms/sw/Gaussian/g16_B01/g16/l1.exe PID=    147417.
  
 Copyright (c) 1988-2017, Gaussian, Inc.  All Rights Reserved.
  
 This is part of the Gaussian(R) 16 program.  It is based on
 the Gaussian(R) 09 system (copyright 2009, Gaussian, Inc.),
 the Gaussian(R) 03 system (copyright 2003, Gaussian, Inc.),
 the Gaussian(R) 98 system (copyright 1998, Gaussian, Inc.),
 the Gaussian(R) 94 system (copyright 1995, Gaussian, Inc.),
 the Gaussian 92(TM) system (copyright 1992, Gaussian, Inc.),
 the Gaussian 90(TM) system (copyright 1990, Gaussian, Inc.),
 the Gaussian 88(TM) system (copyright 1988, Gaussian, Inc.),
 the Gaussian 86(TM) system (copyright 1986, Carnegie Mellon
 University), and the Gaussian 82(TM) system (copyright 1983,
 Carnegie Mellon University). Gaussian is a federally registered
 trademark of Gaussian, Inc.
  
 This software contains proprietary and confidential information,
 including trade secrets, belonging to Gaussian, Inc.
  
 This software is provided under written license and may be
 used, copied, transmitted, or stored only in accord with that
 written license.
  
 The following legend is applicable only to US Government
 contracts under FAR:
  
                    RESTRICTED RIGHTS LEGEND
  
 Use, reproduction and disclosure by the US Government is
 subject to restrictions as set forth in subparagraphs (a)
 and (c) of the Commercial Computer Software - Restricted
 Rights clause in FAR 52.227-19.
  
 Gaussian, Inc.
 340 Quinnipiac St., Bldg. 40, Wallingford CT 06492
  
  
 ---------------------------------------------------------------
 Warning -- This program may not be used in any manner that
 competes with the business of Gaussian, Inc. or will provide
 assistance to any competitor of Gaussian, Inc.  The licensee
 of this program is prohibited from giving any competitor of
 Gaussian, Inc. access to this program.  By using this program,
 the user acknowledges that Gaussian, Inc. is engaged in the
 business of creating and licensing software in the field of
 computational chemistry and represents and warrants to the
 licensee that it is not a competitor of Gaussian, Inc. and that
 it will not use this program in any manner prohibited above.
 ---------------------------------------------------------------
  

 Cite this work as:
 Gaussian 16, Revision B.01,
 M. J. Frisch, G. W. Trucks, H. B. Schlegel, G. E. Scuseria, 
 M. A. Robb, J. R. Cheeseman, G. Scalmani, V. Barone, 
 G. A. Petersson, H. Nakatsuji, X. Li, M. Caricato, A. V. Marenich, 
 J. Bloino, B. G. Janesko, R. Gomperts, B. Mennucci, H. P. Hratchian, 
 J. V. Ortiz, A. F. Izmaylov, J. L. Sonnenberg, D. Williams-Young, 
 F. Ding, F. Lipparini, F. Egidi, J. Goings, B. Peng, A. Petrone, 
 T. Henderson, D. Ranasinghe, V. G. Zakrzewski, J. Gao, N. Rega, 
 G. Zheng, W. Liang, M. Hada, M. Ehara, K. Toyota, R. Fukuda, 
 J. Hasegawa, M. Ishida, T. Nakajima, Y. Honda, O. Kitao, H. Nakai, 
 T. Vreven, K. Throssell, J. A. Montgomery, Jr., J. E. Peralta, 
 F. Ogliaro, M. J. Bearpark, J. J. Heyd, E. N. Brothers, K. N. Kudin, 
 V. N. Staroverov, T. A. Keith, R. Kobayashi, J. Normand, 
 K. Raghavachari, A. P. Rendell, J. C. Burant, S. S. Iyengar, 
 J. Tomasi, M. Cossi, J. M. Millam, M. Klene, C. Adamo, R. Cammi, 
 J. W. Ochterski, R. L. Martin, K. Morokuma, O. Farkas, 
 J. B. Foresman, and D. J. Fox, Gaussian, Inc., Wallingford CT, 2016.
 
 ******************************************
 Gaussian 16:  ES64L-G16RevB.01 20-Dec-2017
                 1-Apr-2024 
 ******************************************
 %nprocshared=4
 Will use up to    4 processors via shared memory.
 %mem=8000mb
 %chk=dimer.chk
 %nprocshared=4
 Will use up to    4 processors via shared memory.
 %mem=8000mb
 ----------------------------------------------------------------------
 #T wB97XD/def2svpp opt=tight freq int(grid=ultrafine) scf=(verytight,q
 c) Volume=tight
 ----------------------------------------------------------------------
 -----
 Dimer
 -----
 Symbolic Z-matrix:
 Charge =  0 Multiplicity = 1
 C                     4.70969  -1.02206  -0.36715 
 C                     4.05956   0.34774  -0.19851 
 C                     2.52697   0.31084   0.01487 
 N                     1.81073  -0.46143  -0.98614 
 C                     2.19723  -0.27339   1.40305 
 O                     0.82362  -0.42706   1.63529 
 C                     2.00323   1.76596  -0.06964 
 O                     0.63819   1.89255   0.21175 
 H                     5.77487  -0.90161  -0.55038 
 H                     4.28273  -1.55646  -1.21347 
 H                     4.58789  -1.63061   0.52507 
 H                     4.26049   0.94229  -1.09437 
 H                     4.51739   0.86353   0.64745 
 H                     1.97342  -1.45422  -0.87581 
 H                     2.08074  -0.18014  -1.92097 
 H                     2.6434    0.37575   2.17083 
 H                     2.63227  -1.27185   1.50305 
 H                     0.38331   0.40748   1.36641 
 H                     2.22809   2.16133  -1.07098 
 H                     2.52945   2.38196   0.66589 
 H                     0.12999   1.41329  -0.48131 
 C                    -4.71068   1.01955   0.3694 
 C                    -4.05952  -0.34942   0.19811 
 C                    -2.52695  -0.31097  -0.01514 
 N                    -1.81134   0.46122   0.9864 
 C                    -2.00216  -1.76578   0.06836 
 O                    -0.63696  -1.89127  -0.21261 
 C                    -2.19757   0.27457  -1.40283 
 O                    -0.82402   0.42864  -1.63522 
 H                    -4.5891    1.63003  -0.52153 
 H                    -4.28432   1.55249   1.21694 
 H                    -5.77581   0.89791   0.55214 
 H                    -4.51689  -0.86387  -0.64892 
 H                    -4.2601   -0.94592   1.09276 
 H                    -2.08165   0.17965   1.92105 
 H                    -1.97427   1.45399   0.87621 
 H                    -2.52774  -2.38157  -0.66781 
 H                    -2.22709  -2.16205   1.06933 
 H                    -0.12933  -1.41187   0.4808 
 H                    -2.63284   1.27305  -1.50175 
 H                    -2.6438   -0.37388  -2.17115 
 H                    -0.38349  -0.40587  -1.36652 
 
 Add virtual bond connecting atoms O29        and H21        Dist= 3.39D+00.
 Add virtual bond connecting atoms H39        and O6         Dist= 3.39D+00.

 GradGradGradGradGradGradGradGradGradGradGradGradGradGradGradGradGradGrad
 Initialization pass.
                           ----------------------------
                           !    Initial Parameters    !
                           ! (Angstroms and Degrees)  !
 --------------------------                            --------------------------
 ! Name  Definition              Value          Derivative Info.                !
 --------------------------------------------------------------------------------
 ! R1    R(1,2)                  1.5256         estimate D2E/DX2                !
 ! R2    R(1,9)                  1.0875         estimate D2E/DX2                !
 ! R3    R(1,10)                 1.0882         estimate D2E/DX2                !
 ! R4    R(1,11)                 1.0868         estimate D2E/DX2                !
 ! R5    R(2,3)                  1.5478         estimate D2E/DX2                !
 ! R6    R(2,12)                 1.0938         estimate D2E/DX2                !
 ! R7    R(2,13)                 1.0915         estimate D2E/DX2                !
 ! R8    R(3,4)                  1.4531         estimate D2E/DX2                !
 ! R9    R(3,5)                  1.5418         estimate D2E/DX2                !
 ! R10   R(3,7)                  1.5488         estimate D2E/DX2                !
 ! R11   R(4,14)                 1.0121         estimate D2E/DX2                !
 ! R12   R(4,15)                 1.0129         estimate D2E/DX2                !
 ! R13   R(5,6)                  1.4016         estimate D2E/DX2                !
 ! R14   R(5,16)                 1.1            estimate D2E/DX2                !
 ! R15   R(5,17)                 1.0937         estimate D2E/DX2                !
 ! R16   R(6,18)                 0.9811         estimate D2E/DX2                !
 ! R17   R(6,39)                 1.7919         estimate D2E/DX2                !
 ! R18   R(7,8)                  1.3995         estimate D2E/DX2                !
 ! R19   R(7,19)                 1.0998         estimate D2E/DX2                !
 ! R20   R(7,20)                 1.0942         estimate D2E/DX2                !
 ! R21   R(8,21)                 0.984          estimate D2E/DX2                !
 ! R22   R(21,29)                1.792          estimate D2E/DX2                !
 ! R23   R(22,23)                1.5256         estimate D2E/DX2                !
 ! R24   R(22,30)                1.0868         estimate D2E/DX2                !
 ! R25   R(22,31)                1.0882         estimate D2E/DX2                !
 ! R26   R(22,32)                1.0875         estimate D2E/DX2                !
 ! R27   R(23,24)                1.5478         estimate D2E/DX2                !
 ! R28   R(23,33)                1.0915         estimate D2E/DX2                !
 ! R29   R(23,34)                1.0938         estimate D2E/DX2                !
 ! R30   R(24,25)                1.4531         estimate D2E/DX2                !
 ! R31   R(24,26)                1.5488         estimate D2E/DX2                !
 ! R32   R(24,28)                1.5418         estimate D2E/DX2                !
 ! R33   R(25,35)                1.0129         estimate D2E/DX2                !
 ! R34   R(25,36)                1.0121         estimate D2E/DX2                !
 ! R35   R(26,27)                1.3995         estimate D2E/DX2                !
 ! R36   R(26,37)                1.0943         estimate D2E/DX2                !
 ! R37   R(26,38)                1.0998         estimate D2E/DX2                !
 ! R38   R(27,39)                0.984          estimate D2E/DX2                !
 ! R39   R(28,29)                1.4016         estimate D2E/DX2                !
 ! R40   R(28,40)                1.0937         estimate D2E/DX2                !
 ! R41   R(28,41)                1.1            estimate D2E/DX2                !
 ! R42   R(29,42)                0.9812         estimate D2E/DX2                !
 ! A1    A(2,1,9)              109.6683         estimate D2E/DX2                !
 ! A2    A(2,1,10)             111.0823         estimate D2E/DX2                !
 ! A3    A(2,1,11)             111.3604         estimate D2E/DX2                !
 ! A4    A(9,1,10)             107.9182         estimate D2E/DX2                !
 ! A5    A(9,1,11)             108.0654         estimate D2E/DX2                !
 ! A6    A(10,1,11)            108.634          estimate D2E/DX2                !
 ! A7    A(1,2,3)              114.5693         estimate D2E/DX2                !
 ! A8    A(1,2,12)             108.6161         estimate D2E/DX2                !
 ! A9    A(1,2,13)             109.3432         estimate D2E/DX2                !
 ! A10   A(3,2,12)             107.9243         estimate D2E/DX2                !
 ! A11   A(3,2,13)             108.6485         estimate D2E/DX2                !
 ! A12   A(12,2,13)            107.51           estimate D2E/DX2                !
 ! A13   A(2,3,4)              113.939          estimate D2E/DX2                !
 ! A14   A(2,3,5)              110.1772         estimate D2E/DX2                !
 ! A15   A(2,3,7)              107.7529         estimate D2E/DX2                !
 ! A16   A(4,3,5)              108.2674         estimate D2E/DX2                !
 ! A17   A(4,3,7)              107.1604         estimate D2E/DX2                !
 ! A18   A(5,3,7)              109.4398         estimate D2E/DX2                !
 ! A19   A(3,4,14)             111.5312         estimate D2E/DX2                !
 ! A20   A(3,4,15)             110.9048         estimate D2E/DX2                !
 ! A21   A(14,4,15)            109.2805         estimate D2E/DX2                !
 ! A22   A(3,5,6)              113.5998         estimate D2E/DX2                !
 ! A23   A(3,5,16)             108.5473         estimate D2E/DX2                !
 ! A24   A(3,5,17)             110.0707         estimate D2E/DX2                !
 ! A25   A(6,5,16)             110.2781         estimate D2E/DX2                !
 ! A26   A(6,5,17)             105.938          estimate D2E/DX2                !
 ! A27   A(16,5,17)            108.2758         estimate D2E/DX2                !
 ! A28   A(5,6,18)             107.5275         estimate D2E/DX2                !
 ! A29   A(5,6,39)             118.3406         estimate D2E/DX2                !
 ! A30   A(18,6,39)             92.9949         estimate D2E/DX2                !
 ! A31   A(3,7,8)              113.819          estimate D2E/DX2                !
 ! A32   A(3,7,19)             108.5599         estimate D2E/DX2                !
 ! A33   A(3,7,20)             109.2441         estimate D2E/DX2                !
 ! A34   A(8,7,19)             110.4854         estimate D2E/DX2                !
 ! A35   A(8,7,20)             106.4384         estimate D2E/DX2                !
 ! A36   A(19,7,20)            108.138          estimate D2E/DX2                !
 ! A37   A(7,8,21)             108.5467         estimate D2E/DX2                !
 ! A38   A(23,22,30)           111.3614         estimate D2E/DX2                !
 ! A39   A(23,22,31)           111.081          estimate D2E/DX2                !
 ! A40   A(23,22,32)           109.6662         estimate D2E/DX2                !
 ! A41   A(30,22,31)           108.6351         estimate D2E/DX2                !
 ! A42   A(30,22,32)           108.0677         estimate D2E/DX2                !
 ! A43   A(31,22,32)           107.9174         estimate D2E/DX2                !
 ! A44   A(22,23,24)           114.5697         estimate D2E/DX2                !
 ! A45   A(22,23,33)           109.3432         estimate D2E/DX2                !
 ! A46   A(22,23,34)           108.6175         estimate D2E/DX2                !
 ! A47   A(24,23,33)           108.6449         estimate D2E/DX2                !
 ! A48   A(24,23,34)           107.9268         estimate D2E/DX2                !
 ! A49   A(33,23,34)           107.5093         estimate D2E/DX2                !
 ! A50   A(23,24,25)           113.9456         estimate D2E/DX2                !
 ! A51   A(23,24,26)           107.7422         estimate D2E/DX2                !
 ! A52   A(23,24,28)           110.1802         estimate D2E/DX2                !
 ! A53   A(25,24,26)           107.1652         estimate D2E/DX2                !
 ! A54   A(25,24,28)           108.2603         estimate D2E/DX2                !
 ! A55   A(26,24,28)           109.4434         estimate D2E/DX2                !
 ! A56   A(24,25,35)           110.9074         estimate D2E/DX2                !
 ! A57   A(24,25,36)           111.528          estimate D2E/DX2                !
 ! A58   A(35,25,36)           109.2804         estimate D2E/DX2                !
 ! A59   A(24,26,27)           113.8247         estimate D2E/DX2                !
 ! A60   A(24,26,37)           109.2424         estimate D2E/DX2                !
 ! A61   A(24,26,38)           108.5548         estimate D2E/DX2                !
 ! A62   A(27,26,37)           106.4407         estimate D2E/DX2                !
 ! A63   A(27,26,38)           110.4837         estimate D2E/DX2                !
 ! A64   A(37,26,38)           108.1384         estimate D2E/DX2                !
 ! A65   A(26,27,39)           108.5464         estimate D2E/DX2                !
 ! A66   A(24,28,29)           113.6004         estimate D2E/DX2                !
 ! A67   A(24,28,40)           110.066          estimate D2E/DX2                !
 ! A68   A(24,28,41)           108.5499         estimate D2E/DX2                !
 ! A69   A(29,28,40)           105.9425         estimate D2E/DX2                !
 ! A70   A(29,28,41)           110.2766         estimate D2E/DX2                !
 ! A71   A(40,28,41)           108.2741         estimate D2E/DX2                !
 ! A72   A(21,29,28)           118.3832         estimate D2E/DX2                !
 ! A73   A(21,29,42)            92.9786         estimate D2E/DX2                !
 ! A74   A(28,29,42)           107.525          estimate D2E/DX2                !
 ! A75   L(8,21,29,1,-1)       179.0223         estimate D2E/DX2                !
 ! A76   L(6,39,27,4,-1)       175.9952         estimate D2E/DX2                !
 ! A77   L(8,21,29,1,-2)       174.8917         estimate D2E/DX2                !
 ! A78   L(6,39,27,4,-2)       183.1571         estimate D2E/DX2                !
 ! D1    D(9,1,2,3)            177.7717         estimate D2E/DX2                !
 ! D2    D(9,1,2,12)            57.0355         estimate D2E/DX2                !
 ! D3    D(9,1,2,13)           -60.0118         estimate D2E/DX2                !
 ! D4    D(10,1,2,3)            58.5656         estimate D2E/DX2                !
 ! D5    D(10,1,2,12)          -62.1706         estimate D2E/DX2                !
 ! D6    D(10,1,2,13)         -179.2179         estimate D2E/DX2                !
 ! D7    D(11,1,2,3)           -62.6644         estimate D2E/DX2                !
 ! D8    D(11,1,2,12)          176.5994         estimate D2E/DX2                !
 ! D9    D(11,1,2,13)           59.5521         estimate D2E/DX2                !
 ! D10   D(1,2,3,4)            -51.978          estimate D2E/DX2                !
 ! D11   D(1,2,3,5)             69.9275         estimate D2E/DX2                !
 ! D12   D(1,2,3,7)           -170.7348         estimate D2E/DX2                !
 ! D13   D(12,2,3,4)            69.1394         estimate D2E/DX2                !
 ! D14   D(12,2,3,5)          -168.9551         estimate D2E/DX2                !
 ! D15   D(12,2,3,7)           -49.6174         estimate D2E/DX2                !
 ! D16   D(13,2,3,4)          -174.5714         estimate D2E/DX2                !
 ! D17   D(13,2,3,5)           -52.6659         estimate D2E/DX2                !
 ! D18   D(13,2,3,7)            66.6718         estimate D2E/DX2                !
 ! D19   D(2,3,4,14)            71.507          estimate D2E/DX2                !
 ! D20   D(2,3,4,15)           -50.5438         estimate D2E/DX2                !
 ! D21   D(5,3,4,14)           -51.4467         estimate D2E/DX2                !
 ! D22   D(5,3,4,15)          -173.4975         estimate D2E/DX2                !
 ! D23   D(7,3,4,14)          -169.399          estimate D2E/DX2                !
 ! D24   D(7,3,4,15)            68.5501         estimate D2E/DX2                !
 ! D25   D(2,3,5,6)           -175.7764         estimate D2E/DX2                !
 ! D26   D(2,3,5,16)            61.1641         estimate D2E/DX2                !
 ! D27   D(2,3,5,17)           -57.1785         estimate D2E/DX2                !
 ! D28   D(4,3,5,6)            -50.5691         estimate D2E/DX2                !
 ! D29   D(4,3,5,16)          -173.6286         estimate D2E/DX2                !
 ! D30   D(4,3,5,17)            68.0287         estimate D2E/DX2                !
 ! D31   D(7,3,5,6)             65.9175         estimate D2E/DX2                !
 ! D32   D(7,3,5,16)           -57.142          estimate D2E/DX2                !
 ! D33   D(7,3,5,17)          -175.4847         estimate D2E/DX2                !
 ! D34   D(2,3,7,8)           -175.2128         estimate D2E/DX2                !
 ! D35   D(2,3,7,19)            61.2994         estimate D2E/DX2                !
 ! D36   D(2,3,7,20)           -56.4131         estimate D2E/DX2                !
 ! D37   D(4,3,7,8)             61.7786         estimate D2E/DX2                !
 ! D38   D(4,3,7,19)           -61.7093         estimate D2E/DX2                !
 ! D39   D(4,3,7,20)          -179.4218         estimate D2E/DX2                !
 ! D40   D(5,3,7,8)            -55.4069         estimate D2E/DX2                !
 ! D41   D(5,3,7,19)          -178.8948         estimate D2E/DX2                !
 ! D42   D(5,3,7,20)            63.3927         estimate D2E/DX2                !
 ! D43   D(3,5,6,18)           -47.2058         estimate D2E/DX2                !
 ! D44   D(3,5,6,39)            56.2442         estimate D2E/DX2                !
 ! D45   D(16,5,6,18)           74.8993         estimate D2E/DX2                !
 ! D46   D(16,5,6,39)          178.3493         estimate D2E/DX2                !
 ! D47   D(17,5,6,18)         -168.1522         estimate D2E/DX2                !
 ! D48   D(17,5,6,39)          -64.7022         estimate D2E/DX2                !
 ! D49   D(5,6,27,26)         -171.0019         estimate D2E/DX2                !
 ! D50   D(18,6,27,26)         -60.158          estimate D2E/DX2                !
 ! D51   D(3,7,8,21)           -64.5315         estimate D2E/DX2                !
 ! D52   D(19,7,8,21)           57.9034         estimate D2E/DX2                !
 ! D53   D(20,7,8,21)          175.0786         estimate D2E/DX2                !
 ! D54   D(7,8,29,28)          170.9524         estimate D2E/DX2                !
 ! D55   D(7,8,29,42)           60.111          estimate D2E/DX2                !
 ! D56   D(30,22,23,24)         62.6506         estimate D2E/DX2                !
 ! D57   D(30,22,23,33)        -59.5616         estimate D2E/DX2                !
 ! D58   D(30,22,23,34)       -176.6088         estimate D2E/DX2                !
 ! D59   D(31,22,23,24)        -58.5806         estimate D2E/DX2                !
 ! D60   D(31,22,23,33)        179.2072         estimate D2E/DX2                !
 ! D61   D(31,22,23,34)         62.16           estimate D2E/DX2                !
 ! D62   D(32,22,23,24)       -177.7834         estimate D2E/DX2                !
 ! D63   D(32,22,23,33)         60.0044         estimate D2E/DX2                !
 ! D64   D(32,22,23,34)        -57.0428         estimate D2E/DX2                !
 ! D65   D(22,23,24,25)         51.9057         estimate D2E/DX2                !
 ! D66   D(22,23,24,26)        170.6653         estimate D2E/DX2                !
 ! D67   D(22,23,24,28)        -69.9974         estimate D2E/DX2                !
 ! D68   D(33,23,24,25)        174.4966         estimate D2E/DX2                !
 ! D69   D(33,23,24,26)        -66.7438         estimate D2E/DX2                !
 ! D70   D(33,23,24,28)         52.5935         estimate D2E/DX2                !
 ! D71   D(34,23,24,25)        -69.2155         estimate D2E/DX2                !
 ! D72   D(34,23,24,26)         49.5441         estimate D2E/DX2                !
 ! D73   D(34,23,24,28)        168.8814         estimate D2E/DX2                !
 ! D74   D(23,24,25,35)         50.494          estimate D2E/DX2                !
 ! D75   D(23,24,25,36)        -71.5564         estimate D2E/DX2                !
 ! D76   D(26,24,25,35)        -68.5939         estimate D2E/DX2                !
 ! D77   D(26,24,25,36)        169.3557         estimate D2E/DX2                !
 ! D78   D(28,24,25,35)        173.4507         estimate D2E/DX2                !
 ! D79   D(28,24,25,36)         51.4003         estimate D2E/DX2                !
 ! D80   D(23,24,26,27)        175.2295         estimate D2E/DX2                !
 ! D81   D(23,24,26,37)         56.4245         estimate D2E/DX2                !
 ! D82   D(23,24,26,38)        -61.2846         estimate D2E/DX2                !
 ! D83   D(25,24,26,27)        -61.7572         estimate D2E/DX2                !
 ! D84   D(25,24,26,37)        179.4377         estimate D2E/DX2                !
 ! D85   D(25,24,26,38)         61.7286         estimate D2E/DX2                !
 ! D86   D(28,24,26,27)         55.4244         estimate D2E/DX2                !
 ! D87   D(28,24,26,37)        -63.3807         estimate D2E/DX2                !
 ! D88   D(28,24,26,38)        178.9103         estimate D2E/DX2                !
 ! D89   D(23,24,28,29)        175.8247         estimate D2E/DX2                !
 ! D90   D(23,24,28,40)         57.2241         estimate D2E/DX2                !
 ! D91   D(23,24,28,41)        -61.1154         estimate D2E/DX2                !
 ! D92   D(25,24,28,29)         50.6121         estimate D2E/DX2                !
 ! D93   D(25,24,28,40)        -67.9885         estimate D2E/DX2                !
 ! D94   D(25,24,28,41)        173.672          estimate D2E/DX2                !
 ! D95   D(26,24,28,29)        -65.8782         estimate D2E/DX2                !
 ! D96   D(26,24,28,40)        175.5212         estimate D2E/DX2                !
 ! D97   D(26,24,28,41)         57.1817         estimate D2E/DX2                !
 ! D98   D(24,26,27,39)         64.505          estimate D2E/DX2                !
 ! D99   D(37,26,27,39)       -175.1022         estimate D2E/DX2                !
 ! D100  D(38,26,27,39)        -57.9262         estimate D2E/DX2                !
 ! D101  D(24,28,29,21)        -56.2864         estimate D2E/DX2                !
 ! D102  D(24,28,29,42)         47.1613         estimate D2E/DX2                !
 ! D103  D(40,28,29,21)         64.6575         estimate D2E/DX2                !
 ! D104  D(40,28,29,42)        168.1052         estimate D2E/DX2                !
 ! D105  D(41,28,29,21)       -178.3942         estimate D2E/DX2                !
 ! D106  D(41,28,29,42)        -74.9465         estimate D2E/DX2                !
 --------------------------------------------------------------------------------
 Number of steps in this run=    236 maximum allowed number of steps=    252.
 GradGradGradGradGradGradGradGradGradGradGradGradGradGradGradGradGradGrad

                    Distance matrix (angstroms):
                    1          2          3          4          5
     1  C    0.000000
     2  C    1.525602   0.000000
     3  C    2.585892   1.547809   0.000000
     4  N    3.016859   2.516413   1.453075   0.000000
     5  C    3.163322   2.533588   1.541786   2.427551   0.000000
     6  O    4.411958   3.799266   2.464074   2.801339   1.401552
     7  C    3.896986   2.501287   1.548811   2.416252   2.522976
     8  O    5.040555   3.776307   2.471448   2.889812   2.922514
     9  H    1.087514   2.151041   3.512604   4.012237   4.124328
    10  H    1.088184   2.169317   2.842243   2.713220   3.583548
    11  H    1.086833   2.171755   2.876956   3.370952   2.885854
    12  H    2.142268   1.093820   2.152730   2.825502   3.460068
    13  H    2.149845   1.091465   2.160417   3.427849   2.691969
    14  H    2.816500   2.838615   2.053083   1.012064   2.576362
    15  H    3.167743   2.676053   2.046379   1.012879   3.327371
    16  H    3.558764   2.760447   2.160079   3.370564   1.099971
    17  H    2.806372   2.748727   2.175007   2.743679   1.093700
    18  H    4.875086   3.995920   2.536004   2.885670   1.937844
    19  H    4.097286   2.721145   2.166270   2.657112   3.471262
    20  H    4.172287   2.688209   2.171029   3.366099   2.775727
    21  H    5.188226   4.081287   2.684610   2.567946   3.266372
    22  C    9.667171   8.814250   7.280909   6.823465   7.103476
    23  C    8.813120   8.158602   6.622041   5.989565   6.372172
    24  C    7.280010   6.621903   5.092118   4.447580   4.932598
    25  N    6.823197   5.990347   4.448301   4.226296   4.096562
    26  C    6.766957   6.425150   4.982792   4.165507   4.652251
    27  O    5.419046   5.202940   3.861536   2.938363   3.641496
    28  C    7.103816   6.372395   4.932799   4.096562   5.242852
    29  O    5.859569   5.091175   3.737092   2.855776   4.341879
    30  H    9.670831   8.749166   7.257166   6.748920   7.306246
    31  H    9.488415   8.548410   7.027121   6.786692   6.736392
    32  H   10.699398   9.879301   8.340831   7.859372   8.103412
    33  H    9.232238   8.673309   7.171926   6.349367   7.045466
    34  H    9.088142   8.518077   6.986103   6.435184   6.499666
    35  H    7.266518   6.498861   4.988999   4.900347   4.333860
    36  H    7.235475   6.227829   4.723330   4.632862   4.545632
    37  H    7.370150   7.145758   5.767602   4.755064   5.572990
    38  H    7.175095   6.886826   5.461517   4.839537   4.822134
    39  H    4.928194   4.593956   3.200115   2.611341   2.749462
    40  H    7.776097   6.880615   5.463485   4.797876   5.844563
    41  H    7.599242   7.024750   5.655480   4.610293   6.018356
    42  H    5.226750   4.655407   3.300406   2.227638   3.787899
                    6          7          8          9         10
     6  O    0.000000
     7  C    3.017879   0.000000
     8  O    2.727898   1.399477   0.000000
     9  H    5.432978   4.644597   5.896916   0.000000
    10  H    4.621308   4.188431   5.216284   1.759264   0.000000
    11  H    4.104979   4.309381   5.301969   1.759812   1.766672
    12  H    4.597638   2.612226   3.966106   2.447292   2.501688
    13  H    4.035520   2.765795   4.036945   2.476235   3.061772
    14  H    2.946645   3.319686   3.763837   3.855166   2.336106
    15  H    3.779988   2.687139   3.305371   4.005704   2.691393
    16  H    2.059830   2.713344   3.187404   4.340823   4.227811
    17  H    2.000594   3.478119   3.956919   3.772212   3.191320
    18  H    0.981134   2.555753   1.898327   5.869991   5.071335
    19  H    3.999522   1.099797   2.060435   4.715117   4.250162
    20  H    3.426393   1.094246   2.005647   4.774293   4.702889
    21  H    2.889289   1.950096   0.984015   6.101496   5.157597
    22  C    5.858639   6.769531   5.421945  10.699707   9.488039
    23  C    5.090832   6.426780   5.205302   9.878280   8.546503
    24  C    3.736803   4.983888   3.863305   8.339997   7.025597
    25  N    2.855358   4.167552   2.940916   7.859357   6.785877
    26  C    3.497490   5.341850   4.513913   7.849317   6.417690
    27  O    2.773434   4.512906   4.015392   6.496541   5.031616
    28  C    4.341664   4.652780   3.642293   8.103698   6.736682
    29  O    3.760744   3.497547   2.773525   6.818494   5.495220
    30  H    6.179075   6.609199   5.284999  10.668736   9.452087
    31  H    5.494059   6.421389   5.035598  10.503973   9.432231
    32  H    6.817711   7.851979   6.499584  11.741891  10.503123
    33  H    5.824897   7.054326   5.908764  10.292300   8.844870
    34  H    5.138847   6.923496   5.729433  10.168702   8.869693
    35  H    2.981664   4.813053   3.640507   8.306742   7.303744
    36  H    3.455822   4.100298   2.731078   8.223937   7.251183
    37  H    4.511763   6.171668   5.391184   8.434302   6.881940
    38  H    3.554902   5.884058   5.038364   8.260964   6.925006
    39  H    1.791873   3.866441   3.403036   6.015253   4.728399
    40  H    4.967745   4.877198   3.744267   8.736355   7.477594
    41  H    5.149256   5.530839   4.646121   8.589499   7.091724
    42  H    3.235496   3.477806   2.969427   6.231952   4.808419
                   11         12         13         14         15
    11  H    0.000000
    12  H    3.057703   0.000000
    13  H    2.498127   1.762425   0.000000
    14  H    2.971361   3.319897   3.763515   0.000000
    15  H    3.791139   2.587362   3.690977   1.651411   0.000000
    16  H    3.242691   3.687483   2.463837   3.616581   4.167548
    17  H    2.215763   3.781549   2.974153   2.475132   3.635919
    18  H    4.747650   4.623210   4.220850   3.319933   3.746129
    19  H    4.742869   2.370083   3.142965   3.629758   2.495332
    20  H    4.511946   2.857913   2.501578   4.171600   3.668452
    21  H    5.490989   4.202233   4.563514   3.431690   2.901223
    22  C    9.670108   9.090138   9.233585   7.235146   7.266944
    23  C    8.747915   8.518314   8.673906   6.226577   6.497842
    24  C    7.256318   6.986041   7.172256   4.722403   4.987995
    25  N    6.748229   6.436469   6.350556   4.632610   4.900242
    26  C    6.607232   6.921443   7.053590   4.098017   4.810587
    27  O    5.283096   5.726391   5.907278   2.728536   3.637625
    28  C    7.306773   6.499815   7.045657   4.545728   4.333494
    29  O    6.180299   5.138936   5.824986   3.456522   2.981594
    30  H    9.795110   8.894742   9.213157   7.259806   7.051377
    31  H    9.451293   8.872904   8.846991   7.251157   7.304967
    32  H   10.667723  10.170561  10.293701   8.223266   8.306853
    33  H    9.212114   8.972350   9.288850   6.521050   6.753834
    34  H    8.892578   8.997188   8.973117   6.556707   7.062240
    35  H    7.050425   7.063792   6.755525   5.189944   5.675918
    36  H    7.259470   6.558754   6.522472   5.206868   5.190150
    37  H    7.253901   7.570344   7.867305   4.600403   5.258781
    38  H    6.857299   7.510477   7.404064   4.682828   5.606003
    39  H    4.722493   5.224342   5.176604   2.502745   3.488560
    40  H    8.042271   6.913279   7.477476   5.389569   4.950288
    41  H    7.819609   7.110631   7.794770   4.915670   4.735127
    42  H    5.458264   4.843360   5.448493   2.625805   2.535896
                   16         17         18         19         20
    16  H    0.000000
    17  H    1.777819   0.000000
    18  H    2.399190   2.810098   0.000000
    19  H    3.724264   4.309954   3.524214   0.000000
    20  H    2.510522   3.749895   2.999205   1.776573   0.000000
    21  H    3.798364   4.172415   2.118938   2.304188   2.830511
    22  C    7.598827   7.775256   5.226606   7.178083   7.373170
    23  C    7.024717   6.879955   4.655810   6.888285   7.147995
    24  C    5.655312   5.463121   3.300676   5.462365   5.769131
    25  N    4.610297   4.797504   2.227947   4.841498   4.757563
    26  C    5.530614   4.876490   3.478282   5.883474   6.172217
    27  O    4.645524   3.743660   2.969599   5.036747   5.390581
    28  C    6.017997   5.844902   3.787785   4.822492   5.573637
    29  O    5.148968   4.968534   3.235418   3.554711   4.511805
    30  H    7.818634   8.041637   5.457449   6.859898   7.255972
    31  H    7.091400   7.476495   4.808342   6.929413   6.886162
    32  H    8.589287   8.735435   6.232034   8.263961   8.437575
    33  H    7.794701   7.477153   5.448837   7.404367   7.868612
    34  H    7.111072   6.912256   4.844359   7.512213   7.573311
    35  H    4.735706   4.950007   2.536835   5.608308   5.261924
    36  H    4.915434   5.389183   2.625573   4.685256   4.603133
    37  H    6.511634   5.706995   4.515649   6.589261   7.074259
    38  H    5.601371   4.959223   3.674905   6.566671   6.590560
    39  H    3.706723   2.948052   2.087377   4.553368   4.636430
    40  H    6.490895   6.574700   4.251203   4.960163   5.707680
    41  H    6.882534   6.491764   4.721049   5.601159   6.511991
    42  H    4.720788   4.251955   2.952704   3.673984   4.515294
                   21         22         23         24         25
    21  H    0.000000
    22  C    4.930603   0.000000
    23  C    4.595734   1.525595   0.000000
    24  C    3.201519   2.585897   1.547815   0.000000
    25  N    2.613301   3.016397   2.516522   1.453086   0.000000
    26  C    3.867132   3.896772   2.501133   1.548824   2.416346
    27  O    3.403017   5.040521   3.776232   2.471517   2.889805
    28  C    2.750170   3.164100   2.533620   1.541763   2.427432
    29  O    1.791987   4.412916   3.799333   2.464071   2.801562
    30  H    4.724234   1.086835   2.171762   2.876869   3.369856
    31  H    4.731764   1.088183   2.169294   2.842340   2.712877
    32  H    6.017646   1.087510   2.151005   3.512591   4.012023
    33  H    5.177552   2.149840   1.091466   2.160378   3.427848
    34  H    5.226516   2.142281   1.093822   2.152770   2.826271
    35  H    3.490636   3.166211   2.675899   2.046421   1.012880
    36  H    2.504474   2.816661   2.839087   2.053061   1.012072
    37  H    4.636732   4.172367   2.688081   2.171024   3.366166
    38  H    4.554493   4.096433   2.720750   2.166219   2.657307
    39  H    2.995734   5.187775   4.081068   2.684493   2.567726
    40  H    2.948594   2.807648   2.749063   2.174936   2.743141
    41  H    3.707222   3.559220   2.760117   2.160092   3.370536
    42  H    2.087250   4.875437   3.995559   2.535680   2.885624
                   26         27         28         29         30
    26  C    0.000000
    27  O    1.399451   0.000000
    28  C    2.523024   2.922840   0.000000
    29  O    3.017563   2.727777   1.401563   0.000000
    30  H    4.309500   5.302300   2.886759   4.106029   0.000000
    31  H    4.187895   5.215974   3.584807   4.622943   1.766685
    32  H    4.644326   5.896793   4.124832   5.433687   1.759836
    33  H    2.766192   4.037297   2.691405   4.034925   2.498197
    34  H    2.611487   3.965456   3.460000   4.597601   3.057725
    35  H    2.687650   3.305804   3.327257   3.780305   3.789075
    36  H    3.319690   3.763600   2.575833   2.946473   2.970185
    37  H    1.094253   2.005659   2.775668   3.425753   4.512593
    38  H    1.099802   2.060395   3.471255   3.999362   4.742343
    39  H    1.950086   0.984038   3.266459   2.889222   5.490659
    40  H    3.478151   3.957062   1.093712   2.000669   2.217030
    41  H    2.713769   3.188381   1.099969   2.059819   3.243625
    42  H    2.555067   1.897939   1.937839   0.981156   4.748272
                   31         32         33         34         35
    31  H    0.000000
    32  H    1.759250   0.000000
    33  H    3.061756   2.476149   0.000000
    34  H    2.501615   2.447320   1.762419   0.000000
    35  H    2.689283   4.004577   3.691081   2.588171   0.000000
    36  H    2.337129   3.855640   3.763434   3.321374   1.651418
    37  H    4.702627   4.774223   2.502090   2.856878   3.668929
    38  H    4.248746   4.714265   3.143383   2.369105   2.496024
    39  H    5.156869   6.101057   4.563686   4.201769   2.901515
    40  H    3.193240   3.773251   2.973783   3.781969   3.635231
    41  H    4.228642   4.340879   2.462869   3.686837   4.167558
    42  H    5.072081   5.870115   4.220158   4.622539   3.746295
                   36         37         38         39         40
    36  H    0.000000
    37  H    4.171552   0.000000
    38  H    3.630014   1.776587   0.000000
    39  H    3.431222   2.830550   2.304288   0.000000
    40  H    2.474094   3.750030   4.309878   4.172152   0.000000
    41  H    3.616048   2.510837   3.724508   3.799057   1.777808
    42  H    3.319563   2.998236   3.523700   2.118781   2.810098
                   41         42
    41  H    0.000000
    42  H    2.399476   0.000000
 Framework group  C1[X(C10H26N2O4)]
 Deg. of freedom   120
                         Standard orientation:                         
 ---------------------------------------------------------------------
 Center     Atomic      Atomic             Coordinates (Angstroms)
 Number     Number       Type             X           Y           Z
 ---------------------------------------------------------------------
      1          6           0        4.718278   -0.994714   -0.330230
      2          6           0        4.057909    0.372998   -0.186215
      3          6           0        2.524672    0.328754    0.021000
      4          7           0        1.818312   -0.464279   -0.970756
      5          6           0        2.192749   -0.235694    1.416826
      6          8           0        0.819209   -0.395276    1.645450
      7          6           0        1.991240    1.778646   -0.088908
      8          8           0        0.624107    1.900120    0.184452
      9          1           0        5.783408   -0.869723   -0.510676
     10          1           0        4.298842   -1.545439   -1.169825
     11          1           0        4.596685   -1.589877    0.570993
     12          1           0        4.258742    0.954670   -1.090520
     13          1           0        4.508351    0.905326    0.653441
     14          1           0        1.987382   -1.454032   -0.843953
     15          1           0        2.090560   -0.195960   -1.908738
     16          1           0        2.630953    0.428641    2.176149
     17          1           0        2.634248   -1.229371    1.534570
     18          1           0        0.374334    0.431792    1.361427
     19          1           0        2.217846    2.159665   -1.095401
     20          1           0        2.509865    2.409899    0.639049
     21          1           0        0.122357    1.406391   -0.503127
     22          6           0       -4.719245    0.992285    0.332491
     23          6           0       -4.057842   -0.374637    0.185819
     24          6           0       -2.524630   -0.328838   -0.021291
     25          7           0       -1.818896    0.464123    0.970986
     26          6           0       -1.990142   -1.778430    0.087608
     27          8           0       -0.622857   -1.898787   -0.185353
     28          6           0       -2.193086    0.236930   -1.416648
     29          8           0       -0.819608    0.396909   -1.645434
     30          1           0       -4.597893    1.589402   -0.567472
     31          1           0       -4.300404    1.541565    1.173329
     32          1           0       -5.784310    0.866102    0.512470
     33          1           0       -4.507818   -0.905638   -0.654929
     34          1           0       -4.258299   -0.958273    1.088944
     35          1           0       -2.091449    0.195517    1.908799
     36          1           0       -1.988211    1.453861    0.844330
     37          1           0       -2.508132   -2.409472   -0.640995
     38          1           0       -2.216819   -2.160351    1.093749
     39          1           0       -0.121688   -1.404912    0.502577
     40          1           0       -2.634820    1.230642   -1.533319
     41          1           0       -2.631353   -0.426728   -2.176523
     42          1           0       -0.374508   -0.430124   -1.361585
 ---------------------------------------------------------------------
 Rotational constants (GHZ):           1.0418103           0.2637924           0.2534985
   276 basis functions,   504 primitive gaussians,   292 cartesian basis functions
    66 alpha electrons       66 beta electrons
       nuclear repulsion energy      1356.8549474349 Hartrees.
 NAtoms=   42 NActive=   42 NUniq=   42 SFac= 1.00D+00 NAtFMM=   60 NAOKFM=F Big=F
 Nuclear repulsion after empirical dispersion term =     1356.8150483168 Hartrees.
   1 Symmetry operations used in ECPInt.
 ECPInt:  NShTT=   11026 NPrTT=   44242 LenC2=   10517 LenP2D=   29807.
 LDataN:  DoStor=T MaxTD1= 4 Len=   56
 ExpMin= 1.22D-01 ExpMax= 2.27D+03 ExpMxC= 3.41D+02 IAcc=3 IRadAn=         5 AccDes= 0.00D+00
 Harris functional with IExCor= 4639 and IRadAn=       5 diagonalized for initial guess.
 HarFok:  IExCor= 4639 AccDes= 0.00D+00 IRadAn=         5 IDoV= 1 UseB2=F ITyADJ=14
 ICtDFT=  3500011 ScaDFX=  1.000000  1.000000  1.000000  1.000000
 FoFCou: FMM=F IPFlag=           0 FMFlag=      100000 FMFlg1=           0
         NFxFlg=           0 DoJE=T BraDBF=F KetDBF=T FulRan=T
         wScrn=  0.000000 ICntrl=       500 IOpCl=  0 I1Cent=   200000004 NGrid=           0
         NMat0=    1 NMatS0=      1 NMatT0=    0 NMatD0=    1 NMtDS0=    0 NMtDT0=    0
 Petite list used in FoFCou.
     Minimum is close to point  3 DX=  9.88D-03 DF= -2.87D-05 DXR=  1.62D-02 DFR=  2.61D-04 which will be used.
     Accept linear search using points  2 and  3.
     Accept linear search using points  1 and  2.
     Accept linear search using points  2 and  3.
     Accept linear search using points  1 and  2.
     Minimum is close to point  2 DX= -1.33D-06 DF=  0.00D+00 DXR=  1.33D-06 DFR=  0.00D+00 which will be used.
 SCF Done:  E(RwB97XD) =  -806.220444479     a.u. after    8 cycles
            Convg  =    0.6181D-09                    34 Fock formations.
              S**2 =  0.0000                  -V/T =  2.0086

 **********************************************************************

            Population analysis using the SCF Density.

 **********************************************************************

 Orbital symmetries:
       Occupied  (A) (A) (A) (A) (A) (A) (A) (A) (A) (A) (A) (A)
                 (A) (A) (A) (A) (A) (A) (A) (A) (A) (A) (A) (A)
                 (A) (A) (A) (A) (A) (A) (A) (A) (A) (A) (A) (A)
                 (A) (A) (A) (A) (A) (A) (A) (A) (A) (A) (A) (A)
                 (A) (A) (A) (A) (A) (A) (A) (A) (A) (A) (A) (A)
                 (A) (A) (A) (A) (A) (A)
       Virtual   (A) (A) (A) (A) (A) (A) (A) (A) (A) (A) (A) (A)
                 (A) (A) (A) (A) (A) (A) (A) (A) (A) (A) (A) (A)
                 (A) (A) (A) (A) (A) (A) (A) (A) (A) (A) (A) (A)
                 (A) (A) (A) (A) (A) (A) (A) (A) (A) (A) (A) (A)
                 (A) (A) (A) (A) (A) (A) (A) (A) (A) (A) (A) (A)
                 (A) (A) (A) (A) (A) (A) (A) (A) (A) (A) (A) (A)
                 (A) (A) (A) (A) (A) (A) (A) (A) (A) (A) (A) (A)
                 (A) (A) (A) (A) (A) (A) (A) (A) (A) (A) (A) (A)
                 (A) (A) (A) (A) (A) (A) (A) (A) (A) (A) (A) (A)
                 (A) (A) (A) (A) (A) (A) (A) (A) (A) (A) (A) (A)
                 (A) (A) (A) (A) (A) (A) (A) (A) (A) (A) (A) (A)
                 (A) (A) (A) (A) (A) (A) (A) (A) (A) (A) (A) (A)
                 (A) (A) (A) (A) (A) (A) (A) (A) (A) (A) (A) (A)
                 (A) (A) (A) (A) (A) (A) (A) (A) (A) (A) (A) (A)
                 (A) (A) (A) (A) (A) (A) (A) (A) (A) (A) (A) (A)
                 (A) (A) (A) (A) (A) (A) (A) (A) (A) (A) (A) (A)
                 (A) (A) (A) (A) (A) (A) (A) (A) (A) (A) (A) (A)
                 (A) (A) (A) (A) (A) (A)
 The electronic state is 1-A.
 Alpha  occ. eigenvalues --  -19.23554 -19.23552 -19.22902 -19.22900 -14.41809
 Alpha  occ. eigenvalues --  -14.41806 -10.32895 -10.32894 -10.32555 -10.32554
 Alpha  occ. eigenvalues --  -10.32471 -10.32470 -10.29064 -10.29063 -10.28341
 Alpha  occ. eigenvalues --  -10.28341  -1.11774  -1.10482  -1.09287  -1.08102
 Alpha  occ. eigenvalues --   -0.98892  -0.98554  -0.87182  -0.86914  -0.81696
 Alpha  occ. eigenvalues --   -0.81092  -0.76132  -0.75832  -0.71345  -0.71300
 Alpha  occ. eigenvalues --   -0.66126  -0.66040  -0.61882  -0.61315  -0.59170
 Alpha  occ. eigenvalues --   -0.58773  -0.57297  -0.56184  -0.55163  -0.55068
 Alpha  occ. eigenvalues --   -0.53871  -0.53757  -0.52008  -0.51911  -0.49674
 Alpha  occ. eigenvalues --   -0.49671  -0.48364  -0.48246  -0.48020  -0.47493
 Alpha  occ. eigenvalues --   -0.46108  -0.45642  -0.45338  -0.44769  -0.43842
 Alpha  occ. eigenvalues --   -0.43743  -0.41485  -0.40701  -0.39849  -0.38795
 Alpha  occ. eigenvalues --   -0.34914  -0.34685  -0.33989  -0.33180  -0.32033
 Alpha  occ. eigenvalues --   -0.31547
 Alpha virt. eigenvalues --    0.12417   0.12514   0.16216   0.16370   0.16553
 Alpha virt. eigenvalues --    0.16679   0.17078   0.18241   0.18685   0.19413
 Alpha virt. eigenvalues --    0.20766   0.21243   0.21508   0.21770   0.22261
 Alpha virt. eigenvalues --    0.23167   0.23389   0.24011   0.24830   0.25521
 Alpha virt. eigenvalues --    0.25605   0.26060   0.27114   0.27926   0.29368
 Alpha virt. eigenvalues --    0.29541   0.30373   0.30994   0.31049   0.32162
 Alpha virt. eigenvalues --    0.32291   0.32753   0.34269   0.34777   0.35226
 Alpha virt. eigenvalues --    0.35521   0.37056   0.38186   0.39590   0.40068
 Alpha virt. eigenvalues --    0.51223   0.52167   0.52215   0.53398   0.55082
 Alpha virt. eigenvalues --    0.55194   0.55739   0.56153   0.57182   0.59316
 Alpha virt. eigenvalues --    0.61301   0.61473   0.62514   0.64141   0.64580
 Alpha virt. eigenvalues --    0.65662   0.67933   0.68040   0.69265   0.69830
 Alpha virt. eigenvalues --    0.69854   0.71820   0.72394   0.73508   0.74159
 Alpha virt. eigenvalues --    0.74862   0.75455   0.76131   0.76555   0.77033
 Alpha virt. eigenvalues --    0.78037   0.78329   0.78734   0.79096   0.79684
 Alpha virt. eigenvalues --    0.79908   0.80585   0.80615   0.80810   0.80895
 Alpha virt. eigenvalues --    0.82293   0.82357   0.83650   0.83759   0.84284
 Alpha virt. eigenvalues --    0.84326   0.85606   0.85861   0.85940   0.86087
 Alpha virt. eigenvalues --    0.87571   0.88187   0.88379   0.90103   0.92887
 Alpha virt. eigenvalues --    0.93078   0.93985   0.94798   1.03028   1.03235
 Alpha virt. eigenvalues --    1.04889   1.05781   1.06718   1.06747   1.11217
 Alpha virt. eigenvalues --    1.11550   1.13702   1.13786   1.19460   1.20103
 Alpha virt. eigenvalues --    1.22304   1.22612   1.25893   1.29254   1.29734
 Alpha virt. eigenvalues --    1.30271   1.35026   1.35834   1.36997   1.39340
 Alpha virt. eigenvalues --    1.39428   1.44344   1.45086   1.48475   1.50235
 Alpha virt. eigenvalues --    1.51110   1.56082   1.58835   1.60644   1.62639
 Alpha virt. eigenvalues --    1.63968   1.64213   1.73028   1.78297   1.79285
 Alpha virt. eigenvalues --    1.79599   1.81539   1.81993   1.86276   1.88459
 Alpha virt. eigenvalues --    1.89696   1.91421   1.92308   1.92388   1.95994
 Alpha virt. eigenvalues --    1.96079   1.96818   1.97642   2.00335   2.01174
 Alpha virt. eigenvalues --    2.02957   2.02987   2.08790   2.08823   2.11132
 Alpha virt. eigenvalues --    2.14085   2.17036   2.18443   2.19448   2.19804
 Alpha virt. eigenvalues --    2.21475   2.22079   2.25446   2.26634   2.30312
 Alpha virt. eigenvalues --    2.30851   2.33583   2.33701   2.36469   2.36616
 Alpha virt. eigenvalues --    2.41563   2.41889   2.42915   2.43025   2.43600
 Alpha virt. eigenvalues --    2.44356   2.54097   2.55406   2.61739   2.62614
 Alpha virt. eigenvalues --    2.69838   2.70071   2.73026   2.73775   2.77734
 Alpha virt. eigenvalues --    2.77920   2.79410   2.79975   2.81476   2.81536
 Alpha virt. eigenvalues --    2.86981   2.87301   2.94333   2.94391   2.95685
 Alpha virt. eigenvalues --    2.96068   3.05710   3.06397   3.08971   3.09385
 Alpha virt. eigenvalues --    3.13467   3.13906   3.15118   3.16929   3.17855
 Alpha virt. eigenvalues --    3.18600   3.50664   3.51123   3.53589   3.54454
          Condensed to atoms (all electrons):
 Mulliken charges:
               1
     1  C   -0.304543
     2  C   -0.167628
     3  C   -0.228084
     4  N   -0.499560
     5  C    0.087199
     6  O   -0.527685
     7  C    0.100591
     8  O   -0.531384
     9  H    0.123417
    10  H    0.100137
    11  H    0.121724
    12  H    0.094301
    13  H    0.098017
    14  H    0.239722
    15  H    0.228197
    16  H    0.087536
    17  H    0.097474
    18  H    0.359580
    19  H    0.083293
    20  H    0.091110
    21  H    0.346588
    22  C   -0.304478
    23  C   -0.167705
    24  C   -0.228135
    25  N   -0.499522
    26  C    0.100556
    27  O   -0.531374
    28  C    0.087258
    29  O   -0.527775
    30  H    0.121693
    31  H    0.100117
    32  H    0.123415
    33  H    0.098031
    34  H    0.094319
    35  H    0.228217
    36  H    0.239707
    37  H    0.091112
    38  H    0.083281
    39  H    0.346651
    40  H    0.097458
    41  H    0.087523
    42  H    0.359649
 Sum of Mulliken charges =   0.00000
 Mulliken charges with hydrogens summed into heavy atoms:
               1
     1  C    0.040734
     2  C    0.024690
     3  C   -0.228084
     4  N   -0.031641
     5  C    0.272208
     6  O   -0.168105
     7  C    0.274993
     8  O   -0.184795
    22  C    0.040747
    23  C    0.024645
    24  C   -0.228135
    25  N   -0.031597
    26  C    0.274949
    27  O   -0.184723
    28  C    0.272239
    29  O   -0.168126
 Electronic spatial extent (au):  <R**2>=           4804.4512
 Charge=              0.0000 electrons
 Dipole moment (field-independent basis, Debye):
    X=             -0.0008    Y=             -0.0020    Z=              0.0002  Tot=              0.0022
 Evaluate density.
 Using the total density.
 Monte-Carlo method of calculating molar volume:
 based on  0.001 e/bohr**3 density envelope.
 Number of points per bohr**3 =  100 CutOff= 1.00D-04
 Using the SCF density.
 There are      2237 points.  Will hold      2237 in memory.
 LenV=  1047832844 MDV=  1048576000.
 Box volume =11200.799 fraction occupied=0.195
 Integrated density= 1.4722954718404984D+02 error= 1.5229547184049835D+01
 Molar volume = 2183.079 bohr**3/mol (194.816 cm**3/mol)
 Recommended a0 for SCRF calculation =  5.19 angstrom (  9.80 bohr)
   1 Symmetry operations used in ECPInt.
 ECPInt:  NShTT=   11026 NPrTT=   44242 LenC2=   10517 LenP2D=   29807.
 LDataN:  DoStor=T MaxTD1= 5 Len=  102
 Calling FoFJK, ICntrl=      2127 FMM=F ISym2X=0 I1Cent= 0 IOpClX= 0 NMat=1 NMatS=1 NMatT=0.

 GradGradGradGradGradGradGradGradGradGradGradGradGradGradGradGradGradGrad
 FormGI is forming the generalized inverse of G from B-inverse, IUseBI=4.
 Internal  Forces:  Max     0.010863382 RMS     0.003071007
 Step number   1 out of a maximum of  236
 All quantities printed in internal units (Hartrees-Bohrs-Radians)
 Mixed Optimization -- RFO/linear search
 Second derivative matrix not updated -- first step.
 ITU=  0
     Eigenvalues ---    0.00230   0.00230   0.00230   0.00230   0.00323
     Eigenvalues ---    0.00427   0.00427   0.00623   0.00671   0.00990
     Eigenvalues ---    0.00990   0.01269   0.01533   0.01669   0.02075
     Eigenvalues ---    0.02935   0.03069   0.03370   0.03370   0.03713
     Eigenvalues ---    0.04029   0.04029   0.04244   0.04330   0.04600
     Eigenvalues ---    0.04641   0.04733   0.04801   0.04801   0.04924
     Eigenvalues ---    0.04990   0.05165   0.05178   0.05491   0.05511
     Eigenvalues ---    0.05511   0.05644   0.05722   0.05723   0.05814
     Eigenvalues ---    0.05817   0.06167   0.06207   0.07062   0.08591
     Eigenvalues ---    0.08591   0.08731   0.09051   0.09865   0.09882
     Eigenvalues ---    0.11834   0.11843   0.11913   0.12063   0.12395
     Eigenvalues ---    0.12395   0.12948   0.13432   0.13678   0.14051
     Eigenvalues ---    0.14851   0.15189   0.15446   0.15654   0.16000
     Eigenvalues ---    0.16000   0.16000   0.16000   0.16000   0.16000
     Eigenvalues ---    0.16000   0.16000   0.16000   0.16000   0.16056
     Eigenvalues ---    0.16088   0.18706   0.21283   0.21991   0.21991
     Eigenvalues ---    0.27389   0.27752   0.27838   0.27838   0.28028
     Eigenvalues ---    0.28362   0.29833   0.29834   0.33685   0.33686
     Eigenvalues ---    0.33704   0.33705   0.34326   0.34327   0.34375
     Eigenvalues ---    0.34375   0.34387   0.34389   0.34644   0.34644
     Eigenvalues ---    0.35023   0.35023   0.35102   0.35102   0.35181
     Eigenvalues ---    0.35181   0.37843   0.37845   0.42487   0.45363
     Eigenvalues ---    0.45494   0.45494   0.45542   0.45627   0.45629
     Eigenvalues ---    0.45710   0.48545   0.50610   0.51161   0.51165
 Linear search not attempted -- first point.
 Iteration  1 RMS(Cart)=  0.09415115 RMS(Int)=  0.00102826
 Iteration  2 RMS(Cart)=  0.00224656 RMS(Int)=  0.00017632
 Iteration  3 RMS(Cart)=  0.00000152 RMS(Int)=  0.00017632
 Iteration  4 RMS(Cart)=  0.00000000 RMS(Int)=  0.00017632
 Variable       Old X    -DE/DX   Delta X   Delta X   Delta X     New X
                                 (Linear)    (Quad)   (Total)
    R1        2.88297   0.00330   0.00000   0.01072   0.01072   2.89369
    R2        2.05510   0.01044   0.00000   0.02895   0.02895   2.08405
    R3        2.05637   0.01001   0.00000   0.02782   0.02782   2.08419
    R4        2.05382   0.01086   0.00000   0.03005   0.03005   2.08386
    R5        2.92493   0.00093   0.00000   0.00323   0.00323   2.92817
    R6        2.06702   0.00819   0.00000   0.02318   0.02318   2.09020
    R7        2.06257   0.00929   0.00000   0.02610   0.02610   2.08866
    R8        2.74591   0.00434   0.00000   0.01117   0.01117   2.75709
    R9        2.91355   0.00240   0.00000   0.00820   0.00821   2.92176
   R10        2.92683  -0.00083   0.00000  -0.00287  -0.00286   2.92397
   R11        1.91252   0.00631   0.00000   0.01355   0.01355   1.92608
   R12        1.91406   0.00650   0.00000   0.01400   0.01400   1.92807
   R13        2.64855   0.00539   0.00000   0.01160   0.01154   2.66009
   R14        2.07864   0.00580   0.00000   0.01674   0.01674   2.09538
   R15        2.06679   0.00684   0.00000   0.01936   0.01936   2.08615
   R16        1.85407   0.00222   0.00000   0.00426   0.00426   1.85834
   R17        3.38615  -0.00063   0.00000  -0.00894  -0.00899   3.37716
   R18        2.64463   0.00217   0.00000   0.00468   0.00473   2.64936
   R19        2.07832   0.00743   0.00000   0.02142   0.02142   2.09974
   R20        2.06783   0.00634   0.00000   0.01797   0.01797   2.08579
   R21        1.85952   0.00277   0.00000   0.00541   0.00547   1.86498
   R22        3.38636  -0.00062   0.00000  -0.00820  -0.00815   3.37822
   R23        2.88296   0.00330   0.00000   0.01073   0.01073   2.89369
   R24        2.05382   0.01086   0.00000   0.03005   0.03005   2.08387
   R25        2.05637   0.01001   0.00000   0.02782   0.02782   2.08419
   R26        2.05510   0.01044   0.00000   0.02896   0.02896   2.08405
   R27        2.92495   0.00092   0.00000   0.00321   0.00321   2.92816
   R28        2.06257   0.00929   0.00000   0.02609   0.02609   2.08866
   R29        2.06702   0.00819   0.00000   0.02317   0.02317   2.09020
   R30        2.74594   0.00434   0.00000   0.01120   0.01120   2.75713
   R31        2.92685  -0.00081   0.00000  -0.00283  -0.00284   2.92401
   R32        2.91351   0.00239   0.00000   0.00810   0.00810   2.92161
   R33        1.91407   0.00650   0.00000   0.01399   0.01399   1.92806
   R34        1.91254   0.00631   0.00000   0.01354   0.01354   1.92608
   R35        2.64458   0.00215   0.00000   0.00456   0.00451   2.64909
   R36        2.06784   0.00634   0.00000   0.01796   0.01796   2.08580
   R37        2.07832   0.00743   0.00000   0.02142   0.02142   2.09974
   R38        1.85956   0.00276   0.00000   0.00529   0.00522   1.86479
   R39        2.64857   0.00540   0.00000   0.01169   0.01174   2.66031
   R40        2.06682   0.00685   0.00000   0.01936   0.01936   2.08618
   R41        2.07864   0.00580   0.00000   0.01674   0.01674   2.09538
   R42        1.85412   0.00223   0.00000   0.00428   0.00428   1.85840
    A1        1.91407   0.00207   0.00000   0.01270   0.01264   1.92671
    A2        1.93875   0.00035   0.00000   0.00150   0.00149   1.94025
    A3        1.94361   0.00212   0.00000   0.01254   0.01249   1.95609
    A4        1.88353  -0.00127   0.00000  -0.00761  -0.00763   1.87590
    A5        1.88610  -0.00200   0.00000  -0.01067  -0.01077   1.87533
    A6        1.89602  -0.00146   0.00000  -0.00959  -0.00959   1.88643
    A7        1.99961   0.00313   0.00000   0.01833   0.01824   2.01785
    A8        1.89571  -0.00035   0.00000   0.00062   0.00062   1.89633
    A9        1.90840  -0.00083   0.00000   0.00033   0.00021   1.90860
   A10        1.88363  -0.00118   0.00000  -0.00602  -0.00606   1.87758
   A11        1.89627  -0.00040   0.00000   0.00312   0.00301   1.89928
   A12        1.87640  -0.00057   0.00000  -0.01890  -0.01891   1.85749
   A13        1.98861  -0.00120   0.00000  -0.01060  -0.01047   1.97814
   A14        1.92296   0.00016   0.00000  -0.00811  -0.00817   1.91478
   A15        1.88064   0.00004   0.00000  -0.00945  -0.00944   1.87121
   A16        1.88962   0.00092   0.00000   0.01413   0.01403   1.90365
   A17        1.87030   0.00078   0.00000   0.01187   0.01165   1.88196
   A18        1.91008  -0.00070   0.00000   0.00294   0.00292   1.91301
   A19        1.94659   0.00409   0.00000   0.02593   0.02580   1.97239
   A20        1.93565   0.00162   0.00000   0.01139   0.01125   1.94690
   A21        1.90730  -0.00274   0.00000  -0.01280  -0.01304   1.89426
   A22        1.98269   0.00408   0.00000   0.03580   0.03581   2.01850
   A23        1.89451  -0.00189   0.00000  -0.01723  -0.01734   1.87717
   A24        1.92110  -0.00101   0.00000  -0.00589  -0.00642   1.91467
   A25        1.92472  -0.00077   0.00000  -0.00083  -0.00079   1.92393
   A26        1.84897  -0.00010   0.00000   0.00526   0.00512   1.85409
   A27        1.88977  -0.00044   0.00000  -0.01901  -0.01919   1.87058
   A28        1.87671   0.00300   0.00000   0.03493   0.03483   1.91154
   A29        2.06543   0.00497   0.00000   0.03545   0.03518   2.10061
   A30        1.62307  -0.00344   0.00000  -0.01498  -0.01598   1.60709
   A31        1.98652  -0.00152   0.00000   0.00897   0.00908   1.99560
   A32        1.89473  -0.00022   0.00000  -0.00155  -0.00188   1.89285
   A33        1.90667  -0.00016   0.00000  -0.01192  -0.01192   1.89475
   A34        1.92833   0.00253   0.00000   0.01965   0.01945   1.94779
   A35        1.85770   0.00028   0.00000  -0.00221  -0.00217   1.85553
   A36        1.88736  -0.00092   0.00000  -0.01465  -0.01471   1.87266
   A37        1.89450   0.00696   0.00000   0.03976   0.03959   1.93409
   A38        1.94362   0.00211   0.00000   0.01250   0.01245   1.95607
   A39        1.93873   0.00036   0.00000   0.00152   0.00151   1.94024
   A40        1.91404   0.00207   0.00000   0.01275   0.01269   1.92672
   A41        1.89604  -0.00147   0.00000  -0.00962  -0.00962   1.88642
   A42        1.88614  -0.00200   0.00000  -0.01069  -0.01079   1.87535
   A43        1.88351  -0.00127   0.00000  -0.00759  -0.00760   1.87592
   A44        1.99962   0.00311   0.00000   0.01820   0.01811   2.01773
   A45        1.90840  -0.00083   0.00000   0.00031   0.00018   1.90858
   A46        1.89573  -0.00035   0.00000   0.00067   0.00067   1.89641
   A47        1.89621  -0.00039   0.00000   0.00314   0.00303   1.89924
   A48        1.88368  -0.00118   0.00000  -0.00594  -0.00598   1.87769
   A49        1.87639  -0.00057   0.00000  -0.01888  -0.01889   1.85750
   A50        1.98873  -0.00121   0.00000  -0.01065  -0.01053   1.97820
   A51        1.88046   0.00004   0.00000  -0.00929  -0.00928   1.87118
   A52        1.92301   0.00015   0.00000  -0.00806  -0.00809   1.91492
   A53        1.87038   0.00081   0.00000   0.01213   0.01194   1.88233
   A54        1.88950   0.00090   0.00000   0.01376   0.01362   1.90312
   A55        1.91015  -0.00070   0.00000   0.00290   0.00287   1.91301
   A56        1.93570   0.00163   0.00000   0.01145   0.01132   1.94702
   A57        1.94653   0.00408   0.00000   0.02584   0.02571   1.97224
   A58        1.90730  -0.00274   0.00000  -0.01280  -0.01304   1.89426
   A59        1.98662  -0.00157   0.00000   0.00839   0.00827   1.99489
   A60        1.90664  -0.00017   0.00000  -0.01183  -0.01173   1.89491
   A61        1.89464  -0.00018   0.00000  -0.00136  -0.00167   1.89297
   A62        1.85774   0.00028   0.00000  -0.00243  -0.00236   1.85538
   A63        1.92831   0.00255   0.00000   0.02012   0.02004   1.94834
   A64        1.88737  -0.00092   0.00000  -0.01459  -0.01466   1.87271
   A65        1.89449   0.00696   0.00000   0.03925   0.03887   1.93336
   A66        1.98270   0.00408   0.00000   0.03576   0.03589   2.01859
   A67        1.92101  -0.00102   0.00000  -0.00604  -0.00658   1.91443
   A68        1.89455  -0.00188   0.00000  -0.01705  -0.01721   1.87734
   A69        1.84905  -0.00012   0.00000   0.00490   0.00472   1.85377
   A70        1.92469  -0.00076   0.00000  -0.00050  -0.00047   1.92422
   A71        1.88974  -0.00044   0.00000  -0.01900  -0.01916   1.87058
   A72        2.06618   0.00490   0.00000   0.03524   0.03514   2.10131
   A73        1.62278  -0.00345   0.00000  -0.01485  -0.01591   1.60688
   A74        1.87666   0.00305   0.00000   0.03554   0.03556   1.91222
   A75        3.12453  -0.00120   0.00000  -0.05485  -0.05515   3.06938
   A76        3.07170  -0.00083   0.00000   0.01862   0.01858   3.09028
   A77        3.05244  -0.00155   0.00000   0.00977   0.00969   3.06213
   A78        3.19669   0.00171   0.00000   0.02827   0.02884   3.22553
    D1        3.10270  -0.00031   0.00000  -0.00445  -0.00447   3.09823
    D2        0.99546  -0.00061   0.00000  -0.00934  -0.00938   0.98608
    D3       -1.04740   0.00074   0.00000   0.01276   0.01275  -1.03465
    D4        1.02216  -0.00029   0.00000  -0.00409  -0.00409   1.01807
    D5       -1.08508  -0.00058   0.00000  -0.00898  -0.00900  -1.09408
    D6       -3.12794   0.00076   0.00000   0.01312   0.01313  -3.11481
    D7       -1.09370  -0.00012   0.00000  -0.00153  -0.00151  -1.09521
    D8        3.08224  -0.00042   0.00000  -0.00642  -0.00641   3.07583
    D9        1.03938   0.00093   0.00000   0.01568   0.01572   1.05510
   D10       -0.90719  -0.00007   0.00000  -0.00064  -0.00062  -0.90781
   D11        1.22046   0.00039   0.00000   0.00417   0.00416   1.22462
   D12       -2.97989  -0.00034   0.00000  -0.00260  -0.00250  -2.98239
   D13        1.20671   0.00066   0.00000   0.00775   0.00772   1.21443
   D14       -2.94882   0.00112   0.00000   0.01256   0.01250  -2.93633
   D15       -0.86599   0.00039   0.00000   0.00578   0.00584  -0.86015
   D16       -3.04685  -0.00085   0.00000  -0.01614  -0.01617  -3.06302
   D17       -0.91919  -0.00039   0.00000  -0.01132  -0.01139  -0.93059
   D18        1.16364  -0.00113   0.00000  -0.01810  -0.01805   1.14559
   D19        1.24803   0.00043   0.00000   0.01217   0.01222   1.26025
   D20       -0.88216  -0.00005   0.00000   0.00246   0.00238  -0.87977
   D21       -0.89791   0.00037   0.00000   0.01934   0.01955  -0.87836
   D22       -3.02810  -0.00012   0.00000   0.00963   0.00972  -3.01839
   D23       -2.95657   0.00030   0.00000   0.00209   0.00202  -2.95455
   D24        1.19643  -0.00019   0.00000  -0.00762  -0.00782   1.18861
   D25       -3.06788  -0.00071   0.00000  -0.02007  -0.02015  -3.08803
   D26        1.06752  -0.00111   0.00000  -0.03077  -0.03067   1.03684
   D27       -0.99795   0.00113   0.00000   0.00594   0.00586  -0.99209
   D28       -0.88260  -0.00149   0.00000  -0.02910  -0.02921  -0.91181
   D29       -3.03039  -0.00189   0.00000  -0.03980  -0.03974  -3.07013
   D30        1.18732   0.00035   0.00000  -0.00309  -0.00320   1.18412
   D31        1.15048  -0.00043   0.00000  -0.00546  -0.00556   1.14492
   D32       -0.99732  -0.00083   0.00000  -0.01615  -0.01608  -1.01340
   D33       -3.06279   0.00141   0.00000   0.02056   0.02045  -3.04233
   D34       -3.05804   0.00176   0.00000   0.07812   0.07803  -2.98001
   D35        1.06988  -0.00029   0.00000   0.04761   0.04762   1.11749
   D36       -0.98459   0.00102   0.00000   0.07277   0.07274  -0.91185
   D37        1.07824   0.00272   0.00000   0.08934   0.08928   1.16752
   D38       -1.07703   0.00067   0.00000   0.05883   0.05887  -1.01816
   D39       -3.13150   0.00199   0.00000   0.08399   0.08399  -3.04751
   D40       -0.96703   0.00157   0.00000   0.06446   0.06434  -0.90269
   D41       -3.12230  -0.00048   0.00000   0.03394   0.03393  -3.08837
   D42        1.10641   0.00084   0.00000   0.05911   0.05905   1.16547
   D43       -0.82390   0.00057   0.00000   0.00331   0.00297  -0.82093
   D44        0.98165   0.00050   0.00000   0.02307   0.02325   1.00490
   D45        1.30724   0.00043   0.00000   0.00568   0.00546   1.31270
   D46        3.11278   0.00036   0.00000   0.02544   0.02574   3.13852
   D47       -2.93481  -0.00053   0.00000  -0.01424  -0.01472  -2.94953
   D48       -1.12927  -0.00060   0.00000   0.00552   0.00556  -1.12371
   D49       -2.98455   0.00113   0.00000   0.01350   0.01373  -2.97081
   D50       -1.04995   0.00345   0.00000   0.05133   0.05081  -0.99915
   D51       -1.12629   0.00003   0.00000  -0.00814  -0.00807  -1.13436
   D52        1.01061   0.00057   0.00000   0.01125   0.01146   1.02206
   D53        3.05570   0.00096   0.00000   0.00286   0.00286   3.05856
   D54        2.98368  -0.00102   0.00000  -0.00549  -0.00570   2.97799
   D55        1.04913  -0.00339   0.00000  -0.04268  -0.04197   1.00716
   D56        1.09346   0.00012   0.00000   0.00143   0.00141   1.09487
   D57       -1.03955  -0.00093   0.00000  -0.01569  -0.01573  -1.05527
   D58       -3.08240   0.00042   0.00000   0.00637   0.00636  -3.07604
   D59       -1.02242   0.00029   0.00000   0.00405   0.00405  -1.01838
   D60        3.12776  -0.00076   0.00000  -0.01307  -0.01308   3.11467
   D61        1.08490   0.00059   0.00000   0.00899   0.00900   1.09390
   D62       -3.10291   0.00031   0.00000   0.00433   0.00435  -3.09855
   D63        1.04727  -0.00074   0.00000  -0.01279  -0.01278   1.03449
   D64       -0.99558   0.00061   0.00000   0.00927   0.00931  -0.98628
   D65        0.90593   0.00006   0.00000   0.00091   0.00088   0.90681
   D66        2.97867   0.00036   0.00000   0.00328   0.00319   2.98187
   D67       -1.22168  -0.00037   0.00000  -0.00341  -0.00339  -1.22508
   D68        3.04554   0.00084   0.00000   0.01629   0.01632   3.06186
   D69       -1.16490   0.00114   0.00000   0.01867   0.01863  -1.14627
   D70        0.91793   0.00041   0.00000   0.01197   0.01204   0.92997
   D71       -1.20804  -0.00068   0.00000  -0.00751  -0.00750  -1.21554
   D72        0.86471  -0.00037   0.00000  -0.00514  -0.00518   0.85952
   D73        2.94754  -0.00111   0.00000  -0.01184  -0.01177   2.93576
   D74        0.88129   0.00007   0.00000  -0.00186  -0.00179   0.87950
   D75       -1.24889  -0.00041   0.00000  -0.01155  -0.01161  -1.26050
   D76       -1.19719   0.00019   0.00000   0.00787   0.00806  -1.18913
   D77        2.95581  -0.00029   0.00000  -0.00182  -0.00176   2.95406
   D78        3.02729   0.00011   0.00000  -0.00928  -0.00935   3.01794
   D79        0.89710  -0.00037   0.00000  -0.01897  -0.01916   0.87794
   D80        3.05833  -0.00179   0.00000  -0.08026  -0.08020   2.97813
   D81        0.98479  -0.00102   0.00000  -0.07433  -0.07429   0.91050
   D82       -1.06962   0.00028   0.00000  -0.04940  -0.04944  -1.11906
   D83       -1.07787  -0.00274   0.00000  -0.09130  -0.09126  -1.16913
   D84        3.13178  -0.00197   0.00000  -0.08536  -0.08536   3.04642
   D85        1.07737  -0.00067   0.00000  -0.06044  -0.06051   1.01686
   D86        0.96734  -0.00160   0.00000  -0.06673  -0.06667   0.90067
   D87       -1.10620  -0.00083   0.00000  -0.06079  -0.06077  -1.16697
   D88        3.12257   0.00047   0.00000  -0.03587  -0.03592   3.08666
   D89        3.06872   0.00067   0.00000   0.01789   0.01794   3.08666
   D90        0.99875  -0.00114   0.00000  -0.00754  -0.00748   0.99127
   D91       -1.06666   0.00110   0.00000   0.02913   0.02904  -1.03763
   D92        0.88335   0.00147   0.00000   0.02721   0.02729   0.91064
   D93       -1.18662  -0.00034   0.00000   0.00178   0.00187  -1.18475
   D94        3.03115   0.00190   0.00000   0.03845   0.03838   3.06953
   D95       -1.14979   0.00039   0.00000   0.00348   0.00356  -1.14623
   D96        3.06342  -0.00142   0.00000  -0.02195  -0.02186   3.04156
   D97        0.99801   0.00082   0.00000   0.01472   0.01465   1.01266
   D98        1.12582   0.00002   0.00000   0.00736   0.00717   1.13300
   D99       -3.05611  -0.00094   0.00000  -0.00402  -0.00414  -3.06025
   D100      -1.01100  -0.00054   0.00000  -0.01222  -0.01248  -1.02348
   D101      -0.98238  -0.00047   0.00000  -0.02280  -0.02305  -1.00543
   D102       0.82312  -0.00054   0.00000  -0.00255  -0.00215   0.82097
   D103       1.12849   0.00061   0.00000  -0.00569  -0.00580   1.12268
   D104       2.93399   0.00054   0.00000   0.01456   0.01510   2.94909
   D105      -3.11357  -0.00036   0.00000  -0.02563  -0.02602  -3.13958
   D106      -1.30806  -0.00043   0.00000  -0.00538  -0.00512  -1.31318
         Item               Value     Threshold  Converged?
 Maximum Force            0.010863     0.000015     NO 
 RMS     Force            0.003071     0.000010     NO 
 Maximum Displacement     0.342994     0.000060     NO 
 RMS     Displacement     0.093422     0.000040     NO 
 GradGradGradGradGradGradGradGradGradGradGradGradGradGradGradGradGradGrad

                    Distance matrix (angstroms):
                    1          2          3          4          5
     1  C    0.000000
     2  C    1.531274   0.000000
     3  C    2.607173   1.549520   0.000000
     4  N    3.034080   2.514146   1.458988   0.000000
     5  C    3.182807   2.531290   1.546128   2.448114   0.000000
     6  O    4.457304   3.821900   2.501270   2.880504   1.407661
     7  C    3.904690   2.492805   1.547296   2.430037   2.527888
     8  O    5.065641   3.772226   2.479470   2.963518   2.904880
     9  H    1.102832   2.176677   3.548421   4.042075   4.158128
    10  H    1.102906   2.186527   2.873692   2.734416   3.615875
    11  H    1.102733   2.197744   2.920684   3.409789   2.924627
    12  H    2.156752   1.106088   2.158614   2.824904   3.466919
    13  H    2.165242   1.105274   2.174322   3.442976   2.699380
    14  H    2.860393   2.862814   2.080867   1.019235   2.616635
    15  H    3.184365   2.682272   2.064740   1.020288   3.355411
    16  H    3.542788   2.729617   2.157344   3.388782   1.108829
    17  H    2.814224   2.739992   2.181761   2.763474   1.103943
    18  H    4.956806   4.061708   2.612987   2.996364   1.968190
    19  H    4.117432   2.737357   2.171884   2.646751   3.484830
    20  H    4.135144   2.635394   2.167869   3.379086   2.803294
    21  H    5.281434   4.140390   2.730001   2.690673   3.251129
    22  C    9.885402   9.005234   7.466856   7.061099   7.244638
    23  C    8.999370   8.309702   6.766077   6.197486   6.466373
    24  C    7.460881   6.764641   5.224048   4.664620   4.989915
    25  N    7.077409   6.215719   4.680716   4.542486   4.245634
    26  C    6.960269   6.570703   5.112147   4.387475   4.702683
    27  O    5.620008   5.357160   3.991045   3.156236   3.685868
    28  C    7.219601   6.447440   4.975701   4.215734   5.210255
    29  O    5.965456   5.152907   3.751864   2.949509   4.279485
    30  H    9.874158   8.922887   7.419919   6.962895   7.422905
    31  H    9.749975   8.785693   7.265291   7.076340   6.929439
    32  H   10.933317  10.086908   8.544267   8.107857   8.270380
    33  H    9.385245   8.791724   7.277114   6.510129   7.103059
    34  H    9.305841   8.702349   7.169368   6.679539   6.639251
    35  H    7.567368   6.771488   5.276070   5.257390   4.563419
    36  H    7.469922   6.437938   4.938410   4.925421   4.675839
    37  H    7.586162   7.309404   5.902895   4.975003   5.628044
    38  H    7.382616   7.045643   5.615193   5.085146   4.907140
    39  H    5.067900   4.699839   3.301060   2.789741   2.778123
    40  H    7.908672   6.977671   5.531618   4.930987   5.844320
    41  H    7.708787   7.090796   5.682087   4.698543   5.976929
    42  H    5.302773   4.678390   3.276161   2.295897   3.692242
                    6          7          8          9         10
     6  O    0.000000
     7  C    3.059525   0.000000
     8  O    2.751370   1.401981   0.000000
     9  H    5.489027   4.661837   5.927817   0.000000
    10  H    4.690172   4.211698   5.276395   1.778593   0.000000
    11  H    4.156056   4.343293   5.341769   1.778077   1.785353
    12  H    4.635146   2.597173   3.970150   2.473997   2.525919
    13  H    4.051477   2.755281   4.005229   2.502323   3.091991
    14  H    3.029722   3.346561   3.837271   3.911320   2.374154
    15  H    3.867640   2.711457   3.402250   4.031749   2.707697
    16  H    2.071382   2.714934   3.153334   4.333472   4.232766
    17  H    2.017159   3.487280   3.959840   3.794763   3.210904
    18  H    0.983389   2.646084   1.955027   5.964216   5.175206
    19  H    4.044761   1.111134   2.084968   4.748291   4.273514
    20  H    3.497012   1.103754   2.013251   4.733547   4.686701
    21  H    2.879816   1.980627   0.986907   6.208772   5.288943
    22  C    5.995692   6.971192   5.636954  10.933708   9.736774
    23  C    5.179672   6.577391   5.371086  10.080909   8.768104
    24  C    3.774266   5.116708   4.002494   8.538179   7.250480
    25  N    2.981747   4.402838   3.170865   8.125231   7.084311
    26  C    3.516294   5.460062   4.630806   8.061125   6.659010
    27  O    2.770974   4.624579   4.116951   6.717408   5.275042
    28  C    4.291056   4.697203   3.693941   8.244014   6.896168
    29  O    3.680141   3.502165   2.771070   6.951554   5.645558
    30  H    6.293110   6.784306   5.474584  10.889305   9.686744
    31  H    5.679791   6.676483   5.294194  10.778826   9.725134
    32  H    6.983008   8.072353   6.734579  11.991435  10.763980
    33  H    5.880000   7.170046   6.049619  10.464802   9.029772
    34  H    5.273307   7.113216   5.929732  10.400756   9.120825
    35  H    3.204585   5.097429   3.909186   8.615833   7.644131
    36  H    3.563089   4.332401   2.964437   8.470532   7.530072
    37  H    4.533362   6.295422   5.515948   8.674331   7.146264
    38  H    3.613934   6.023352   5.171261   8.482377   7.181645
    39  H    1.787114   3.959481   3.492057   6.169685   4.902144
    40  H    4.954595   4.950317   3.822722   8.892297   7.649604
    41  H    5.093620   5.558711   4.689710   8.727651   7.241401
    42  H    3.128697   3.441704   2.940389   6.333625   4.933717
                   11         12         13         14         15
    11  H    0.000000
    12  H    3.093107   0.000000
    13  H    2.534988   1.771012   0.000000
    14  H    3.031610   3.346224   3.808794   0.000000
    15  H    3.829161   2.589829   3.711499   1.655568   0.000000
    16  H    3.247857   3.665150   2.429379   3.655361   4.188342
    17  H    2.235410   3.786713   2.979449   2.515387   3.659926
    18  H    4.831541   4.704237   4.275634   3.420118   3.872187
    19  H    4.789029   2.373747   3.166801   3.634324   2.490266
    20  H    4.514334   2.781548   2.435241   4.201362   3.674906
    21  H    5.583627   4.283818   4.591260   3.540501   3.071763
    22  C    9.882527   9.302943   9.404371   7.451754   7.539458
    23  C    8.924540   8.694769   8.803042   6.417175   6.743096
    24  C    7.419669   7.162211   7.284206   4.920426   5.252373
    25  N    6.984474   6.691798   6.536497   4.925844   5.250888
    26  C    6.777442   7.102923   7.169313   4.313937   5.077495
    27  O    5.458885   5.915419   6.037973   2.946234   3.894550
    28  C    7.403710   6.614721   7.092369   4.643583   4.524186
    29  O    6.267092   5.243306   5.858291   3.531341   3.166238
    30  H    9.993705   9.090458   9.365204   7.453750   7.304876
    31  H    9.707979   9.129841   9.060998   7.521317   7.625674
    32  H   10.898108  10.397250  10.485239   8.450948   8.585970
    33  H    9.353859   9.118264   9.390415   6.660732   6.955730
    34  H    9.101021   9.204647   9.137295   6.786009   7.336557
    35  H    7.339051   7.358108   6.993357   5.533205   6.054722
    36  H    7.477469   6.800198   6.691178   5.474230   5.525283
    37  H    7.441747   7.774234   8.002973   4.812551   5.534566
    38  H    7.044857   7.701124   7.530933   4.931303   5.885794
    39  H    4.846386   5.358087   5.264710   2.676101   3.687038
    40  H    8.160633   7.045802   7.546472   5.501450   5.148392
    41  H    7.908743   7.217130   7.838360   4.983096   4.895638
    42  H    5.516423   4.907334   5.446040   2.685084   2.693415
                   16         17         18         19         20
    16  H    0.000000
    17  H    1.780780   0.000000
    18  H    2.437759   2.844766   0.000000
    19  H    3.740571   4.325168   3.614398   0.000000
    20  H    2.531323   3.768381   3.124023   1.783848   0.000000
    21  H    3.770444   4.187534   2.105741   2.365819   2.859312
    22  C    7.748635   7.929029   5.336655   7.380517   7.610362
    23  C    7.121942   6.991717   4.709650   7.041455   7.326492
    24  C    5.705345   5.541279   3.304165   5.611422   5.915039
    25  N    4.737963   4.958066   2.330686   5.091920   4.998676
    26  C    5.570233   4.951634   3.460158   6.018693   6.299554
    27  O    4.684260   3.810717   2.945849   5.164763   5.509942
    28  C    5.984853   5.838340   3.712589   4.893016   5.629473
[...]
 0018091,0.00005866,0.00001490,0.00033402,0.00069446,0.00094418,-0.0000
 4295,-0.00002485,0.00003615,0.00011517,0.00013181,0.00017657,0.0000218
 4,0.00000119,0.00000325,-0.00002442,0.00000896,0.00001824,-0.00001375,
 -0.00000362,0.00000035,-0.00000325,-0.00000417,-0.00000616,0.00004460,
 0.00001071,0.00001788,-0.00037383,0.00002925,0.00002152,-0.00001110,0.
 00003580,0.00001428,0.00008786,0.00005342,0.00002802,0.00000668,-0.000
 02308,-0.00001620,0.00034624,-0.00001648,-0.00036225,-0.00000796,-0.00
 001756,-0.00000192,0.00002390,0.00003112,0.00002101,-0.00018212,-0.000
 25789,-0.00026875,-0.00037282,-0.00008046,0.00032682,0.00024141,0.0005
 8461,0.00018356,0.00055539,-0.00136036,-0.00607998,-0.00024784,-0.0013
 6223,0.00184949,0.01834530,0.06810531,-0.26500170,0.01600070,0.0013881
 9,-0.00472368,-0.00067937,0.00053218,0.00079160,0.00058811,0.00073200,
 0.00000192,0.00008895,-0.00020390,0.00003677,0.00001162,0.00006232,-0.
 00000098,-0.00006241,0.00009022,0.00001401,0.00022958,-0.00011194,0.00
 029554,-0.00092362,-0.00008737,0.00036868,0.00006302,0.00100657,0.0003
 7081,0.00007092,0.00002299,0.00028945,0.00137034,0.00677286,-0.0148935
 1,-0.03427242,-0.07414571,0.28571883,0.00013619,0.00000951,0.00007188,
 -0.00026226,0.00022091,-0.00047133,-0.00045507,-0.00058562,0.00054483,
 -0.00105219,0.00011732,-0.00191960,-0.00885626,-0.00263906,-0.00000722
 ,-0.00341941,0.00806207,0.00604276,0.00083407,-0.00083728,0.00014382,-
 0.00162325,0.00092014,-0.00109568,0.00012675,0.00001729,-0.00004917,-0
 .00008189,-0.00000184,-0.00000992,-0.00014554,0.00012275,-0.00005114,0
 .00028054,0.00004811,-0.00018399,-0.00005277,-0.00005271,0.00008094,-0
 .00204166,0.00039630,0.00200466,0.00104535,0.00030263,0.00002560,0.001
 71652,0.00107729,0.00017607,0.00024261,-0.00010601,-0.00033328,0.00792
 000,-0.00109870,0.00167197,-0.00004900,0.00020640,-0.00018213,-0.00011
 490,0.00006809,0.00003427,0.00160694,0.00050400,0.00114953,0.00046707,
 0.00019883,0.00013326,-0.00022934,-0.00107242,-0.00007941,0.00046749,0
 .00152350,-0.00042484,-0.00240845,-0.00104642,-0.00058813,-0.03921227,
 -0.01463132,-0.02327946,-0.17221770,-0.08082882,-0.12537588,0.00070197
 ,0.00101164,-0.00099623,-0.00275863,-0.00126156,0.00013539,-0.00002575
 ,-0.00007144,0.00003591,-0.00004370,-0.00003120,-0.00005109,0.00015442
 ,-0.00016596,-0.00003769,0.00001536,-0.00003932,0.00004023,-0.00010624
 ,0.00001419,0.00002061,0.00024554,0.00022837,0.00016548,0.00089871,-0.
 00017572,-0.00018228,-0.00269345,0.00156793,0.00247518,0.00283779,-0.0
 0105529,-0.00129807,0.21454686,0.00012832,0.00012766,0.00000019,-0.000
 24297,0.00018827,-0.00047161,0.00001812,-0.00038230,0.00068846,-0.0001
 4480,0.00022481,-0.00138427,-0.00868148,0.00055708,0.00266890,0.008723
 07,-0.00409983,0.00351743,-0.00054362,-0.00060012,0.00028367,0.0000094
 7,0.00106486,-0.00075495,0.00009367,-0.00006789,-0.00002897,-0.0000334
 8,0.00000120,-0.00009672,-0.00003843,0.00006562,0.00007362,0.00027230,
 0.00000482,-0.00015648,-0.00007819,-0.00007297,0.00003862,0.00043913,0
 .00080892,0.00008899,0.00076374,-0.00026736,-0.00008637,0.00239423,0.0
 0110080,0.00005882,0.00099509,-0.00022553,-0.00000081,0.00091396,-0.00
 805754,-0.00551512,0.00007440,0.00013402,-0.00025789,0.00006083,-0.000
 02974,0.00004247,0.00050404,-0.00052724,0.00080583,0.00011063,0.000030
 91,0.00004473,0.00008794,-0.00108801,-0.00039138,0.00350890,0.00243708
 ,0.00207580,-0.00253585,-0.00007490,-0.00060010,0.00042597,0.00465502,
 0.00858301,-0.09883012,-0.09176007,-0.12265459,0.00241998,0.00073972,-
 0.00000652,-0.00232335,-0.00058768,-0.00107676,0.00003894,-0.00008939,
 0.00004192,0.00010200,-0.00011208,-0.00012415,0.00002892,-0.00010846,-
 0.00005591,-0.00035053,-0.00008169,-0.00008789,-0.00029474,0.00001209,
 0.00015256,0.00025389,0.00018097,0.00003419,-0.00010326,-0.00007624,-0
 .00011423,0.00153284,0.00050864,-0.00021999,0.00146444,-0.00001795,-0.
 00243872,0.08821992,0.09628182,0.00005782,-0.00003512,0.00015586,-0.00
 044911,0.00005240,-0.00112624,0.00141163,0.00105458,0.00274002,-0.0023
 7974,-0.00155321,-0.00046832,-0.00930432,0.00190985,0.00418094,0.00870
 821,0.00231049,-0.00542090,-0.00001361,-0.00057621,0.00001337,-0.00078
 522,0.00069588,-0.00139651,0.00003396,-0.00001990,-0.00008650,0.000083
 71,-0.00008476,-0.00014977,-0.00006876,0.00014727,-0.00002451,0.000366
 64,0.00005961,-0.00019393,-0.00041942,-0.00014558,-0.00001533,0.002876
 44,-0.00026844,-0.00018155,-0.00039935,-0.00037041,-0.00015800,0.00283
 942,0.00128434,-0.00027099,0.00050507,-0.00034829,-0.00011589,0.003907
 89,-0.00395130,0.00136825,0.00000895,0.00027056,-0.00026874,-0.0000721
 3,-0.00021861,-0.00006149,0.00114954,0.00080580,0.00133506,0.00028782,
 0.00012673,0.00007835,-0.00036167,-0.00112673,-0.00033145,0.00212872,0
 .00100264,0.00086884,-0.00234666,0.00011745,-0.00151452,0.00685398,0.0
 0818789,0.01388272,-0.16510194,-0.12613286,-0.21920968,-0.00132183,0.0
 0038209,-0.00086168,-0.00005493,-0.00194806,0.00036421,-0.00001891,-0.
 00003651,0.00001831,0.00002526,-0.00011813,-0.00010656,0.00011105,-0.0
 0014788,-0.00005951,-0.00025122,0.00000835,-0.00011938,0.00001199,0.00
 010934,0.00002135,0.00118574,-0.00040292,-0.00006318,-0.00015686,-0.00
 011165,-0.00027380,0.00571749,-0.00007243,0.00040101,0.00253468,0.0006
 5326,-0.00061553,0.14187818,0.11405820,0.21124047,-0.00002298,-0.00002
 571,0.00002172,-0.00006128,-0.00007938,-0.00015552,0.00012904,0.000390
 02,0.00048498,-0.00181676,0.00023104,-0.00067416,-0.00004275,-0.000056
 67,0.00010975,0.00017905,0.00001468,-0.00015858,-0.00001680,0.00008503
 ,-0.00003509,-0.00004112,-0.00044935,-0.00022560,-0.00002333,-0.000001
 13,-0.00001006,0.00003552,-0.00001917,-0.00002339,0.00001116,0.0000033
 7,-0.00000261,0.00000223,0.00000198,0.00001264,-0.00008513,-0.00001373
 ,-0.00002178,-0.00005998,-0.00004369,-0.00001714,0.00018069,-0.0000371
 3,-0.00003398,0.00000741,-0.00000432,-0.00004509,0.00000247,0.00000482
 ,0.00000015,-0.00017142,0.00005662,0.00018101,0.00000627,0.00002502,0.
 00000668,-0.00002558,-0.00003908,-0.00002301,0.00024262,0.00099506,0.0
 0050511,-0.00122102,-0.00005215,0.00119939,0.00006545,-0.00049579,0.00
 064653,0.00391992,-0.00562360,0.00135249,0.00017811,0.00012975,-0.0004
 6199,-0.00016199,-0.00074800,0.00163589,0.00050062,0.00050974,-0.00018
 170,-0.10738338,0.10367660,-0.02470883,-0.03883053,0.03030588,-0.00574
 499,-0.00136104,0.00037321,0.00131045,0.00002403,0.00002235,0.00001307
 ,0.00000052,-0.00008330,-0.00001709,0.00012058,-0.00004159,-0.00029032
 ,0.00002414,0.00008602,-0.00020351,0.00000435,-0.00008978,-0.00002829,
 -0.00013800,0.00021777,-0.00040915,0.00003668,0.00020196,0.00000403,0.
 00031852,-0.00043453,0.00015449,-0.00015023,-0.00030601,0.00021015,0.1
 4203856,0.00000893,0.00000093,-0.00000133,-0.00001162,-0.00000396,-0.0
 0000470,-0.00002285,-0.00000755,-0.00002380,-0.00010128,0.00006809,-0.
 00005425,-0.00018550,-0.00001468,0.00002229,0.00022441,0.00017768,0.00
 013306,-0.00009461,-0.00001203,0.00004931,0.00018837,0.00016594,0.0001
 9568,0.00000949,0.00000002,-0.00000091,-0.00000672,-0.00000088,0.00000
 444,-0.00000695,0.00000323,-0.00000459,0.00000595,0.00000328,-0.000009
 10,0.00000197,0.00000020,0.00000670,-0.00009414,-0.00000110,0.00000750
 ,0.00000045,-0.00000013,0.00000697,0.00004056,0.00002691,0.00000795,0.
 00000482,-0.00000678,-0.00000429,0.00000151,-0.00008527,-0.00007122,-0
 .00000142,-0.00000591,-0.00002308,0.00002326,0.00000415,0.00000849,-0.
 00010603,-0.00022549,-0.00034828,0.00045914,-0.00034382,-0.00001443,0.
 00094515,-0.00034026,0.00047462,0.00357551,-0.01007802,0.00113306,-0.0
 0040707,0.00110283,-0.00003764,-0.00081357,0.00066983,0.00256788,0.000
 18056,0.00030380,0.00008927,0.11377293,-0.24274580,0.03845562,-0.00716
 893,0.01392581,-0.00174695,0.00041622,0.00097719,-0.00080967,0.0000573
 5,0.00007920,-0.00023711,0.00004392,0.00028620,-0.00021881,-0.00011701
 ,-0.00027256,-0.00001394,-0.00018160,0.00009242,-0.00021155,0.00001456
 ,0.00002619,0.00015098,0.00034367,0.00006804,0.00070390,-0.00001318,0.
 00032228,-0.00007532,0.00045048,-0.00074599,0.00040534,-0.00036956,-0.
 00023631,-0.00019732,-0.11858313,0.25139961,0.00000639,0.00000649,-0.0
 0000505,0.00000783,-0.00000798,0.00002546,0.00001007,-0.00002818,-0.00
 006248,0.00021815,-0.00002199,0.00009092,0.00009973,0.00002196,-0.0000
 3286,-0.00011312,-0.00012539,-0.00001722,-0.00012293,0.00002711,0.0000
 5804,0.00023573,-0.00003938,0.00006270,0.00000341,-0.00000241,0.000001
 62,-0.00000402,0.00000129,0.00000168,0.00000037,-0.00000311,0.00000257
 ,-0.00000558,-0.00000058,0.00000182,0.00000986,0.00000306,0.00000155,0
 .00002142,0.00000427,-0.00002390,-0.00003720,-0.00000708,0.00000455,-0
 .00002448,-0.00001176,0.00000075,0.00000014,-0.00000429,0.00000289,0.0
 0001195,0.00009714,-0.00000781,0.00001665,-0.00000657,-0.00001620,0.00
 002161,0.00000316,0.00000058,-0.00033326,-0.00000078,-0.00011589,0.000
 58434,0.00017005,-0.00081129,-0.00086022,0.00002752,0.00081568,-0.0144
 1152,0.02784938,-0.00578901,0.00053693,0.00061582,0.00169184,0.0026258
 9,-0.00016682,-0.00567522,-0.00054526,-0.00053219,0.00063785,-0.025923
 43,0.03887006,-0.06216144,0.00306901,-0.00296440,0.00316259,0.00135141
 ,-0.00075180,-0.00019326,-0.00002804,-0.00000821,0.00004869,-0.0000945
 6,-0.00022307,0.00026089,0.00023886,-0.00005343,0.00002922,-0.00026841
 ,-0.00018841,0.00014712,0.00021374,-0.00022468,0.00013590,-0.00025559,
 -0.00064456,-0.00055465,0.00018085,0.00016582,0.00011087,-0.00031704,0
 .00183225,-0.00017084,0.00022807,0.00008636,0.00015273,0.02183402,-0.0
 4521156,0.06187385,-0.00004874,-0.00003146,-0.00000164,0.00000108,0.00
 007279,-0.00003610,0.00013488,-0.00000803,0.00015749,-0.00045540,0.000
 41391,-0.00004924,-0.00008945,-0.00009260,0.00015388,0.00034257,0.0001
 9918,-0.00009830,0.00096582,-0.00021337,-0.00027653,-0.00179306,-0.001
 09239,-0.00173880,-0.00002481,0.00001566,0.00000068,0.00002051,-0.0000
 0287,-0.00000030,0.00000648,0.00001123,-0.00000682,0.00001732,-0.00000
 237,-0.00000497,-0.00002183,-0.00000031,-0.00000290,-0.00019112,-0.000
 00622,-0.00002920,0.00008470,-0.00010129,-0.00005059,0.00002914,0.0000
 0448,0.00000385,0.00000741,0.00004056,-0.00002448,-0.00032093,-0.00015
 381,0.00029243,-0.00003711,0.00006282,0.00008786,-0.00020758,-0.000002
 86,-0.00001362,0.00171652,0.00239411,0.00283948,-0.00019650,0.00017244
 ,-0.00014478,0.00036758,0.00055834,0.00019483,0.00309594,0.00364143,0.
 00169275,0.00035414,-0.00051184,0.00171732,0.00004933,-0.00012108,-0.0
 0016540,0.00044573,0.00047995,0.00020944,-0.06032572,-0.03070964,-0.03
 669725,-0.02820870,-0.03140612,-0.02274733,0.00003229,-0.00014617,0.00
 012029,0.00001230,-0.00000271,0.00003644,-0.00005132,-0.00004853,0.000
 09103,-0.00049525,-0.00011389,0.00043145,0.00018609,-0.00003868,-0.000
 15239,0.00042281,0.00010606,0.00032363,-0.00041603,-0.00024207,-0.0002
 6664,0.00003145,0.00004852,-0.00002365,0.00002597,0.00001307,0.0000975
 7,-0.00030738,-0.00039681,0.00000719,0.00581779,0.00994327,0.01153947,
 0.07714330,-0.00003506,-0.00002285,0.00000115,-0.00000422,0.00002933,-
 0.00004408,0.00006328,0.00006704,0.00016543,-0.00043350,0.00014334,-0.
 00016516,0.00002545,-0.00004289,0.00008803,0.00006389,0.00006683,-0.00
 012611,0.00054279,-0.00009452,-0.00015649,-0.00086971,-0.00038092,-0.0
 0065061,-0.00002243,0.00000895,-0.00000057,0.00002034,-0.00000300,-0.0
 0000357,0.00000857,0.00000521,-0.00000229,0.00000752,-0.00000301,0.000
 00300,-0.00002566,-0.00000269,-0.00000656,-0.00004198,-0.00001421,-0.0
 0002181,0.00008140,-0.00005748,-0.00004002,0.00000448,-0.00001012,-0.0
 0000668,-0.00000432,0.00002691,-0.00001176,-0.00012722,-0.00007606,0.0
 0018781,-0.00002649,0.00003201,0.00005343,-0.00010645,-0.00001013,-0.0
 0001909,0.00107734,0.00110087,0.00128448,0.00039270,-0.00019857,0.0002
 2325,0.00021819,-0.00011903,-0.00023444,0.00178287,0.00645161,0.008943
 02,-0.00001275,-0.00025572,0.00269196,0.00077068,0.00032991,0.00150487
 ,0.00007644,0.00022876,0.00001500,-0.03523697,-0.16881606,-0.12061367,
 -0.01321904,-0.00174859,-0.00276844,-0.00018129,0.00017348,-0.00019612
 ,-0.00002802,0.00006464,0.00005006,0.00005502,0.00010346,-0.00015625,0
 .00029894,0.00021286,-0.00004032,0.00018819,0.00006280,-0.00000674,0.0
 0022802,0.00062135,0.00057914,-0.00010042,0.00001603,0.00038326,-0.000
 18693,0.00001611,0.00013690,0.00009154,0.00018860,-0.00007019,-0.00007
 393,-0.00016045,0.00013868,-0.00547739,-0.01537626,-0.01872444,0.04918
 856,0.17789744,-0.00001219,-0.00000679,-0.00000481,0.00001308,0.000011
 52,0.00001382,-0.00000727,-0.00001289,-0.00002535,-0.00007103,0.000093
 94,-0.00000306,0.00012735,0.00006176,-0.00001144,-0.00034064,0.0003153
 2,0.00010823,0.00017091,-0.00003205,-0.00003732,-0.00022987,-0.0000159
 1,0.00022112,-0.00000616,0.00000429,0.00000219,0.00000293,0.00000059,0
 .00000581,0.00000253,-0.00000166,-0.00000259,-0.00000480,-0.00000114,0
 .00000357,0.00000462,0.00000403,0.00000015,-0.00007287,-0.00000870,-0.
 00002196,0.00002046,-0.00001650,-0.00000068,0.00000385,-0.00000668,0.0
 0000365,-0.00004509,0.00000795,0.00000075,0.00064135,-0.00017462,0.000
 05113,-0.00002761,0.00000391,0.00002802,-0.00002480,0.00000619,-0.0000
 0656,0.00017610,0.00005888,-0.00027093,0.00004361,0.00019689,0.0001247
 6,-0.00105088,-0.00011518,-0.00040633,-0.00724328,-0.02066683,-0.02018
 306,0.00203124,0.00304877,-0.00608777,-0.00017811,-0.00230508,-0.00016
 808,-0.00025251,0.00068848,0.00078318,-0.03769559,-0.11757333,-0.17430
 088,-0.00097683,0.00562269,0.00914913,-0.00008378,-0.00002297,-0.00001
 482,-0.00011212,0.00015156,0.00010061,0.00004831,-0.00002547,0.0000032
 6,0.00098075,0.00025585,0.00025545,0.00027667,0.00023816,0.00028578,-0
 .00082652,-0.00107409,-0.00131682,0.00007356,0.00038341,0.00036147,0.0
 0025796,0.00116035,0.00009174,0.00037867,-0.00002725,0.00049536,-0.000
 14471,-0.00047198,-0.00014390,0.00192600,0.00481593,0.00567591,0.04264
 840,0.12620355,0.18513316,0.00016738,0.00034108,-0.00029585,0.00094889
 ,0.00133741,0.00246503,-0.00125424,-0.00568443,-0.00711196,0.01031900,
 0.00238899,0.00698834,0.00200836,0.00096538,-0.00138701,-0.00380595,-0
 .00028728,0.00094414,0.00308866,-0.00195397,-0.00062065,-0.00606224,-0
 .00013137,-0.00193531,0.00025062,0.00001793,0.00013138,-0.00047454,0.0
 0027997,0.00029900,-0.00011482,-0.00006439,0.00004805,-0.00004439,-0.0
 0004840,-0.00014308,0.00125021,0.00018085,0.00025694,0.00020117,0.0009
 8332,0.00022385,-0.00227957,0.00042072,0.00078001,-0.00032096,-0.00012
 723,0.00064141,-0.00017143,0.00000153,0.00001194,0.00295256,-0.0007460
 1,-0.00005307,-0.00020805,-0.00014420,0.00034628,-0.00047803,0.0006657
 6,0.00029627,0.00792050,0.00091448,0.00390820,0.00026828,0.00004533,0.
 00006734,-0.00040628,0.00024610,-0.00117136,0.00124865,0.00107195,0.00
 217866,-0.00110388,0.00021969,-0.00123427,-0.00126173,-0.00236904,0.00
 176127,-0.00324543,0.00471312,-0.00363239,-0.03237672,0.02354350,-0.00
 546552,-0.16857383,0.14705825,-0.03866821,-0.00010471,0.00007322,-0.00
 003912,-0.00005924,-0.00004830,-0.00005385,0.00015918,-0.00006120,-0.0
 0006268,-0.00013687,-0.00007907,0.00009562,0.00053267,0.00005850,-0.00
 026526,0.00062092,-0.00017574,-0.00010354,-0.00005674,0.00011847,0.000
 40997,-0.00014854,0.00003344,0.00003904,0.00001125,0.00031915,-0.00050
 266,0.00406314,0.00131890,0.00060418,-0.00223242,-0.00242732,0.0002787
 1,0.00187978,0.00102757,-0.00042171,0.18702939,0.00012772,-0.00003142,
 0.00006161,-0.00025827,-0.00075735,-0.00100103,-0.00225075,0.00198642,
 0.00182720,-0.00117411,-0.00988012,-0.00141825,0.00031207,-0.00003733,
 -0.00002054,-0.00025997,-0.00144052,-0.00090179,-0.00320418,0.00053490
 ,-0.00000988,0.00280712,0.00151097,0.00146815,-0.00002483,-0.00003217,
 -0.00002380,0.00010943,-0.00005318,-0.00005284,0.00002588,-0.00001466,
 0.00001266,-0.00002593,0.00000217,0.00008439,-0.00040567,-0.00005145,-
 0.00005664,0.00452622,-0.00066084,0.00027981,-0.00144465,0.00061029,-0
 .00006578,-0.00015378,-0.00007604,-0.00017465,0.00005663,-0.00008528,0
 .00009715,-0.00074604,0.00119817,-0.00070057,0.00012786,-0.00020717,-0
 .00001646,0.00043205,-0.00017659,0.00013352,-0.00109861,-0.00805777,-0
 .00395182,0.00012134,0.00008448,-0.00007174,0.00015127,-0.00092209,0.0
 0062854,-0.00052287,0.00073904,0.00028728,-0.00000360,-0.00111083,0.00
 092305,-0.00767296,0.00190932,0.00146466,0.00620543,0.00150932,-0.0045
 1473,-0.00544546,0.01563317,-0.00411613,0.18718127,-0.27917842,0.06539
 676,0.00014515,-0.00022497,0.00002870,0.00002519,-0.00002057,0.0000357
 2,-0.00002185,-0.00009648,0.00003711,0.00005563,0.00008472,-0.00009542
 ,-0.00044326,-0.00004886,0.00026222,-0.00044150,0.00022058,0.00010934,
 0.00048602,-0.00021524,-0.00045725,0.00057211,-0.00005465,0.00008417,0
 .00136714,-0.00058987,-0.00067567,0.00130698,-0.00040054,0.00449092,-0
 .00462630,0.00079896,0.00017132,-0.00192126,-0.00045497,-0.00077493,-0
 .17399666,0.27805687,0.00013149,0.00004679,0.00002720,-0.00006314,-0.0
 0017582,-0.00020136,-0.00207650,0.00048567,-0.00019342,0.00132194,-0.0
 0031700,-0.00775479,-0.00212853,-0.00033344,-0.00023176,0.00146192,0.0
 0012809,0.00139135,-0.00142648,-0.00065637,0.00085630,0.00002456,0.001
 66042,-0.00093324,0.00005307,-0.00001953,-0.00000771,-0.00005771,0.000
 02161,0.00001722,-0.00003601,0.00003097,-0.00001003,0.00007648,0.00002
 834,-0.00007760,-0.00001396,-0.00002271,0.00001868,-0.00062290,0.00021
 451,0.00023255,0.00508666,-0.00059146,0.00046648,0.00029243,0.00018780
 ,0.00005113,0.00018100,-0.00007122,-0.00000781,-0.00005308,-0.00070057
 ,-0.00253639,0.00028739,0.00012071,-0.00036227,0.00011904,0.00012019,-
 0.00005519,0.00167196,-0.00551556,0.00136796,-0.00016458,-0.00007364,0
 .00002259,0.00010495,0.00039685,-0.00028112,0.00180085,-0.00092938,0.0
 0170705,-0.00109085,-0.00002207,0.00013255,0.00412004,0.00007232,-0.00
 099313,-0.00312337,-0.00259480,-0.00047775,0.00264237,-0.00626539,0.00
 040991,-0.04900489,0.06831242,-0.03322212,-0.00006749,0.00016593,0.000
 00250,0.00006916,-0.00003908,-0.00008537,-0.00004896,0.00007781,-0.000
 03402,-0.00028573,-0.00008377,-0.00006335,0.00009770,0.00002429,-0.000
 12937,-0.00033150,0.00010602,-0.00012715,0.00018912,0.00001617,0.00022
 010,-0.00054789,-0.00027723,-0.00007958,-0.00043176,0.00011151,0.00021
 706,-0.00029741,0.00365168,-0.00358364,0.00186331,0.00008087,0.0006388
 8,-0.00011455,0.00141241,0.00010813,0.04039184,-0.05878434,0.04356055\
 \0.00000006,0.00000032,0.00000033,-0.00000024,0.00000015,0.00000038,0.
 00000011,0.00000012,0.00000033,0.00000024,0.00000022,-0.00000005,0.000
 00042,0.00000024,-0.00000004,-0.00000116,-0.00000008,0.00000007,0.0000
 0009,0.00000036,0.00000029,0.00000012,0.,0.00000055,-0.00000008,0.0000
 0043,0.00000034,0.00000018,0.00000040,0.00000028,0.00000014,0.00000030
 ,0.00000005,0.,0.00000040,0.00000046,-0.00000013,0.00000018,0.00000031
 ,-0.00000001,0.00000030,0.00000005,0.00000015,0.00000031,0.00000024,-0
 .00000025,-0.00000020,0.00000026,-0.00000009,0.00000008,0.00000005,0.0
 0000042,-0.00000039,0.00000004,-0.00000011,0.00000023,0.00000048,-0.00
 000024,0.00000013,0.00000036,-0.00000018,-0.00000038,-0.00000025,-0.00
 000020,-0.00000033,-0.00000028,0.00000018,-0.00000020,-0.00000037,-0.0
 0000017,0.00000008,-0.00000010,-0.00000019,-0.00000046,0.,-0.00000009,
 -0.00000008,-0.00000031,0.00000018,-0.00000006,-0.00000030,-0.00000012
 ,-0.00000025,-0.00000010,-0.00000004,0.00000080,-0.00000015,-0.0000001
 2,-0.00000026,-0.00000004,-0.00000024,-0.00000045,-0.00000032,0.000000
 07,-0.00000038,-0.00000038,0.00000009,-0.00000018,-0.00000029,-0.00000
 006,-0.00000041,-0.00000047,-0.00000008,-0.00000028,-0.00000021,-0.000
 00011,-0.00000034,0.00000002,0.00000021,-0.00000012,-0.00000034,0.,-0.
 00000025,-0.00000043,0.00000036,0.00000008,0.00000004,0.00000016,-0.00
 000012,-0.00000023,0.00000030,0.00000012,-0.00000022,0.00000045,-0.000
 00003,-0.00000006\\\@


 MEN HAVE BECOME THE TOOLS OF THEIR TOOLS... THOREAU   
 File lengths (MBytes):  RWF=    394 Int=      0 D2E=      0 Chk=      7 Scr=      1
 Normal termination of Gaussian 16 at Mon Apr  1 17:15:49 2024.
real 7715.24
user 29551.76
sys 31.57
