 Entering Gaussian System, Link 0=g16
 Input=gaussian_test.inp
 Output=gaussian_test.log
 Initial command:
 /sw/restricted/lms/sw/Gaussian/g16_B01/g16/l1.exe "/scratch/user/peterchao1/peterchao1/6318265_1663960373000000650110197/Gau-140885.inp" -scrdir="/scratch/user/peterchao1/peterchao1/6318265_1663960373000000650110197/"
 Entering Link 1 = /sw/restricted/lms/sw/Gaussian/g16_B01/g16/l1.exe PID=    140886.
  
 Copyright (c) 1988-2017, Gaussian, Inc.  All Rights Reserved.
  
 This is part of the Gaussian(R) 16 program.  It is based on
 the Gaussian(R) 09 system (copyright 2009, Gaussian, Inc.),
 the Gaussian(R) 03 system (copyright 2003, Gaussian, Inc.),
 the Gaussian(R) 98 system (copyright 1998, Gaussian, Inc.),
 the Gaussian(R) 94 system (copyright 1995, Gaussian, Inc.),
 the Gaussian 92(TM) system (copyright 1992, Gaussian, Inc.),
 the Gaussian 90(TM) system (copyright 1990, Gaussian, Inc.),
 the Gaussian 88(TM) system (copyright 1988, Gaussian, Inc.),
 the Gaussian 86(TM) system (copyright 1986, Carnegie Mellon
 University), and the Gaussian 82(TM) system (copyright 1983,
 Carnegie Mellon University). Gaussian is a federally registered
 trademark of Gaussian, Inc.
  
 This software contains proprietary and confidential information,
 including trade secrets, belonging to Gaussian, Inc.
  
 This software is provided under written license and may be
 used, copied, transmitted, or stored only in accord with that
 written license.
  
 The following legend is applicable only to US Government
 contracts under FAR:
  
                    RESTRICTED RIGHTS LEGEND
  
 Use, reproduction and disclosure by the US Government is
 subject to restrictions as set forth in subparagraphs (a)
 and (c) of the Commercial Computer Software - Restricted
 Rights clause in FAR 52.227-19.
  
 Gaussian, Inc.
 340 Quinnipiac St., Bldg. 40, Wallingford CT 06492
  
  
 ---------------------------------------------------------------
 Warning -- This program may not be used in any manner that
 competes with the business of Gaussian, Inc. or will provide
 assistance to any competitor of Gaussian, Inc.  The licensee
 of this program is prohibited from giving any competitor of
 Gaussian, Inc. access to this program.  By using this program,
 the user acknowledges that Gaussian, Inc. is engaged in the
 business of creating and licensing software in the field of
 computational chemistry and represents and warrants to the
 licensee that it is not a competitor of Gaussian, Inc. and that
 it will not use this program in any manner prohibited above.
 ---------------------------------------------------------------
  

 Cite this work as:
 Gaussian 16, Revision B.01,
 M. J. Frisch, G. W. Trucks, H. B. Schlegel, G. E. Scuseria, 
 M. A. Robb, J. R. Cheeseman, G. Scalmani, V. Barone, 
 G. A. Petersson, H. Nakatsuji, X. Li, M. Caricato, A. V. Marenich, 
 J. Bloino, B. G. Janesko, R. Gomperts, B. Mennucci, H. P. Hratchian, 
 J. V. Ortiz, A. F. Izmaylov, J. L. Sonnenberg, D. Williams-Young, 
 F. Ding, F. Lipparini, F. Egidi, J. Goings, B. Peng, A. Petrone, 
 T. Henderson, D. Ranasinghe, V. G. Zakrzewski, J. Gao, N. Rega, 
 G. Zheng, W. Liang, M. Hada, M. Ehara, K. Toyota, R. Fukuda, 
 J. Hasegawa, M. Ishida, T. Nakajima, Y. Honda, O. Kitao, H. Nakai, 
 T. Vreven, K. Throssell, J. A. Montgomery, Jr., J. E. Peralta, 
 F. Ogliaro, M. J. Bearpark, J. J. Heyd, E. N. Brothers, K. N. Kudin, 
 V. N. Staroverov, T. A. Keith, R. Kobayashi, J. Normand, 
 K. Raghavachari, A. P. Rendell, J. C. Burant, S. S. Iyengar, 
 J. Tomasi, M. Cossi, J. M. Millam, M. Klene, C. Adamo, R. Cammi, 
 J. W. Ochterski, R. L. Martin, K. Morokuma, O. Farkas, 
 J. B. Foresman, and D. J. Fox, Gaussian, Inc., Wallingford CT, 2016.
 
 ******************************************
 Gaussian 16:  ES64L-G16RevB.01 20-Dec-2017
                23-Sep-2022 
 ******************************************
 %chk=12.chk
 %nprocshared=4
 Will use up to    4 processors via shared memory.
 %mem=8000mb
 --------------------------------------------------------------
 #T wB97XD//def2svpp Volume=tight Geom=AllCheckpoint Guess=Read
 --------------------------------------------------------------
 Structure from the checkpoint file:  "12.chk"
 -------
 Monomer
 -------
 Charge =  0 Multiplicity = 1
 Redundant internal coordinates found in file.  (old form).
 O,0,-1.761426,-0.135516,1.583702
 C,0,-0.950871,0.786901,0.893771
 C,0,0.021651,0.01512,-0.002406
 C,0,0.925843,-0.878869,0.870702
 O,0,1.823095,-1.66246,0.117674
 C,0,-0.756486,-0.860604,-0.982136
 F,0,-1.589745,-0.097814,-1.770448
 C,0,0.880821,0.997052,-0.797765
 F,0,1.523096,1.874726,0.048696
 H,0,-2.403427,0.347475,2.117984
 H,0,-0.369043,1.416512,1.594172
 H,0,-1.559773,1.459908,0.258529
 H,0,0.294646,-1.498922,1.532347
 H,0,1.536086,-0.223454,1.513166
 H,0,1.416148,-2.512219,-0.089012
 H,0,-1.377325,-1.58312,-0.425808
 H,0,-0.063657,-1.400926,-1.65115
 H,0,0.259097,1.585677,-1.493337
 H,0,1.647979,0.443063,-1.36514
 Recover connectivity data from disk.
                           ----------------------------
                           !    Current Parameters    !
                           ! (Angstroms and Degrees)  !
 --------------------------                            --------------------------
 ! Name  Definition              Value                                          !
 --------------------------------------------------------------------------------
 ! R1    R(1,2)                  1.4085                                         !
 ! R2    R(1,10)                 0.9648                                         !
 ! R3    R(2,3)                  1.5312                                         !
 ! R4    R(2,11)                 1.107                                          !
 ! R5    R(2,12)                 1.1078                                         !
 ! R6    R(3,4)                  1.5424                                         !
 ! R7    R(3,6)                  1.5272                                         !
 ! R8    R(3,8)                  1.5281                                         !
 ! R9    R(4,5)                  1.4093                                         !
 ! R10   R(4,13)                 1.1048                                         !
 ! R11   R(4,14)                 1.1021                                         !
 ! R12   R(5,15)                 0.9646                                         !
 ! R13   R(6,7)                  1.3775                                         !
 ! R14   R(6,16)                 1.1032                                         !
 ! R15   R(6,17)                 1.1043                                         !
 ! R16   R(8,9)                  1.3782                                         !
 ! R17   R(8,18)                 1.1031                                         !
 ! R18   R(8,19)                 1.1033                                         !
 ! A1    A(2,1,10)             109.0464                                         !
 ! A2    A(1,2,3)              108.7902                                         !
 ! A3    A(1,2,11)             111.4083                                         !
 ! A4    A(1,2,12)             111.2497                                         !
 ! A5    A(3,2,11)             108.8536                                         !
 ! A6    A(3,2,12)             108.6447                                         !
 ! A7    A(11,2,12)            107.8282                                         !
 ! A8    A(2,3,4)              109.4607                                         !
 ! A9    A(2,3,6)              109.9306                                         !
 ! A10   A(2,3,8)              109.7464                                         !
 ! A11   A(4,3,6)              109.2371                                         !
 ! A12   A(4,3,8)              109.7234                                         !
 ! A13   A(6,3,8)              108.7267                                         !
 ! A14   A(3,4,5)              113.1428                                         !
 ! A15   A(3,4,13)             109.2304                                         !
 ! A16   A(3,4,14)             108.0517                                         !
 ! A17   A(5,4,13)             111.819                                          !
 ! A18   A(5,4,14)             106.8343                                         !
 ! A19   A(13,4,14)            107.5162                                         !
 ! A20   A(4,5,15)             109.6162                                         !
 ! A21   A(3,6,7)              110.9655                                         !
 ! A22   A(3,6,16)             109.8033                                         !
 ! A23   A(3,6,17)             110.4596                                         !
 ! A24   A(7,6,16)             108.1099                                         !
 ! A25   A(7,6,17)             107.6824                                         !
 ! A26   A(16,6,17)            109.7633                                         !
 ! A27   A(3,8,9)              110.5841                                         !
 ! A28   A(3,8,18)             110.7448                                         !
 ! A29   A(3,8,19)             109.6306                                         !
 ! A30   A(9,8,18)             108.0669                                         !
 ! A31   A(9,8,19)             108.1535                                         !
 ! A32   A(18,8,19)            109.6063                                         !
 ! D1    D(10,1,2,3)          -177.3587                                         !
 ! D2    D(10,1,2,11)           62.6389                                         !
 ! D3    D(10,1,2,12)          -57.7127                                         !
 ! D4    D(1,2,3,4)            -61.4348                                         !
 ! D5    D(1,2,3,6)             58.5539                                         !
 ! D6    D(1,2,3,8)            178.0923                                         !
 ! D7    D(11,2,3,4)            60.1394                                         !
 ! D8    D(11,2,3,6)          -179.8719                                         !
 ! D9    D(11,2,3,8)           -60.3336                                         !
 ! D10   D(12,2,3,4)           177.3108                                         !
 ! D11   D(12,2,3,6)           -62.7005                                         !
 ! D12   D(12,2,3,8)            56.8379                                         !
 ! D13   D(2,3,4,5)            177.8937                                         !
 ! D14   D(2,3,4,13)            52.6409                                         !
 ! D15   D(2,3,4,14)           -64.0358                                         !
 ! D16   D(6,3,4,5)             57.4811                                         !
 ! D17   D(6,3,4,13)           -67.7718                                         !
 ! D18   D(6,3,4,14)           175.5516                                         !
 ! D19   D(8,3,4,5)            -61.6194                                         !
 ! D20   D(8,3,4,13)           173.1278                                         !
 ! D21   D(8,3,4,14)            56.4511                                         !
 ! D22   D(2,3,6,7)             59.1375                                         !
 ! D23   D(2,3,6,16)           -60.32                                           !
 ! D24   D(2,3,6,17)           178.4866                                         !
 ! D25   D(4,3,6,7)            179.2618                                         !
 ! D26   D(4,3,6,16)            59.8044                                         !
 ! D27   D(4,3,6,17)           -61.389                                          !
 ! D28   D(8,3,6,7)            -61.021                                          !
 ! D29   D(8,3,6,16)           179.5215                                         !
 ! D30   D(8,3,6,17)            58.3281                                         !
 ! D31   D(2,3,8,9)             55.1688                                         !
 ! D32   D(2,3,8,18)           -64.5993                                         !
 ! D33   D(2,3,8,19)           174.3324                                         !
 ! D34   D(4,3,8,9)            -65.1447                                         !
 ! D35   D(4,3,8,18)           175.0872                                         !
 ! D36   D(4,3,8,19)            54.0189                                         !
 ! D37   D(6,3,8,9)            175.4414                                         !
 ! D38   D(6,3,8,18)            55.6733                                         !
 ! D39   D(6,3,8,19)           -65.395                                          !
 ! D40   D(3,4,5,15)           -90.6647                                         !
 ! D41   D(13,4,5,15)           33.1806                                         !
 ! D42   D(14,4,5,15)          150.558                                          !
 --------------------------------------------------------------------------------
                    Distance matrix (angstroms):
                    1          2          3          4          5
     1  O    0.000000
     2  C    1.408495   0.000000
     3  C    2.391191   1.531202   0.000000
     4  C    2.877909   2.509458   1.542432   0.000000
     5  O    4.162882   3.781082   2.464527   1.409300   0.000000
     6  C    2.849418   2.504214   1.527174   2.502713   2.916641
     7  F    3.358752   2.879053   2.394854   3.730134   4.202452
     8  C    3.733037   2.502110   1.528057   2.510954   2.966296
     9  F    4.145528   2.831612   2.390624   2.935079   3.550555
    10  H    0.964833   1.949798   3.238444   3.760807   5.089653
    11  H    2.085097   1.107021   2.160001   2.732931   4.057781
    12  H    2.083777   1.107805   2.157870   3.467408   4.605738
    13  H    2.467579   2.680313   2.173089   1.104830   2.089067
    14  H    3.299438   2.754891   2.155780   1.102146   2.024972
    15  H    4.306236   4.177659   2.887830   1.956855   0.964580
    16  H    2.506236   2.745934   2.165820   2.735231   3.247207
    17  H    3.866258   3.471363   2.175045   2.758875   2.599418
    18  H    4.063642   2.792911   2.178510   3.479543   3.948650
    19  H    4.544718   3.460480   2.164514   2.695918   2.581207
                    6          7          8          9         10
     6  C    0.000000
     7  F    1.377536   0.000000
     8  C    2.483073   2.872027   0.000000
     9  F    3.706904   4.109742   1.378160   0.000000
    10  H    3.712494   3.997532   4.439575   4.693829   0.000000
    11  H    3.460164   3.886382   2.731203   2.485688   2.357104
    12  H    2.751235   2.558152   2.699350   3.117721   2.325260
    13  H    2.799099   4.052467   3.464522   3.884818   3.321408
    14  H    3.447953   4.535276   2.694329   2.558750   4.026354
    15  H    2.871557   4.206183   3.619929   4.390409   5.257170
    16  H    1.103164   2.014774   3.448893   4.538094   3.354245
    17  H    1.104328   2.010293   2.714885   4.017108   4.768417
    18  H    2.697596   2.515780   1.103105   2.014723   4.654441
    19  H    2.761828   3.307519   1.103336   2.015983   5.343705
                   11         12         13         14         15
    11  H    0.000000
    12  H    1.789878   0.000000
    13  H    2.990662   3.717009   0.000000
    14  H    2.515068   3.740610   1.779989   0.000000
    15  H    4.631948   4.975408   2.216606   2.796391   0.000000
    16  H    3.754297   3.124360   2.576227   3.754501   2.963131
    17  H    4.308519   3.750948   3.205096   3.736109   2.421791
    18  H    3.155295   2.528466   4.320970   3.733995   4.483709
    19  H    3.711268   3.736301   3.741423   2.956588   3.227374
                   16         17         18         19
    16  H    0.000000
    17  H    1.805653   0.000000
    18  H    3.722737   3.008134   0.000000
    19  H    3.760349   2.532152   1.803051   0.000000
 Framework group  C1[X(C5H10F2O2)]
 Deg. of freedom    51
                         Standard orientation:                         
 ---------------------------------------------------------------------
 Center     Atomic      Atomic             Coordinates (Angstroms)
 Number     Number       Type             X           Y           Z
 ---------------------------------------------------------------------
      1          8           0        1.761426   -0.135516   -1.583702
      2          6           0        0.950871    0.786901   -0.893771
      3          6           0       -0.021651    0.015120    0.002406
      4          6           0       -0.925843   -0.878869   -0.870702
      5          8           0       -1.823096   -1.662459   -0.117674
      6          6           0        0.756486   -0.860604    0.982136
      7          9           0        1.589745   -0.097814    1.770448
      8          6           0       -0.880821    0.997052    0.797765
      9          9           0       -1.523096    1.874726   -0.048696
     10          1           0        2.403427    0.347474   -2.117984
     11          1           0        0.369043    1.416512   -1.594172
     12          1           0        1.559773    1.459908   -0.258529
     13          1           0       -0.294647   -1.498922   -1.532347
     14          1           0       -1.536086   -0.223454   -1.513166
     15          1           0       -1.416149   -2.512219    0.089012
     16          1           0        1.377324   -1.583120    0.425808
     17          1           0        0.063656   -1.400926    1.651150
     18          1           0       -0.259097    1.585677    1.493337
     19          1           0       -1.647979    0.443064    1.365140
 ---------------------------------------------------------------------
 Rotational constants (GHZ):           1.5583956           1.2417722           1.2040412
   146 basis functions,   265 primitive gaussians,   155 cartesian basis functions
    37 alpha electrons       37 beta electrons
       nuclear repulsion energy       524.4723313621 Hartrees.
 NAtoms=   19 NActive=   19 NUniq=   19 SFac= 1.00D+00 NAtFMM=   60 NAOKFM=F Big=F
 Nuclear repulsion after empirical dispersion term =      524.4594013535 Hartrees.
   1 Symmetry operations used in ECPInt.
 ECPInt:  NShTT=    2775 NPrTT=   11173 LenC2=    2741 LenP2D=    8660.
 LDataN:  DoStor=T MaxTD1= 4 Len=   56
 Initial guess from the checkpoint file:  "12.chk"
 B after Tr=     0.000000    0.000000   -0.000000
         Rot=    1.000000    0.000000   -0.000000   -0.000000 Ang=   0.00 deg.
 Skip diagonalization as Alpha Fock matrix is already diagonal.
 SCF Done:  E(RwB97XD) =  -546.058939008     A.U. after    1 cycles
            NFock=  1  Conv=0.00D+00     -V/T= 2.0075

 **********************************************************************

            Population analysis using the SCF Density.

 **********************************************************************

 Orbital symmetries:
       Occupied  (A) (A) (A) (A) (A) (A) (A) (A) (A) (A) (A) (A)
                 (A) (A) (A) (A) (A) (A) (A) (A) (A) (A) (A) (A)
                 (A) (A) (A) (A) (A) (A) (A) (A) (A) (A) (A) (A)
                 (A)
       Virtual   (A) (A) (A) (A) (A) (A) (A) (A) (A) (A) (A) (A)
                 (A) (A) (A) (A) (A) (A) (A) (A) (A) (A) (A) (A)
                 (A) (A) (A) (A) (A) (A) (A) (A) (A) (A) (A) (A)
                 (A) (A) (A) (A) (A) (A) (A) (A) (A) (A) (A) (A)
                 (A) (A) (A) (A) (A) (A) (A) (A) (A) (A) (A) (A)
                 (A) (A) (A) (A) (A) (A) (A) (A) (A) (A) (A) (A)
                 (A) (A) (A) (A) (A) (A) (A) (A) (A) (A) (A) (A)
                 (A) (A) (A) (A) (A) (A) (A) (A) (A) (A) (A) (A)
                 (A) (A) (A) (A) (A) (A) (A) (A) (A) (A) (A) (A)
                 (A)
 The electronic state is 1-A.
 Alpha  occ. eigenvalues --  -24.79752 -24.79271 -19.26174 -19.25996 -10.36794
 Alpha  occ. eigenvalues --  -10.36149 -10.34517 -10.34192 -10.31457  -1.27872
 Alpha  occ. eigenvalues --   -1.27338  -1.12609  -1.12118  -0.91914  -0.78345
 Alpha  occ. eigenvalues --   -0.77808  -0.77005  -0.65434  -0.63481  -0.61127
 Alpha  occ. eigenvalues --   -0.60428  -0.59278  -0.58373  -0.56526  -0.54901
 Alpha  occ. eigenvalues --   -0.52816  -0.51431  -0.50733  -0.49545  -0.45631
 Alpha  occ. eigenvalues --   -0.44084  -0.43315  -0.41739  -0.40475  -0.39630
 Alpha  occ. eigenvalues --   -0.37020  -0.35490
 Alpha virt. eigenvalues --    0.12164   0.12621   0.16248   0.17071   0.19178
 Alpha virt. eigenvalues --    0.19476   0.21033   0.21542   0.23064   0.23823
 Alpha virt. eigenvalues --    0.25011   0.26734   0.28558   0.30080   0.30591
 Alpha virt. eigenvalues --    0.33016   0.33700   0.35160   0.52376   0.54564
 Alpha virt. eigenvalues --    0.56438   0.57683   0.58005   0.59561   0.59760
 Alpha virt. eigenvalues --    0.64375   0.65017   0.66641   0.68172   0.70729
 Alpha virt. eigenvalues --    0.73776   0.74262   0.75007   0.75677   0.76503
 Alpha virt. eigenvalues --    0.77251   0.79200   0.80105   0.81762   0.82192
 Alpha virt. eigenvalues --    0.84034   0.85081   0.90100   0.91545   1.02671
 Alpha virt. eigenvalues --    1.08889   1.10584   1.12038   1.15879   1.16721
 Alpha virt. eigenvalues --    1.19426   1.23250   1.28793   1.30928   1.31868
 Alpha virt. eigenvalues --    1.36261   1.39726   1.42880   1.46153   1.48160
 Alpha virt. eigenvalues --    1.55081   1.60897   1.63941   1.66633   1.76476
 Alpha virt. eigenvalues --    1.77241   1.79968   1.85194   1.88661   1.90109
 Alpha virt. eigenvalues --    1.97058   2.00116   2.04740   2.06039   2.06560
 Alpha virt. eigenvalues --    2.08213   2.09593   2.15404   2.16708   2.18078
 Alpha virt. eigenvalues --    2.23167   2.24093   2.26245   2.28885   2.50020
 Alpha virt. eigenvalues --    2.55561   2.67885   2.70647   2.71618   2.73598
 Alpha virt. eigenvalues --    2.74597   2.90657   2.95744   2.97804   3.07825
 Alpha virt. eigenvalues --    3.09988   3.13274   3.20036   3.20523   3.21253
 Alpha virt. eigenvalues --    3.21791   3.38324   3.38677   3.41962   3.44379
 Alpha virt. eigenvalues --    3.46437   3.49605   3.86090   3.88467
          Condensed to atoms (all electrons):
 Mulliken charges:
               1
     1  O   -0.489398
     2  C    0.047829
     3  C   -0.380109
     4  C    0.026952
     5  O   -0.485903
     6  C    0.117581
     7  F   -0.280513
     8  C    0.149441
     9  F   -0.281937
    10  H    0.325310
    11  H    0.111668
    12  H    0.106375
    13  H    0.125303
    14  H    0.119930
    15  H    0.322748
    16  H    0.123378
    17  H    0.102972
    18  H    0.117176
    19  H    0.121198
 Sum of Mulliken charges =   0.00000
 Mulliken charges with hydrogens summed into heavy atoms:
               1
     1  O   -0.164089
     2  C    0.265872
     3  C   -0.380109
     4  C    0.272185
     5  O   -0.163155
     6  C    0.343931
     7  F   -0.280513
     8  C    0.387815
     9  F   -0.281937
 Electronic spatial extent (au):  <R**2>=           1224.7563
 Charge=             -0.0000 electrons
 Dipole moment (field-independent basis, Debye):
    X=              1.6457    Y=             -1.0452    Z=             -0.9099  Tot=              2.1515
 Evaluate density.
 Using the total density.
 Monte-Carlo method of calculating molar volume:
 based on  0.001 e/bohr**3 density envelope.
 Number of points per bohr**3 =  100 CutOff= 1.00D-04
 Using the SCF density.
 There are      1662 points.  Will hold      1662 in memory.
 LenV=  1048288921 MDV=  1048576000.
 Box volume = 4592.501 fraction occupied=0.232
 Integrated density= 4.2731517703757106D+02 error= 3.5331517703757106D+02
 Molar volume = 1066.610 bohr**3/mol ( 95.183 cm**3/mol)
 Recommended a0 for SCRF calculation =  4.19 angstrom (  7.92 bohr)
 1\1\GINC-C013\SP\RwB97XD\def2SVPP\C5H10F2O2\PETERCHAO1\23-Sep-2022\0\\
 #T wB97XD//def2svpp Volume=tight Geom=AllCheckpoint Guess=Read\\Monome
 r\\0,1\O,0,-1.761426,-0.135516,1.583702\C,0,-0.950871,0.786901,0.89377
 1\C,0,0.021651,0.01512,-0.002406\C,0,0.925843,-0.878869,0.870702\O,0,1
 .823095,-1.66246,0.117674\C,0,-0.756486,-0.860604,-0.982136\F,0,-1.589
 745,-0.097814,-1.770448\C,0,0.880821,0.997052,-0.797765\F,0,1.523096,1
 .874726,0.048696\H,0,-2.403427,0.347475,2.117984\H,0,-0.369043,1.41651
 2,1.594172\H,0,-1.559773,1.459908,0.258529\H,0,0.294646,-1.498922,1.53
 2347\H,0,1.536086,-0.223454,1.513166\H,0,1.416148,-2.512219,-0.089012\
 H,0,-1.377325,-1.58312,-0.425808\H,0,-0.063657,-1.400926,-1.65115\H,0,
 0.259097,1.585677,-1.493337\H,0,1.647979,0.443063,-1.36514\\Version=ES
 64L-G16RevB.01\State=1-A\HF=-546.058939\RMSD=0.000e+00\Dipole=-0.64747
 98,-0.4112128,0.3579825\Quadrupole=-3.9188685,2.7219464,1.1969221,-2.6
 865326,-4.4135452,1.8997093\PG=C01 [X(C5H10F2O2)]\\@


  DISAPPOINTMENT IS THE NURSE OF WISDOM.               
                              SIR BOYLE ROCHE                 
 Job cpu time:       0 days  0 hours  0 minutes 13.8 seconds.
 Elapsed time:       0 days  0 hours  0 minutes  3.8 seconds.
 File lengths (MBytes):  RWF=     11 Int=      0 D2E=      0 Chk=      3 Scr=      1
 Normal termination of Gaussian 16 at Fri Sep 23 14:22:37 2022.
