You are running Q-Chem version: 5.3.2

#
# job setting
#
local host:  tnxt-0465.cluster
current dir: /scratch/user/peterli3819/peterli3819/12613587_1663277315000000692024499
input file:  qchem_test.inp
output file: 
nprocs     : 0
nthreads   : 8
#
# qchem installation setting
#
QC:          /sw/restricted/qchem/sw/5.3.2
QCAUX:       /sw/restricted/qchem/sw/5.3.2/qcaux
QCPROG:      /sw/restricted/qchem/sw/5.3.2/exe/qcprog.exe_s
QCPROG_S:    /sw/restricted/qchem/sw/5.3.2/exe/qcprog.exe_s
PARALLEL:    -DSERIAL
QCMPI:       seq
#
# qchem directory setting
#
qcrun:       qchem39567
QCSCRATCH:   /scratch/user/peterli3819/peterli3819/12613587_1663277315000000692024499
QCLOCALSCR:  
QCTMPDIR:    /scratch/user/peterli3819/peterli3819/12613587_1663277315000000692024499
QCFILEPREF:  /scratch/user/peterli3819/peterli3819/12613587_1663277315000000692024499/qchem39567
QCSAVEDIR:   
workdirs:    /scratch/user/peterli3819/peterli3819/12613587_1663277315000000692024499/qchem39567
workdir0:    /scratch/user/peterli3819/peterli3819/12613587_1663277315000000692024499/qchem39567
partmpdirs =  
#
# parallel setting
#
QCRSH:           ssh
QCMPI:           seq
QCMPIRUN:        
QCMACHINEFILE:   /scratch/user/peterli3819/peterli3819/12613587_1663277315000000692024499/qchem39567/hostfile

#
# env setting
#
exported envs:   QC QCAUX QCSCRATCH QCRUNNAME QCFILEPREF QCPROG QCPROG_S GUIFILE

Running Job 1 of 1 qchem_test.inp
qchem qchem_test.inp_39567.0 /scratch/user/peterli3819/peterli3819/12613587_1663277315000000692024499/qchem39567/ 0
/sw/restricted/qchem/sw/5.3.2/exe/qcprog.exe_s qchem_test.inp_39567.0 /scratch/user/peterli3819/peterli3819/12613587_1663277315000000692024499/qchem39567/
                  Welcome to Q-Chem
     A Quantum Leap Into The Future Of Chemistry


 Q-Chem 5.3, Q-Chem, Inc., Pleasanton, CA (2020)

 License issued to: MRG Daniel Tabor and Mike Hall, Texas A&M University

 Yihan Shao,  Zhengting Gan,  E. Epifanovsky,  A. T. B. Gilbert,  M. Wormit,  
 J. Kussmann,  A. W. Lange,  A. Behn,  Jia Deng,  Xintian Feng,  D. Ghosh,  
 M. Goldey,  P. R. Horn,  L. D. Jacobson,  I. Kaliman,  T. Kus,  A. Landau,  
 Jie Liu,  E. I. Proynov,  R. M. Richard,  R. P. Steele,  E. J. Sundstrom,  
 H. L. Woodcock III,  P. M. Zimmerman,  D. Zuev,  B. Alam,  B. Albrecht,  
 A. Aldossary,  E. Alguire,  S. A. Baeppler,  D. Barton,  Z. Benda,  
 Y. A. Bernard,  E. J. Berquist,  K. B. Bravaya,  H. Burton,  K. Carter-Fenk,  
 D. Casanova,  Chun-Min Chang,  Yunqing Chen,  A. Chien,  K. D. Closser,  
 M. P. Coons,  S. Coriani,  S. Dasgupta,  A. L. Dempwolff,  M. Diedenhofen,  
 Hainam Do,  R. G. Edgar,  Po-Tung Fang,  S. Faraji,  S. Fatehi,  
 Qingguo Feng,  J. Fosso-Tande,  J. Gayvert,  Qinghui Ge,  A. Ghysels,  
 G. Gidofalvi,  J. Gomes,  J. Gonthier,  S. Gulania,  A. Gunina,  D. Hait,  
 M. W. D. Hanson-Heine,  S. Hammes-Schiffer,  P. H. P. Harbach,  
 A. W. Hauser,  M. F. Herbst,  J. E. Herr,  E. G. Hohenstein,  Z. C. Holden,  
 S. Houck,  Kerwin Hui,  B. C. Huynh,  M. Ivanov,  T.-C. Jagau,  Hyunjun Ji,  
 B. Kaduk,  K. Khistyaev,  Jaehoon Kim,  P. Klunzinger,  K. Koh,  
 D. Kosenkov,  L. Koulias,  T. Kowalczyk,  C. M. Krauter,  A. Kunitsa,  
 Ka Un Lao,  A. Laurent,  K. V. Lawler,  Joonho Lee,  D. Lefrancois,  
 S. Lehtola,  D. S. Levine,  Yi-Pei Li,  You-Sheng Lin,  Fenglai Liu,  
 Kuan-Yu Liu,  E. Livshits,  M. Loipersberger,  A. Luenser,  A. Manjanath,  
 P. Manohar,  E. Mansoor,  S. F. Manzer,  Shan-Ping Mao,  Yuezhi Mao,  
 N. Mardirossian,  A. V. Marenich,  T. Markovich,  L. A. Martinez-Martinez,  
 S. A. Maurer,  N. J. Mayhall,  S. C. McKenzie,  J.-M. Mewes,  P. Morgante,  
 A. F. Morrison,  J. W. Mullinax,  K. Nanda,  T. S. Nguyen-Beck,  
 R. Olivares-Amaya,  K. J. Oosterbaan,  J. A. Parkhill,  S. K. Paul,  
 F. Pavosevic,  Zheng Pei,  T. M. Perrine,  F. Plasser,  P. Pokhilko,  
 S. Prager,  A. Prociuk,  E. Ramos,  B. Rana,  D. R. Rehn,  F. Rob,  
 E. Rossomme,  M. Scheurer,  M. Schneider,  N. Sergueev,  S. M. Sharada,  
 S. Sharma,  W. Skomorowski,  D. W. Small,  T. Stauch,  C. J. Stein,  
 T. Stein,  Yu-Chuan Su,  S. P. Veccham,  Zhen Tao,  A. J. W. Thom,  
 A. Tkatchenko,  T. Tsuchimochi,  N. M. Tubman,  L. Vogt,  M. L. Vidal,  
 O. Vydrov,  M. A. Watson,  J. Wenzel,  M. de Wergifosse,  T. A. Wesolowski,  
 A. White,  J. Witte,  A. Yamada,  Jun Yang,  K. Yao,  S. Yeganeh,  
 S. R. Yost,  Zhi-Qiang You,  A. Zech,  Igor Ying Zhang,  Xing Zhang,  
 Yan Zhao,  Ying Zhu,  B. R. Brooks,  G. K. L. Chan,  C. J. Cramer,  
 M. S. Gordon,  W. J. Hehre,  A. Klamt,  M. W. Schmidt,  C. D. Sherrill,  
 D. G. Truhlar,  A. Aspuru-Guzik,  R. Baer,  A. T. Bell,  N. A. Besley,  
 Jeng-Da Chai,  A. E. DePrince, III,  R. A. DiStasio Jr.,  A. Dreuw,  
 B. D. Dunietz,  T. R. Furlani,  Chao-Ping Hsu,  Yousung Jung,  Jing Kong,  
 D. S. Lambrecht,  WanZhen Liang,  C. Ochsenfeld,  V. A. Rassolov,  
 L. V. Slipchenko,  J. E. Subotnik,  T. Van Voorhis,  J. M. Herbert,  
 A. I. Krylov,  P. M. W. Gill,  M. Head-Gordon

 Contributors to earlier versions of Q-Chem not listed above: 
 R. D. Adamson,  B. Austin,  J. Baker,  G. J. O. Beran,  K. Brandhorst,  
 S. T. Brown,  E. F. C. Byrd,  A. K. Chakraborty,  C.-L. Cheng,  
 Siu Hung Chien,  D. M. Chipman,  D. L. Crittenden,  H. Dachsel,  
 R. J. Doerksen,  A. D. Dutoi,  L. Fusti-Molnar,  W. A. Goddard III,  
 A. Golubeva-Zadorozhnaya,  S. R. Gwaltney,  G. Hawkins,  A. Heyden,  
 S. Hirata,  G. Kedziora,  F. J. Keil,  C. Kelley,  Jihan Kim,  R. A. King,  
 R. Z. Khaliullin,  P. P. Korambath,  W. Kurlancheek,  A. M. Lee,  M. S. Lee,  
 S. V. Levchenko,  Ching Yeh Lin,  D. Liotard,  R. C. Lochan,  I. Lotan,  
 P. E. Maslen,  N. Nair,  D. P. O'Neill,  D. Neuhauser,  E. Neuscamman,  
 C. M. Oana,  R. Olson,  B. Peters,  R. Peverati,  P. A. Pieniazek,  
 Y. M. Rhee,  J. Ritchie,  M. A. Rohrdanz,  E. Rosta,  N. J. Russ,  
 H. F. Schaefer III,  N. E. Schultz,  N. Shenvi,  A. C. Simmonett,  A. Sodt,  
 D. Stuck,  K. S. Thanthiriwatte,  V. Vanovschi,  Tao Wang,  A. Warshel,  
 C. F. Williams,  Q. Wu,  X. Xu,  W. Zhang

 Please cite Q-Chem as follows:
 Y. Shao et al., Mol. Phys. 113, 184-215 (2015)
 DOI: 10.1080/00268976.2014.952696

 Q-Chem 5.3.2 for Intel X86 EM64T Linux

 Parts of Q-Chem use Armadillo 9.800.1 (Horizon Scraper).
 http://arma.sourceforge.net/

 Q-Chem begins on Thu Sep 15 16:28:57 2022  

Host: 
0

     Scratch files written to /scratch/user/peterli3819/peterli3819/12613587_1663277315000000692024499/qchem39567//
 Dec820 |scratch|qcdevops|jenkins|workspace|build_RNUM 7711   
Processing $rem in /sw/restricted/qchem/sw/5.3.2/config/preferences:
Processing $rem in /home/peterli3819/.qchemrc:

 Q-Chem warning in module libgen/rem_setup.C, line 2945:

 Neither GIA nor STOLL is specified by user. Use STOLL as the default


Checking the input file for inconsistencies... 	...done.

--------------------------------------------------------------
User input:
--------------------------------------------------------------
$molecule
0 1
--
0 1
C       -4.301109    0.029284    0.214896
C       -2.770329   -0.006656    0.127128
C       -2.188589   -0.132409    1.540098
C       -2.358809   -1.222056   -0.730809
O       -0.972081   -1.292381   -0.993019
C       -2.311508    1.303747   -0.556196
O       -0.954605    1.338208   -0.936897
H       -4.690074   -0.892047    0.683264
H       -4.765995    0.124502   -0.782868
H       -4.639401    0.882982    0.828774
H       -2.650980   -0.982251    2.072706
H       -2.378993    0.781167    2.131072
H       -1.105948   -0.319672    1.532091
H       -2.914832   -1.192119   -1.690686
H       -2.642322   -2.156150   -0.215959
H       -0.724584   -0.385025   -1.275930
H       -2.556284    2.161243    0.101799
H       -2.886540    1.435533   -1.490069
H       -0.342345    1.500878   -0.180424
--
0 1
C        2.188589    0.132419   -1.540099
C        2.770329    0.006658   -0.127130
C        4.301109   -0.029279   -0.214898
C        2.358807    1.222052    0.730814
O        0.972079    1.292372    0.993025
C        2.311509   -1.303748    0.556189
O        0.954609   -1.338210    0.936899
H        2.378992   -0.781155   -2.131077
H        2.650979    0.982263   -2.072703
H        1.105947    0.319683   -1.532091
H        4.690072    0.892055   -0.683261
H        4.639401   -0.882973   -0.828782
H        4.765995   -0.124503    0.782865
H        2.642316    2.156150    0.215968
H        2.914831    1.192112    1.690689
H        0.724584    0.385014    1.275930
H        2.886547   -1.435538    1.490059
H        2.556282   -2.161241   -0.101811
H        0.342343   -1.500883    0.180431
$end

$rem
JOBTYPE           eda
EDA2              2
METHOD            wB97X-D
BASIS             def2-SV(P)
SCF_CONVERGENCE   8
THRESH            14
SYMMETRY          false
DISP_FREE_X       wB97X-D
DISP_FREE_C       none
EDA_BSSE          true
$end
--------------------------------------------------------------
 ----------------------------------------------------------------
             Standard Nuclear Orientation (Angstroms)
    I     Atom           X                Y                Z
 ----------------------------------------------------------------
    1      C       4.3011089960    -0.0292837542     0.2148961971
    2      C       2.7703290012     0.0066561774     0.1271280799
    3      C       2.1885889181     0.1324102513     1.5400979501
    4      C       2.3588090501     1.2220555244    -0.7308098686
    5      O       0.9720810654     1.2923803235    -0.9930200034
    6      C       2.3115080427    -1.3037473428    -0.5561949504
    7      O       0.9546050651    -1.3382086339    -0.9368960038
    8      H       4.6900739675     0.8920476025     0.6832635192
    9      H       4.7659950547    -0.1245025125    -0.7828677032
   10      H       4.6394009610    -0.8829812869     0.8287748662
   11      H       2.6509798859     0.9822526569     2.0727053309
   12      H       2.3789928844    -0.7811652990     2.1310726561
   13      H       1.1059479184     0.3196732440     1.5320907442
   14      H       2.9148321065     1.1921177950    -1.6906868132
   15      H       2.6423220189     2.1561499163    -0.2159605623
   16      H       0.7245840831     0.3850241080    -1.2759303279
   17      H       2.5562840051    -2.1612428421     0.1018007161
   18      H       2.8865400977    -1.4355340524    -1.4900678165
   19      H       0.3423450209    -1.5008780592    -0.1804229161
   20      C      -2.1885889009    -0.1324200961    -1.5400991053
   21      C      -2.7703289839    -0.0066580222    -0.1271302351
   22      C      -4.3011089788     0.0292789093    -0.2148983522
   23      C      -2.3588070329    -1.2220513693     0.7308147134
   24      O      -0.9720790482    -1.2923711683     0.9930258482
   25      C      -2.3115090255     1.3037484980     0.5561877953
   26      O      -0.9546090478     1.3382107890     0.9368978487
   27      H      -2.3789918672     0.7811534542    -2.1310778113
   28      H      -2.6509788687    -0.9822645017    -2.0727024861
   29      H      -1.1059469011    -0.3196840888    -1.5320908994
   30      H      -4.6900719503    -0.8920554473    -0.6832606744
   31      H      -4.6394009437     0.8829724421    -0.8287830213
   32      H      -4.7659950375     0.1245036676     0.7828645481
   33      H      -2.6423160016    -2.1561497611     0.2159694072
   34      H      -2.9148310893    -1.1921106399     1.6906896580
   35      H      -0.7245840658    -0.3850129529     1.2759301727
   36      H      -2.8865470804     1.4355392076     1.4900576613
   37      H      -2.5562819878     2.1612409973    -0.1018128712
   38      H      -0.3423430036     1.5008832144     0.1804297609
 ----------------------------------------------------------------
 Molecular Point Group                 C1    NOp =  1
 Largest Abelian Subgroup              C1    NOp =  1
 Nuclear Repulsion Energy =        1082.86184050 hartrees
 There are       58 alpha and       58 beta electrons
 Requested basis set is def2-SV(P)
 There are 132 shells and 244 basis functions

 Total QAlloc Memory Limit  56000 MB
 Mega-Array Size       188 MB
 MEM_STATIC part       192 MB
 A cutoff of  1.0D-14 yielded   7839 shell pairs
 There are     26343 function pairs (     29223 Cartesian)
 Smallest overlap matrix eigenvalue = 1.52E-03

 Scale SEOQF with 1.000000e-01/1.000000e-01/1.000000e-01

 Standard Electronic Orientation quadrupole field applied
 Nucleus-field energy     =     0.0000000246 hartrees

 -----------------------------------------------------------------------
  General SCF calculation program by
  Eric Jon Sundstrom, Paul Horn, Yuezhi Mao, Dmitri Zuev, Alec White,
  David Stuck, Shaama M.S., Shane Yost, Joonho Lee, David Small,
  Daniel Levine, Susi Lehtola, Hugh Burton, Evgeny Epifanovsky,
  Bang C. Huynh
 -----------------------------------------------------------------------
================================================================
                 ALMO-EDA with the EDA2 driver                  
================================================================
 The second-generation ALMO-EDA (for DFT):                      
 P. R. Horn, Y. Mao and M. Head-Gordon, PCCP, 18, 23067 (2016)  
 Decomposition of the frozen energy:                            
 P. R. Horn, Y. Mao and M. Head-Gordon, JCP, 144, 114107 (2016) 
Using eda2 option set 2
Option set summary: Frozen orbital wavefunction, initial wavefunction decomposition, and traditional AO-based POL.
--------------------------------
Printing EDA Options
--------------------------------
eda_child_super_basis      0
fragmo_guess_mode          0
child_mp                   0
child_mp_orders            0
cls_elec                   1
cls_disp                   0
scfmi_mode                 1
scfmi_occs                 0
scfmi_virts                0
frz_relax                  0
frz_relax_method           0
dc_pen_start               0
dc_pen_conv                0
dc_pen_increment           0
dc_pen_steps               0
dc_pen_thresh_factor       0
dc_pen_pre_newton_thresh   0
frz_ortho_decomp           1
frz_ortho_decomp_conv      6
plot_mo_ortho_frz          0
frgm_method                2
scfmi_freeze_ss            0
separate_rehyb             0
plot_diff_den              0
eda_nocv                   0
eda_vct_relax              1
disp_free_x                -110
disp_free_c                0
eda_bsse                   1
eda_pct_a                  0
eda_covp                   0
--------------------------------
Attempting to make child job directory: /scratch/user/peterli3819/peterli3819/12613587_1663277315000000692024499/qchem39567//Frg1/
Attempting to make child job directory: /scratch/user/peterli3819/peterli3819/12613587_1663277315000000692024499/qchem39567//Frg2/
Creating input file /scratch/user/peterli3819/peterli3819/12613587_1663277315000000692024499/qchem39567/Frg1.input
using default PutDataFrgm: nothing
calling putenv with: QCSCRATCH=/scratch/user/peterli3819/peterli3819/12613587_1663277315000000692024499/qchem39567/ 
Spawning Job For Fragment 0
Done Job For Fragment 0
calling putenv with: QCSCRATCH=/scratch/user/peterli3819/peterli3819/12613587_1663277315000000692024499 
calling putenv with: QCTHREADS=8 
Creating input file /scratch/user/peterli3819/peterli3819/12613587_1663277315000000692024499/qchem39567/Frg2.input
using default PutDataFrgm: nothing
calling putenv with: QCSCRATCH=/scratch/user/peterli3819/peterli3819/12613587_1663277315000000692024499/qchem39567/ 
Spawning Job For Fragment 1
Done Job For Fragment 1
calling putenv with: QCSCRATCH=/scratch/user/peterli3819/peterli3819/12613587_1663277315000000692024499 
calling putenv with: QCTHREADS=8 
Doing General SCFMI
 Exchange:     0.2220 Hartree-Fock + 1.0000 wB97X-D + LR-HF
 Correlation:  1.0000 wB97X-D
 Using SG-2 standard quadrature grid
 Dispersion:   Grimme D
performing fock build before subrot guess so that all methods have access
Printing subrot_rss_gen Method Specification:
Occupied Subspace Method is 0
Virtual Subspace Method is 0
Energy of the unrelaxed supersystem initial determinant -695.602132664163
write pseudocanon occs and virts to disk
write pseudocanon orbital energies to disk
Tolerance of ortho_decomp_scf: 1.00e-06
GDM subspace size: 20
Beginning the Orthogonal Decomposition of the Initial Supersystem Wavefunction
    1    -695.4766360800      6.78e-02     ortho_decomp Preconditoned Steepest Descent
    2    -695.4894171576      1.12e-03     ortho_decomp BFGS Step
    3    -695.4894383631      8.71e-05     ortho_decomp BFGS Step
    4    -695.4894384208      3.21e-06     ortho_decomp BFGS Step
    5    -695.4894384209      9.91e-08     ortho_decomp 00000 Convergence criterion met
 Exchange:     0.2220 Hartree-Fock + 1.0000 wB97X-D + LR-HF
 Correlation:  1.0000 wB97X-D
 Using SG-2 standard quadrature grid
 Dispersion:   Grimme D
 Long-range K will be added via erf
 Coulomb attenuation parameter = 0.2 bohr**(-1)
 Exchange:     0.2220 Hartree-Fock + 1.0000 wB97X-D + LR-HF
 Correlation:  1.0000 wB97X-D
 Using SG-2 standard quadrature grid
 Dispersion:   Grimme D
 Long-range K will be added via erf
 Coulomb attenuation parameter = 0.2 bohr**(-1)
 Exchange:     0.2220 Hartree-Fock + 1.0000 wB97X-D + LR-HF
 Correlation:  1.0000 wB97X-D
 Using SG-2 standard quadrature grid
 Dispersion:   Grimme D
 Long-range K will be added via erf
 Coulomb attenuation parameter = 0.2 bohr**(-1)
Doing General SCFMI
 Exchange:     0.2220 Hartree-Fock + 1.0000 wB97X-D + LR-HF
 Correlation:  1.0000 wB97X-D
 Using SG-2 standard quadrature grid
 Dispersion:   Grimme D
performing fock build at end of subrot_r(subrot) constructor so that all methods have access
<S^2> of initial wavefunction before polarization iterations 0.0000000000
Beginning iterations for the determination of the polarized wavefunction
Energy prior to optimization (guess energy) = -695.602132664163
Begin Timing: Total SCF Calculation
begin iterations for algorithm: DIIS         
the SCF tolerance is set to 1.00e-08
    1    -695.6021326642      4.87e-04     00000 
    2    -695.6087975887      1.36e-04     00000 
    3    -695.6093298376      7.93e-05     00000 
    4    -695.6094236591      3.47e-05     00000 
    5    -695.6094454737      9.17e-06     00000 
    6    -695.6094478156      2.46e-06     00000 
    7    -695.6094479371      7.62e-07     00000 
    8    -695.6094479483      2.22e-07     00000 
    9    -695.6094479492      9.31e-08     00000 
   10    -695.6094479494      2.75e-08     00000 
   11    -695.6094479494      7.40e-09     00000 Convergence criterion met
write pseudocanon occs and virts to disk
write pseudocanon orbital energies to disk
Timing for Total SCF: 43.00s (wall), 314.17s (cpu)
<S^2> of polarized wavefunction after polarization iterations 0.0000000000
relaxing scfmi constraint to allow all rotations in the entire AO span
Doing General SCFMI
 Exchange:     0.2220 Hartree-Fock + 1.0000 wB97X-D + LR-HF
 Correlation:  1.0000 wB97X-D
 Using SG-2 standard quadrature grid
 Dispersion:   Grimme D
performing fock build at end of subrot_r(subrot) constructor so that all methods have access
<S^2> of polarized wavefunction before ct-allowed iterations 0.0000000000
Beginning iterations for the determination of the CT-Allowed wavefunction
Energy prior to optimization (guess energy) = -695.609447949399
Begin Timing: Total SCF Calculation
begin iterations for algorithm: DIIS         
the SCF tolerance is set to 1.00e-08
    1    -695.6094479494      6.76e-04     00000 
    2    -695.6322427648      1.41e-04     00000 
    3    -695.6333291300      9.06e-05     00000 
    4    -695.6335201953      2.79e-05     00000 
    5    -695.6335451878      6.90e-06     00000 
    6    -695.6335467064      1.94e-06     00000 
    7    -695.6335468387      6.75e-07     00000 
    8    -695.6335468525      2.13e-07     00000 
    9    -695.6335468539      3.84e-08     00000 
   10    -695.6335468540      1.09e-08     00000 
   11    -695.6335468540      3.11e-09     00000 Convergence criterion met
write pseudocanon occs and virts to disk
write pseudocanon orbital energies to disk
Timing for Total SCF: 40.00s (wall), 314.33s (cpu)
<S^2> of ct_allowed wavefunction after ct-allowed iterations 0.0000000000
Attempting to make child job directory: /scratch/user/peterli3819/peterli3819/12613587_1663277315000000692024499/qchem39567//FrgBSSE1/
Attempting to make child job directory: /scratch/user/peterli3819/peterli3819/12613587_1663277315000000692024499/qchem39567//FrgBSSE2/
Creating input file /scratch/user/peterli3819/peterli3819/12613587_1663277315000000692024499/qchem39567/FrgBSSE1.input
calling putenv with: QCSCRATCH=/scratch/user/peterli3819/peterli3819/12613587_1663277315000000692024499/qchem39567/ 
Spawning Job For Fragment 0
Done Job For Fragment 0
calling putenv with: QCSCRATCH=/scratch/user/peterli3819/peterli3819/12613587_1663277315000000692024499 
calling putenv with: QCTHREADS=8 
Creating input file /scratch/user/peterli3819/peterli3819/12613587_1663277315000000692024499/qchem39567/FrgBSSE2.input
calling putenv with: QCSCRATCH=/scratch/user/peterli3819/peterli3819/12613587_1663277315000000692024499/qchem39567/ 
Spawning Job For Fragment 1
Done Job For Fragment 1
calling putenv with: QCSCRATCH=/scratch/user/peterli3819/peterli3819/12613587_1663277315000000692024499 
calling putenv with: QCTHREADS=8 
====================================================================
   Evaluating the BSSE with fragment SCF in the supersystem basis
   Fragment contributions (kJ/mol) 
   Frgm 1: 12.7990
   Frgm 2: 12.7990
   BSSE (kJ/mol) = 25.5980
====================================================================

================================
        Results of EDA2         
================================
Basic EDA Quantities
--------------------
Fragment Energies (Ha):
1 -347.7969568821
2 -347.7969567079
--------------------
  E_prp (kJ/mol) = 0.0000
  E_frz (kJ/mol) = -21.5794
  E_pol (kJ/mol) = -19.2065
  E_vct (kJ/mol) = -37.6744 (CP-corrected)
  E_int (kJ/mol) = -78.4604 (CP-corrected)
--------------------


Decomposition of frozen interaction energy
--------------------
  --------------------
  Orthogonal Frozen Decomposition:
  --------------------
     E_elec   (ELEC)   (kJ/mol) = -208.5687
     E_pauli  (PAULI)  (kJ/mol) = 209.6646
     E_disp   (DISP)   (kJ/mol) = -22.6754
  --------------------
  Classical Frozen Decomposition:
  --------------------
     E_cls_elec  (CLS ELEC)  (kJ/mol) = -114.0827
     E_mod_pauli (MOD PAULI) (kJ/mol) = 115.1787 (FRZ - CLS ELEC - DISP)
     E_disp      (DISP)      (kJ/mol) = -22.6754
  --------------------
--------------------

Simplified EDA Summary (kJ/mol)
--------------------
 PREPARATION      0.0000
 FROZEN           -21.5794 (ELEC + PAULI + DISP)
[ELEC + PAULI = 1.0960, DISP = -22.6754]
 POLARIZATION    -19.2065
 CHARGE TRANSFER -37.6744     (counterpoise-corrected)
 TOTAL           -78.4604     (PRP + FRZ + POL + CT)
--------------------
 
 --------------------------------------------------------------
 
                    Orbital Energies (a.u.)
 --------------------------------------------------------------
 
 Alpha MOs
 -- Occupied --
-19.2515 -19.2515 -19.2505 -19.2504 -10.3397 -10.3397 -10.3381 -10.3381
-10.3096 -10.3096 -10.2901 -10.2901 -10.2816 -10.2816  -1.1324  -1.1197
 -1.1061  -1.0934  -0.9128  -0.9128  -0.7839  -0.7802  -0.7699  -0.7696
 -0.7619  -0.7615  -0.6579  -0.6562  -0.6236  -0.6196  -0.5816  -0.5778
 -0.5592  -0.5537  -0.5402  -0.5307  -0.5301  -0.5261  -0.5041  -0.4973
 -0.4934  -0.4875  -0.4663  -0.4654  -0.4609  -0.4581  -0.4556  -0.4552
 -0.4384  -0.4329  -0.4164  -0.4112  -0.4074  -0.3873  -0.3649  -0.3566
 -0.3468  -0.3428
 -- Virtual --
  0.1269   0.1270   0.1535   0.1675   0.1700   0.1718   0.1777   0.1814
  0.1958   0.2001   0.2072   0.2072   0.2148   0.2195   0.2240   0.2303
  0.2368   0.2448   0.2531   0.2630   0.2641   0.2783   0.2788   0.2907
  0.2916   0.2931   0.3013   0.3143   0.3234   0.3295   0.3328   0.3398
  0.3539   0.3627   0.3699   0.3750   0.4764   0.4858   0.4969   0.5148
  0.5204   0.5247   0.5619   0.5653   0.5977   0.6080   0.6156   0.6270
  0.6440   0.6450   0.6488   0.6646   0.6691   0.6708   0.6922   0.7038
  0.7125   0.7217   0.7288   0.7370   0.7469   0.7490   0.7651   0.7653
  0.7695   0.7742   0.7764   0.7806   0.7892   0.7928   0.8015   0.8029
  0.8054   0.8152   0.8170   0.8224   0.8277   0.8281   0.8325   0.8370
  0.8375   0.8444   0.8490   0.8649   0.8759   0.8876   0.8987   0.9243
  0.9358   0.9517   0.9672   1.0273   1.0483   1.0883   1.1528   1.1532
  1.1659   1.1845   1.2151   1.2250   1.2307   1.2471   1.2566   1.2777
  1.3145   1.3255   1.3452   1.4196   1.4272   1.4415   1.4676   1.4840
  1.5093   1.5470   1.5611   1.6010   1.6475   1.6491   1.6777   1.7083
  1.7984   1.8109   1.8148   1.8250   1.8337   1.8415   1.8840   1.8871
  1.8955   1.9011   1.9509   1.9523   2.0579   2.0618   2.0673   2.0721
  2.0767   2.1037   2.1127   2.1185   2.1422   2.1544   2.1859   2.1883
  2.1960   2.2028   2.2270   2.2393   2.2490   2.2499   2.2591   2.2595
  2.2613   2.2671   2.2674   2.2713   2.5541   2.5555   2.5710   2.5788
  2.6785   2.6852   2.6864   2.6926   2.7152   2.7167   2.7542   2.7564
  2.7726   2.7843   2.8936   2.8943   2.9391   2.9450   3.0212   3.0324
  3.0786   3.0878   3.0998   3.1311   3.1583   3.1697   3.4661   3.4767
  3.4963   3.5113
 --------------------------------------------------------------
 
          Ground-State Mulliken Net Atomic Charges

     Atom                 Charge (a.u.)
  ----------------------------------------
      1 C                    -0.279434
      2 C                    -0.331232
      3 C                    -0.302950
      4 C                     0.085461
      5 O                    -0.543244
      6 C                     0.066181
      7 O                    -0.546018
      8 H                     0.121802
      9 H                     0.118531
     10 H                     0.121986
     11 H                     0.116417
     12 H                     0.118714
     13 H                     0.133009
     14 H                     0.092711
     15 H                     0.105120
     16 H                     0.371000
     17 H                     0.102286
     18 H                     0.100260
     19 H                     0.349398
     20 C                    -0.302951
     21 C                    -0.331232
     22 C                    -0.279434
     23 C                     0.085462
     24 O                    -0.543245
     25 C                     0.066181
     26 O                    -0.546018
     27 H                     0.118714
     28 H                     0.116416
     29 H                     0.133011
     30 H                     0.121802
     31 H                     0.121986
     32 H                     0.118531
     33 H                     0.105120
     34 H                     0.092711
     35 H                     0.371001
     36 H                     0.100260
     37 H                     0.102286
     38 H                     0.349398
  ----------------------------------------
  Sum of atomic charges =     0.000000

 -----------------------------------------------------------------
                    Cartesian Multipole Moments
 -----------------------------------------------------------------
    Charge (ESU x 10^10)
                -0.0000
    Dipole Moment (Debye)
         X       0.0000      Y       0.0000      Z      -0.0000
       Tot       0.0000
    Quadrupole Moments (Debye-Ang)
        XX     -77.3042     XY      -0.2939     YY     -93.4899
        XZ       0.7157     YZ      -0.5909     ZZ     -93.2534
    Octopole Moments (Debye-Ang^2)
       XXX       0.0001    XXY       0.0000    XYY       0.0000
       YYY      -0.0000    XXZ       0.0000    XYZ       0.0000
       YYZ       0.0000    XZZ       0.0001    YZZ       0.0000
       ZZZ      -0.0001
    Hexadecapole Moments (Debye-Ang^3)
      XXXX   -3739.0772   XXXY       4.7574   XXYY    -708.8507
      XYYY       2.7936   YYYY    -669.3647   XXXZ     -38.0112
      XXYZ       2.9836   XYYZ      13.8123   YYYZ      -0.2252
      XXZZ    -707.3277   XYZZ      -1.9274   YYZZ    -225.7466
      XZZZ     -25.2951   YZZZ      -1.6471   ZZZZ    -594.5243
 -----------------------------------------------------------------
Archival summary:
1\1\tnxt-0465.cluster\SP\ProcedureUnspecified\BasisUnspecified\41024\peterli3\ThuSep1516:33:302022ThuSep1516:33:302022\0\\#,ProcedureUnspecified,BasisUnspecified,\\0,1\O\H,1,0.986699\C,1,1.40972,2,113.219\H,3,1.1046,1,105.655,2,162.757,0\H,3,1.10823,1,110.734,2,47.0805,0\C,3,1.54745,1,115.172,2,-77.3143,0\C,6,1.53321,3,111.34,1,71.3828,0\H,7,1.09875,6,112.404,3,-70.3382,0\H,7,1.1044,6,110.408,3,170.834,0\H,7,1.10459,6,111.089,3,51.2505,0\C,6,1.53372,3,107.539,1,-169.101,0\H,11,1.10432,6,110.871,3,179.174,0\H,11,1.10458,6,110.83,3,-61.4866,0\H,11,1.10486,6,111.734,3,58.818,0\C,6,1.54357,3,110.017,1,-51.181,0\H,15,1.10362,6,109.795,3,177.157,0\H,15,1.10969,6,109.023,3,-65.5389,0\O,15,1.41305,6,113.826,3,56.9267,0\H,18,0.982135,15,104.76,6,-47.0187,0\O,2,1.77431,1,161.325,3,122.495,0\H,20,0.982134,2,96.4531,1,-52.359,0\C,20,1.41305,2,127.599,1,61.8911,0\H,22,1.10362,20,107.251,2,58.2096,0\H,22,1.10969,20,109.424,2,174.311,0\C,22,1.54357,20,113.826,2,-63.4435,0\C,25,1.53321,22,110.273,20,66.2648,0\H,26,1.09875,25,112.404,22,-52.078,0\H,26,1.1044,25,110.408,22,66.7497,0\H,26,1.10459,25,111.089,22,-173.667,0\C,25,1.53372,22,108.442,20,-174.287,0\H,30,1.10432,25,110.871,22,-60.239,0\H,30,1.10458,25,110.83,22,-179.579,0\H,30,1.10486,25,111.734,22,60.1168,0\C,25,1.54745,22,110.017,20,-56.9267,0\H,34,1.1046,25,108.663,22,-67.0779,0\H,34,1.10823,25,109.12,22,176.417,0\O,34,1.40972,25,115.173,22,51.1806,0\H,37,0.9867,34,113.219,25,77.3149,0\\\@

 Total job time:  272.50s(wall), 1259.99s(cpu) 
 Thu Sep 15 16:33:30 2022

        *************************************************************
        *                                                           *
        *  Thank you very much for using Q-Chem.  Have a nice day.  *
        *                                                           *
        *************************************************************


remove work dirs /scratch/user/peterli3819/peterli3819/12613587_1663277315000000692024499/qchem39567.0 -- /scratch/user/peterli3819/peterli3819/12613587_1663277315000000692024499/qchem39567.-1
rm -rf /scratch/user/peterli3819/peterli3819/12613587_1663277315000000692024499/qchem39567
real 274.23
user 1888.94
sys 70.16
