 Entering Gaussian System, Link 0=g16
 Input=gaussian_test.inp
 Output=gaussian_test.log
 Initial command:
 /sw/restricted/lms/sw/Gaussian/g16_B01/g16/l1.exe "/scratch/user/peterchao1/peterchao1/8625340_1689034653000000015248632/Gau-80038.inp" -scrdir="/scratch/user/peterchao1/peterchao1/8625340_1689034653000000015248632/"
 Entering Link 1 = /sw/restricted/lms/sw/Gaussian/g16_B01/g16/l1.exe PID=     80039.
  
 Copyright (c) 1988-2017, Gaussian, Inc.  All Rights Reserved.
  
 This is part of the Gaussian(R) 16 program.  It is based on
 the Gaussian(R) 09 system (copyright 2009, Gaussian, Inc.),
 the Gaussian(R) 03 system (copyright 2003, Gaussian, Inc.),
 the Gaussian(R) 98 system (copyright 1998, Gaussian, Inc.),
 the Gaussian(R) 94 system (copyright 1995, Gaussian, Inc.),
 the Gaussian 92(TM) system (copyright 1992, Gaussian, Inc.),
 the Gaussian 90(TM) system (copyright 1990, Gaussian, Inc.),
 the Gaussian 88(TM) system (copyright 1988, Gaussian, Inc.),
 the Gaussian 86(TM) system (copyright 1986, Carnegie Mellon
 University), and the Gaussian 82(TM) system (copyright 1983,
 Carnegie Mellon University). Gaussian is a federally registered
 trademark of Gaussian, Inc.
  
 This software contains proprietary and confidential information,
 including trade secrets, belonging to Gaussian, Inc.
  
 This software is provided under written license and may be
 used, copied, transmitted, or stored only in accord with that
 written license.
  
 The following legend is applicable only to US Government
 contracts under FAR:
  
                    RESTRICTED RIGHTS LEGEND
  
 Use, reproduction and disclosure by the US Government is
 subject to restrictions as set forth in subparagraphs (a)
 and (c) of the Commercial Computer Software - Restricted
 Rights clause in FAR 52.227-19.
  
 Gaussian, Inc.
 340 Quinnipiac St., Bldg. 40, Wallingford CT 06492
  
  
 ---------------------------------------------------------------
 Warning -- This program may not be used in any manner that
 competes with the business of Gaussian, Inc. or will provide
 assistance to any competitor of Gaussian, Inc.  The licensee
 of this program is prohibited from giving any competitor of
 Gaussian, Inc. access to this program.  By using this program,
 the user acknowledges that Gaussian, Inc. is engaged in the
 business of creating and licensing software in the field of
 computational chemistry and represents and warrants to the
 licensee that it is not a competitor of Gaussian, Inc. and that
 it will not use this program in any manner prohibited above.
 ---------------------------------------------------------------
  

 Cite this work as:
 Gaussian 16, Revision B.01,
 M. J. Frisch, G. W. Trucks, H. B. Schlegel, G. E. Scuseria, 
 M. A. Robb, J. R. Cheeseman, G. Scalmani, V. Barone, 
 G. A. Petersson, H. Nakatsuji, X. Li, M. Caricato, A. V. Marenich, 
 J. Bloino, B. G. Janesko, R. Gomperts, B. Mennucci, H. P. Hratchian, 
 J. V. Ortiz, A. F. Izmaylov, J. L. Sonnenberg, D. Williams-Young, 
 F. Ding, F. Lipparini, F. Egidi, J. Goings, B. Peng, A. Petrone, 
 T. Henderson, D. Ranasinghe, V. G. Zakrzewski, J. Gao, N. Rega, 
 G. Zheng, W. Liang, M. Hada, M. Ehara, K. Toyota, R. Fukuda, 
 J. Hasegawa, M. Ishida, T. Nakajima, Y. Honda, O. Kitao, H. Nakai, 
 T. Vreven, K. Throssell, J. A. Montgomery, Jr., J. E. Peralta, 
 F. Ogliaro, M. J. Bearpark, J. J. Heyd, E. N. Brothers, K. N. Kudin, 
 V. N. Staroverov, T. A. Keith, R. Kobayashi, J. Normand, 
 K. Raghavachari, A. P. Rendell, J. C. Burant, S. S. Iyengar, 
 J. Tomasi, M. Cossi, J. M. Millam, M. Klene, C. Adamo, R. Cammi, 
 J. W. Ochterski, R. L. Martin, K. Morokuma, O. Farkas, 
 J. B. Foresman, and D. J. Fox, Gaussian, Inc., Wallingford CT, 2016.
 
 ******************************************
 Gaussian 16:  ES64L-G16RevB.01 20-Dec-2017
                10-Jul-2023 
 ******************************************
 %nprocshared=4
 Will use up to    4 processors via shared memory.
 %mem=8000mb
 %chk=0.chk
 %mem=8000mb
 ----------------------------------------------------------------------
 #T wB97XD/def2svpp opt=tight freq int(grid=ultrafine) scf=(verytight,q
 c)
 ----------------------------------------------------------------------
 -------
 comment
 -------
 Symbolic Z-matrix:
 Charge =  1 Multiplicity = 2
 C                     0.       0.         0. 
 H                    -0.3323   -1.04785  -0.076 
 H                    -0.56531   0.50763   0.79808 
 H                    -0.17815   0.51231  -0.95916 
 H                     1.07574   0.02792   0.23708 
 

 GradGradGradGradGradGradGradGradGradGradGradGradGradGradGradGradGradGrad
 Initialization pass.
                           ----------------------------
                           !    Initial Parameters    !
                           ! (Angstroms and Degrees)  !
 --------------------------                            --------------------------
 ! Name  Definition              Value          Derivative Info.                !
 --------------------------------------------------------------------------------
 ! R1    R(1,2)                  1.1019         estimate D2E/DX2                !
 ! R2    R(1,3)                  1.1019         estimate D2E/DX2                !
 ! R3    R(1,4)                  1.1019         estimate D2E/DX2                !
 ! R4    R(1,5)                  1.1019         estimate D2E/DX2                !
 ! A1    A(2,1,3)              109.4708         estimate D2E/DX2                !
 ! A2    A(2,1,4)              109.4711         estimate D2E/DX2                !
 ! A3    A(2,1,5)              109.4718         estimate D2E/DX2                !
 ! A4    A(3,1,4)              109.4705         estimate D2E/DX2                !
 ! A5    A(3,1,5)              109.4716         estimate D2E/DX2                !
 ! A6    A(4,1,5)              109.4715         estimate D2E/DX2                !
 ! D1    D(2,1,4,3)            119.999          estimate D2E/DX2                !
 ! D2    D(2,1,5,3)           -120.0001         estimate D2E/DX2                !
 ! D3    D(2,1,5,4)            120.0003         estimate D2E/DX2                !
 ! D4    D(3,1,5,4)           -119.9996         estimate D2E/DX2                !
 --------------------------------------------------------------------------------
 Number of steps in this run=     24 maximum allowed number of steps=    100.
 GradGradGradGradGradGradGradGradGradGradGradGradGradGradGradGradGradGrad

                    Distance matrix (angstroms):
                    1          2          3          4          5
     1  C    0.000000
     2  H    1.101904   0.000000
     3  H    1.101907   1.799400   0.000000
     4  H    1.101904   1.799400   1.799397   0.000000
     5  H    1.101902   1.799406   1.799407   1.799403   0.000000
 Framework group  C1[X(CH4)]
 Deg. of freedom     9
                         Standard orientation:                         
 ---------------------------------------------------------------------
 Center     Atomic      Atomic             Coordinates (Angstroms)
 Number     Number       Type             X           Y           Z
 ---------------------------------------------------------------------
      1          6           0        0.000003    0.000001   -0.000000
      2          1           0       -0.333110    1.044319    0.112371
      3          1           0       -0.556593   -0.476531   -0.822994
      4          1           0       -0.188563   -0.548511    0.936893
      5          1           0        1.078250   -0.019281   -0.226271
 ---------------------------------------------------------------------
 Rotational constants (GHZ):         154.8736052         154.8728585         154.8724827
    22 basis functions,    41 primitive gaussians,    23 cartesian basis functions
     5 alpha electrons        4 beta electrons
       nuclear repulsion energy        13.2902429402 Hartrees.
 NAtoms=    5 NActive=    5 NUniq=    5 SFac= 1.00D+00 NAtFMM=   60 NAOKFM=F Big=F
 Nuclear repulsion after empirical dispersion term =       13.2898208991 Hartrees.
   1 Symmetry operations used in ECPInt.
 ECPInt:  NShTT=     105 NPrTT=     431 LenC2=     106 LenP2D=     417.
 LDataN:  DoStor=T MaxTD1= 4 Len=   56
 ExpMin= 1.22D-01 ExpMax= 1.24D+03 ExpMxC= 1.86D+02 IAcc=3 IRadAn=         5 AccDes= 0.00D+00
 Harris functional with IExCor= 4639 and IRadAn=       5 diagonalized for initial guess.
 HarFok:  IExCor= 4639 AccDes= 0.00D+00 IRadAn=         5 IDoV= 1 UseB2=F ITyADJ=14
 ICtDFT=  3500011 ScaDFX=  1.000000  1.000000  1.000000  1.000000
 FoFCou: FMM=F IPFlag=           0 FMFlag=      100000 FMFlg1=           0
         NFxFlg=           0 DoJE=T BraDBF=F KetDBF=T FulRan=T
         wScrn=  0.000000 ICntrl=       500 IOpCl=  0 I1Cent=   200000004 NGrid=           0
         NMat0=    1 NMatS0=      1 NMatT0=    0 NMatD0=    1 NMtDS0=    0 NMtDT0=    0
 Petite list used in FoFCou.
 Initial guess <Sx>= 0.0000 <Sy>= 0.0000 <Sz>= 0.5000 <S**2>= 0.7500 S= 0.5000
     Accept linear search using points  3 and  4.
     Minimum is close to point  2 DX=  5.87D-03 DF= -7.34D-09 DXR=  6.48D-03 DFR=  4.20D-05 which will be used.
 Incorrect curvature in search direction -- initial direction reversed.
     Minimum is close to point  3 DX=  1.29D-01 DF= -3.80D-05 DXR=  8.43D-02 DFR=  1.45D-02 which will be used.
     Accept linear search using points  1 and  2.
     Accept linear search using points  1 and  2.
     Minimum is close to point  2 DX=  4.23D-04 DF= -2.91D-12 DXR=  4.22D-04 DFR=  1.78D-07 which will be used.
 SCF Done:  E(UwB97XD) =  -39.9435893565     a.u. after    9 cycles
            Convg  =    0.9732D-08                    61 Fock formations.
              S**2 =  0.7521                  -V/T =  2.0042
 <Sx>= 0.0000 <Sy>= 0.0000 <Sz>= 0.5000 <S**2>= 0.7521 S= 0.5011
 <L.S>=  0.00000000000    
 Annihilation of the first spin contaminant:
 S**2 before annihilation     0.7521,   after     0.7500

 **********************************************************************

            Population analysis using the SCF Density.

 **********************************************************************

 Orbital symmetries:
 Alpha Orbitals:
       Occupied  (A) (A) (A) (A) (A)
       Virtual   (A) (A) (A) (A) (A) (A) (A) (A) (A) (A) (A) (A)
                 (A) (A) (A) (A) (A)
 Beta  Orbitals:
       Occupied  (A) (A) (A) (A)
       Virtual   (A) (A) (A) (A) (A) (A) (A) (A) (A) (A) (A) (A)
                 (A) (A) (A) (A) (A) (A)
 The electronic state is 2-A.
 Alpha  occ. eigenvalues --  -10.66954  -1.17483  -0.87905  -0.85136  -0.85136
 Alpha virt. eigenvalues --   -0.09946  -0.06222  -0.05517  -0.05517   0.20162
 Alpha virt. eigenvalues --    0.20292   0.20292   0.42967   0.45419   0.47011
 Alpha virt. eigenvalues --    0.47011   0.54620   1.30631   1.34816   1.81347
 Alpha virt. eigenvalues --    1.81348   1.84218
  Beta  occ. eigenvalues --  -10.66244  -1.12017  -0.82241  -0.82241
  Beta virt. eigenvalues --   -0.56477  -0.08967  -0.04217  -0.04217  -0.03255
  Beta virt. eigenvalues --    0.21222   0.21786   0.21786   0.45854   0.48595
  Beta virt. eigenvalues --    0.48595   0.50634   0.55854   1.35690   1.38749
  Beta virt. eigenvalues --    1.85327   1.86074   1.86074
          Condensed to atoms (all electrons):
          Atomic-Atomic Spin Densities.
 Mulliken charges and spin densities:
               1          2
     1  C   -0.407038   0.553167
     2  H    0.351744   0.111668
     3  H    0.351782   0.111764
     4  H    0.351774   0.111747
     5  H    0.351738   0.111654
 Sum of Mulliken charges =   1.00000   1.00000
 Mulliken charges and spin densities with hydrogens summed into heavy atoms:
               1          2
     1  C    1.000000   1.000000
 Electronic spatial extent (au):  <R**2>=             27.7874
 Charge=              1.0000 electrons
 Dipole moment (field-independent basis, Debye):
    X=             -0.0002    Y=             -0.0002    Z=             -0.0000  Tot=              0.0003
                          Isotropic Fermi Contact Couplings
        Atom                 a.u.       MegaHertz       Gauss      10(-4) cm-1
     1  C(13)              0.03064      34.44193      12.28974      11.48859
     2  H(1)               0.05844     261.22184      93.21045      87.13423
     3  H(1)               0.05849     261.43350      93.28597      87.20483
     4  H(1)               0.05848     261.39867      93.27355      87.19321
     5  H(1)               0.05843     261.18819      93.19844      87.12300
 --------------------------------------------------------
       Center         ----  Spin Dipole Couplings  ----
                      3XX-RR        3YY-RR        3ZZ-RR
 --------------------------------------------------------
     1   Atom       -0.218122     -0.239478      0.457600
     2   Atom       -0.056883      0.104111     -0.047228
     3   Atom        0.052896     -0.041571     -0.011325
     4   Atom       -0.062291      0.047599      0.014692
     5   Atom        0.113930     -0.057797     -0.056132
 --------------------------------------------------------
                        XY            XZ            YZ
 --------------------------------------------------------
     1   Atom       -0.210664     -0.445933      0.423904
     2   Atom       -0.031000      0.006275     -0.043350
     3   Atom        0.048132      0.072606      0.033482
     4   Atom        0.001318     -0.003698     -0.088544
     5   Atom        0.027642      0.022349      0.005718
 --------------------------------------------------------


 ---------------------------------------------------------------------------------
              Anisotropic Spin Dipole Couplings in Principal Axis System
 ---------------------------------------------------------------------------------

       Atom             a.u.   MegaHertz   Gauss  10(-4) cm-1        Axes

              Baa    -0.4397   -59.008   -21.056   -19.683  0.6857  0.7279 -0.0031
     1 C(13)  Bbb    -0.4397   -59.007   -21.055   -19.683  0.6015 -0.5643  0.5655
              Bcc     0.8795   118.016    42.111    39.366 -0.4099  0.3896  0.8247
 
              Baa    -0.0633   -33.755   -12.045   -11.259  0.9086  0.2541  0.3314
     2 H(1)   Bbb    -0.0580   -30.935   -11.039   -10.319 -0.3794  0.1706  0.9094
              Bcc     0.1212    64.690    23.083    21.578 -0.1745  0.9520 -0.2515
 
              Baa    -0.0633   -33.759   -12.046   -11.261 -0.0805  0.8852 -0.4581
     3 H(1)   Bbb    -0.0580   -30.944   -11.042   -10.322 -0.6122  0.3188  0.7236
              Bcc     0.1213    64.703    23.088    21.583  0.7866  0.3387  0.5163
 
              Baa    -0.0633   -33.759   -12.046   -11.261  0.9086  0.2539  0.3315
     4 H(1)   Bbb    -0.0580   -30.944   -11.041   -10.322 -0.4172  0.5870  0.6938
              Bcc     0.1213    64.703    23.087    21.582  0.0184  0.7687 -0.6393
 
              Baa    -0.0633   -33.755   -12.045   -11.259 -0.0803  0.8853 -0.4580
     5 H(1)   Bbb    -0.0580   -30.935   -11.038   -10.319 -0.1848  0.4383  0.8796
              Bcc     0.1212    64.690    23.083    21.578  0.9795  0.1553  0.1284
 

 ---------------------------------------------------------------------------------

   1 Symmetry operations used in ECPInt.
 ECPInt:  NShTT=     105 NPrTT=     431 LenC2=     106 LenP2D=     417.
 LDataN:  DoStor=T MaxTD1= 5 Len=  102
 Calling FoFJK, ICntrl=      2127 FMM=F ISym2X=0 I1Cent= 0 IOpClX= 1 NMat=1 NMatS=1 NMatT=0.

 GradGradGradGradGradGradGradGradGradGradGradGradGradGradGradGradGradGrad
 FormGI is forming the generalized inverse of G from B-inverse, IUseBI=4.
 Internal  Forces:  Max     0.070103819 RMS     0.033216038
 Step number   1 out of a maximum of   24
 All quantities printed in internal units (Hartrees-Bohrs-Radians)
 Mixed Optimization -- RFO/linear search
 Second derivative matrix not updated -- first step.
 ITU=  0
     Eigenvalues ---    0.05082   0.05715   0.08641   0.16000   0.16000
     Eigenvalues ---    0.33472   0.33472   0.33472   0.33473
 Linear search not attempted -- first point.
 Maximum step size (   0.300) exceeded in Quadratic search.
    -- Step size scaled by   0.589
 Iteration  1 RMS(Cart)=  0.09479654 RMS(Int)=  0.00559194
 Iteration  2 RMS(Cart)=  0.00493043 RMS(Int)=  0.00280410
 Iteration  3 RMS(Cart)=  0.00002844 RMS(Int)=  0.00280400
 Iteration  4 RMS(Cart)=  0.00000013 RMS(Int)=  0.00280400
 Variable       Old X    -DE/DX   Delta X   Delta X   Delta X     New X
                                 (Linear)    (Quad)   (Total)
    R1        2.08230   0.03064   0.00000   0.04530   0.04530   2.12760
    R2        2.08230   0.03066   0.00000   0.04533   0.04533   2.12763
    R3        2.08230   0.03066   0.00000   0.04533   0.04533   2.12762
    R4        2.08229   0.03064   0.00000   0.04530   0.04530   2.12759
    A1        1.91063  -0.01979   0.00000  -0.06638  -0.06162   1.84900
    A2        1.91063   0.05008   0.00000   0.14905   0.14589   2.05652
    A3        1.91064  -0.03984   0.00000  -0.09573  -0.09406   1.81658
    A4        1.91062  -0.02182   0.00000  -0.07070  -0.06585   1.84477
    A5        1.91064   0.07010   0.00000   0.17866   0.18312   2.09377
    A6        1.91064  -0.03874   0.00000  -0.09490  -0.09322   1.81742
    D1        2.09438  -0.00693   0.00000  -0.03332  -0.03322   2.06116
    D2       -2.09440   0.00570   0.00000   0.03051   0.03267  -2.06173
    D3        2.09440   0.01321   0.00000   0.06581   0.07016   2.16456
    D4       -2.09439   0.00752   0.00000   0.03530   0.03749  -2.05690
         Item               Value     Threshold  Converged?
 Maximum Force            0.070104     0.000015     NO 
 RMS     Force            0.033216     0.000010     NO 
 Maximum Displacement     0.179495     0.000060     NO 
 RMS     Displacement     0.096288     0.000040     NO 
 GradGradGradGradGradGradGradGradGradGradGradGradGradGradGradGradGradGrad

                    Distance matrix (angstroms):
                    1          2          3          4          5
     1  C    0.000000
     2  H    1.125877   0.000000
     3  H    1.125894   1.797636   0.000000
     4  H    1.125889   1.928416   1.794770   0.000000
     5  H    1.125873   1.775402   1.949733   1.775991   0.000000
 Framework group  C1[X(CH4)]
 Deg. of freedom     9
                         Standard orientation:                         
 ---------------------------------------------------------------------
 Center     Atomic      Atomic             Coordinates (Angstroms)
 Number     Number       Type             X           Y           Z
 ---------------------------------------------------------------------
      1          6           0       -0.003854    0.000495   -0.003412
      2          1           0        0.107421    0.960242    0.574606
      3          1           0       -0.996227    0.070341   -0.530625
      4          1           0       -0.035165   -0.962892    0.578423
      5          1           0        0.947093   -0.070662   -0.601933
 ---------------------------------------------------------------------
 Rotational constants (GHZ):         158.2919615         156.1622317         133.3110701
    22 basis functions,    41 primitive gaussians,    23 cartesian basis functions
     5 alpha electrons        4 beta electrons
       nuclear repulsion energy        13.0113169987 Hartrees.
 NAtoms=    5 NActive=    5 NUniq=    5 SFac= 1.00D+00 NAtFMM=   60 NAOKFM=F Big=F
 Nuclear repulsion after empirical dispersion term =       13.0108398612 Hartrees.
   1 Symmetry operations used in ECPInt.
 ECPInt:  NShTT=     105 NPrTT=     431 LenC2=     106 LenP2D=     417.
 LDataN:  DoStor=T MaxTD1= 4 Len=   56
 Initial guess from the checkpoint file:  "0.chk"
 B after Tr=     0.000000    0.000000   -0.000000
         Rot=    0.942808   -0.227506   -0.207531    0.127615 Ang= -38.94 deg.
 Initial guess <Sx>= 0.0000 <Sy>= 0.0000 <Sz>= 0.5000 <S**2>= 0.7520 S= 0.5010
 ExpMin= 1.22D-01 ExpMax= 1.24D+03 ExpMxC= 1.86D+02 IAcc=3 IRadAn=         5 AccDes= 0.00D+00
 Harris functional with IExCor= 4639 and IRadAn=       5 diagonalized for initial guess.
 HarFok:  IExCor= 4639 AccDes= 0.00D+00 IRadAn=         5 IDoV= 1 UseB2=F ITyADJ=14
 ICtDFT=  3500011 ScaDFX=  1.000000  1.000000  1.000000  1.000000
 FoFCou: FMM=F IPFlag=           0 FMFlag=      100000 FMFlg1=           0
         NFxFlg=           0 DoJE=T BraDBF=F KetDBF=T FulRan=T
         wScrn=  0.000000 ICntrl=       500 IOpCl=  0 I1Cent=   200000004 NGrid=           0
         NMat0=    1 NMatS0=      1 NMatT0=    0 NMatD0=    1 NMtDS0=    0 NMtDT0=    0
 Petite list used in FoFCou.
     Accept linear search using points  3 and  4.
     Accept linear search using points  1 and  2.
     Minimum is close to point  2 DX= -1.76D-03 DF= -4.06D-10 DXR=  1.76D-03 DFR=  3.11D-06 which will be used.
 SCF Done:  E(UwB97XD) =  -39.9734521523     a.u. after    4 cycles
            Convg  =    0.1498D-07                    26 Fock formations.
              S**2 =  0.7518                  -V/T =  2.0083
 <Sx>= 0.0000 <Sy>= 0.0000 <Sz>= 0.5000 <S**2>= 0.7518 S= 0.5009
 <L.S>=  0.00000000000    
 Annihilation of the first spin contaminant:
 S**2 before annihilation     0.7518,   after     0.7500
   1 Symmetry operations used in ECPInt.
 ECPInt:  NShTT=     105 NPrTT=     431 LenC2=     106 LenP2D=     417.
 LDataN:  DoStor=T MaxTD1= 5 Len=  102
 Calling FoFJK, ICntrl=      2127 FMM=F ISym2X=0 I1Cent= 0 IOpClX= 1 NMat=1 NMatS=1 NMatT=0.

 GradGradGradGradGradGradGradGradGradGradGradGradGradGradGradGradGradGrad
 Using GEDIIS/GDIIS optimizer.
 FormGI is forming the generalized inverse of G from B-inverse, IUseBI=4.
 Internal  Forces:  Max     0.046651634 RMS     0.019562266
 Step number   2 out of a maximum of   24
 All quantities printed in internal units (Hartrees-Bohrs-Radians)
 Mixed Optimization -- RFO/linear search
 Trust test= 1.01D+00 RLast= 3.12D-01 DXMaxT set to 5.05D-01
 ITU=  1  0
 Use linear search instead of GDIIS.
     Eigenvalues ---    0.04718   0.06097   0.07809   0.12952   0.16015
     Eigenvalues ---    0.33402   0.33472   0.33472   0.39370
 Quartic linear search produced a step of  1.64992.
 Iteration  1 RMS(Cart)=  0.14775963 RMS(Int)=  0.05135100
 Iteration  2 RMS(Cart)=  0.06047065 RMS(Int)=  0.02003888
 Iteration  3 RMS(Cart)=  0.00268782 RMS(Int)=  0.01982746
 Iteration  4 RMS(Cart)=  0.00009418 RMS(Int)=  0.01982732
 Iteration  5 RMS(Cart)=  0.00000342 RMS(Int)=  0.01982732
 Iteration  6 RMS(Cart)=  0.00000014 RMS(Int)=  0.01982732
 Variable       Old X    -DE/DX   Delta X   Delta X   Delta X     New X
                                 (Linear)    (Quad)   (Total)
    R1        2.12760   0.01017   0.07475  -0.05941   0.01533   2.14293
    R2        2.12763   0.00740   0.07479  -0.08080  -0.00601   2.12162
    R3        2.12762   0.01044   0.07478  -0.05742   0.01736   2.14499
    R4        2.12759   0.01231   0.07474  -0.04292   0.03182   2.15941
    A1        1.84900  -0.01064  -0.10167  -0.03173  -0.10624   1.74277
    A2        2.05652   0.03198   0.24070   0.12500   0.33862   2.39514
    A3        1.81658  -0.02513  -0.15519  -0.04390  -0.17349   1.64309
    A4        1.84477  -0.01112  -0.10865  -0.02220  -0.10212   1.74265
    A5        2.09377   0.04665   0.30214   0.03700   0.36321   2.45697
    A6        1.81742  -0.02506  -0.15380  -0.04789  -0.17658   1.64084
    D1        2.06116  -0.00274  -0.05481   0.01781  -0.03095   2.03021
    D2       -2.06173   0.00596   0.05390   0.05383   0.12263  -1.93910
    D3        2.16456   0.01254   0.11576   0.09839   0.24365   2.40821
    D4       -2.05690   0.00659   0.06186   0.04456   0.12102  -1.93588
         Item               Value     Threshold  Converged?
 Maximum Force            0.046652     0.000015     NO 
 RMS     Force            0.019562     0.000010     NO 
 Maximum Displacement     0.346912     0.000060     NO 
 RMS     Displacement     0.202403     0.000040     NO 
 GradGradGradGradGradGradGradGradGradGradGradGradGradGradGradGradGradGrad

                    Distance matrix (angstroms):
                    1          2          3          4          5
     1  C    0.000000
     2  H    1.133992   0.000000
     3  H    1.122711   1.726892   0.000000
     4  H    1.135078   2.112857   1.727639   0.000000
     5  H    1.142710   1.667012   2.133996   1.666053   0.000000
 Framework group  C1[X(CH4)]
 Deg. of freedom     9
                         Standard orientation:                         
 ---------------------------------------------------------------------
 Center     Atomic      Atomic             Coordinates (Angstroms)
 Number     Number       Type             X           Y           Z
 ---------------------------------------------------------------------
      1          6           0       -0.014041   -0.000166   -0.005525
      2          1           0        0.023439    1.057260    0.402377
      3          1           0       -1.078681   -0.031519   -0.360544
      4          1           0        0.085657   -1.054680    0.402471
      5          1           0        1.053830    0.029935   -0.411152
 ---------------------------------------------------------------------
 Rotational constants (GHZ):         175.6247891         172.4911114         111.0408878
    22 basis functions,    41 primitive gaussians,    23 cartesian basis functions
     5 alpha electrons        4 beta electrons
       nuclear repulsion energy        12.9499183899 Hartrees.
 NAtoms=    5 NActive=    5 NUniq=    5 SFac= 1.00D+00 NAtFMM=   60 NAOKFM=F Big=F
 Nuclear repulsion after empirical dispersion term =       12.9494181364 Hartrees.
   1 Symmetry operations used in ECPInt.
 ECPInt:  NShTT=     105 NPrTT=     431 LenC2=     106 LenP2D=     417.
 LDataN:  DoStor=T MaxTD1= 4 Len=   56
 Initial guess from the checkpoint file:  "0.chk"
 B after Tr=     0.000000   -0.000000   -0.000000
         Rot=    0.998692   -0.001082   -0.000383   -0.051125 Ang=  -5.86 deg.
 Initial guess <Sx>= 0.0000 <Sy>= 0.0000 <Sz>= 0.5000 <S**2>= 0.7515 S= 0.5007
 ExpMin= 1.22D-01 ExpMax= 1.24D+03 ExpMxC= 1.86D+02 IAcc=3 IRadAn=         5 AccDes= 0.00D+00
 Harris functional with IExCor= 4639 and IRadAn=       5 diagonalized for initial guess.
 HarFok:  IExCor= 4639 AccDes= 0.00D+00 IRadAn=         5 IDoV= 1 UseB2=F ITyADJ=14
 ICtDFT=  3500011 ScaDFX=  1.000000  1.000000  1.000000  1.000000
 FoFCou: FMM=F IPFlag=           0 FMFlag=      100000 FMFlg1=           0
         NFxFlg=           0 DoJE=T BraDBF=F KetDBF=T FulRan=T
         wScrn=  0.000000 ICntrl=       500 IOpCl=  0 I1Cent=   200000004 NGrid=           0
         NMat0=    1 NMatS0=      1 NMatT0=    0 NMatD0=    1 NMtDS0=    0 NMtDT0=    0
 Petite list used in FoFCou.
     Accept linear search using points  3 and  4.
     Accept linear search using points  1 and  2.
     Minimum is close to point  2 DX= -1.95D-04 DF= -3.06D-12 DXR=  1.95D-04 DFR=  3.80D-08 which will be used.
 SCF Done:  E(UwB97XD) =  -39.9961454011     a.u. after    5 cycles
            Convg  =    0.4689D-08                    28 Fock formations.
              S**2 =  0.7513                  -V/T =  2.0104
 <Sx>= 0.0000 <Sy>= 0.0000 <Sz>= 0.5000 <S**2>= 0.7513 S= 0.5006
 <L.S>=  0.00000000000    
 Annihilation of the first spin contaminant:
 S**2 before annihilation     0.7513,   after     0.7500
   1 Symmetry operations used in ECPInt.
 ECPInt:  NShTT=     105 NPrTT=     431 LenC2=     106 LenP2D=     417.
 LDataN:  DoStor=T MaxTD1= 5 Len=  102
 Calling FoFJK, ICntrl=      2127 FMM=F ISym2X=0 I1Cent= 0 IOpClX= 1 NMat=1 NMatS=1 NMatT=0.

 GradGradGradGradGradGradGradGradGradGradGradGradGradGradGradGradGradGrad
 Using GEDIIS/GDIIS optimizer.
 FormGI is forming the generalized inverse of G from B-inverse, IUseBI=4.
 Internal  Forces:  Max     0.002346944 RMS     0.001258631
 Step number   3 out of a maximum of   24
 All quantities printed in internal units (Hartrees-Bohrs-Radians)
 Mixed Optimization -- RFO/linear search
 Trust test= 1.01D+00 RLast= 6.49D-01 DXMaxT set to 8.49D-01
 ITU=  1  1  0
 Use linear search instead of GDIIS.
     Eigenvalues ---    0.03013   0.05093   0.06445   0.13768   0.16008
     Eigenvalues ---    0.33470   0.33472   0.33506   0.39244
 Quartic linear search produced a step of  0.03953.
 Iteration  1 RMS(Cart)=  0.01103787 RMS(Int)=  0.00066521
 Iteration  2 RMS(Cart)=  0.00010055 RMS(Int)=  0.00065720
 Iteration  3 RMS(Cart)=  0.00000001 RMS(Int)=  0.00065720
 Variable       Old X    -DE/DX   Delta X   Delta X   Delta X     New X
                                 (Linear)    (Quad)   (Total)
    R1        2.14293  -0.00085   0.00061  -0.00351  -0.00291   2.14003
    R2        2.12162   0.00179  -0.00024   0.00505   0.00481   2.12643
    R3        2.14499  -0.00133   0.00069  -0.00505  -0.00437   2.14062
    R4        2.15941  -0.00235   0.00126  -0.00847  -0.00722   2.15219
    A1        1.74277  -0.00045  -0.00420  -0.00375  -0.00722   1.73555
    A2        2.39514   0.00206   0.01338   0.01907   0.03159   2.42672
    A3        1.64309  -0.00032  -0.00686   0.00208  -0.00377   1.63932
    A4        1.74265  -0.00052  -0.00404  -0.00459  -0.00782   1.73483
    A5        2.45697   0.00035   0.01436  -0.01137   0.00385   2.46082
    A6        1.64084  -0.00025  -0.00698   0.00247  -0.00354   1.63729
    D1        2.03021   0.00009  -0.00122   0.00180   0.00097   2.03117
    D2       -1.93910   0.00099   0.00485   0.00974   0.01507  -1.92404
    D3        2.40821   0.00200   0.00963   0.02029   0.03084   2.43905
    D4       -1.93588   0.00101   0.00478   0.01055   0.01578  -1.92010
         Item               Value     Threshold  Converged?
 Maximum Force            0.002347     0.000015     NO 
 RMS     Force            0.001259     0.000010     NO 
 Maximum Displacement     0.021404     0.000060     NO 
 RMS     Displacement     0.011024     0.000040     NO 
 GradGradGradGradGradGradGradGradGradGradGradGradGradGradGradGradGradGrad

                    Distance matrix (angstroms):
                    1          2          3          4          5
     1  C    0.000000
     2  H    1.132454   0.000000
     3  H    1.125258   1.722399   0.000000
     4  H    1.132767   2.122053   1.722108   0.000000
     5  H    1.138891   1.660164   2.134249   1.658818   0.000000
 Framework group  C1[X(CH4)]
 Deg. of freedom     9
                         Standard orientation:                         
 ---------------------------------------------------------------------
 Center     Atomic      Atomic             Coordinates (Angstroms)
 Number     Number       Type             X           Y           Z
 ---------------------------------------------------------------------
      1          6           0       -0.012900   -0.000156   -0.002549
      2          1           0        0.024187    1.062224    0.387868
      3          1           0       -1.080787   -0.029704   -0.356030
      4          1           0        0.081865   -1.059045    0.388518
      5          1           0        1.052133    0.027459   -0.405061
 ---------------------------------------------------------------------
 Rotational constants (GHZ):         176.3318657         174.3421496         110.5617645
    22 basis functions,    41 primitive gaussians,    23 cartesian basis functions
     5 alpha electrons        4 beta electrons
       nuclear repulsion energy        12.9657091337 Hartrees.
 NAtoms=    5 NActive=    5 NUniq=    5 SFac= 1.00D+00 NAtFMM=   60 NAOKFM=F Big=F
 Nuclear repulsion after empirical dispersion term =       12.9652109377 Hartrees.
   1 Symmetry operations used in ECPInt.
 ECPInt:  NShTT=     105 NPrTT=     431 LenC2=     106 LenP2D=     417.
 LDataN:  DoStor=T MaxTD1= 4 Len=   56
 Initial guess from the checkpoint file:  "0.chk"
 B after Tr=    -0.000000    0.000000   -0.000000
         Rot=    0.999999    0.000209   -0.000074    0.001064 Ang=   0.12 deg.
 Initial guess <Sx>= 0.0000 <Sy>= 0.0000 <Sz>= 0.5000 <S**2>= 0.7513 S= 0.5006
 ExpMin= 1.22D-01 ExpMax= 1.24D+03 ExpMxC= 1.86D+02 IAcc=3 IRadAn=         5 AccDes= 0.00D+00
 Harris functional with IExCor= 4639 and IRadAn=       5 diagonalized for initial guess.
 HarFok:  IExCor= 4639 AccDes= 0.00D+00 IRadAn=         5 IDoV= 1 UseB2=F ITyADJ=14
 ICtDFT=  3500011 ScaDFX=  1.000000  1.000000  1.000000  1.000000
 FoFCou: FMM=F IPFlag=           0 FMFlag=      100000 FMFlg1=           0
         NFxFlg=           0 DoJE=T BraDBF=F KetDBF=T FulRan=T
         wScrn=  0.000000 ICntrl=       500 IOpCl=  0 I1Cent=   200000004 NGrid=           0
         NMat0=    1 NMatS0=      1 NMatT0=    0 NMatD0=    1 NMtDS0=    0 NMtDT0=    0
 Petite list used in FoFCou.
     Minimum is close to point  2 DX=  5.52D-04 DF= -7.39D-12 DXR=  5.51D-04 DFR=  3.04D-07 which will be used.
 SCF Done:  E(UwB97XD) =  -39.9962745979     a.u. after    3 cycles
            Convg  =    0.1550D-08                    21 Fock formations.
              S**2 =  0.7513                  -V/T =  2.0103
 <Sx>= 0.0000 <Sy>= 0.0000 <Sz>= 0.5000 <S**2>= 0.7513 S= 0.5006
 <L.S>=  0.00000000000    
 Annihilation of the first spin contaminant:
 S**2 before annihilation     0.7513,   after     0.7500
   1 Symmetry operations used in ECPInt.
 ECPInt:  NShTT=     105 NPrTT=     431 LenC2=     106 LenP2D=     417.
 LDataN:  DoStor=T MaxTD1= 5 Len=  102
 Calling FoFJK, ICntrl=      2127 FMM=F ISym2X=0 I1Cent= 0 IOpClX= 1 NMat=1 NMatS=1 NMatT=0.

 GradGradGradGradGradGradGradGradGradGradGradGradGradGradGradGradGradGrad
 Using GEDIIS/GDIIS optimizer.
 FormGI is forming the generalized inverse of G from B-inverse, IUseBI=4.
 Internal  Forces:  Max     0.001066607 RMS     0.000516284
 Step number   4 out of a maximum of   24
 All quantities printed in internal units (Hartrees-Bohrs-Radians)
 Mixed Optimization -- En-DIIS/RFO-DIIS
 Trust test= 1.27D+00 RLast= 5.18D-02 DXMaxT set to 8.49D-01
 ITU=  1  1  1  0
 Use linear search instead of GDIIS.
     Eigenvalues ---    0.03011   0.03864   0.05335   0.15713   0.16013
     Eigenvalues ---    0.32440   0.33471   0.33480   0.39150
 Quartic linear search produced a step of  0.39130.
 Iteration  1 RMS(Cart)=  0.00540049 RMS(Int)=  0.00011027
 Iteration  2 RMS(Cart)=  0.00005967 RMS(Int)=  0.00006728
 Iteration  3 RMS(Cart)=  0.00000001 RMS(Int)=  0.00006728
 Variable       Old X    -DE/DX   Delta X   Delta X   Delta X     New X
                                 (Linear)    (Quad)   (Total)
    R1        2.14003  -0.00026  -0.00114  -0.00048  -0.00161   2.13841
    R2        2.12643   0.00051   0.00188   0.00099   0.00287   2.12930
    R3        2.14062  -0.00033  -0.00171  -0.00046  -0.00216   2.13845
    R4        2.15219  -0.00062  -0.00282  -0.00101  -0.00383   2.14836
    A1        1.73555  -0.00020  -0.00282  -0.00456  -0.00731   1.72825
    A2        2.42672   0.00055   0.01236   0.00512   0.01742   2.44415
    A3        1.63932   0.00041  -0.00148   0.00658   0.00497   1.64429
    A4        1.73483  -0.00030  -0.00306  -0.00485  -0.00785   1.72697
    A5        2.46082  -0.00107   0.00150  -0.00972  -0.00828   2.45254
    A6        1.63729   0.00051  -0.00139   0.00702   0.00552   1.64282
    D1        2.03117  -0.00033   0.00038  -0.01053  -0.01027   2.02090
    D2       -1.92404   0.00035   0.00590   0.00395   0.00986  -1.91417
    D3        2.43905   0.00073   0.01207   0.00772   0.01984   2.45889
    D4       -1.92010   0.00038   0.00617   0.00377   0.00998  -1.91012
         Item               Value     Threshold  Converged?
 Maximum Force            0.001067     0.000015     NO 
 RMS     Force            0.000516     0.000010     NO 
 Maximum Displacement     0.010332     0.000060     NO 
 RMS     Displacement     0.005391     0.000040     NO 
 GradGradGradGradGradGradGradGradGradGradGradGradGradGradGradGradGradGrad

                    Distance matrix (angstroms):
                    1          2          3          4          5
     1  C    0.000000
     2  H    1.131600   0.000000
     3  H    1.126776   1.717558   0.000000
     4  H    1.131621   2.126997   1.716639   0.000000
     5  H    1.136864   1.661901   2.130620   1.660774   0.000000
 Framework group  C1[X(CH4)]
 Deg. of freedom     9
                         Standard orientation:                         
 ---------------------------------------------------------------------
 Center     Atomic      Atomic             Coordinates (Angstroms)
 Number     Number       Type             X           Y           Z
 ---------------------------------------------------------------------
      1          6           0       -0.010989    0.000053   -0.000022
      2          1           0        0.035209    1.064219    0.381989
      3          1           0       -1.078334   -0.011930   -0.360931
      4          1           0        0.057317   -1.062663    0.382779
      5          1           0        1.051742    0.010058   -0.403706
 ---------------------------------------------------------------------
 Rotational constants (GHZ):         176.0885161         175.3124807         110.5324265
    22 basis functions,    41 primitive gaussians,    23 cartesian basis functions
     5 alpha electrons        4 beta electrons
       nuclear repulsion energy        12.9728095353 Hartrees.
 NAtoms=    5 NActive=    5 NUniq=    5 SFac= 1.00D+00 NAtFMM=   60 NAOKFM=F Big=F
 Nuclear repulsion after empirical dispersion term =       12.9723123407 Hartrees.
   1 Symmetry operations used in ECPInt.
 ECPInt:  NShTT=     105 NPrTT=     431 LenC2=     106 LenP2D=     417.
 LDataN:  DoStor=T MaxTD1= 4 Len=   56
 Initial guess from the checkpoint file:  "0.chk"
 B after Tr=    -0.000000   -0.000000    0.000000
         Rot=    0.999963    0.000013    0.002079    0.008313 Ang=   0.98 deg.
 Initial guess <Sx>= 0.0000 <Sy>= 0.0000 <Sz>= 0.5000 <S**2>= 0.7513 S= 0.5006
     Minimum is close to point  2 DX=  4.17D-04 DF= -3.20D-12 DXR=  4.17D-04 DFR=  1.74D-07 which will be used.
 SCF Done:  E(UwB97XD) =  -39.9963139372     a.u. after    3 cycles
            Convg  =    0.1162D-08                    21 Fock formations.
              S**2 =  0.7512                  -V/T =  2.0102
 <Sx>= 0.0000 <Sy>= 0.0000 <Sz>= 0.5000 <S**2>= 0.7512 S= 0.5006
 <L.S>=  0.00000000000    
 Annihilation of the first spin contaminant:
 S**2 before annihilation     0.7512,   after     0.7500
   1 Symmetry operations used in ECPInt.
 ECPInt:  NShTT=     105 NPrTT=     431 LenC2=     106 LenP2D=     417.
 LDataN:  DoStor=T MaxTD1= 5 Len=  102
 Calling FoFJK, ICntrl=      2127 FMM=F ISym2X=0 I1Cent= 0 IOpClX= 1 NMat=1 NMatS=1 NMatT=0.

 GradGradGradGradGradGradGradGradGradGradGradGradGradGradGradGradGradGrad
 Using GEDIIS/GDIIS optimizer.
 FormGI is forming the generalized inverse of G from B-inverse, IUseBI=4.
 Internal  Forces:  Max     0.000720731 RMS     0.000310346
 Step number   5 out of a maximum of   24
 All quantities printed in internal units (Hartrees-Bohrs-Radians)
 Mixed Optimization -- En-DIIS/RFO-DIIS
 Swapping is turned off.
 Trust test= 1.37D+00 RLast= 3.56D-02 DXMaxT set to 8.49D-01
 ITU=  1  1  1  1  0
     Eigenvalues ---    0.02096   0.03120   0.06770   0.15022   0.16000
     Eigenvalues ---    0.33432   0.33475   0.34327   0.39902
 En-DIIS/RFO-DIIS/Sim-DIIS IScMMF=       -3 using points:     5    4
 RFO step:  Lambda=-2.84733016D-05.
 DidBck=F Rises=F RFO-DIIS coefs:    1.85441   -0.85441
 Iteration  1 RMS(Cart)=  0.00527054 RMS(Int)=  0.00013968
 Iteration  2 RMS(Cart)=  0.00004272 RMS(Int)=  0.00012493
 Iteration  3 RMS(Cart)=  0.00000000 RMS(Int)=  0.00012493
 Variable       Old X    -DE/DX   Delta X   Delta X   Delta X     New X
                                 (Linear)    (Quad)   (Total)
    R1        2.13841   0.00010  -0.00138   0.00073  -0.00065   2.13776
    R2        2.12930   0.00012   0.00245  -0.00030   0.00215   2.13145
    R3        2.13845   0.00018  -0.00185   0.00112  -0.00073   2.13772
    R4        2.14836   0.00010  -0.00327   0.00115  -0.00212   2.14624
    A1        1.72825  -0.00012  -0.00624  -0.00240  -0.00852   1.71973
    A2        2.44415  -0.00004   0.01489  -0.00488   0.00983   2.45398
    A3        1.64429   0.00040   0.00425   0.00412   0.00815   1.65244
    A4        1.72697  -0.00021  -0.00671  -0.00205  -0.00866   1.71831
    A5        2.45254  -0.00072  -0.00708  -0.00018  -0.00736   2.44517
    A6        1.64282   0.00048   0.00472   0.00413   0.00865   1.65147
    D1        2.02090  -0.00054  -0.00878  -0.01069  -0.01966   2.00125
    D2       -1.91417   0.00005   0.00843  -0.00136   0.00712  -1.90705
    D3        2.45889   0.00014   0.01695  -0.00330   0.01378   2.47267
    D4       -1.91012   0.00009   0.00852  -0.00194   0.00666  -1.90346
         Item               Value     Threshold  Converged?
 Maximum Force            0.000721     0.000015     NO 
 RMS     Force            0.000310     0.000010     NO 
 Maximum Displacement     0.007849     0.000060     NO 
 RMS     Displacement     0.005262     0.000040     NO 
 GradGradGradGradGradGradGradGradGradGradGradGradGradGradGradGradGradGrad

                    Distance matrix (angstroms):
                    1          2          3          4          5
     1  C    0.000000
     2  H    1.131255   0.000000
     3  H    1.127916   1.711900   0.000000
     4  H    1.131235   2.130086   1.710838   0.000000
     5  H    1.135741   1.667098   2.127806   1.666333   0.000000
 Framework group  C1[X(CH4)]
 Deg. of freedom     9
                         Standard orientation:                         
 ---------------------------------------------------------------------
 Center     Atomic      Atomic             Coordinates (Angstroms)
 Number     Number       Type             X           Y           Z
 ---------------------------------------------------------------------
      1          6           0       -0.001068    0.008666    0.001529
      2          1           0        1.060186    0.110803    0.379744
      3          1           0       -0.149489    1.064078   -0.367623
      4          1           0       -1.049412   -0.183921    0.380444
      5          1           0        0.145123   -1.042958   -0.401737
 ---------------------------------------------------------------------
 Rotational constants (GHZ):         175.8035777         175.6912753         110.5614355
    22 basis functions,    41 primitive gaussians,    23 cartesian basis functions
     5 alpha electrons        4 beta electrons
       nuclear repulsion energy        12.9745119256 Hartrees.
 NAtoms=    5 NActive=    5 NUniq=    5 SFac= 1.00D+00 NAtFMM=   60 NAOKFM=F Big=F
 Nuclear repulsion after empirical dispersion term =       12.9740150274 Hartrees.
   1 Symmetry operations used in ECPInt.
 ECPInt:  NShTT=     105 NPrTT=     431 LenC2=     106 LenP2D=     417.
 LDataN:  DoStor=T MaxTD1= 4 Len=   56
 Initial guess from the checkpoint file:  "0.chk"
 B after Tr=     0.000000    0.000000    0.000000
         Rot=    0.751047    0.002028    0.002409    0.660241 Ang=  82.64 deg.
 Initial guess <Sx>= 0.0000 <Sy>= 0.0000 <Sz>= 0.5000 <S**2>= 0.7512 S= 0.5006
     Minimum is close to point  2 DX=  2.93D-04 DF= -1.57D-12 DXR=  2.92D-04 DFR=  8.56D-08 which will be used.
 SCF Done:  E(UwB97XD) =  -39.9963341204     a.u. after    3 cycles
            Convg  =    0.1597D-08                    21 Fock formations.
              S**2 =  0.7512                  -V/T =  2.0102
 <Sx>= 0.0000 <Sy>= 0.0000 <Sz>= 0.5000 <S**2>= 0.7512 S= 0.5006
 <L.S>=  0.00000000000    
 Annihilation of the first spin contaminant:
 S**2 before annihilation     0.7512,   after     0.7500
   1 Symmetry operations used in ECPInt.
 ECPInt:  NShTT=     105 NPrTT=     431 LenC2=     106 LenP2D=     417.
 LDataN:  DoStor=T MaxTD1= 5 Len=  102
 Calling FoFJK, ICntrl=      2127 FMM=F ISym2X=0 I1Cent= 0 IOpClX= 1 NMat=1 NMatS=1 NMatT=0.

 GradGradGradGradGradGradGradGradGradGradGradGradGradGradGradGradGradGrad
 Using GEDIIS/GDIIS optimizer.
 FormGI is forming the generalized inverse of G from B-inverse, IUseBI=4.
 Internal  Forces:  Max     0.000570785 RMS     0.000252663
 Step number   6 out of a maximum of   24
 All quantities printed in internal units (Hartrees-Bohrs-Radians)
 Mixed Optimization -- En-DIIS/RFO-DIIS
 Swapping is turned off.
 Trust test= 1.40D+00 RLast= 3.35D-02 DXMaxT set to 8.49D-01
 ITU=  1  1  1  1  1  0
     Eigenvalues ---    0.01130   0.03177   0.09139   0.13279   0.16016
     Eigenvalues ---    0.33278   0.33489   0.33856   0.40491
 En-DIIS/RFO-DIIS/Sim-DIIS IScMMF=       -3 using points:     6    5    4
 RFO step:  Lambda=-2.11859538D-05.
 DidBck=F Rises=F RFO-DIIS coefs:    2.23653   -2.00000    0.76347
 Iteration  1 RMS(Cart)=  0.00783349 RMS(Int)=  0.00015970
 Iteration  2 RMS(Cart)=  0.00007382 RMS(Int)=  0.00013637
 Iteration  3 RMS(Cart)=  0.00000001 RMS(Int)=  0.00013637
 Variable       Old X    -DE/DX   Delta X   Delta X   Delta X     New X
                                 (Linear)    (Quad)   (Total)
    R1        2.13776   0.00025   0.00043  -0.00020   0.00023   2.13799
    R2        2.13145   0.00008   0.00047   0.00233   0.00280   2.13426
    R3        2.13772   0.00034   0.00075  -0.00038   0.00036   2.13809
    R4        2.14624   0.00021   0.00030  -0.00251  -0.00220   2.14403
    A1        1.71973  -0.00008  -0.00495  -0.00837  -0.01341   1.70632
    A2        2.45398  -0.00029  -0.00114   0.00445   0.00296   2.45694
    A3        1.65244   0.00025   0.00628   0.00752   0.01388   1.66632
    A4        1.71831  -0.00015  -0.00471  -0.00825  -0.01302   1.70529
    A5        2.44517  -0.00016  -0.00278  -0.00079  -0.00346   2.44171
    A6        1.65147   0.00031   0.00648   0.00780   0.01434   1.66580
    D1        2.00125  -0.00057  -0.01646  -0.02291  -0.03921   1.96203
    D2       -1.90705  -0.00011   0.00128   0.00437   0.00577  -1.90128
    D3        2.47267  -0.00017   0.00190   0.00817   0.01030   2.48298
    D4       -1.90346  -0.00007   0.00062   0.00381   0.00453  -1.89893
         Item               Value     Threshold  Converged?
 Maximum Force            0.000571     0.000015     NO 
 RMS     Force            0.000253     0.000010     NO 
 Maximum Displacement     0.013500     0.000060     NO 
 RMS     Displacement     0.007818     0.000040     NO 
 GradGradGradGradGradGradGradGradGradGradGradGradGradGradGradGradGradGrad

                    Distance matrix (angstroms):
                    1          2          3          4          5
     1  C    0.000000
     2  H    1.131377   0.000000
     3  H    1.129400   1.703183   0.000000
     4  H    1.131428   2.131507   1.702458   0.000000
     5  H    1.134574   1.676942   2.126762   1.676586   0.000000
 Framework group  C1[X(CH4)]
 Deg. of freedom     9
                         Standard orientation:                         
 ---------------------------------------------------------------------
 Center     Atomic      Atomic             Coordinates (Angstroms)
 Number     Number       Type             X           Y           Z
 ---------------------------------------------------------------------
      1          6           0       -0.000087    0.005225    0.001854
      2          1           0        1.066003    0.015837    0.380474
      3          1           0       -0.038327    1.068767   -0.376247
      4          1           0       -1.064176   -0.059391    0.380891
      5          1           0        0.037025   -1.056565   -0.396244
 ---------------------------------------------------------------------
 Rotational constants (GHZ):         175.8825021         175.3268153         110.5912922
    22 basis functions,    41 primitive gaussians,    23 cartesian basis functions
     5 alpha electrons        4 beta electrons
       nuclear repulsion energy        12.9721621068 Hartrees.
 NAtoms=    5 NActive=    5 NUniq=    5 SFac= 1.00D+00 NAtFMM=   60 NAOKFM=F Big=F
 Nuclear repulsion after empirical dispersion term =       12.9716649059 Hartrees.
   1 Symmetry operations used in ECPInt.
 ECPInt:  NShTT=     105 NPrTT=     431 LenC2=     106 LenP2D=     417.
 LDataN:  DoStor=T MaxTD1= 4 Len=   56
 Initial guess from the checkpoint file:  "0.chk"
 B after Tr=    -0.000000    0.000000   -0.000000
         Rot=    0.998647    0.005253    0.000566    0.051724 Ang=   5.96 deg.
 Initial guess <Sx>= 0.0000 <Sy>= 0.0000 <Sz>= 0.5000 <S**2>= 0.7512 S= 0.5006
     Minimum is close to point  2 DX=  4.63D-05 DF= -9.24D-14 DXR=  4.63D-05 DFR=  2.34D-09 which will be used.
 SCF Done:  E(UwB97XD) =  -39.9963565306     a.u. after    3 cycles
            Convg  =    0.2818D-08                    21 Fock formations.
              S**2 =  0.7512                  -V/T =  2.0102
 <Sx>= 0.0000 <Sy>= 0.0000 <Sz>= 0.5000 <S**2>= 0.7512 S= 0.5006
 <L.S>=  0.00000000000    
 Annihilation of the first spin contaminant:
 S**2 before annihilation     0.7512,   after     0.7500
   1 Symmetry operations used in ECPInt.
 ECPInt:  NShTT=     105 NPrTT=     431 LenC2=     106 LenP2D=     417.
 LDataN:  DoStor=T MaxTD1= 5 Len=  102
 Calling FoFJK, ICntrl=      2127 FMM=F ISym2X=0 I1Cent= 0 IOpClX= 1 NMat=1 NMatS=1 NMatT=0.

 GradGradGradGradGradGradGradGradGradGradGradGradGradGradGradGradGradGrad
 Using GEDIIS/GDIIS optimizer.
 FormGI is forming the generalized inverse of G from B-inverse, IUseBI=4.
 Internal  Forces:  Max     0.000410240 RMS     0.000201571
 Step number   7 out of a maximum of   24
 All quantities printed in internal units (Hartrees-Bohrs-Radians)
 Mixed Optimization -- En-DIIS/RFO-DIIS
 Swapping is turned off.
 Trust test= 3.08D+00 RLast= 4.98D-02 DXMaxT set to 8.49D-01
 ITU=  1  1  1  1  1  1  0
     Eigenvalues ---    0.00547   0.03196   0.06979   0.15803   0.16952
     Eigenvalues ---    0.32900   0.33472   0.33747   0.39310
 En-DIIS/RFO-DIIS/Sim-DIIS IScMMF=       -3 using points:     7    6    5    4
 RFO step:  Lambda=-2.16541479D-05.
 DIIS inversion failure, remove point   4.
 RFO-DIIS uses    3 points instead of    4
 DidBck=F Rises=F RFO-DIIS coefs:    2.25821   -2.00000    0.74179    0.00000
 Iteration  1 RMS(Cart)=  0.00975559 RMS(Int)=  0.00029558
 Iteration  2 RMS(Cart)=  0.00014360 RMS(Int)=  0.00025054
 Iteration  3 RMS(Cart)=  0.00000001 RMS(Int)=  0.00025054
 Variable       Old X    -DE/DX   Delta X   Delta X   Delta X     New X
                                 (Linear)    (Quad)   (Total)
    R1        2.13799   0.00020   0.00077  -0.00003   0.00074   2.13874
    R2        2.13426   0.00015   0.00193   0.00199   0.00392   2.13818
    R3        2.13809   0.00022   0.00100  -0.00021   0.00079   2.13888
    R4        2.14403  -0.00005  -0.00120  -0.00256  -0.00376   2.14028
    A1        1.70632  -0.00006  -0.01056  -0.00661  -0.01747   1.68885
    A2        2.45694  -0.00028  -0.00358   0.00069  -0.00347   2.45346
    A3        1.66632   0.00006   0.01142   0.00589   0.01743   1.68375
    A4        1.70529  -0.00010  -0.00996  -0.00651  -0.01671   1.68858
    A5        2.44171   0.00031   0.00110   0.00207   0.00335   2.44506
    A6        1.66580   0.00009   0.01162   0.00598   0.01767   1.68347
    D1        1.96203  -0.00041  -0.03476  -0.01984  -0.05423   1.90780
    D2       -1.90128  -0.00014   0.00198   0.00216   0.00434  -1.89694
    D3        2.48298  -0.00025   0.00274   0.00404   0.00714   2.49011
    D4       -1.89893  -0.00011   0.00076   0.00188   0.00280  -1.89614
         Item               Value     Threshold  Converged?
 Maximum Force            0.000410     0.000015     NO 
 RMS     Force            0.000202     0.000010     NO 
 Maximum Displacement     0.017037     0.000060     NO 
 RMS     Displacement     0.009776     0.000040     NO 
 GradGradGradGradGradGradGradGradGradGradGradGradGradGradGradGradGradGrad

                    Distance matrix (angstroms):
                    1          2          3          4          5
     1  C    0.000000
     2  H    1.131771   0.000000
     3  H    1.131475   1.691976   0.000000
     4  H    1.131844   2.130948   1.691832   0.000000
     5  H    1.132586   1.688972   2.128141   1.688815   0.000000
 Framework group  C1[X(CH4)]
 Deg. of freedom     9
                         Standard orientation:                         
 ---------------------------------------------------------------------
 Center     Atomic      Atomic             Coordinates (Angstroms)
 Number     Number       Type             X           Y           Z
 ---------------------------------------------------------------------
      1          6           0        0.000041    0.000714    0.000913
      2          1           0        1.065489   -0.004613    0.382616
      3          1           0        0.001791    1.064612   -0.384252
      4          1           0       -1.065455   -0.000757    0.382734
      5          1           0       -0.002070   -1.063524   -0.386574
 ---------------------------------------------------------------------
 Rotational constants (GHZ):         175.6725957         175.3066130         110.5749753
    22 basis functions,    41 primitive gaussians,    23 cartesian basis functions
     5 alpha electrons        4 beta electrons
       nuclear repulsion energy        12.9692908595 Hartrees.
 NAtoms=    5 NActive=    5 NUniq=    5 SFac= 1.00D+00 NAtFMM=   60 NAOKFM=F Big=F
 Nuclear repulsion after empirical dispersion term =       12.9687932206 Hartrees.
   1 Symmetry operations used in ECPInt.
 ECPInt:  NShTT=     105 NPrTT=     431 LenC2=     106 LenP2D=     417.
 LDataN:  DoStor=T MaxTD1= 4 Len=   56
 Initial guess from the checkpoint file:  "0.chk"
 B after Tr=    -0.000000   -0.000000   -0.000000
         Rot=    0.999805    0.006610    0.000222    0.018589 Ang=   2.26 deg.
 Initial guess <Sx>= 0.0000 <Sy>= 0.0000 <Sz>= 0.5000 <S**2>= 0.7512 S= 0.5006
     Accept linear search using points  1 and  2.
     Minimum is close to point  2 DX= -3.37D-04 DF= -7.50D-12 DXR=  3.37D-04 DFR=  1.14D-07 which will be used.
 SCF Done:  E(UwB97XD) =  -39.9963733461     a.u. after    3 cycles
            Convg  =    0.6988D-08                    20 Fock formations.
              S**2 =  0.7512                  -V/T =  2.0102
 <Sx>= 0.0000 <Sy>= 0.0000 <Sz>= 0.5000 <S**2>= 0.7512 S= 0.5006
 <L.S>=  0.00000000000    
 Annihilation of the first spin contaminant:
 S**2 before annihilation     0.7512,   after     0.7500
   1 Symmetry operations used in ECPInt.
 ECPInt:  NShTT=     105 NPrTT=     431 LenC2=     106 LenP2D=     417.
 LDataN:  DoStor=T MaxTD1= 5 Len=  102
 Calling FoFJK, ICntrl=      2127 FMM=F ISym2X=0 I1Cent= 0 IOpClX= 1 NMat=1 NMatS=1 NMatT=0.

 GradGradGradGradGradGradGradGradGradGradGradGradGradGradGradGradGradGrad
 Using GEDIIS/GDIIS optimizer.
 FormGI is forming the generalized inverse of G from B-inverse, IUseBI=4.
 Internal  Forces:  Max     0.000275094 RMS     0.000109879
 Step number   8 out of a maximum of   24
 All quantities printed in internal units (Hartrees-Bohrs-Radians)
 Mixed Optimization -- En-DIIS/RFO-DIIS
 Swapping is turned off.
 Trust test= 2.07D+00 RLast= 6.54D-02 DXMaxT set to 8.49D-01
 ITU=  1  1  1  1  1  1  1  0
     Eigenvalues ---    0.00481   0.03157   0.04668   0.15784   0.16580
     Eigenvalues ---    0.33300   0.33428   0.34271   0.38768
 En-DIIS/RFO-DIIS/Sim-DIIS IScMMF=       -3 using points:     8    7    6    5    4
 RFO step:  Lambda=-2.37375216D-06.
 DIIS inversion failure, remove point   5.
 RFO-DIIS uses    4 points instead of    5
 DidBck=F Rises=F RFO-DIIS coefs:    1.61304   -1.11957    0.44700    0.05953    0.00000
 Iteration  1 RMS(Cart)=  0.00213847 RMS(Int)=  0.00013629
 Iteration  2 RMS(Cart)=  0.00001109 RMS(Int)=  0.00013546
 Iteration  3 RMS(Cart)=  0.00000000 RMS(Int)=  0.00013546
 Variable       Old X    -DE/DX   Delta X   Delta X   Delta X     New X
                                 (Linear)    (Quad)   (Total)
    R1        2.13874   0.00004   0.00038  -0.00011   0.00027   2.13901
    R2        2.13818   0.00011   0.00086   0.00018   0.00104   2.13921
    R3        2.13888   0.00002   0.00034  -0.00016   0.00018   2.13906
    R4        2.14028  -0.00016  -0.00106  -0.00031  -0.00137   2.13891
    A1        1.68885  -0.00001  -0.00341   0.00008  -0.00342   1.68543
    A2        2.45346  -0.00011  -0.00421  -0.00009  -0.00395   2.44951
    A3        1.68375  -0.00005   0.00317  -0.00003   0.00328   1.68704
    A4        1.68858  -0.00002  -0.00313  -0.00004  -0.00325   1.68533
    A5        2.44506   0.00028   0.00425  -0.00013   0.00412   2.44919
    A6        1.68347  -0.00003   0.00306   0.00013   0.00331   1.68678
    D1        1.90780  -0.00010  -0.01221   0.00004  -0.01211   1.89569
    D2       -1.89694  -0.00007  -0.00069  -0.00002  -0.00083  -1.89776
    D3        2.49011  -0.00014  -0.00166  -0.00006  -0.00196   2.48815
    D4       -1.89614  -0.00007  -0.00098  -0.00003  -0.00113  -1.89727
         Item               Value     Threshold  Converged?
 Maximum Force            0.000275     0.000015     NO 
 RMS     Force            0.000110     0.000010     NO 
 Maximum Displacement     0.004493     0.000060     NO 
 RMS     Displacement     0.002145     0.000040     NO 
 GradGradGradGradGradGradGradGradGradGradGradGradGradGradGradGradGradGrad

                    Distance matrix (angstroms):
                    1          2          3          4          5
     1  C    0.000000
     2  H    1.131913   0.000000
     3  H    1.132023   1.689919   0.000000
     4  H    1.131940   2.129659   1.689864   0.000000
     5  H    1.131862   1.691011   2.129564   1.690840   0.000000
 Framework group  C1[X(CH4)]
 Deg. of freedom     9
                         Standard orientation:                         
 ---------------------------------------------------------------------
 Center     Atomic      Atomic             Coordinates (Angstroms)
 Number     Number       Type             X           Y           Z
 ---------------------------------------------------------------------
      1          6           0       -0.000053   -0.000193    0.000036
      2          1           0        0.986915   -0.399894    0.383913
      3          1           0        0.400513    0.986307   -0.384465
      4          1           0       -0.986227    0.401454    0.384000
      5          1           0       -0.400885   -0.986712   -0.383665
 ---------------------------------------------------------------------
 Rotational constants (GHZ):         175.4971624         175.4798912         110.5684431
    22 basis functions,    41 primitive gaussians,    23 cartesian basis functions
     5 alpha electrons        4 beta electrons
       nuclear repulsion energy        12.9691112535 Hartrees.
 NAtoms=    5 NActive=    5 NUniq=    5 SFac= 1.00D+00 NAtFMM=   60 NAOKFM=F Big=F
 Nuclear repulsion after empirical dispersion term =       12.9686135809 Hartrees.
   1 Symmetry operations used in ECPInt.
 ECPInt:  NShTT=     105 NPrTT=     431 LenC2=     106 LenP2D=     417.
 LDataN:  DoStor=T MaxTD1= 4 Len=   56
 Initial guess from the checkpoint file:  "0.chk"
 B after Tr=    -0.000000   -0.000000    0.000000
         Rot=    0.981625    0.001145   -0.000213    0.190817 Ang=  22.00 deg.
 Initial guess <Sx>= 0.0000 <Sy>= 0.0000 <Sz>= 0.5000 <S**2>= 0.7512 S= 0.5006
     Accept linear search using points  1 and  2.
     Minimum is close to point  2 DX= -1.62D-04 DF= -9.24D-14 DXR=  1.62D-04 DFR=  2.68D-08 which will be used.
 SCF Done:  E(UwB97XD) =  -39.9963749595     a.u. after    3 cycles
            Convg  =    0.3501D-09                    19 Fock formations.
              S**2 =  0.7512                  -V/T =  2.0102
 <Sx>= 0.0000 <Sy>= 0.0000 <Sz>= 0.5000 <S**2>= 0.7512 S= 0.5006
 <L.S>=  0.00000000000    
 Annihilation of the first spin contaminant:
 S**2 before annihilation     0.7512,   after     0.7500
   1 Symmetry operations used in ECPInt.
 ECPInt:  NShTT=     105 NPrTT=     431 LenC2=     106 LenP2D=     417.
 LDataN:  DoStor=T MaxTD1= 5 Len=  102
 Calling FoFJK, ICntrl=      2127 FMM=F ISym2X=0 I1Cent= 0 IOpClX= 1 NMat=1 NMatS=1 NMatT=0.

 GradGradGradGradGradGradGradGradGradGradGradGradGradGradGradGradGradGrad
 Using GEDIIS/GDIIS optimizer.
 FormGI is forming the generalized inverse of G from B-inverse, IUseBI=4.
 Internal  Forces:  Max     0.000032690 RMS     0.000012000
 Step number   9 out of a maximum of   24
 All quantities printed in internal units (Hartrees-Bohrs-Radians)
 Mixed Optimization -- En-DIIS/RFO-DIIS
 Swapping is turned off.
 Trust test= 2.01D+00 RLast= 1.52D-02 DXMaxT set to 8.49D-01
 ITU=  1  1  1  1  1  1  1  1  0
     Eigenvalues ---    0.00512   0.03118   0.03673   0.14031   0.15924
     Eigenvalues ---    0.32965   0.33442   0.33774   0.38984
 En-DIIS/RFO-DIIS/Sim-DIIS IScMMF=       -3 using points:     9    8    7    6    5    4
 RFO step:  Lambda=-3.93356091D-08.
 DIIS inversion failure, remove point   6.
 DIIS inversion failure, remove point   5.
 DIIS inversion failure, remove point   4.
 RFO-DIIS uses    3 points instead of    6
 DidBck=F Rises=F RFO-DIIS coefs:    1.07961   -0.13661    0.05700    0.00000    0.00000
                  RFO-DIIS coefs:    0.00000
 Iteration  1 RMS(Cart)=  0.00042560 RMS(Int)=  0.00001553
 Iteration  2 RMS(Cart)=  0.00000024 RMS(Int)=  0.00001552
 Variable       Old X    -DE/DX   Delta X   Delta X   Delta X     New X
                                 (Linear)    (Quad)   (Total)
    R1        2.13901  -0.00000  -0.00002   0.00000  -0.00002   2.13899
    R2        2.13921  -0.00000  -0.00014  -0.00004  -0.00018   2.13903
    R3        2.13906  -0.00001  -0.00003   0.00001  -0.00002   2.13903
    R4        2.13891  -0.00002   0.00011   0.00000   0.00011   2.13902
    A1        1.68543   0.00000   0.00072  -0.00000   0.00074   1.68616
    A2        2.44951   0.00001  -0.00012   0.00005  -0.00002   2.44949
    A3        1.68704  -0.00002  -0.00073  -0.00007  -0.00080   1.68623
    A4        1.68533  -0.00000   0.00069  -0.00002   0.00068   1.68601
    A5        2.44919   0.00003   0.00014   0.00011   0.00023   2.44942
    A6        1.68678  -0.00001  -0.00074  -0.00001  -0.00075   1.68603
    D1        1.89569   0.00001   0.00213  -0.00001   0.00210   1.89780
    D2       -1.89776  -0.00000  -0.00031   0.00004  -0.00029  -1.89805
    D3        2.48815  -0.00000  -0.00056   0.00003  -0.00056   2.48760
    D4       -1.89727  -0.00000  -0.00025  -0.00001  -0.00027  -1.89754
         Item               Value     Threshold  Converged?
 Maximum Force            0.000033     0.000015     NO 
 RMS     Force            0.000012     0.000010     NO 
 Maximum Displacement     0.000774     0.000060     NO 
 RMS     Displacement     0.000426     0.000040     NO 
 GradGradGradGradGradGradGradGradGradGradGradGradGradGradGradGradGradGrad

                    Distance matrix (angstroms):
                    1          2          3          4          5
     1  C    0.000000
     2  H    1.131904   0.000000
     3  H    1.131925   1.690393   0.000000
     4  H    1.131928   2.129631   1.690297   0.000000
     5  H    1.131920   1.690442   2.129616   1.690309   0.000000
 Framework group  C1[X(CH4)]
 Deg. of freedom     9
                         Standard orientation:                         
 ---------------------------------------------------------------------
 Center     Atomic      Atomic             Coordinates (Angstroms)
 Number     Number       Type             X           Y           Z
 ---------------------------------------------------------------------
      1          6           0        0.000017   -0.000017    0.000008
      2          1           0        0.904743   -0.561541    0.383894
      3          1           0        0.561471    0.904738   -0.383973
      4          1           0       -0.904671    0.561556    0.383982
      5          1           0       -0.561643   -0.904649   -0.383949
 ---------------------------------------------------------------------
 Rotational constants (GHZ):         175.5007097         175.4964419         110.5672421
    22 basis functions,    41 primitive gaussians,    23 cartesian basis functions
     5 alpha electrons        4 beta electrons
       nuclear repulsion energy        12.9692965363 Hartrees.
 NAtoms=    5 NActive=    5 NUniq=    5 SFac= 1.00D+00 NAtFMM=   60 NAOKFM=F Big=F
 Nuclear repulsion after empirical dispersion term =       12.9687988917 Hartrees.
   1 Symmetry operations used in ECPInt.
 ECPInt:  NShTT=     105 NPrTT=     431 LenC2=     106 LenP2D=     417.
 LDataN:  DoStor=T MaxTD1= 4 Len=   56
 Initial guess from the checkpoint file:  "0.chk"
 B after Tr=     0.000000   -0.000000   -0.000000
         Rot=    0.996402   -0.000258    0.000131    0.084751 Ang=  -9.72 deg.
 Initial guess <Sx>= 0.0000 <Sy>= 0.0000 <Sz>= 0.5000 <S**2>= 0.7512 S= 0.5006
     Accept linear search using points  1 and  2.
     Minimum is close to point  2 DX= -8.47D-06 DF=  0.00D+00 DXR=  8.47D-06 DFR=  0.00D+00 which will be used.
 SCF Done:  E(UwB97XD) =  -39.9963748552     a.u. after    2 cycles
            Convg  =    0.4295D-07                    11 Fock formations.
              S**2 =  0.7512                  -V/T =  2.0102
 <Sx>= 0.0000 <Sy>= 0.0000 <Sz>= 0.5000 <S**2>= 0.7512 S= 0.5006
 <L.S>=  0.00000000000    
 Annihilation of the first spin contaminant:
 S**2 before annihilation     0.7512,   after     0.7500
   1 Symmetry operations used in ECPInt.
 ECPInt:  NShTT=     105 NPrTT=     431 LenC2=     106 LenP2D=     417.
 LDataN:  DoStor=T MaxTD1= 5 Len=  102
 Calling FoFJK, ICntrl=      2127 FMM=F ISym2X=0 I1Cent= 0 IOpClX= 1 NMat=1 NMatS=1 NMatT=0.

 GradGradGradGradGradGradGradGradGradGradGradGradGradGradGradGradGradGrad
 Using GEDIIS/GDIIS optimizer.
 FormGI is forming the generalized inverse of G from B-inverse, IUseBI=4.
 Internal  Forces:  Max     0.000008046 RMS     0.000002723
 Step number  10 out of a maximum of   24
 All quantities printed in internal units (Hartrees-Bohrs-Radians)
 Mixed Optimization -- En-DIIS/RFO-DIIS
 Swapping is turned off.
 Trust test=-5.67D+00 RLast= 2.68D-03 DXMaxT set to 4.24D-01
 ITU= -1  1  1  1  1  1  1  1  1  0
     Eigenvalues ---    0.00493   0.03105   0.03828   0.11628   0.15826
     Eigenvalues ---    0.32392   0.33422   0.33528   0.39016
 En-DIIS/RFO-DIIS/Sim-DIIS IScMMF=       -3 using points:    10    9    8    7    6    5    4
 RFO step:  Lambda=-6.20286829D-10.
 DIIS inversion failure, remove point   7.
 DIIS inversion failure, remove point   6.
 DIIS inversion failure, remove point   5.
 DIIS inversion failure, remove point   4.
 RFO-DIIS uses    3 points instead of    7
 DidBck=F Rises=F RFO-DIIS coefs:    1.05300   -0.04751   -0.00549    0.00000    0.00000
                  RFO-DIIS coefs:    0.00000    0.00000
 Iteration  1 RMS(Cart)=  0.00003052 RMS(Int)=  0.00000006
 Iteration  2 RMS(Cart)=  0.00000000 RMS(Int)=  0.00000006
 Variable       Old X    -DE/DX   Delta X   Delta X   Delta X     New X
                                 (Linear)    (Quad)   (Total)
    R1        2.13899   0.00000   0.00000   0.00001   0.00001   2.13900
    R2        2.13903  -0.00000  -0.00000  -0.00001  -0.00001   2.13902
    R3        2.13903   0.00000  -0.00000   0.00000   0.00000   2.13904
    R4        2.13902  -0.00000  -0.00000   0.00000  -0.00000   2.13902
    A1        1.68616   0.00000   0.00002  -0.00001   0.00001   1.68617
    A2        2.44949   0.00000  -0.00002   0.00003   0.00001   2.44950
    A3        1.68623  -0.00000  -0.00002  -0.00003  -0.00006   1.68618
    A4        1.68601  -0.00000   0.00002  -0.00001   0.00001   1.68602
    A5        2.44942   0.00001   0.00004   0.00004   0.00008   2.44950
    A6        1.68603  -0.00000  -0.00002   0.00000  -0.00002   1.68601
    D1        1.89780  -0.00000   0.00004  -0.00001   0.00004   1.89784
    D2       -1.89805   0.00000  -0.00002   0.00003   0.00001  -1.89804
    D3        2.48760   0.00000  -0.00004   0.00002  -0.00002   2.48758
    D4       -1.89754  -0.00000  -0.00002  -0.00001  -0.00003  -1.89757
         Item               Value     Threshold  Converged?
 Maximum Force            0.000008     0.000015     YES
 RMS     Force            0.000003     0.000010     YES
 Maximum Displacement     0.000049     0.000060     YES
 RMS     Displacement     0.000031     0.000040     YES
 Optimization completed.
    -- Stationary point found.
                           ----------------------------
                           !   Optimized Parameters   !
                           ! (Angstroms and Degrees)  !
 --------------------------                            --------------------------
 ! Name  Definition              Value          Derivative Info.                !
 --------------------------------------------------------------------------------
 ! R1    R(1,2)                  1.1319         -DE/DX =    0.0                 !
 ! R2    R(1,3)                  1.1319         -DE/DX =    0.0                 !
 ! R3    R(1,4)                  1.1319         -DE/DX =    0.0                 !
 ! R4    R(1,5)                  1.1319         -DE/DX =    0.0                 !
 ! A1    A(2,1,3)               96.61           -DE/DX =    0.0                 !
 ! A2    A(2,1,4)              140.3454         -DE/DX =    0.0                 !
 ! A3    A(2,1,5)               96.614          -DE/DX =    0.0                 !
 ! A4    A(3,1,4)               96.6013         -DE/DX =    0.0                 !
 ! A5    A(3,1,5)              140.3415         -DE/DX =    0.0                 !
 ! A6    A(4,1,5)               96.6026         -DE/DX =    0.0                 !
 ! D1    D(2,1,4,3)            108.7357         -DE/DX =    0.0                 !
 ! D2    D(2,1,5,3)           -108.7503         -DE/DX =    0.0                 !
 ! D3    D(2,1,5,4)            142.5289         -DE/DX =    0.0                 !
 ! D4    D(3,1,5,4)           -108.7209         -DE/DX =    0.0                 !
 --------------------------------------------------------------------------------
 GradGradGradGradGradGradGradGradGradGradGradGradGradGradGradGradGradGrad

                    Distance matrix (angstroms):
                    1          2          3          4          5
     1  C    0.000000
     2  H    1.131904   0.000000
     3  H    1.131925   1.690393   0.000000
     4  H    1.131928   2.129631   1.690297   0.000000
     5  H    1.131920   1.690442   2.129616   1.690309   0.000000
 Framework group  C1[X(CH4)]
 Deg. of freedom     9
                         Standard orientation:                         
 ---------------------------------------------------------------------
 Center     Atomic      Atomic             Coordinates (Angstroms)
 Number     Number       Type             X           Y           Z
 ---------------------------------------------------------------------
      1          6           0        0.000017   -0.000017    0.000008
      2          1           0        0.904743   -0.561541    0.383894
      3          1           0        0.561471    0.904738   -0.383973
      4          1           0       -0.904671    0.561556    0.383982
      5          1           0       -0.561643   -0.904649   -0.383949
 ---------------------------------------------------------------------
 Rotational constants (GHZ):         175.5007097         175.4964419         110.5672421

 **********************************************************************

            Population analysis using the SCF Density.

 **********************************************************************

 Orbital symmetries:
 Alpha Orbitals:
       Occupied  (A) (A) (A) (A) (A)
       Virtual   (A) (A) (A) (A) (A) (A) (A) (A) (A) (A) (A) (A)
                 (A) (A) (A) (A) (A)
 Beta  Orbitals:
       Occupied  (A) (A) (A) (A)
       Virtual   (A) (A) (A) (A) (A) (A) (A) (A) (A) (A) (A) (A)
                 (A) (A) (A) (A) (A) (A)
 The electronic state is 2-A.
 Alpha  occ. eigenvalues --  -10.66741  -1.15799  -0.87432  -0.87431  -0.75712
 Alpha virt. eigenvalues --   -0.16946  -0.11377  -0.03424  -0.03424   0.19303
 Alpha virt. eigenvalues --    0.32240   0.32242   0.37122   0.38855   0.41988
 Alpha virt. eigenvalues --    0.47421   0.47421   1.33117   1.57337   1.64878
 Alpha virt. eigenvalues --    1.64881   1.93128
  Beta  occ. eigenvalues --  -10.65907  -1.11112  -0.84826  -0.84825
  Beta virt. eigenvalues --   -0.44964  -0.13850  -0.09972  -0.02396  -0.02396
  Beta virt. eigenvalues --    0.21280   0.33769   0.33772   0.39513   0.43242
  Beta virt. eigenvalues --    0.44166   0.49198   0.49199   1.34268   1.65175
  Beta virt. eigenvalues --    1.70084   1.70087   1.94557
          Condensed to atoms (all electrons):
          Atomic-Atomic Spin Densities.
 Mulliken charges and spin densities:
               1          2
     1  C   -0.470505   0.677639
     2  H    0.367620   0.080557
     3  H    0.367627   0.080601
     4  H    0.367635   0.080619
     5  H    0.367623   0.080584
 Sum of Mulliken charges =   1.00000   1.00000
 Mulliken charges and spin densities with hydrogens summed into heavy atoms:
               1          2
     1  C    1.000000   1.000000
 Electronic spatial extent (au):  <R**2>=             28.6017
 Charge=              1.0000 electrons
 Dipole moment (field-independent basis, Debye):
    X=             -0.0003    Y=              0.0003    Z=             -0.0000  Tot=              0.0004
                          Isotropic Fermi Contact Couplings
        Atom                 a.u.       MegaHertz       Gauss      10(-4) cm-1
     1  C(13)              0.07959      89.47649      31.92744      29.84614
     2  H(1)               0.04177     186.71121      66.62320      62.28016
     3  H(1)               0.04179     186.80421      66.65639      62.31118
     4  H(1)               0.04180     186.84295      66.67021      62.32410
     5  H(1)               0.04178     186.77032      66.64430      62.29987
 --------------------------------------------------------
       Center         ----  Spin Dipole Couplings  ----
                      3XX-RR        3YY-RR        3ZZ-RR
 --------------------------------------------------------
     1   Atom       -0.453843     -0.453846      0.907689
     2   Atom        0.055845     -0.013334     -0.042511
     3   Atom       -0.013342      0.055858     -0.042516
     4   Atom        0.055844     -0.013325     -0.042519
     5   Atom       -0.013312      0.055826     -0.042514
 --------------------------------------------------------
                        XY            XZ            YZ
 --------------------------------------------------------
     1   Atom       -0.000002     -0.000002      0.000002
     2   Atom       -0.069839     -0.004663      0.002893
     3   Atom        0.069839      0.002886      0.004654
     4   Atom       -0.069849      0.004655     -0.002890
     5   Atom        0.069852     -0.002891     -0.004654
 --------------------------------------------------------


 ---------------------------------------------------------------------------------
              Anisotropic Spin Dipole Couplings in Principal Axis System
 ---------------------------------------------------------------------------------

       Atom             a.u.   MegaHertz   Gauss  10(-4) cm-1        Axes

              Baa    -0.4538   -60.902   -21.731   -20.315  0.4035  0.9150 -0.0000
     1 C(13)  Bbb    -0.4538   -60.901   -21.731   -20.314  0.9150 -0.4035  0.0000
              Bcc     0.9077   121.803    43.462    40.629 -0.0000  0.0000  1.0000
 
              Baa    -0.0567   -30.242   -10.791   -10.088  0.5273  0.8497  0.0000
     2 H(1)   Bbb    -0.0427   -22.795    -8.134    -7.604  0.0328 -0.0204  0.9993
              Bcc     0.0994    53.037    18.925    17.691  0.8490 -0.5269 -0.0386
 
              Baa    -0.0567   -30.243   -10.791   -10.088  0.8497 -0.5273  0.0001
     3 H(1)   Bbb    -0.0427   -22.797    -8.135    -7.604 -0.0204 -0.0327  0.9993
              Bcc     0.0994    53.040    18.926    17.692  0.5269  0.8491  0.0386
 
              Baa    -0.0567   -30.243   -10.792   -10.088  0.5274  0.8496  0.0000
     4 H(1)   Bbb    -0.0427   -22.799    -8.135    -7.605 -0.0328  0.0203  0.9993
              Bcc     0.0994    53.042    18.927    17.693  0.8490 -0.5270  0.0386
 
              Baa    -0.0567   -30.242   -10.791   -10.088  0.8496 -0.5275  0.0001
     5 H(1)   Bbb    -0.0427   -22.796    -8.134    -7.604  0.0202  0.0328  0.9993
              Bcc     0.0994    53.038    18.925    17.692  0.5271  0.8489 -0.0386
 

 ---------------------------------------------------------------------------------

 1\1\GINC-C261\FOpt\UwB97XD\def2SVPP\C1H4(1+,2)\PETERCHAO1\10-Jul-2023\
 0\\#T wB97XD/def2svpp opt=tight freq int(grid=ultrafine) scf=(verytigh
 t,qc)\\comment\\1,2\C,-0.0000018296,-0.0000494628,0.0000062485\H,-0.24
 7823648,-1.0841469312,0.2110130728\H,-0.8114560158,0.4479437599,0.6496
 971554\H,-0.0652808157,0.7624481027,-0.8340185479\H,1.1245503091,-0.12
 61924686,-0.0266989287\\Version=ES64L-G16RevB.01\State=2-A\HF=-39.9963
 749\S2=0.751228\S2-1=0.\S2A=0.750001\RMSD=3.428e-09\RMSF=2.873e-06\Dip
 ole=-0.0000143,0.0001464,-0.0000456\Quadrupole=0.2829915,0.2673768,-0.
 5503683,-0.2891273,-0.5601931,-0.575552\PG=C01 [X(C1H4)]\\@


 A FOOL CAN ASK MORE QUESTIONS THAN
 A WISE MAN CAN ANSWER.
 Job cpu time:       0 days  0 hours  2 minutes 33.8 seconds.
 Elapsed time:       0 days  0 hours  0 minutes 44.5 seconds.
 File lengths (MBytes):  RWF=      6 Int=      0 D2E=      0 Chk=      1 Scr=      1
 Normal termination of Gaussian 16 at Mon Jul 10 19:18:33 2023.
 Link1:  Proceeding to internal job step number  2.
 ---------------------------------------------------------------------
 #T Geom=AllCheck Guess=TCheck SCRF=Check GenChk UwB97XD/def2SVPP Freq
 ---------------------------------------------------------------------
 Structure from the checkpoint file:  "0.chk"
 -------
 comment
 -------
 Charge =  1 Multiplicity = 2
 Redundant internal coordinates found in file.  (old form).
 C,0,-0.0000018296,-0.0000494628,0.0000062485
 H,0,-0.247823648,-1.0841469312,0.2110130728
 H,0,-0.8114560158,0.4479437599,0.6496971554
 H,0,-0.0652808157,0.7624481027,-0.8340185479
 H,0,1.1245503091,-0.1261924686,-0.0266989287
 Recover connectivity data from disk.

 GradGradGradGradGradGradGradGradGradGradGradGradGradGradGradGradGradGrad
 Initialization pass.
                           ----------------------------
                           !    Initial Parameters    !
                           ! (Angstroms and Degrees)  !
 --------------------------                            --------------------------
 ! Name  Definition              Value          Derivative Info.                !
 --------------------------------------------------------------------------------
 ! R1    R(1,2)                  1.1319         calculate D2E/DX2 analytically  !
 ! R2    R(1,3)                  1.1319         calculate D2E/DX2 analytically  !
 ! R3    R(1,4)                  1.1319         calculate D2E/DX2 analytically  !
 ! R4    R(1,5)                  1.1319         calculate D2E/DX2 analytically  !
 ! A1    A(2,1,3)               96.61           calculate D2E/DX2 analytically  !
 ! A2    A(2,1,4)              140.3454         calculate D2E/DX2 analytically  !
 ! A3    A(2,1,5)               96.614          calculate D2E/DX2 analytically  !
 ! A4    A(3,1,4)               96.6013         calculate D2E/DX2 analytically  !
 ! A5    A(3,1,5)              140.3415         calculate D2E/DX2 analytically  !
 ! A6    A(4,1,5)               96.6026         calculate D2E/DX2 analytically  !
 ! D1    D(2,1,4,3)            108.7357         calculate D2E/DX2 analytically  !
 ! D2    D(2,1,5,3)           -108.7503         calculate D2E/DX2 analytically  !
 ! D3    D(2,1,5,4)            142.5289         calculate D2E/DX2 analytically  !
 ! D4    D(3,1,5,4)           -108.7209         calculate D2E/DX2 analytically  !
 --------------------------------------------------------------------------------
 Number of steps in this run=      2 maximum allowed number of steps=      2.
 GradGradGradGradGradGradGradGradGradGradGradGradGradGradGradGradGradGrad

                    Distance matrix (angstroms):
                    1          2          3          4          5
[...]
 End of G2Drv F.D. properties file   721 does not exist.
 End of G2Drv F.D. properties file   722 does not exist.
 End of G2Drv F.D. properties file   788 does not exist.
          IDoAtm=11111
 End of Minotr F.D. properties file   721 does not exist.
 End of Minotr F.D. properties file   722 does not exist.
 End of Minotr F.D. properties file   788 does not exist.

 **********************************************************************

            Population analysis using the SCF Density.

 **********************************************************************

 Orbital symmetries:
 Alpha Orbitals:
       Occupied  (A) (A) (A) (A) (A)
       Virtual   (A) (A) (A) (A) (A) (A) (A) (A) (A) (A) (A) (A)
                 (A) (A) (A) (A) (A)
 Beta  Orbitals:
       Occupied  (A) (A) (A) (A)
       Virtual   (A) (A) (A) (A) (A) (A) (A) (A) (A) (A) (A) (A)
                 (A) (A) (A) (A) (A) (A)
 The electronic state is 2-A.
 Alpha  occ. eigenvalues --  -10.66741  -1.15799  -0.87432  -0.87431  -0.75712
 Alpha virt. eigenvalues --   -0.16946  -0.11377  -0.03424  -0.03424   0.19303
 Alpha virt. eigenvalues --    0.32240   0.32242   0.37122   0.38855   0.41988
 Alpha virt. eigenvalues --    0.47421   0.47421   1.33117   1.57337   1.64878
 Alpha virt. eigenvalues --    1.64881   1.93128
  Beta  occ. eigenvalues --  -10.65907  -1.11112  -0.84826  -0.84825
  Beta virt. eigenvalues --   -0.44964  -0.13850  -0.09972  -0.02396  -0.02396
  Beta virt. eigenvalues --    0.21280   0.33769   0.33772   0.39513   0.43242
  Beta virt. eigenvalues --    0.44166   0.49198   0.49199   1.34268   1.65175
  Beta virt. eigenvalues --    1.70084   1.70087   1.94557
          Condensed to atoms (all electrons):
          Atomic-Atomic Spin Densities.
 Mulliken charges and spin densities:
               1          2
     1  C   -0.470505   0.677639
     2  H    0.367620   0.080557
     3  H    0.367627   0.080601
     4  H    0.367635   0.080619
     5  H    0.367623   0.080584
 Sum of Mulliken charges =   1.00000   1.00000
 Mulliken charges and spin densities with hydrogens summed into heavy atoms:
               1          2
     1  C    1.000000   1.000000
 APT charges:
               1
     1  C   -0.562961
     2  H    0.390721
     3  H    0.390743
     4  H    0.390765
     5  H    0.390732
 Sum of APT charges =   1.00000
 APT charges with hydrogens summed into heavy atoms:
               1
     1  C    1.000000
 Electronic spatial extent (au):  <R**2>=             28.6017
 Charge=              1.0000 electrons
 Dipole moment (field-independent basis, Debye):
    X=             -0.0003    Y=              0.0003    Z=             -0.0000  Tot=              0.0004
  Exact polarizability:  12.197   0.000  12.197  -0.000   0.000   7.226
 Approx polarizability:  11.885   0.000  11.885  -0.000   0.000   6.939
                          Isotropic Fermi Contact Couplings
        Atom                 a.u.       MegaHertz       Gauss      10(-4) cm-1
     1  C(13)              0.07959      89.47649      31.92744      29.84614
     2  H(1)               0.04177     186.71121      66.62320      62.28016
     3  H(1)               0.04179     186.80421      66.65639      62.31118
     4  H(1)               0.04180     186.84295      66.67021      62.32410
     5  H(1)               0.04178     186.77032      66.64430      62.29987
 --------------------------------------------------------
       Center         ----  Spin Dipole Couplings  ----
                      3XX-RR        3YY-RR        3ZZ-RR
 --------------------------------------------------------
     1   Atom       -0.453843     -0.453846      0.907689
     2   Atom        0.055845     -0.013334     -0.042511
     3   Atom       -0.013342      0.055858     -0.042516
     4   Atom        0.055844     -0.013325     -0.042519
     5   Atom       -0.013312      0.055826     -0.042514
 --------------------------------------------------------
                        XY            XZ            YZ
 --------------------------------------------------------
     1   Atom       -0.000002     -0.000002      0.000002
     2   Atom       -0.069839     -0.004663      0.002893
     3   Atom        0.069839      0.002886      0.004654
     4   Atom       -0.069849      0.004655     -0.002890
     5   Atom        0.069852     -0.002891     -0.004654
 --------------------------------------------------------


 ---------------------------------------------------------------------------------
              Anisotropic Spin Dipole Couplings in Principal Axis System
 ---------------------------------------------------------------------------------

       Atom             a.u.   MegaHertz   Gauss  10(-4) cm-1        Axes

              Baa    -0.4538   -60.902   -21.731   -20.315  0.4035  0.9150 -0.0000
     1 C(13)  Bbb    -0.4538   -60.901   -21.731   -20.314  0.9150 -0.4035  0.0000
              Bcc     0.9077   121.803    43.462    40.629 -0.0000  0.0000  1.0000
 
              Baa    -0.0567   -30.242   -10.791   -10.088  0.5273  0.8497  0.0000
     2 H(1)   Bbb    -0.0427   -22.795    -8.134    -7.604  0.0328 -0.0204  0.9993
              Bcc     0.0994    53.037    18.925    17.691  0.8490 -0.5269 -0.0386
 
              Baa    -0.0567   -30.243   -10.791   -10.088  0.8497 -0.5273  0.0001
     3 H(1)   Bbb    -0.0427   -22.797    -8.135    -7.604 -0.0204 -0.0327  0.9993
              Bcc     0.0994    53.040    18.926    17.692  0.5269  0.8491  0.0386
 
              Baa    -0.0567   -30.243   -10.792   -10.088  0.5274  0.8496  0.0000
     4 H(1)   Bbb    -0.0427   -22.799    -8.135    -7.605 -0.0328  0.0203  0.9993
              Bcc     0.0994    53.042    18.927    17.693  0.8490 -0.5270  0.0386
 
              Baa    -0.0567   -30.242   -10.791   -10.088  0.8496 -0.5275  0.0001
     5 H(1)   Bbb    -0.0427   -22.796    -8.134    -7.604  0.0202  0.0328  0.9993
              Bcc     0.0994    53.038    18.925    17.692  0.5271  0.8489 -0.0386
 

 ---------------------------------------------------------------------------------

   1 Symmetry operations used in ECPInt.
 ECPInt:  NShTT=     105 NPrTT=     431 LenC2=     106 LenP2D=     417.
 LDataN:  DoStor=T MaxTD1= 6 Len=  172
 Calling FoFJK, ICntrl=    100127 FMM=F ISym2X=0 I1Cent= 0 IOpClX= 1 NMat=1 NMatS=1 NMatT=0.
 Full mass-weighted force constant matrix:
 Low frequencies ---  -34.0374  -33.6090  -23.8311    0.0003    0.0010    0.0013
 Low frequencies ---  473.2146  473.3277 1080.4053
 Diagonal vibrational polarizability:
       52.5885813      52.5844670       2.6372590
 Harmonic frequencies (cm**-1), IR intensities (KM/Mole), Raman scattering
 activities (A**4/AMU), depolarization ratios for plane and unpolarized
 incident light, reduced masses (AMU), force constants (mDyne/A),
 and normal coordinates:
                      1                      2                      3
                      A                      A                      A
 Frequencies --    473.2057               473.3186              1080.4053
 Red. masses --      1.1671                 1.1671                 1.2581
 Frc consts  --      0.1540                 0.1541                 0.8653
 IR Inten    --    427.0073               426.9836                92.4248
  Atom  AN      X      Y      Z        X      Y      Z        X      Y      Z
     1   6    -0.09  -0.08   0.00    -0.08   0.09   0.00     0.00  -0.00   0.15
     2   1     0.35   0.53  -0.06    -0.05  -0.18  -0.21     0.18  -0.11  -0.45
     3   1     0.18  -0.05   0.21     0.53  -0.35  -0.06    -0.11  -0.18  -0.45
     4   1     0.35   0.53   0.06    -0.05  -0.18   0.21    -0.18   0.11  -0.45
     5   1     0.18  -0.05  -0.21     0.53  -0.35   0.06     0.11   0.18  -0.45
                      4                      5                      6
                      A                      A                      A
 Frequencies --   1303.5772              1431.7968              2757.1045
 Red. masses --      1.0078                 1.0078                 1.0405
 Frc consts  --      1.0090                 1.2173                 4.6601
 IR Inten    --      0.0000                 0.0000               143.0522
  Atom  AN      X      Y      Z        X      Y      Z        X      Y      Z
     1   6     0.00  -0.00  -0.00    -0.00  -0.00  -0.00    -0.00   0.00   0.05
     2   1     0.13  -0.08  -0.48     0.26   0.42   0.00    -0.40   0.25  -0.16
     3   1     0.08   0.13   0.48     0.42  -0.26   0.00     0.25   0.40  -0.16
     4   1    -0.13   0.08  -0.48    -0.26  -0.42   0.00     0.40  -0.25  -0.16
     5   1    -0.08  -0.13   0.48    -0.42   0.26   0.00    -0.25  -0.40  -0.16
                      7                      8                      9
                      A                      A                      A
 Frequencies --   2813.5044              2899.8833              2899.9512
 Red. masses --      1.0078                 1.1122                 1.1122
 Frc consts  --      4.7004                 5.5107                 5.5110
 IR Inten    --      0.0003               400.7022               400.7313
  Atom  AN      X      Y      Z        X      Y      Z        X      Y      Z
     1   6    -0.00   0.00   0.00    -0.05  -0.09  -0.00    -0.09   0.05  -0.00
     2   1    -0.40   0.25  -0.15    -0.06  -0.04  -0.01     0.55  -0.35   0.26
     3   1    -0.25  -0.40   0.15     0.35   0.55  -0.26    -0.04   0.06  -0.01
     4   1     0.41  -0.25  -0.15    -0.06  -0.04   0.01     0.55  -0.34  -0.26
     5   1     0.25   0.40   0.15     0.35   0.55   0.26    -0.04   0.06   0.01
 
 Temperature   298.150 Kelvin.  Pressure   1.00000 Atm.
 Zero-point correction=                           0.036753 (Hartree/Particle)
 Thermal correction to Energy=                    0.040119
 Thermal correction to Enthalpy=                  0.041064
 Thermal correction to Gibbs Free Energy=         0.016160
 Sum of electronic and zero-point Energies=            -39.959622
 Sum of electronic and thermal Energies=               -39.956255
 Sum of electronic and thermal Enthalpies=             -39.955311
 Sum of electronic and thermal Free Energies=          -39.980215
 FormGI is forming the generalized inverse of G from B-inverse, IUseBI=4.

 GradGradGradGradGradGradGradGradGradGradGradGradGradGradGradGradGradGrad
 Internal  Forces:  Max     0.000008046 RMS     0.000002723
 Step number   1 out of a maximum of    2
 All quantities printed in internal units (Hartrees-Bohrs-Radians)
 Second derivative matrix not updated -- analytic derivatives used.
 ITU=  0
     Eigenvalues ---    0.00299   0.00485   0.03695   0.09804   0.10827
     Eigenvalues ---    0.28047   0.28619   0.28745   0.30219
 Angle between quadratic step and forces=  70.60 degrees.
 Linear search not attempted -- first point.
 Iteration  1 RMS(Cart)=  0.00005798 RMS(Int)=  0.00000001
 Iteration  2 RMS(Cart)=  0.00000001 RMS(Int)=  0.00000001
 Variable       Old X    -DE/DX   Delta X   Delta X   Delta X     New X
                                 (Linear)    (Quad)   (Total)
    R1        2.13899   0.00000   0.00000   0.00003   0.00003   2.13902
    R2        2.13903  -0.00000   0.00000  -0.00001  -0.00001   2.13902
    R3        2.13903   0.00000   0.00000  -0.00002  -0.00002   2.13902
    R4        2.13902  -0.00000   0.00000  -0.00000  -0.00000   2.13902
    A1        1.68616   0.00000   0.00000  -0.00007  -0.00007   1.68609
    A2        2.44949   0.00000   0.00000   0.00001   0.00001   2.44950
    A3        1.68623  -0.00000   0.00000  -0.00014  -0.00014   1.68609
    A4        1.68601  -0.00000   0.00000   0.00009   0.00009   1.68610
    A5        2.44942   0.00001   0.00000   0.00008   0.00008   2.44950
    A6        1.68603  -0.00000   0.00000   0.00006   0.00006   1.68610
    D1        1.89780  -0.00000   0.00000   0.00001   0.00001   1.89780
    D2       -1.89805   0.00000   0.00000   0.00025   0.00025  -1.89780
    D3        2.48760   0.00000   0.00000  -0.00001  -0.00001   2.48758
    D4       -1.89754  -0.00000   0.00000  -0.00027  -0.00027  -1.89780
         Item               Value     Threshold  Converged?
 Maximum Force            0.000008     0.000015     YES
 RMS     Force            0.000003     0.000010     YES
 Maximum Displacement     0.000121     0.000060     NO 
 RMS     Displacement     0.000058     0.000040     NO 
                           ----------------------------
                           ! Non-Optimized Parameters !
                           ! (Angstroms and Degrees)  !
 --------------------------                            --------------------------
 ! Name  Definition              Value          Derivative Info.                !
 --------------------------------------------------------------------------------
 ! R1    R(1,2)                  1.1319         -DE/DX =    0.0                 !
 ! R2    R(1,3)                  1.1319         -DE/DX =    0.0                 !
 ! R3    R(1,4)                  1.1319         -DE/DX =    0.0                 !
 ! R4    R(1,5)                  1.1319         -DE/DX =    0.0                 !
 ! A1    A(2,1,3)               96.6061         -DE/DX =    0.0                 !
 ! A2    A(2,1,4)              140.346          -DE/DX =    0.0                 !
 ! A3    A(2,1,5)               96.6061         -DE/DX =    0.0                 !
 ! A4    A(3,1,4)               96.6062         -DE/DX =    0.0                 !
 ! A5    A(3,1,5)              140.346          -DE/DX =    0.0                 !
 ! A6    A(4,1,5)               96.6062         -DE/DX =    0.0                 !
 ! D1    D(2,1,4,3)            108.736          -DE/DX =    0.0                 !
 ! D2    D(2,1,5,3)           -108.7358         -DE/DX =    0.0                 !
 ! D3    D(2,1,5,4)            142.528          -DE/DX =    0.0                 !
 ! D4    D(3,1,5,4)           -108.7361         -DE/DX =    0.0                 !
 --------------------------------------------------------------------------------
 GradGradGradGradGradGradGradGradGradGradGradGradGradGradGradGradGradGrad


 ----------------------------------------------------------------------

 Electric dipole moment (input orientation):
 (Debye = 10**-18 statcoulomb cm , SI units = C m)
                  (au)            (Debye)         (10**-30 SI)
   Tot        0.153968D-03      0.391349D-03      0.130540D-02
   x         -0.142568D-04     -0.362371D-04     -0.120874D-03
   y          0.146362D-03      0.372014D-03      0.124091D-02
   z         -0.456214D-04     -0.115958D-03     -0.386794D-03

 Dipole polarizability, Alpha (input orientation).
 (esu units = cm**3 , SI units = C**2 m**2 J**-1)
 Alpha(0;0):
               (au)            (10**-24 esu)      (10**-40 SI)
   iso        0.105402D+02      0.156189D+01      0.173784D+01
   aniso      0.497100D+01      0.736626D+00      0.819607D+00
   xx         0.113710D+02      0.168501D+01      0.187482D+01
   yx        -0.848805D+00     -0.125780D+00     -0.139949D+00
   yy         0.113249D+02      0.167818D+01      0.186722D+01
   zx        -0.164445D+01     -0.243682D+00     -0.271133D+00
   zy        -0.168943D+01     -0.250347D+00     -0.278549D+00
   zz         0.892458D+01      0.132249D+01      0.147146D+01

 ----------------------------------------------------------------------

 Dipole orientation:
     6         -0.00001087          0.00001732         -0.00009203
     1         -0.64125659          0.27334321         -2.02231102
     1         -1.57949350         -1.31938757          0.58287178
     1          0.12122312          1.07012769          1.84805111
     1          2.09951587         -0.02409903         -0.40851180

 Electric dipole moment (dipole orientation):
 (Debye = 10**-18 statcoulomb cm , SI units = C m)
                  (au)            (Debye)         (10**-30 SI)
   Tot        0.153968D-03      0.391349D-03      0.130540D-02
   x          0.000000D+00      0.000000D+00      0.000000D+00
   y          0.000000D+00      0.000000D+00      0.000000D+00
   z          0.153968D-03      0.391349D-03      0.130540D-02

 Dipole polarizability, Alpha (dipole orientation).
 (esu units = cm**3 , SI units = C**2 m**2 J**-1)
 Alpha(0;0):
               (au)            (10**-24 esu)      (10**-40 SI)
   iso        0.105402D+02      0.156189D+01      0.173784D+01
   aniso      0.497100D+01      0.736626D+00      0.819607D+00
   xx         0.115591D+02      0.171287D+01      0.190583D+01
   yx         0.164913D+01      0.244376D+00      0.271905D+00
   yy         0.793596D+01      0.117599D+01      0.130846D+01
   zx        -0.213662D+00     -0.316615D-01     -0.352282D-01
   zy         0.552337D+00      0.818478D-01      0.910680D-01
   zz         0.121254D+02      0.179681D+01      0.199922D+01

 ----------------------------------------------------------------------
 1\1\GINC-C261\Freq\UwB97XD\def2SVPP\C1H4(1+,2)\PETERCHAO1\10-Jul-2023\
 0\\#T Geom=AllCheck Guess=TCheck SCRF=Check GenChk UwB97XD/def2SVPP Fr
 eq\\comment\\1,2\C,-0.0000018296,-0.0000494628,0.0000062485\H,-0.24782
 3648,-1.0841469312,0.2110130728\H,-0.8114560158,0.4479437599,0.6496971
 554\H,-0.0652808157,0.7624481027,-0.8340185479\H,1.1245503091,-0.12619
 24686,-0.0266989287\\Version=ES64L-G16RevB.01\State=2-A\HF=-39.9963749
 \S2=0.751228\S2-1=0.\S2A=0.750001\RMSD=3.428e-09\RMSF=2.873e-06\ZeroPo
 int=0.0367531\Thermal=0.0401195\Dipole=-0.0000143,0.0001464,-0.0000456
 \DipoleDeriv=-0.705528,0.1451301,0.2825105,0.146251,-0.6976351,0.28968
 28,0.2819355,0.2902545,-0.2857194,0.4053404,-0.0136895,-0.0589239,0.01
 74622,0.498414,-0.0077754,-0.0853918,-0.0978643,0.2684072,0.3989111,-0
 .0902765,-0.1652486,-0.0420911,0.4191409,-0.0265397,-0.0792927,-0.0351
 287,0.3541778,0.3953404,-0.0384846,-0.0666865,-0.0701999,0.3935623,-0.
 1695994,-0.0399287,-0.0798034,0.3833928,0.5059361,-0.0026795,0.0083485
 ,-0.0514222,0.3865179,-0.0857684,-0.0773223,-0.0774581,0.2797416\Polar
 =11.3709791,-0.8488053,11.3248942,-1.6444486,-1.6894279,8.9245775\Quad
 rupole=0.2829915,0.2673768,-0.5503683,-0.2891273,-0.5601931,-0.575552\
 PG=C01 [X(C1H4)]\NImag=0\\0.37774439,-0.02952972,0.37619746,-0.0572531
 9,-0.05881897,0.29252299,-0.00314705,-0.06311869,-0.00286099,0.0371735
 3,-0.05915885,-0.23182478,0.04142503,0.05564016,0.26624132,-0.00623314
 ,0.03006226,-0.02668310,-0.01020121,-0.04609192,0.03409186,-0.13264061
 ,0.06348058,0.08616240,-0.00822598,0.00419278,-0.00339216,0.15930036,0
 .06959123,-0.03160641,-0.07299805,0.01659786,-0.02044884,-0.00793154,-
 0.07443080,0.06584596,0.09699912,-0.07407869,-0.09735716,-0.00078457,0
 .00370915,-0.00441912,-0.10797615,0.06053080,0.11232149,0.00794283,0.0
 0244386,-0.02687764,-0.00963855,0.00127903,0.01384397,-0.01181060,-0.0
 0952935,0.01429354,0.02534874,-0.00151270,-0.11690612,0.10882020,0.009
 90800,-0.00660169,0.02140404,-0.00435088,-0.00467701,-0.00225164,-0.01
 015165,0.14351509,-0.02350507,0.12017110,-0.15262160,0.00650716,-0.003
 31271,0.00657371,0.00416071,0.01065033,-0.01661486,0.01184577,-0.13019
 372,0.16859052,-0.24989956,0.02672396,0.00082942,-0.01616195,-0.001953
 11,0.00598254,-0.00662317,-0.00222895,-0.00253195,-0.01184243,0.006107
 23,0.00099144,0.28452711,0.02061003,0.00413985,-0.01842821,-0.01902733
 ,-0.00736601,0.00255715,0.01110832,-0.00911370,0.01209037,0.01595812,-
 0.01533027,0.00268500,-0.02864914,0.02767012,-0.01000772,-0.01733570,-
 0.01586113,0.00733961,0.00427044,-0.00956335,0.02104520,0.00974846,0.0
 0606966,-0.01310564,0.00222112,-0.00592777,-0.00527144,0.00109569,0.02
 528259\\-0.00000257,-0.00000649,-0.00000344,-0.00000178,0.00000278,-0.
 00000208,0.00000239,0.00000195,0.00000302,0.00000038,-0.00000203,-0.00
 000036,0.00000159,0.00000379,0.00000286\\\@


 GOD DOES NOT PLAY WITH DICE.
               -- A. EINSTEIN
 Job cpu time:       0 days  0 hours  0 minutes 35.3 seconds.
 Elapsed time:       0 days  0 hours  0 minutes 14.6 seconds.
 File lengths (MBytes):  RWF=      6 Int=      0 D2E=      0 Chk=      1 Scr=      1
 Normal termination of Gaussian 16 at Mon Jul 10 19:18:58 2023.
real 85.60
user 181.03
sys 8.17
