 Entering Gaussian System, Link 0=g16
 Input=gaussian_test.inp
 Output=gaussian_test.log
 Initial command:
 /sw/restricted/lms/sw/Gaussian/g16_B01/g16/l1.exe "/scratch/user/peterchao1/peterchao1/6215057_1662005229000000514088656/Gau-112011.inp" -scrdir="/scratch/user/peterchao1/peterchao1/6215057_1662005229000000514088656/"
 Entering Link 1 = /sw/restricted/lms/sw/Gaussian/g16_B01/g16/l1.exe PID=    112012.
  
 Copyright (c) 1988-2017, Gaussian, Inc.  All Rights Reserved.
  
 This is part of the Gaussian(R) 16 program.  It is based on
 the Gaussian(R) 09 system (copyright 2009, Gaussian, Inc.),
 the Gaussian(R) 03 system (copyright 2003, Gaussian, Inc.),
 the Gaussian(R) 98 system (copyright 1998, Gaussian, Inc.),
 the Gaussian(R) 94 system (copyright 1995, Gaussian, Inc.),
 the Gaussian 92(TM) system (copyright 1992, Gaussian, Inc.),
 the Gaussian 90(TM) system (copyright 1990, Gaussian, Inc.),
 the Gaussian 88(TM) system (copyright 1988, Gaussian, Inc.),
 the Gaussian 86(TM) system (copyright 1986, Carnegie Mellon
 University), and the Gaussian 82(TM) system (copyright 1983,
 Carnegie Mellon University). Gaussian is a federally registered
 trademark of Gaussian, Inc.
  
 This software contains proprietary and confidential information,
 including trade secrets, belonging to Gaussian, Inc.
  
 This software is provided under written license and may be
 used, copied, transmitted, or stored only in accord with that
 written license.
  
 The following legend is applicable only to US Government
 contracts under FAR:
  
                    RESTRICTED RIGHTS LEGEND
  
 Use, reproduction and disclosure by the US Government is
 subject to restrictions as set forth in subparagraphs (a)
 and (c) of the Commercial Computer Software - Restricted
 Rights clause in FAR 52.227-19.
  
 Gaussian, Inc.
 340 Quinnipiac St., Bldg. 40, Wallingford CT 06492
  
  
 ---------------------------------------------------------------
 Warning -- This program may not be used in any manner that
 competes with the business of Gaussian, Inc. or will provide
 assistance to any competitor of Gaussian, Inc.  The licensee
 of this program is prohibited from giving any competitor of
 Gaussian, Inc. access to this program.  By using this program,
 the user acknowledges that Gaussian, Inc. is engaged in the
 business of creating and licensing software in the field of
 computational chemistry and represents and warrants to the
 licensee that it is not a competitor of Gaussian, Inc. and that
 it will not use this program in any manner prohibited above.
 ---------------------------------------------------------------
  

 Cite this work as:
 Gaussian 16, Revision B.01,
 M. J. Frisch, G. W. Trucks, H. B. Schlegel, G. E. Scuseria, 
 M. A. Robb, J. R. Cheeseman, G. Scalmani, V. Barone, 
 G. A. Petersson, H. Nakatsuji, X. Li, M. Caricato, A. V. Marenich, 
 J. Bloino, B. G. Janesko, R. Gomperts, B. Mennucci, H. P. Hratchian, 
 J. V. Ortiz, A. F. Izmaylov, J. L. Sonnenberg, D. Williams-Young, 
 F. Ding, F. Lipparini, F. Egidi, J. Goings, B. Peng, A. Petrone, 
 T. Henderson, D. Ranasinghe, V. G. Zakrzewski, J. Gao, N. Rega, 
 G. Zheng, W. Liang, M. Hada, M. Ehara, K. Toyota, R. Fukuda, 
 J. Hasegawa, M. Ishida, T. Nakajima, Y. Honda, O. Kitao, H. Nakai, 
 T. Vreven, K. Throssell, J. A. Montgomery, Jr., J. E. Peralta, 
 F. Ogliaro, M. J. Bearpark, J. J. Heyd, E. N. Brothers, K. N. Kudin, 
 V. N. Staroverov, T. A. Keith, R. Kobayashi, J. Normand, 
 K. Raghavachari, A. P. Rendell, J. C. Burant, S. S. Iyengar, 
 J. Tomasi, M. Cossi, J. M. Millam, M. Klene, C. Adamo, R. Cammi, 
 J. W. Ochterski, R. L. Martin, K. Morokuma, O. Farkas, 
 J. B. Foresman, and D. J. Fox, Gaussian, Inc., Wallingford CT, 2016.
 
 ******************************************
 Gaussian 16:  ES64L-G16RevB.01 20-Dec-2017
                31-Aug-2022 
 ******************************************
 %nprocshared=4
 Will use up to    4 processors via shared memory.
 %mem=8000mb
 ----------------------------------------------------------------------
 #T wB97XD/def2svpp opt=tight freq int(grid=ultrafine) scf=(verytight,q
 c)
 ----------------------------------------------------------------------
 -----
 dimer
 -----
 Symbolic Z-matrix:
 Charge =  0 Multiplicity = 1
 C                     4.11482   1.59306  -0.19407 
 C                     3.06791   0.48832  -0.05101 
 C                     1.92601   1.0078    0.84271 
 O                     0.91964   0.06207   1.10361 
 C                     2.55544   0.11208  -1.46119 
 O                     1.68189  -0.98928  -1.49068 
 C                     3.72299  -0.74571   0.60341 
 O                     2.83066  -1.81961   0.79242 
 H                     4.50349   1.87846   0.78055 
 H                     3.67676   2.47192  -0.66098 
 H                     4.94503   1.25394  -0.80887 
 H                     1.43428   1.8582    0.36011 
 H                     2.36075   1.35752   1.79219 
 H                     1.36832  -0.77763   1.31548 
 H                     3.41659  -0.17056  -2.07719 
 H                     2.08484   0.99213  -1.916 
 H                     0.79162  -0.68714  -1.22918 
 H                     4.10354  -0.485     1.59608 
 H                     4.57347  -1.06681  -0.01522 
 H                     2.41429  -1.97689  -0.07797 
 C                    -4.11065  -1.59661   0.19635 
 C                    -3.06649  -0.48945   0.05177 
 C                    -1.92393  -1.00683  -0.84231 
 O                    -0.92028  -0.05874  -1.10519 
 C                    -3.72502   0.74253  -0.60306 
 O                    -2.83552   1.81859  -0.79307 
 C                    -2.55401  -0.111     1.46135 
 O                    -1.68258   0.9921    1.48942 
 H                    -3.67006  -2.47415   0.66332 
 H                    -4.49946  -1.88347  -0.77776 
 H                    -4.94114  -1.2592    0.8117 
 H                    -2.35854  -1.35879  -1.79105 
 H                    -1.42955  -1.8554   -0.35918 
 H                    -1.37127   0.77975  -1.31689 
 H                    -4.57605   1.06179   0.01576 
 H                    -4.10535   0.48029  -1.59542 
 H                    -2.4187    1.97708   0.07691 
 H                    -2.08141  -0.98973   1.91663 
 H                    -3.41537   0.17045   2.07761 
 H                    -0.79196   0.69139   1.22742 
 
 Add virtual bond connecting atoms O24        and H17        Dist= 3.45D+00.
 Add virtual bond connecting atoms H40        and O4         Dist= 3.45D+00.

 GradGradGradGradGradGradGradGradGradGradGradGradGradGradGradGradGradGrad
 Initialization pass.
                           ----------------------------
                           !    Initial Parameters    !
                           ! (Angstroms and Degrees)  !
 --------------------------                            --------------------------
 ! Name  Definition              Value          Derivative Info.                !
 --------------------------------------------------------------------------------
 ! R1    R(1,2)                  1.5287         estimate D2E/DX2                !
 ! R2    R(1,9)                  1.0874         estimate D2E/DX2                !
 ! R3    R(1,10)                 1.0873         estimate D2E/DX2                !
 ! R4    R(1,11)                 1.0873         estimate D2E/DX2                !
 ! R5    R(2,3)                  1.5403         estimate D2E/DX2                !
 ! R6    R(2,5)                  1.5469         estimate D2E/DX2                !
 ! R7    R(2,7)                  1.5428         estimate D2E/DX2                !
 ! R8    R(3,4)                  1.4054         estimate D2E/DX2                !
 ! R9    R(3,12)                 1.0945         estimate D2E/DX2                !
 ! R10   R(3,13)                 1.1013         estimate D2E/DX2                !
 ! R11   R(4,14)                 0.9753         estimate D2E/DX2                !
 ! R12   R(4,40)                 1.8278         estimate D2E/DX2                !
 ! R13   R(5,6)                  1.406          estimate D2E/DX2                !
 ! R14   R(5,15)                 1.0959         estimate D2E/DX2                !
 ! R15   R(5,16)                 1.0967         estimate D2E/DX2                !
 ! R16   R(6,17)                 0.9758         estimate D2E/DX2                !
 ! R17   R(7,8)                  1.409          estimate D2E/DX2                !
 ! R18   R(7,18)                 1.0946         estimate D2E/DX2                !
 ! R19   R(7,19)                 1.0996         estimate D2E/DX2                !
 ! R20   R(8,20)                 0.9776         estimate D2E/DX2                !
 ! R21   R(17,24)                1.8278         estimate D2E/DX2                !
 ! R22   R(21,22)                1.5287         estimate D2E/DX2                !
 ! R23   R(21,29)                1.0873         estimate D2E/DX2                !
 ! R24   R(21,30)                1.0874         estimate D2E/DX2                !
 ! R25   R(21,31)                1.0873         estimate D2E/DX2                !
 ! R26   R(22,23)                1.5403         estimate D2E/DX2                !
 ! R27   R(22,25)                1.5428         estimate D2E/DX2                !
 ! R28   R(22,27)                1.5469         estimate D2E/DX2                !
 ! R29   R(23,24)                1.4055         estimate D2E/DX2                !
 ! R30   R(23,32)                1.1013         estimate D2E/DX2                !
 ! R31   R(23,33)                1.0945         estimate D2E/DX2                !
 ! R32   R(24,34)                0.9753         estimate D2E/DX2                !
 ! R33   R(25,26)                1.409          estimate D2E/DX2                !
 ! R34   R(25,35)                1.0996         estimate D2E/DX2                !
 ! R35   R(25,36)                1.0946         estimate D2E/DX2                !
 ! R36   R(26,37)                0.9776         estimate D2E/DX2                !
 ! R37   R(27,28)                1.4061         estimate D2E/DX2                !
 ! R38   R(27,38)                1.0967         estimate D2E/DX2                !
 ! R39   R(27,39)                1.0959         estimate D2E/DX2                !
 ! R40   R(28,40)                0.9758         estimate D2E/DX2                !
 ! A1    A(2,1,9)              110.5228         estimate D2E/DX2                !
 ! A2    A(2,1,10)             110.3885         estimate D2E/DX2                !
 ! A3    A(2,1,11)             110.5136         estimate D2E/DX2                !
 ! A4    A(9,1,10)             108.4657         estimate D2E/DX2                !
 ! A5    A(9,1,11)             108.4054         estimate D2E/DX2                !
 ! A6    A(10,1,11)            108.4762         estimate D2E/DX2                !
 ! A7    A(1,2,3)              108.5587         estimate D2E/DX2                !
 ! A8    A(1,2,5)              108.502          estimate D2E/DX2                !
 ! A9    A(1,2,7)              109.0833         estimate D2E/DX2                !
 ! A10   A(3,2,5)              111.4311         estimate D2E/DX2                !
 ! A11   A(3,2,7)              109.7809         estimate D2E/DX2                !
 ! A12   A(5,2,7)              109.4399         estimate D2E/DX2                !
 ! A13   A(2,3,4)              114.3062         estimate D2E/DX2                !
 ! A14   A(2,3,12)             109.8329         estimate D2E/DX2                !
 ! A15   A(2,3,13)             108.3422         estimate D2E/DX2                !
 ! A16   A(4,3,12)             106.4392         estimate D2E/DX2                !
 ! A17   A(4,3,13)             109.6519         estimate D2E/DX2                !
 ! A18   A(12,3,13)            108.1058         estimate D2E/DX2                !
 ! A19   A(3,4,14)             106.8728         estimate D2E/DX2                !
 ! A20   A(3,4,40)             116.8343         estimate D2E/DX2                !
 ! A21   A(14,4,40)            135.4368         estimate D2E/DX2                !
 ! A22   A(2,5,6)              114.5487         estimate D2E/DX2                !
 ! A23   A(2,5,15)             108.351          estimate D2E/DX2                !
 ! A24   A(2,5,16)             108.9678         estimate D2E/DX2                !
 ! A25   A(6,5,15)             105.9267         estimate D2E/DX2                !
 ! A26   A(6,5,16)             110.6866         estimate D2E/DX2                !
 ! A27   A(15,5,16)            108.1224         estimate D2E/DX2                !
 ! A28   A(5,6,17)             108.5816         estimate D2E/DX2                !
 ! A29   A(2,7,8)              113.4303         estimate D2E/DX2                !
 ! A30   A(2,7,18)             109.9855         estimate D2E/DX2                !
 ! A31   A(2,7,19)             108.8648         estimate D2E/DX2                !
 ! A32   A(8,7,18)             106.2637         estimate D2E/DX2                !
 ! A33   A(8,7,19)             110.0438         estimate D2E/DX2                !
 ! A34   A(18,7,19)            108.1106         estimate D2E/DX2                !
 ! A35   A(7,8,20)             105.8386         estimate D2E/DX2                !
 ! A36   A(22,21,29)           110.3872         estimate D2E/DX2                !
 ! A37   A(22,21,30)           110.5221         estimate D2E/DX2                !
 ! A38   A(22,21,31)           110.5169         estimate D2E/DX2                !
 ! A39   A(29,21,30)           108.4645         estimate D2E/DX2                !
 ! A40   A(29,21,31)           108.4758         estimate D2E/DX2                !
 ! A41   A(30,21,31)           108.4056         estimate D2E/DX2                !
 ! A42   A(21,22,23)           108.5589         estimate D2E/DX2                !
 ! A43   A(21,22,25)           109.0825         estimate D2E/DX2                !
 ! A44   A(21,22,27)           108.4995         estimate D2E/DX2                !
 ! A45   A(23,22,25)           109.7838         estimate D2E/DX2                !
 ! A46   A(23,22,27)           111.4308         estimate D2E/DX2                !
 ! A47   A(25,22,27)           109.4403         estimate D2E/DX2                !
 ! A48   A(22,23,24)           114.3112         estimate D2E/DX2                !
 ! A49   A(22,23,32)           108.3411         estimate D2E/DX2                !
 ! A50   A(22,23,33)           109.8317         estimate D2E/DX2                !
 ! A51   A(24,23,32)           109.6497         estimate D2E/DX2                !
 ! A52   A(24,23,33)           106.4399         estimate D2E/DX2                !
 ! A53   A(32,23,33)           108.1043         estimate D2E/DX2                !
 ! A54   A(17,24,23)           116.7183         estimate D2E/DX2                !
 ! A55   A(17,24,34)           135.5541         estimate D2E/DX2                !
 ! A56   A(23,24,34)           106.8775         estimate D2E/DX2                !
 ! A57   A(22,25,26)           113.43           estimate D2E/DX2                !
 ! A58   A(22,25,35)           108.8649         estimate D2E/DX2                !
 ! A59   A(22,25,36)           109.9866         estimate D2E/DX2                !
 ! A60   A(26,25,35)           110.044          estimate D2E/DX2                !
 ! A61   A(26,25,36)           106.2635         estimate D2E/DX2                !
 ! A62   A(35,25,36)           108.1097         estimate D2E/DX2                !
 ! A63   A(25,26,37)           105.8412         estimate D2E/DX2                !
 ! A64   A(22,27,28)           114.5483         estimate D2E/DX2                !
 ! A65   A(22,27,38)           108.9667         estimate D2E/DX2                !
 ! A66   A(22,27,39)           108.3529         estimate D2E/DX2                !
 ! A67   A(28,27,38)           110.6855         estimate D2E/DX2                !
 ! A68   A(28,27,39)           105.9279         estimate D2E/DX2                !
 ! A69   A(38,27,39)           108.1221         estimate D2E/DX2                !
 ! A70   A(27,28,40)           108.5741         estimate D2E/DX2                !
 ! A71   L(6,17,24,3,-1)       187.5887         estimate D2E/DX2                !
 ! A72   L(4,40,28,23,-1)      187.5246         estimate D2E/DX2                !
 ! A73   L(6,17,24,3,-2)       171.0292         estimate D2E/DX2                !
 ! A74   L(4,40,28,23,-2)      170.9092         estimate D2E/DX2                !
 ! D1    D(9,1,2,3)             59.1578         estimate D2E/DX2                !
 ! D2    D(9,1,2,5)           -179.5917         estimate D2E/DX2                !
 ! D3    D(9,1,2,7)            -60.4392         estimate D2E/DX2                !
 ! D4    D(10,1,2,3)           -60.8379         estimate D2E/DX2                !
 ! D5    D(10,1,2,5)            60.4126         estimate D2E/DX2                !
 ! D6    D(10,1,2,7)           179.5651         estimate D2E/DX2                !
 ! D7    D(11,1,2,3)           179.1592         estimate D2E/DX2                !
 ! D8    D(11,1,2,5)           -59.5903         estimate D2E/DX2                !
 ! D9    D(11,1,2,7)            59.5622         estimate D2E/DX2                !
 ! D10   D(1,2,3,4)           -177.3338         estimate D2E/DX2                !
 ! D11   D(1,2,3,12)            63.1284         estimate D2E/DX2                !
 ! D12   D(1,2,3,13)           -54.7519         estimate D2E/DX2                !
 ! D13   D(5,2,3,4)             63.234          estimate D2E/DX2                !
 ! D14   D(5,2,3,12)           -56.3038         estimate D2E/DX2                !
 ! D15   D(5,2,3,13)          -174.1841         estimate D2E/DX2                !
 ! D16   D(7,2,3,4)            -58.1739         estimate D2E/DX2                !
 ! D17   D(7,2,3,12)          -177.7118         estimate D2E/DX2                !
 ! D18   D(7,2,3,13)            64.408          estimate D2E/DX2                !
 ! D19   D(1,2,5,6)            173.9178         estimate D2E/DX2                !
 ! D20   D(1,2,5,15)            55.9258         estimate D2E/DX2                !
 ! D21   D(1,2,5,16)           -61.4961         estimate D2E/DX2                !
 ! D22   D(3,2,5,6)            -66.6163         estimate D2E/DX2                !
 ! D23   D(3,2,5,15)           175.3916         estimate D2E/DX2                !
 ! D24   D(3,2,5,16)            57.9698         estimate D2E/DX2                !
 ! D25   D(7,2,5,6)             54.9898         estimate D2E/DX2                !
 ! D26   D(7,2,5,15)           -63.0023         estimate D2E/DX2                !
 ! D27   D(7,2,5,16)           179.5759         estimate D2E/DX2                !
 ! D28   D(1,2,7,8)            179.3604         estimate D2E/DX2                !
 ! D29   D(1,2,7,18)            60.5185         estimate D2E/DX2                !
 ! D30   D(1,2,7,19)           -57.7638         estimate D2E/DX2                !
 ! D31   D(3,2,7,8)             60.5231         estimate D2E/DX2                !
 ! D32   D(3,2,7,18)           -58.3187         estimate D2E/DX2                !
 ! D33   D(3,2,7,19)          -176.601          estimate D2E/DX2                !
 ! D34   D(5,2,7,8)            -62.0721         estimate D2E/DX2                !
 ! D35   D(5,2,7,18)           179.086          estimate D2E/DX2                !
 ! D36   D(5,2,7,19)            60.8037         estimate D2E/DX2                !
 ! D37   D(2,3,4,14)            44.2385         estimate D2E/DX2                !
 ! D38   D(2,3,4,40)          -144.7149         estimate D2E/DX2                !
 ! D39   D(12,3,4,14)          165.6652         estimate D2E/DX2                !
 ! D40   D(12,3,4,40)          -23.2882         estimate D2E/DX2                !
 ! D41   D(13,3,4,14)          -77.628          estimate D2E/DX2                !
 ! D42   D(13,3,4,40)           93.4186         estimate D2E/DX2                !
 ! D43   D(3,4,28,27)          168.2009         estimate D2E/DX2                !
 ! D44   D(14,4,28,27)         -29.5225         estimate D2E/DX2                !
 ! D45   D(2,5,6,17)            79.9977         estimate D2E/DX2                !
 ! D46   D(15,5,6,17)         -160.6432         estimate D2E/DX2                !
 ! D47   D(16,5,6,17)          -43.6741         estimate D2E/DX2                !
 ! D48   D(5,6,24,23)         -168.0204         estimate D2E/DX2                !
 ! D49   D(5,6,24,34)           29.6696         estimate D2E/DX2                !
 ! D50   D(2,7,8,20)            52.4189         estimate D2E/DX2                !
 ! D51   D(18,7,8,20)          173.3797         estimate D2E/DX2                !
 ! D52   D(19,7,8,20)          -69.8045         estimate D2E/DX2                !
 ! D53   D(29,21,22,23)         60.8194         estimate D2E/DX2                !
 ! D54   D(29,21,22,25)       -179.5805         estimate D2E/DX2                !
 ! D55   D(29,21,22,27)        -60.4294         estimate D2E/DX2                !
 ! D56   D(30,21,22,23)        -59.1736         estimate D2E/DX2                !
 ! D57   D(30,21,22,25)         60.4266         estimate D2E/DX2                !
 ! D58   D(30,21,22,27)        179.5776         estimate D2E/DX2                !
 ! D59   D(31,21,22,23)       -179.1769         estimate D2E/DX2                !
 ! D60   D(31,21,22,25)        -59.5768         estimate D2E/DX2                !
 ! D61   D(31,21,22,27)         59.5743         estimate D2E/DX2                !
 ! D62   D(21,22,23,24)        177.3046         estimate D2E/DX2                !
 ! D63   D(21,22,23,32)         54.723          estimate D2E/DX2                !
 ! D64   D(21,22,23,33)        -63.1541         estimate D2E/DX2                !
 ! D65   D(25,22,23,24)         58.1439         estimate D2E/DX2                !
 ! D66   D(25,22,23,32)        -64.4377         estimate D2E/DX2                !
 ! D67   D(25,22,23,33)        177.6852         estimate D2E/DX2                !
 ! D68   D(27,22,23,24)        -63.2663         estimate D2E/DX2                !
 ! D69   D(27,22,23,32)        174.1521         estimate D2E/DX2                !
 ! D70   D(27,22,23,33)         56.2749         estimate D2E/DX2                !
 ! D71   D(21,22,25,26)       -179.3797         estimate D2E/DX2                !
 ! D72   D(21,22,25,35)         57.7444         estimate D2E/DX2                !
 ! D73   D(21,22,25,36)        -60.5374         estimate D2E/DX2                !
 ! D74   D(23,22,25,26)        -60.541          estimate D2E/DX2                !
 ! D75   D(23,22,25,35)        176.5831         estimate D2E/DX2                !
 ! D76   D(23,22,25,36)         58.3013         estimate D2E/DX2                !
 ! D77   D(27,22,25,26)         62.0561         estimate D2E/DX2                !
 ! D78   D(27,22,25,35)        -60.8198         estimate D2E/DX2                !
 ! D79   D(27,22,25,36)       -179.1016         estimate D2E/DX2                !
 ! D80   D(21,22,27,28)       -173.9465         estimate D2E/DX2                !
 ! D81   D(21,22,27,38)         61.47           estimate D2E/DX2                !
 ! D82   D(21,22,27,39)        -55.9519         estimate D2E/DX2                !
 ! D83   D(23,22,27,28)         66.5893         estimate D2E/DX2                !
 ! D84   D(23,22,27,38)        -57.9943         estimate D2E/DX2                !
 ! D85   D(23,22,27,39)       -175.4162         estimate D2E/DX2                !
 ! D86   D(25,22,27,28)        -55.0206         estimate D2E/DX2                !
 ! D87   D(25,22,27,38)       -179.6041         estimate D2E/DX2                !
 ! D88   D(25,22,27,39)         62.9739         estimate D2E/DX2                !
 ! D89   D(22,23,24,17)        144.7182         estimate D2E/DX2                !
 ! D90   D(22,23,24,34)        -44.19           estimate D2E/DX2                !
 ! D91   D(32,23,24,17)        -93.4149         estimate D2E/DX2                !
 ! D92   D(32,23,24,34)         77.6769         estimate D2E/DX2                !
 ! D93   D(33,23,24,17)         23.2894         estimate D2E/DX2                !
 ! D94   D(33,23,24,34)       -165.6188         estimate D2E/DX2                !
 ! D95   D(22,25,26,37)        -52.3819         estimate D2E/DX2                !
 ! D96   D(35,25,26,37)         69.8415         estimate D2E/DX2                !
 ! D97   D(36,25,26,37)       -173.3438         estimate D2E/DX2                !
 ! D98   D(22,27,28,40)        -79.9801         estimate D2E/DX2                !
 ! D99   D(38,27,28,40)         43.689          estimate D2E/DX2                !
 ! D100  D(39,27,28,40)        160.6579         estimate D2E/DX2                !
 --------------------------------------------------------------------------------
 Number of steps in this run=    224 maximum allowed number of steps=    240.
 GradGradGradGradGradGradGradGradGradGradGradGradGradGradGradGradGradGrad

                    Distance matrix (angstroms):
                    1          2          3          4          5
     1  C    0.000000
     2  C    1.528715   0.000000
     3  C    2.491659   1.540299   0.000000
     4  O    3.773211   2.475860   1.405435   0.000000
     5  C    2.496112   1.546861   2.550772   3.042460   0.000000
     6  O    3.777417   2.485355   3.081005   2.901154   1.406045
     7  C    2.501876   1.542799   2.522139   2.959975   2.522211
     8  O    3.777374   2.468637   2.969029   2.699914   2.980925
     9  H    1.087380   2.164462   2.721277   4.030836   3.455487
    10  H    1.087330   2.162739   2.733103   4.064832   2.732497
    11  H    1.087300   2.164288   3.450044   4.613234   2.727550
    12  H    2.750039   2.171248   1.094476   2.010907   2.760991
    13  H    2.660358   2.157080   1.101290   2.056489   3.489062
    14  H    3.929656   2.521605   1.929320   0.975343   3.148129
    15  H    2.672828   2.158956   3.483696   4.050478   1.095863
    16  H    2.728921   2.167586   2.763316   3.367601   1.096727
    17  H    4.161063   2.819796   2.907292   2.453493   1.950293
    18  H    2.742831   2.175500   2.745480   3.267876   3.478509
    19  H    2.705041   2.164811   3.471175   3.984543   2.748278
    20  H    3.955991   2.550526   3.161394   2.790601   2.509381
    21  C    8.830905   7.479290   6.606204   5.373841   7.078409
    22  C    7.481214   6.212680   5.271843   4.159300   5.852951
    23  C    6.606533   5.270682   4.660479   3.607644   4.658303
    24  O    5.376884   4.161273   3.610147   2.877276   3.498081
    25  C    7.896442   6.820057   5.839064   4.994858   6.370089
    26  O    6.979757   6.096783   5.099541   4.558952   5.693954
    27  C    7.079382   5.852554   4.658863   3.496314   5.890465
    28  O    6.066732   5.019349   3.666116   2.790228   5.238455
    29  H    8.825066   7.395044   6.593338   5.262284   7.068169
    30  H    9.307680   7.963579   7.229937   6.057341   7.363489
    31  H    9.547644   8.242750   7.231734   6.014961   7.952686
    32  H    7.291655   5.990480   5.558304   4.598301   5.139990
    33  H    6.531410   5.080860   4.571897   3.366776   4.578822
    34  H    5.658574   4.625332   3.948153   3.409134   3.985689
    35  H    8.709625   7.665728   6.554654   5.690826   7.344491
    36  H    8.412687   7.337633   6.526866   5.719286   6.672314
    37  H    6.550409   5.686442   4.516906   3.983204   5.530469
    38  H    7.036992   5.707164   4.604655   3.282318   5.841582
    39  H    7.993004   6.831167   5.545844   4.444400   6.940968
    40  H    5.187506   4.071145   2.763238   1.827834   4.332363
                    6          7          8          9         10
     6  O    0.000000
     7  C    2.934388   0.000000
     8  O    2.687317   1.408977   0.000000
     9  H    4.619942   2.743510   4.058843   0.000000
    10  H    4.080176   3.457450   4.609277   1.764558   0.000000
    11  H    4.018092   2.736158   4.059730   1.763864   1.764609
    12  H    3.405124   3.475301   3.957654   3.097937   2.539285
    13  H    4.092139   2.773533   3.363705   2.426138   2.998634
    14  H    2.831540   2.460182   1.870224   4.143701   4.449137
    15  H    2.005870   2.758676   3.361150   3.680553   3.009322
    16  H    2.066216   3.471463   3.974625   3.729187   2.509797
    17  H    0.975831   3.457564   3.086596   4.939563   4.315844
    18  H    3.955604   1.094618   2.011782   2.531996   3.744305
    19  H    3.247190   1.099601   2.063095   3.051678   3.707245
    20  H    1.872835   1.921661   0.977596   4.468284   4.661075
    21  C    6.063695   7.890221   6.970427   9.307032   8.827894
    22  C    5.017576   6.816669   6.090508   7.965093   7.399265
    23  C    3.663690   5.834897   5.093049   7.229826   6.595632
    24  O    2.790299   4.995116   4.557536   6.060204   5.266342
    25  C    5.746445   7.690461   7.175571   8.420989   7.601345
    26  O    5.364496   7.179128   6.917798   7.506063   6.546307
    27  C    5.237243   6.367076   5.688721   7.364090   7.070947
    28  O    4.911874   5.746753   5.362916   6.289328   5.961261
    29  H    5.957170   7.592645   6.534870   9.260990   8.955062
    30  H    6.286246   8.414916   7.496686   9.880973   9.264645
    31  H    7.017000   8.681831   7.792008   9.952236   9.505696
    32  H    4.068391   6.564623   5.815022   8.011266   7.237145
    33  H    3.422209   5.357862   4.413267   7.102236   6.700093
    34  H    3.532912   5.653856   5.372347   6.333977   5.364354
    35  H    6.755594   8.513896   7.985302   9.148219   8.399721
    36  H    5.971828   8.223188   7.687626   9.039482   8.087089
    37  H    5.298247   6.738777   6.517866   6.958562   6.159870
    38  H    5.076629   5.956102   5.106958   7.271739   7.196085
    39  H    6.329265   7.346337   6.680186   8.204143   7.943226
    40  H    4.041369   4.779063   4.429195   5.445243   5.167767
                   11         12         13         14         15
    11  H    0.000000
    12  H    3.749265   0.000000
    13  H    3.668074   1.777607   0.000000
    14  H    4.629579   2.804404   2.402302   0.000000
    15  H    2.444171   3.739762   4.292080   4.009254   0.000000
    16  H    3.078151   2.520706   3.736353   3.753380   1.775218
    17  H    4.603835   3.068809   3.971337   2.610759   2.806502
    18  H    3.084773   3.760737   2.543749   2.765102   3.750158
    19  H    2.480691   4.307088   3.747029   3.482431   2.528505
    20  H    4.168593   3.982490   3.823441   2.115175   2.874770
    21  C    9.546808   6.535198   7.290586   5.651752   7.991372
    22  C    8.244066   5.085614   5.991268   4.620341   6.831146
    23  C    7.231524   4.575134   5.557817   3.943037   5.544863
    24  O    6.017712   3.371312   4.600632   3.407951   4.445870
    25  C    8.687558   5.365705   6.569020   5.650996   7.349108
    26  O    7.801035   4.422967   5.822149   5.372025   6.685408
    27  C    7.953155   4.582247   5.140128   3.981255   6.940675
    28  O    7.019685   3.426417   4.071087   3.531319   6.330408
    29  H    9.501888   6.701904   7.233725   5.356193   7.939621
    30  H    9.952027   7.106628   8.010695   6.327356   8.202836
    31  H   10.328533   7.111130   7.818329   6.347838   8.909689
    32  H    7.818776   5.418674   6.518412   4.886486   5.903046
    33  H    7.106732   4.744449   5.414585   3.434267   5.410675
    34  H    6.354422   3.441878   4.891648   4.106114   4.940123
    35  H    9.558659   6.072639   7.166754   6.356752   8.353532
    36  H    9.117382   6.034091   7.352272   6.325881   7.565406
    37  H    7.451987   3.865207   5.115585   4.843966   6.580512
    38  H    7.863420   4.784725   5.025725   3.508141   6.844684
    39  H    8.910777   5.414554   5.903738   4.935926   8.003391
    40  H    6.113597   2.658918   3.271439   2.613930   5.419903
                   16         17         18         19         20
    16  H    0.000000
    17  H    2.228013   0.000000
    18  H    4.311819   4.357959   0.000000
    19  H    3.747729   3.990018   1.776407   0.000000
    20  H    3.507411   2.371033   2.807451   2.343982   0.000000
    21  C    7.039009   5.185707   8.406417   8.702837   6.541764
    22  C    5.709934   4.070005   7.334456   7.662036   5.680514
    23  C    4.606395   2.761541   6.522923   6.550108   4.510586
    24  O    3.285189   1.827799   5.719908   5.690826   3.981682
    25  C    5.961585   4.778700   8.223706   8.513759   6.735131
    26  O    5.114095   4.430016   7.691890   7.988976   6.517481
    27  C    5.843143   4.331764   6.669411   7.341309   5.525856
    28  O    5.078417   4.041324   5.972637   6.755826   5.296786
    29  H    7.196304   5.165422   8.078098   8.390281   6.149479
    30  H    7.274450   5.443395   9.033412   9.141471   6.949703
    31  H    7.865950   6.112038   9.111582   9.552414   7.443718
    32  H    5.028522   3.269606   7.348105   7.161813   5.108477
    33  H    4.783623   2.656195   6.026293   6.064362   3.856029
    34  H    3.514076   2.614871   6.329185   6.359566   4.844011
    35  H    6.935702   5.781049   8.956855   9.393912   7.622807
    36  H    6.219579   5.047508   8.860212   8.956141   7.130642
    37  H    5.022315   4.371505   7.135078   7.626542   6.246247
    38  H    5.997869   4.271067   6.213788   6.930037   5.016397
    39  H    6.846623   5.419320   7.562764   8.350579   6.575898
    40  H    4.271709   3.231559   5.048344   5.781287   4.370793
                   21         22         23         24         25
    21  C    0.000000
    22  C    1.528721   0.000000
    23  C    2.491665   1.540298   0.000000
    24  O    3.773263   2.475942   1.405452   0.000000
    25  C    2.501867   1.542797   2.522182   2.959851   0.000000
    26  O    3.777369   2.468632   2.969251   2.699996   1.408977
    27  C    2.496075   1.546858   2.550765   3.042855   2.522213
    28  O    3.777426   2.485357   3.080740   2.901273   2.934671
    29  H    1.087310   2.162712   2.732929   4.064861   3.457416
    30  H    1.087366   2.164449   2.721398   4.030803   2.743380
    31  H    1.087295   2.164330   3.450070   4.613338   2.736312
    32  H    2.660115   2.157070   1.101297   2.056482   2.773828
    33  H    2.750248   2.171240   1.094486   2.010939   3.475322
    34  H    3.929527   2.521480   1.929388   0.975339   2.459888
    35  H    2.704871   2.164813   3.471201   3.984570   1.099605
    36  H    2.742992   2.175516   2.745413   3.267347   1.094622
    37  H    3.955780   2.550293   3.161246   2.790553   1.921699
    38  H    2.728634   2.167565   2.763485   3.368435   3.471451
    39  H    2.673019   2.158974   3.483717   4.050700   2.758464
    40  H    4.160737   2.819573   2.906737   2.453618   3.457754
                   26         27         28         29         30
    26  O    0.000000
    27  C    2.980768   0.000000
    28  O    2.687399   1.406058   0.000000
    29  H    4.609244   2.732564   4.080120   0.000000
    30  H    4.058839   3.455440   4.619936   1.764517   0.000000
    31  H    4.059766   2.727418   4.018192   1.764585   1.763851
    32  H    3.364412   3.489028   4.092075   2.998001   2.426021
    33  H    3.957683   2.760744   3.404352   2.539335   3.098441
    34  H    1.870191   3.148165   2.831498   4.448989   4.143544
    35  H    2.063100   2.748419   3.247873   3.707158   3.051248
    36  H    2.011784   3.478524   3.955753   3.744340   2.532044
    37  H    0.977606   2.508994   1.872765   4.660812   4.468089
    38  H    3.974646   1.096721   2.066209   2.509598   3.729004
    39  H    3.360558   1.095859   2.005892   3.009813   3.680621
    40  H    3.086920   1.950224   0.975842   4.315358   4.939252
                   31         32         33         34         35
    31  H    0.000000
    32  H    3.667973   0.000000
    33  H    3.749355   1.777604   0.000000
    34  H    4.629488   2.402685   2.804396   0.000000
    35  H    2.480688   3.747154   4.307094   3.482256   0.000000
    36  H    3.085220   2.543985   3.760804   2.764495   1.776403
    37  H    4.168465   3.823729   3.982020   2.115033   2.344276
    38  H    3.077586   3.736290   2.520638   3.753798   3.747700
    39  H    2.444263   4.292079   3.739713   4.009010   2.528414
    40  H    4.603620   3.970966   3.067572   2.610922   3.990565
                   36         37         38         39         40
    36  H    0.000000
    37  H    2.807457   0.000000
    38  H    4.311816   3.507176   0.000000
    39  H    3.750092   2.874027   1.775207   0.000000
    40  H    4.357924   2.371271   2.227975   2.806498   0.000000
 Framework group  C1[X(C10H24O6)]
 Deg. of freedom   114
                         Standard orientation:                         
 ---------------------------------------------------------------------
 Center     Atomic      Atomic             Coordinates (Angstroms)
 Number     Number       Type             X           Y           Z
 ---------------------------------------------------------------------
      1          6           0        4.146333   -1.512659    0.163704
      2          6           0        3.077140   -0.427308    0.037965
      3          6           0        1.943785   -0.957364   -0.860404
      4          8           0        0.918049   -0.028561   -1.106240
      5          6           0        2.560559   -0.080722    1.454229
      6          8           0        1.665167    1.002369    1.500615
      7          6           0        3.705804    0.828444   -0.600857
      8          8           0        2.791685    1.886684   -0.773284
      9          1           0        4.538348   -1.776864   -0.815538
     10          1           0        3.727079   -2.406426    0.619439
     11          1           0        4.971021   -1.165363    0.781358
     12          1           0        1.470349   -1.823979   -0.388478
     13          1           0        2.383217   -1.285297   -1.815496
     14          1           0        1.349303    0.822792   -1.307517
     15          1           0        3.417318    0.210714    2.072246
     16          1           0        2.108764   -0.976171    1.897919
     17          1           0        0.780524    0.686003    1.236859
     18          1           0        4.089169    0.589001   -1.597795
     19          1           0        4.551131    1.158077    0.020341
     20          1           0        2.374290    2.023677    0.100049
     21          6           0       -4.142339    1.516231   -0.165887
     22          6           0       -3.075852    0.428386   -0.038657
     23          6           0       -1.941797    0.956358    0.860054
     24          8           0       -0.918720    0.025115    1.107833
     25          6           0       -3.708001   -0.825387    0.600610
     26          8           0       -2.796667   -1.885867    0.774010
     27          6           0       -2.559211    0.079584   -1.454351
     28          8           0       -1.665906   -1.005304   -1.499336
     29          1           0       -3.720535    2.408731   -0.621703
     30          1           0       -4.534530    1.781897    0.812874
     31          1           0       -4.967346    1.170643   -0.784064
     32          1           0       -2.381138    1.286536    1.814421
     33          1           0       -1.465671    1.821202    0.387562
     34          1           0       -1.352310   -0.825080    1.308966
     35          1           0       -4.553917   -1.153201   -0.020756
     36          1           0       -4.091179   -0.584415    1.597256
     37          1           0       -2.378800   -2.024057   -0.098918
     38          1           0       -2.105399    0.973764   -1.898529
     39          1           0       -3.416195   -0.210664   -2.072607
     40          1           0       -0.780882   -0.690382   -1.235094
 ---------------------------------------------------------------------
 Rotational constants (GHZ):           0.9422867           0.2419858           0.2369741
   272 basis functions,   496 primitive gaussians,   288 cartesian basis functions
    66 alpha electrons       66 beta electrons
       nuclear repulsion energy      1331.0211864173 Hartrees.
 NAtoms=   40 NActive=   40 NUniq=   40 SFac= 1.00D+00 NAtFMM=   60 NAOKFM=F Big=F
 Nuclear repulsion after empirical dispersion term =     1330.9868944853 Hartrees.
   1 Symmetry operations used in ECPInt.
 ECPInt:  NShTT=   10440 NPrTT=   41896 LenC2=    9829 LenP2D=   27603.
 LDataN:  DoStor=T MaxTD1= 4 Len=   56
 ExpMin= 1.22D-01 ExpMax= 2.27D+03 ExpMxC= 3.41D+02 IAcc=3 IRadAn=         5 AccDes= 0.00D+00
 Harris functional with IExCor= 4639 and IRadAn=       5 diagonalized for initial guess.
 HarFok:  IExCor= 4639 AccDes= 0.00D+00 IRadAn=         5 IDoV= 1 UseB2=F ITyADJ=14
 ICtDFT=  3500011 ScaDFX=  1.000000  1.000000  1.000000  1.000000
 FoFCou: FMM=F IPFlag=           0 FMFlag=      100000 FMFlg1=           0
         NFxFlg=           0 DoJE=T BraDBF=F KetDBF=T FulRan=T
         wScrn=  0.000000 ICntrl=       500 IOpCl=  0 I1Cent=   200000004 NGrid=           0
         NMat0=    1 NMatS0=      1 NMatT0=    0 NMatD0=    1 NMtDS0=    0 NMtDT0=    0
 Petite list used in FoFCou.
     Accept linear search using points  2 and  3.
     Accept linear search using points  1 and  2.
     Accept linear search using points  2 and  3.
     Accept linear search using points  1 and  2.
     Minimum is close to point  2 DX= -9.43D-05 DF= -1.14D-13 DXR=  9.44D-05 DFR=  8.95D-09 which will be used.
 SCF Done:  E(RwB97XD) =  -845.906706846     a.u. after    7 cycles
            Convg  =    0.4611D-09                    32 Fock formations.
              S**2 =  0.0000                  -V/T =  2.0083

 **********************************************************************

            Population analysis using the SCF Density.

 **********************************************************************

 Orbital symmetries:
       Occupied  (A) (A) (A) (A) (A) (A) (A) (A) (A) (A) (A) (A)
                 (A) (A) (A) (A) (A) (A) (A) (A) (A) (A) (A) (A)
                 (A) (A) (A) (A) (A) (A) (A) (A) (A) (A) (A) (A)
                 (A) (A) (A) (A) (A) (A) (A) (A) (A) (A) (A) (A)
                 (A) (A) (A) (A) (A) (A) (A) (A) (A) (A) (A) (A)
                 (A) (A) (A) (A) (A) (A)
       Virtual   (A) (A) (A) (A) (A) (A) (A) (A) (A) (A) (A) (A)
                 (A) (A) (A) (A) (A) (A) (A) (A) (A) (A) (A) (A)
                 (A) (A) (A) (A) (A) (A) (A) (A) (A) (A) (A) (A)
                 (A) (A) (A) (A) (A) (A) (A) (A) (A) (A) (A) (A)
                 (A) (A) (A) (A) (A) (A) (A) (A) (A) (A) (A) (A)
                 (A) (A) (A) (A) (A) (A) (A) (A) (A) (A) (A) (A)
                 (A) (A) (A) (A) (A) (A) (A) (A) (A) (A) (A) (A)
                 (A) (A) (A) (A) (A) (A) (A) (A) (A) (A) (A) (A)
                 (A) (A) (A) (A) (A) (A) (A) (A) (A) (A) (A) (A)
                 (A) (A) (A) (A) (A) (A) (A) (A) (A) (A) (A) (A)
                 (A) (A) (A) (A) (A) (A) (A) (A) (A) (A) (A) (A)
                 (A) (A) (A) (A) (A) (A) (A) (A) (A) (A) (A) (A)
                 (A) (A) (A) (A) (A) (A) (A) (A) (A) (A) (A) (A)
                 (A) (A) (A) (A) (A) (A) (A) (A) (A) (A) (A) (A)
                 (A) (A) (A) (A) (A) (A) (A) (A) (A) (A) (A) (A)
                 (A) (A) (A) (A) (A) (A) (A) (A) (A) (A) (A) (A)
                 (A) (A) (A) (A) (A) (A) (A) (A) (A) (A) (A) (A)
                 (A) (A)
 The electronic state is 1-A.
 Alpha  occ. eigenvalues --  -19.25400 -19.25397 -19.25151 -19.25149 -19.24484
 Alpha  occ. eigenvalues --  -19.24483 -10.34113 -10.34112 -10.33994 -10.33993
 Alpha  occ. eigenvalues --  -10.33818 -10.33818 -10.31070 -10.31070 -10.29252
 Alpha  occ. eigenvalues --  -10.29251  -1.13852  -1.13281  -1.11217  -1.10768
 Alpha  occ. eigenvalues --   -1.10083  -1.09933  -0.91553  -0.91433  -0.77656
 Alpha  occ. eigenvalues --   -0.77602  -0.77192  -0.76978  -0.76778  -0.76766
 Alpha  occ. eigenvalues --   -0.67522  -0.66920  -0.62920  -0.62864  -0.62428
 Alpha  occ. eigenvalues --   -0.60822  -0.57413  -0.57207  -0.55094  -0.54605
 Alpha  occ. eigenvalues --   -0.53844  -0.53814  -0.52937  -0.52283  -0.50820
 Alpha  occ. eigenvalues --   -0.49866  -0.49845  -0.49733  -0.49141  -0.48941
 Alpha  occ. eigenvalues --   -0.47999  -0.47965  -0.46597  -0.46448  -0.44162
 Alpha  occ. eigenvalues --   -0.43563  -0.43281  -0.41146  -0.40705  -0.39964
 Alpha  occ. eigenvalues --   -0.37812  -0.36718  -0.34857  -0.34572  -0.33802
 Alpha  occ. eigenvalues --   -0.33748
 Alpha virt. eigenvalues --    0.12280   0.12288   0.13917   0.15651   0.16541
 Alpha virt. eigenvalues --    0.16775   0.17180   0.17875   0.18979   0.20546
 Alpha virt. eigenvalues --    0.20578   0.20790   0.21405   0.22407   0.22926
 Alpha virt. eigenvalues --    0.23249   0.23345   0.23931   0.24093   0.24320
 Alpha virt. eigenvalues --    0.25957   0.26504   0.26542   0.27231   0.27279
 Alpha virt. eigenvalues --    0.29187   0.30396   0.30667   0.31745   0.31963
 Alpha virt. eigenvalues --    0.32497   0.33001   0.33206   0.33777   0.33792
 Alpha virt. eigenvalues --    0.33890   0.37039   0.37339   0.49846   0.50626
 Alpha virt. eigenvalues --    0.51098   0.52751   0.53945   0.54643   0.55857
 Alpha virt. eigenvalues --    0.55980   0.56969   0.57059   0.62208   0.62261
 Alpha virt. eigenvalues --    0.62600   0.63630   0.65129   0.65563   0.65870
 Alpha virt. eigenvalues --    0.66591   0.68310   0.68367   0.68808   0.69463
 Alpha virt. eigenvalues --    0.70507   0.72979   0.73095   0.74615   0.75370
 Alpha virt. eigenvalues --    0.75506   0.75944   0.76204   0.76825   0.77389
 Alpha virt. eigenvalues --    0.77437   0.77981   0.79033   0.79615   0.80408
 Alpha virt. eigenvalues --    0.80501   0.81311   0.81506   0.81514   0.81563
 Alpha virt. eigenvalues --    0.82234   0.82269   0.83312   0.83672   0.84448
 Alpha virt. eigenvalues --    0.84644   0.85082   0.85200   0.86513   0.86530
 Alpha virt. eigenvalues --    0.88839   0.90512   0.98147   1.00912   1.02048
 Alpha virt. eigenvalues --    1.02665   1.06436   1.07763   1.11266   1.17336
 Alpha virt. eigenvalues --    1.18228   1.19034   1.19578   1.20146   1.20470
 Alpha virt. eigenvalues --    1.23101   1.24022   1.24178   1.26808   1.27382
 Alpha virt. eigenvalues --    1.29281   1.33074   1.36259   1.37657   1.38810
 Alpha virt. eigenvalues --    1.40037   1.41851   1.43108   1.47371   1.50837
 Alpha virt. eigenvalues --    1.51183   1.53017   1.55942   1.61444   1.66593
 Alpha virt. eigenvalues --    1.66919   1.67934   1.68090   1.68902   1.69709
 Alpha virt. eigenvalues --    1.77405   1.80870   1.82680   1.82733   1.86500
 Alpha virt. eigenvalues --    1.86525   1.88286   1.89304   1.90975   1.92277
 Alpha virt. eigenvalues --    1.93886   1.94142   2.05272   2.05915   2.06343
 Alpha virt. eigenvalues --    2.06567   2.06822   2.06997   2.08145   2.08616
 Alpha virt. eigenvalues --    2.12232   2.13241   2.18648   2.18737   2.19060
 Alpha virt. eigenvalues --    2.19448   2.21448   2.22117   2.24567   2.24859
 Alpha virt. eigenvalues --    2.25109   2.25155   2.25748   2.25842   2.26083
 Alpha virt. eigenvalues --    2.26926   2.53245   2.53517   2.54405   2.54517
 Alpha virt. eigenvalues --    2.65791   2.65829   2.66761   2.66929   2.69944
 Alpha virt. eigenvalues --    2.70252   2.74120   2.75079   2.75556   2.75890
 Alpha virt. eigenvalues --    2.76751   2.76823   2.91659   2.91886   2.92971
 Alpha virt. eigenvalues --    2.93700   2.94478   2.94536   3.02992   3.02996
 Alpha virt. eigenvalues --    3.04802   3.05193   3.09770   3.10478   3.10513
 Alpha virt. eigenvalues --    3.10704   3.12047   3.12266   3.15556   3.17151
 Alpha virt. eigenvalues --    3.47655   3.47683   3.48375   3.48945   3.50202
 Alpha virt. eigenvalues --    3.51730
          Condensed to atoms (all electrons):
 Mulliken charges:
               1
     1  C   -0.255324
     2  C   -0.389335
     3  C    0.102606
     4  O   -0.535216
     5  C    0.080934
     6  O   -0.542700
     7  C    0.078906
     8  O   -0.521408
     9  H    0.121149
    10  H    0.121583
    11  H    0.121709
    12  H    0.096869
    13  H    0.091854
    14  H    0.332395
    15  H    0.097720
    16  H    0.096131
    17  H    0.366056
    18  H    0.103024
    19  H    0.095453
    20  H    0.337623
    21  C   -0.255321
    22  C   -0.389305
    23  C    0.102569
    24  O   -0.535202
    25  C    0.078912
    26  O   -0.521401
    27  C    0.080898
    28  O   -0.542640
    29  H    0.121578
    30  H    0.121151
    31  H    0.121710
    32  H    0.091867
    33  H    0.096828
    34  H    0.332382
    35  H    0.095444
    36  H    0.103028
    37  H    0.337632
    38  H    0.096117
    39  H    0.097728
    40  H    0.365995
 Sum of Mulliken charges =   0.00000
 Mulliken charges with hydrogens summed into heavy atoms:
               1
     1  C    0.109117
     2  C   -0.389335
     3  C    0.291330
     4  O   -0.202821
     5  C    0.274785
     6  O   -0.176644
     7  C    0.277383
     8  O   -0.183785
    21  C    0.109118
    22  C   -0.389305
    23  C    0.291264
    24  O   -0.202820
    25  C    0.277385
    26  O   -0.183769
    27  C    0.274743
    28  O   -0.176645
 Electronic spatial extent (au):  <R**2>=           5072.4562
 Charge=              0.0000 electrons
 Dipole moment (field-independent basis, Debye):
    X=              0.0055    Y=              0.0031    Z=             -0.0030  Tot=              0.0070
   1 Symmetry operations used in ECPInt.
 ECPInt:  NShTT=   10440 NPrTT=   41896 LenC2=    9829 LenP2D=   27603.
 LDataN:  DoStor=T MaxTD1= 5 Len=  102
 Calling FoFJK, ICntrl=      2127 FMM=F ISym2X=0 I1Cent= 0 IOpClX= 0 NMat=1 NMatS=1 NMatT=0.

 GradGradGradGradGradGradGradGradGradGradGradGradGradGradGradGradGradGrad
 FormGI is forming the generalized inverse of G from B-inverse, IUseBI=4.
 Internal  Forces:  Max     0.011385909 RMS     0.002833538
 Step number   1 out of a maximum of  224
 All quantities printed in internal units (Hartrees-Bohrs-Radians)
 Mixed Optimization -- RFO/linear search
 Second derivative matrix not updated -- first step.
 ITU=  0
     Eigenvalues ---    0.00230   0.00230   0.00230   0.00232   0.00249
     Eigenvalues ---    0.00305   0.00386   0.00386   0.00560   0.01064
     Eigenvalues ---    0.01131   0.01300   0.01528   0.01573   0.01573
     Eigenvalues ---    0.01603   0.02131   0.03370   0.03491   0.03806
     Eigenvalues ---    0.04231   0.04387   0.04666   0.04696   0.04696
     Eigenvalues ---    0.04739   0.04976   0.04981   0.05018   0.05406
     Eigenvalues ---    0.05518   0.05627   0.05627   0.05639   0.05639
     Eigenvalues ---    0.05723   0.05746   0.05746   0.05808   0.05815
     Eigenvalues ---    0.06976   0.07203   0.08463   0.09901   0.09939
     Eigenvalues ---    0.10328   0.11316   0.11802   0.11802   0.11879
     Eigenvalues ---    0.11885   0.12003   0.13353   0.13824   0.14042
     Eigenvalues ---    0.14042   0.14371   0.14396   0.15012   0.15625
     Eigenvalues ---    0.15747   0.15822   0.15954   0.16000   0.16000
     Eigenvalues ---    0.16000   0.16000   0.16000   0.16000   0.16000
     Eigenvalues ---    0.16000   0.16767   0.19103   0.21142   0.22081
     Eigenvalues ---    0.22081   0.27583   0.27903   0.27919   0.28272
     Eigenvalues ---    0.28273   0.28492   0.29542   0.29542   0.33539
     Eigenvalues ---    0.33540   0.33726   0.33726   0.34047   0.34047
     Eigenvalues ---    0.34144   0.34144   0.34284   0.34284   0.34299
     Eigenvalues ---    0.34300   0.35117   0.35119   0.35123   0.35125
     Eigenvalues ---    0.35127   0.35127   0.42517   0.44165   0.44165
     Eigenvalues ---    0.44627   0.44642   0.44730   0.50435   0.51853
     Eigenvalues ---    0.51854   0.52182   0.52300   0.52301
 Linear search not attempted -- first point.
 Iteration  1 RMS(Cart)=  0.06654718 RMS(Int)=  0.00131088
 Iteration  2 RMS(Cart)=  0.00234484 RMS(Int)=  0.00024687
 Iteration  3 RMS(Cart)=  0.00000180 RMS(Int)=  0.00024687
 Iteration  4 RMS(Cart)=  0.00000000 RMS(Int)=  0.00024687
 Variable       Old X    -DE/DX   Delta X   Delta X   Delta X     New X
                                 (Linear)    (Quad)   (Total)
    R1        2.88885   0.00261   0.00000   0.00861   0.00861   2.89746
    R2        2.05485   0.01122   0.00000   0.03127   0.03127   2.08612
    R3        2.05476   0.01137   0.00000   0.03168   0.03168   2.08643
    R4        2.05470   0.01119   0.00000   0.03118   0.03118   2.08588
    R5        2.91074  -0.00080   0.00000  -0.00270  -0.00277   2.90797
    R6        2.92314   0.00078   0.00000   0.00279   0.00276   2.92591
    R7        2.91547  -0.00120   0.00000  -0.00411  -0.00411   2.91135
    R8        2.65589   0.00319   0.00000   0.00704   0.00697   2.66285
    R9        2.06826   0.00674   0.00000   0.01922   0.01922   2.08748
   R10        2.08114   0.00593   0.00000   0.01729   0.01729   2.09843
   R11        1.84313   0.00339   0.00000   0.00639   0.00639   1.84953
   R12        3.45411  -0.00205   0.00000  -0.03114  -0.03118   3.42293
   R13        2.65704   0.00181   0.00000   0.00394   0.00401   2.66105
   R14        2.07088   0.00601   0.00000   0.01721   0.01721   2.08809
   R15        2.07251   0.00777   0.00000   0.02230   0.02230   2.09482
   R16        1.84405   0.00438   0.00000   0.00822   0.00828   1.85233
   R17        2.66258   0.00404   0.00000   0.00898   0.00898   2.67156
   R18        2.06853   0.00640   0.00000   0.01827   0.01827   2.08679
   R19        2.07795   0.00662   0.00000   0.01918   0.01918   2.09713
   R20        1.84739   0.00295   0.00000   0.00560   0.00560   1.85299
   R21        3.45404  -0.00205   0.00000  -0.03081  -0.03078   3.42326
   R22        2.88886   0.00261   0.00000   0.00860   0.00860   2.89746
   R23        2.05472   0.01139   0.00000   0.03171   0.03171   2.08643
   R24        2.05482   0.01123   0.00000   0.03130   0.03130   2.08612
   R25        2.05469   0.01120   0.00000   0.03119   0.03119   2.08588
   R26        2.91074  -0.00080   0.00000  -0.00272  -0.00266   2.90808
   R27        2.91546  -0.00120   0.00000  -0.00414  -0.00414   2.91132
   R28        2.92314   0.00078   0.00000   0.00268   0.00270   2.92584
   R29        2.65592   0.00318   0.00000   0.00697   0.00704   2.66296
   R30        2.08115   0.00593   0.00000   0.01727   0.01727   2.09843
   R31        2.06828   0.00674   0.00000   0.01921   0.01921   2.08749
   R32        1.84312   0.00340   0.00000   0.00641   0.00641   1.84954
   R33        2.66258   0.00404   0.00000   0.00898   0.00898   2.67156
   R34        2.07795   0.00662   0.00000   0.01918   0.01918   2.09713
   R35        2.06854   0.00640   0.00000   0.01826   0.01826   2.08680
   R36        1.84741   0.00295   0.00000   0.00561   0.00561   1.85301
   R37        2.65706   0.00179   0.00000   0.00396   0.00391   2.66097
   R38        2.07250   0.00777   0.00000   0.02232   0.02232   2.09482
   R39        2.07087   0.00601   0.00000   0.01722   0.01722   2.08809
   R40        1.84407   0.00437   0.00000   0.00819   0.00815   1.85222
    A1        1.92899   0.00159   0.00000   0.00978   0.00973   1.93872
    A2        1.92664   0.00160   0.00000   0.00943   0.00939   1.93603
    A3        1.92883   0.00126   0.00000   0.00737   0.00733   1.93616
    A4        1.89308  -0.00162   0.00000  -0.00936  -0.00941   1.88367
    A5        1.89203  -0.00145   0.00000  -0.00837  -0.00840   1.88363
    A6        1.89327  -0.00156   0.00000  -0.00981  -0.00984   1.88343
    A7        1.89471  -0.00015   0.00000  -0.00044  -0.00046   1.89425
    A8        1.89372  -0.00099   0.00000  -0.00671  -0.00666   1.88706
    A9        1.90386   0.00118   0.00000   0.00602   0.00592   1.90978
   A10        1.94484   0.00146   0.00000   0.01522   0.01495   1.95979
   A11        1.91604  -0.00122   0.00000  -0.01102  -0.01080   1.90523
   A12        1.91009  -0.00027   0.00000  -0.00304  -0.00289   1.90720
   A13        1.99502  -0.00382   0.00000  -0.01474  -0.01433   1.98069
   A14        1.91695  -0.00019   0.00000  -0.00456  -0.00481   1.91214
   A15        1.89093   0.00171   0.00000   0.00684   0.00697   1.89790
   A16        1.85771   0.00230   0.00000   0.01547   0.01535   1.87306
   A17        1.91379   0.00139   0.00000   0.00857   0.00842   1.92221
   A18        1.88680  -0.00134   0.00000  -0.01183  -0.01183   1.87497
   A19        1.86528   0.00231   0.00000   0.01660   0.01601   1.88130
   A20        2.03914  -0.00090   0.00000   0.00062  -0.00059   2.03855
   A21        2.36382  -0.00114   0.00000  -0.00548  -0.00601   2.35781
   A22        1.99925   0.00218   0.00000   0.01579   0.01608   2.01534
   A23        1.89108  -0.00134   0.00000  -0.01330  -0.01312   1.87797
   A24        1.90185   0.00059   0.00000   0.00796   0.00749   1.90934
   A25        1.84877   0.00007   0.00000   0.00240   0.00221   1.85098
   A26        1.93185  -0.00092   0.00000  -0.00004  -0.00020   1.93165
   A27        1.88709  -0.00077   0.00000  -0.01538  -0.01535   1.87175
   A28        1.89511   0.00152   0.00000   0.00762   0.00809   1.90320
   A29        1.97973  -0.00471   0.00000  -0.01912  -0.01911   1.96062
   A30        1.91961   0.00081   0.00000  -0.00072  -0.00074   1.91887
   A31        1.90005   0.00112   0.00000   0.00595   0.00601   1.90606
   A32        1.85465   0.00167   0.00000   0.00575   0.00567   1.86033
   A33        1.92063   0.00251   0.00000   0.01862   0.01865   1.93928
   A34        1.88689  -0.00130   0.00000  -0.01043  -0.01045   1.87643
   A35        1.84723   0.00066   0.00000   0.00392   0.00392   1.85115
   A36        1.92662   0.00161   0.00000   0.00945   0.00941   1.93603
   A37        1.92897   0.00159   0.00000   0.00979   0.00974   1.93872
   A38        1.92888   0.00125   0.00000   0.00731   0.00727   1.93616
   A39        1.89306  -0.00162   0.00000  -0.00935  -0.00939   1.88367
   A40        1.89326  -0.00155   0.00000  -0.00980  -0.00983   1.88343
   A41        1.89203  -0.00144   0.00000  -0.00836  -0.00840   1.88363
   A42        1.89471  -0.00015   0.00000  -0.00057  -0.00058   1.89413
   A43        1.90385   0.00119   0.00000   0.00615   0.00609   1.90994
   A44        1.89367  -0.00099   0.00000  -0.00643  -0.00648   1.88719
   A45        1.91609  -0.00123   0.00000  -0.01081  -0.01069   1.90540
   A46        1.94484   0.00147   0.00000   0.01488   0.01475   1.95959
   A47        1.91009  -0.00027   0.00000  -0.00317  -0.00301   1.90708
   A48        1.99511  -0.00383   0.00000  -0.01469  -0.01408   1.98103
   A49        1.89091   0.00171   0.00000   0.00696   0.00700   1.89791
   A50        1.91692  -0.00019   0.00000  -0.00471  -0.00499   1.91194
   A51        1.91375   0.00139   0.00000   0.00900   0.00872   1.92247
   A52        1.85773   0.00230   0.00000   0.01500   0.01489   1.87262
   A53        1.88678  -0.00134   0.00000  -0.01183  -0.01180   1.87497
   A54        2.03712  -0.00090   0.00000   0.00045  -0.00066   2.03645
   A55        2.36587  -0.00115   0.00000  -0.00544  -0.00604   2.35983
   A56        1.86536   0.00231   0.00000   0.01674   0.01610   1.88146
   A57        1.97973  -0.00472   0.00000  -0.01920  -0.01918   1.96055
   A58        1.90005   0.00112   0.00000   0.00596   0.00603   1.90608
   A59        1.91963   0.00082   0.00000  -0.00073  -0.00074   1.91888
   A60        1.92063   0.00252   0.00000   0.01866   0.01869   1.93932
   A61        1.85465   0.00168   0.00000   0.00576   0.00568   1.86033
   A62        1.88687  -0.00130   0.00000  -0.01040  -0.01043   1.87644
   A63        1.84728   0.00067   0.00000   0.00398   0.00398   1.85126
   A64        1.99925   0.00217   0.00000   0.01550   0.01582   2.01507
   A65        1.90183   0.00059   0.00000   0.00783   0.00741   1.90924
   A66        1.89111  -0.00134   0.00000  -0.01302  -0.01289   1.87822
   A67        1.93183  -0.00092   0.00000   0.00037   0.00014   1.93196
   A68        1.84879   0.00007   0.00000   0.00209   0.00196   1.85075
   A69        1.88709  -0.00077   0.00000  -0.01532  -0.01529   1.87180
   A70        1.89498   0.00151   0.00000   0.00823   0.00825   1.90323
   A71        3.27404  -0.00055   0.00000  -0.00371  -0.00433   3.26971
   A72        3.27292  -0.00054   0.00000  -0.00474  -0.00541   3.26751
   A73        2.98502   0.00173   0.00000   0.05725   0.05846   3.04348
   A74        2.98293   0.00173   0.00000   0.03449   0.03540   3.01833
    D1        1.03250  -0.00065   0.00000  -0.00807  -0.00791   1.02459
    D2       -3.13447   0.00044   0.00000   0.00610   0.00595  -3.12851
    D3       -1.05486   0.00022   0.00000   0.00199   0.00197  -1.05289
    D4       -1.06182  -0.00070   0.00000  -0.00880  -0.00864  -1.07047
    D5        1.05440   0.00039   0.00000   0.00537   0.00522   1.05961
    D6        3.13400   0.00017   0.00000   0.00126   0.00124   3.13524
    D7        3.12692  -0.00061   0.00000  -0.00741  -0.00724   3.11967
    D8       -1.04005   0.00048   0.00000   0.00676   0.00661  -1.03343
    D9        1.03956   0.00026   0.00000   0.00265   0.00264   1.04219
   D10       -3.09506   0.00009   0.00000   0.06051   0.06047  -3.03459
   D11        1.10180  -0.00016   0.00000   0.05380   0.05378   1.15558
   D12       -0.95560   0.00057   0.00000   0.06664   0.06670  -0.88890
   D13        1.10364   0.00052   0.00000   0.05984   0.05987   1.16351
   D14       -0.98269   0.00027   0.00000   0.05313   0.05319  -0.92950
   D15       -3.04009   0.00100   0.00000   0.06597   0.06610  -2.97398
   D16       -1.01533   0.00073   0.00000   0.06111   0.06107  -0.95426
   D17       -3.10166   0.00047   0.00000   0.05440   0.05439  -3.04727
   D18        1.12413   0.00120   0.00000   0.06724   0.06731   1.19144
   D19        3.03544  -0.00016   0.00000  -0.02025  -0.02037   3.01507
   D20        0.97609  -0.00066   0.00000  -0.02382  -0.02388   0.95221
   D21       -1.07331   0.00069   0.00000  -0.00243  -0.00242  -1.07573
   D22       -1.16267  -0.00010   0.00000  -0.01587  -0.01616  -1.17884
   D23        3.06116  -0.00060   0.00000  -0.01944  -0.01967   3.04149
   D24        1.01176   0.00075   0.00000   0.00195   0.00179   1.01355
   D25        0.95975  -0.00085   0.00000  -0.02182  -0.02195   0.93781
   D26       -1.09960  -0.00135   0.00000  -0.02539  -0.02545  -1.12505
   D27        3.13419  -0.00001   0.00000  -0.00400  -0.00400   3.13019
   D28        3.13043  -0.00067   0.00000  -0.04819  -0.04818   3.08224
   D29        1.05625  -0.00029   0.00000  -0.04249  -0.04252   1.01372
   D30       -1.00817   0.00015   0.00000  -0.03296  -0.03298  -1.04115
   D31        1.05633  -0.00048   0.00000  -0.04474  -0.04475   1.01157
   D32       -1.01785  -0.00009   0.00000  -0.03903  -0.03909  -1.05694
   D33       -3.08227   0.00034   0.00000  -0.02951  -0.02955  -3.11182
   D34       -1.08336  -0.00133   0.00000  -0.05455  -0.05447  -1.13784
   D35        3.12564  -0.00095   0.00000  -0.04885  -0.04881   3.07683
   D36        1.06123  -0.00051   0.00000  -0.03932  -0.03927   1.02196
   D37        0.77211   0.00055   0.00000  -0.00761  -0.00737   0.76474
   D38       -2.52575   0.00182   0.00000   0.05261   0.05312  -2.47263
   D39        2.89140  -0.00045   0.00000  -0.01155  -0.01158   2.87982
   D40       -0.40646   0.00083   0.00000   0.04867   0.04891  -0.35755
   D41       -1.35486  -0.00006   0.00000  -0.01264  -0.01265  -1.36752
   D42        1.63046   0.00122   0.00000   0.04758   0.04784   1.67830
   D43        2.93566  -0.00188   0.00000  -0.07611  -0.07557   2.86008
   D44       -0.51527   0.00086   0.00000   0.01885   0.01906  -0.49620
   D45        1.39622   0.00164   0.00000   0.07095   0.07034   1.46656
   D46       -2.80375   0.00129   0.00000   0.06526   0.06494  -2.73881
   D47       -0.76226  -0.00006   0.00000   0.04838   0.04792  -0.71433
   D48       -2.93251   0.00188   0.00000   0.08386   0.08296  -2.84955
   D49        0.51783  -0.00086   0.00000  -0.01581  -0.01599   0.50184
   D50        0.91488  -0.00034   0.00000  -0.01830  -0.01833   0.89656
   D51        3.02605  -0.00101   0.00000  -0.02676  -0.02681   2.99924
   D52       -1.21832  -0.00033   0.00000  -0.02636  -0.02629  -1.24461
   D53        1.06150   0.00070   0.00000   0.00863   0.00853   1.07003
   D54       -3.13427  -0.00017   0.00000  -0.00119  -0.00119  -3.13546
   D55       -1.05469  -0.00039   0.00000  -0.00522  -0.00511  -1.05980
   D56       -1.03277   0.00065   0.00000   0.00786   0.00776  -1.02502
   D57        1.05464  -0.00022   0.00000  -0.00196  -0.00197   1.05268
   D58        3.13422  -0.00044   0.00000  -0.00599  -0.00589   3.12833
   D59       -3.12723   0.00061   0.00000   0.00722   0.00712  -3.12010
   D60       -1.03981  -0.00026   0.00000  -0.00259  -0.00260  -1.04241
   D61        1.03977  -0.00048   0.00000  -0.00662  -0.00652   1.03324
   D62        3.09455  -0.00009   0.00000  -0.05746  -0.05753   3.03702
   D63        0.95510  -0.00057   0.00000  -0.06428  -0.06436   0.89074
   D64       -1.10225   0.00016   0.00000  -0.05142  -0.05139  -1.15364
   D65        1.01480  -0.00073   0.00000  -0.05824  -0.05833   0.95647
   D66       -1.12465  -0.00121   0.00000  -0.06506  -0.06516  -1.18981
   D67        3.10119  -0.00048   0.00000  -0.05221  -0.05219   3.04900
   D68       -1.10421  -0.00052   0.00000  -0.05673  -0.05691  -1.16112
   D69        3.03953  -0.00100   0.00000  -0.06355  -0.06374   2.97578
   D70        0.98218  -0.00027   0.00000  -0.05070  -0.05078   0.93141
   D71       -3.13077   0.00068   0.00000   0.04843   0.04840  -3.08236
   D72        1.00783  -0.00015   0.00000   0.03319   0.03319   1.04102
   D73       -1.05658   0.00029   0.00000   0.04269   0.04270  -1.01387
   D74       -1.05664   0.00048   0.00000   0.04502   0.04499  -1.01165
   D75        3.08196  -0.00034   0.00000   0.02978   0.02977   3.11173
   D76        1.01755   0.00009   0.00000   0.03928   0.03929   1.05684
   D77        1.08308   0.00133   0.00000   0.05445   0.05444   1.13753
   D78       -1.06151   0.00051   0.00000   0.03922   0.03923  -1.02227
   D79       -3.12591   0.00095   0.00000   0.04871   0.04874  -3.07717
   D80       -3.03594   0.00016   0.00000   0.02349   0.02353  -3.01241
   D81        1.07285  -0.00069   0.00000   0.00545   0.00540   1.07826
   D82       -0.97655   0.00066   0.00000   0.02668   0.02672  -0.94983
   D83        1.16220   0.00010   0.00000   0.01929   0.01948   1.18169
   D84       -1.01219  -0.00075   0.00000   0.00126   0.00135  -1.01084
   D85       -3.06159   0.00059   0.00000   0.02249   0.02267  -3.03892
   D86       -0.96029   0.00086   0.00000   0.02529   0.02535  -0.93494
   D87       -3.13468   0.00001   0.00000   0.00726   0.00722  -3.12746
   D88        1.09910   0.00136   0.00000   0.02849   0.02853   1.12764
   D89        2.52581  -0.00182   0.00000  -0.05274  -0.05315   2.47266
   D90       -0.77126  -0.00055   0.00000   0.00763   0.00746  -0.76380
   D91       -1.63040  -0.00122   0.00000  -0.04718  -0.04742  -1.67781
   D92        1.35572   0.00005   0.00000   0.01318   0.01319   1.36891
   D93        0.40648  -0.00083   0.00000  -0.04830  -0.04855   0.35792
   D94       -2.89059   0.00044   0.00000   0.01207   0.01206  -2.87853
   D95       -0.91424   0.00033   0.00000   0.01823   0.01826  -0.89597
   D96        1.21896   0.00033   0.00000   0.02629   0.02622   1.24518
   D97       -3.02542   0.00101   0.00000   0.02674   0.02679  -2.99863
   D98       -1.39592  -0.00165   0.00000  -0.06755  -0.06707  -1.46299
   D99        0.76252   0.00005   0.00000  -0.04505  -0.04470   0.71782
   D100       2.80401  -0.00129   0.00000  -0.06183  -0.06162   2.74239
         Item               Value     Threshold  Converged?
 Maximum Force            0.011386     0.000015     NO 
 RMS     Force            0.002834     0.000010     NO 
 Maximum Displacement     0.318220     0.000060     NO 
 RMS     Displacement     0.066819     0.000040     NO 
 GradGradGradGradGradGradGradGradGradGradGradGradGradGradGradGradGradGrad

                    Distance matrix (angstroms):
                    1          2          3          4          5
     1  C    0.000000
     2  C    1.533270   0.000000
     3  C    2.493752   1.538834   0.000000
     4  O    3.770436   2.466149   1.409121   0.000000
     5  C    2.494978   1.548324   2.563704   3.078815   0.000000
     6  O    3.786318   2.501098   3.123242   2.977196   1.408169
     7  C    2.509068   1.540621   2.509557   2.899087   2.519050
     8  O    3.777893   2.455111   2.911672   2.571050   2.990838
     9  H    1.103928   2.187962   2.735350   4.026553   3.474885
    10  H    1.104092   2.186143   2.754859   4.100662   2.747403
    11  H    1.103800   2.186013   3.469864   4.624768   2.734845
    12  H    2.777894   2.174010   1.104645   2.032881   2.753349
    13  H    2.640205   2.167751   1.110439   2.072665   3.506215
    14  H    3.920167   2.520156   1.945837   0.978727   3.200953
    15  H    2.649354   2.157049   3.493204   4.084187   1.104971
    16  H    2.738090   2.183162   2.792220   3.439164   1.108529
    17  H    4.206674   2.876380   3.007855   2.616348   1.960760
    18  H    2.733550   2.180259   2.752279   3.225492   3.484051
    19  H    2.737361   2.174885   3.473986   3.935158   2.734475
    20  H    3.960896   2.529292   3.079633   2.642400   2.515749
    21  C    8.858627   7.486255   6.656413   5.455392   7.073933
    22  C    7.494711   6.200076   5.308436   4.233019   5.821301
    23  C    6.660684   5.306521   4.757494   3.758317   4.667750
    24  O    5.470619   4.243123   3.766193   3.105900   3.524522
    25  C    7.887281   6.782203   5.843390   5.044104   6.313143
    26  O    6.918280   5.997648   5.056493   4.565040   5.555146
    27  C    7.073504   5.814509   4.663810   3.510439   5.835198
    28  O    6.062801   4.978093   3.656414   2.781679   5.183895
    29  H    8.872061   7.423641   6.667721   5.358908   7.086772
    30  H    9.368190   8.005945   7.316045   6.182740   7.394532
    31  H    9.574300   8.246719   7.271812   6.079762   7.949042
    32  H    7.393692   6.072014   5.695491   4.779171   5.206804
    33  H    6.549098   5.085045   4.636132   3.476933   4.565301
    34  H    5.775630   4.721248   4.113116   3.632858   4.026194
    35  H    8.669030   7.600261   6.518979   5.697961   7.270095
    36  H    8.461843   7.359986   6.588792   5.828347   6.679432
    37  H    6.414140   5.506199   4.391781   3.900502   5.309530
    38  H    7.039047   5.680722   4.624966   3.298402   5.801878
    39  H    7.997891   6.801172   5.552195   4.450239   6.895118
    40  H    5.181420   4.030658   2.751037   1.811334   4.298529
                    6          7          8          9         10
     6  O    0.000000
     7  C    2.938086   0.000000
     8  O    2.711242   1.413730   0.000000
     9  H    4.654116   2.767070   4.066981   0.000000
    10  H    4.105729   3.482021   4.622137   1.785493   0.000000
    11  H    4.025791   2.759776   4.094866   1.785227   1.785229
    12  H    3.410755   3.470780   3.895956   3.148951   2.581319
    13  H    4.156312   2.802934   3.359690   2.408414   2.978136
    14  H    2.939584   2.392920   1.737675   4.126337   4.480435
    15  H    2.016051   2.760481   3.409290   3.675977   2.999674
    16  H    2.077030   3.482807   3.986174   3.758572   2.524751
    17  H    0.980212   3.506371   3.131501   5.020578   4.368452
    18  H    3.984655   1.104283   2.027191   2.529117   3.756660
    19  H    3.213717   1.109751   2.088159   3.105205   3.753083
    20  H    1.874184   1.930617   0.980561   4.482416   4.672002
    21  C    6.051068   7.858596   6.876122   9.363399   8.885377
    22  C    4.971621   6.765950   5.968834   8.010626   7.443031
    23  C    3.649036   5.828776   5.032061   7.317358   6.680229
    24  O    2.783489   5.046457   4.559450   6.195646   5.378772
    25  C    5.675565   7.621158   7.038368   8.443689   7.618258
    26  O    5.205389   7.053945   6.723967   7.487330   6.511159
    27  C    5.174740   6.291743   5.524045   7.390489   7.096205
    28  O    4.854541   5.673108   5.195549   6.315519   5.986956
    29  H    5.969232   7.577754   6.458913   9.335537   9.034710
    30  H    6.305769   8.418521   7.447847   9.969866   9.353950
    31  H    7.009235   8.648757   7.689728  10.005467   9.560975
    32  H    4.102197   6.591355   5.790493   8.141125   7.376153
    33  H    3.395168   5.318422   4.325604   7.150420   6.750763
    34  H    3.536039   5.718136   5.376472   6.492740   5.500661
    35  H    6.680574   8.422969   7.826538   9.134871   8.380716
    36  H    5.958353   8.209813   7.612351   9.117383   8.162702
    37  H    5.066382   6.538925   6.244876   6.870443   6.051256
    38  H    5.032506   5.885030   4.944070   7.303713   7.232865
    39  H    6.276100   7.278582   6.517704   8.240160   7.978642
    40  H    4.012597   4.695283   4.253825   5.458969   5.199706
                   11         12         13         14         15
    11  H    0.000000
    12  H    3.789121   0.000000
    13  H    3.671556   1.785520   0.000000
    14  H    4.631924   2.833465   2.435755   0.000000
    15  H    2.417050   3.735784   4.299503   4.055665   0.000000
    16  H    3.093037   2.522666   3.752587   3.836411   1.782127
    17  H    4.642466   3.110090   4.096955   2.808912   2.816361
    18  H    3.081137   3.784209   2.589267   2.707039   3.742949
    19  H    2.522823   4.318075   3.789054   3.421318   2.512265
    20  H    4.219781   3.881452   3.796015   1.995199   2.951716
    21  C    9.571778   6.560607   7.386086   5.746755   7.995063
    22  C    8.253695   5.100401   6.071530   4.700803   6.806223
    23  C    7.274868   4.645674   5.693801   4.097939   5.554175
    24  O    6.095257   3.489484   4.785806   3.630863   4.464067
    25  C    8.677298   5.346683   6.604351   5.707240   7.300884
    26  O    7.732566   4.361524   5.814192   5.376904   6.551422
    27  C    7.946810   4.574501   5.200188   4.001576   6.892833
    28  O    7.020052   3.410922   4.108141   3.528605   6.284580
    29  H    9.543978   6.754178   7.359720   5.465510   7.964015
    30  H   10.008114   7.164515   8.136722   6.466963   8.241508
    31  H   10.356038   7.128305   7.901505   6.426225   8.916287
    32  H    7.908214   5.537157   6.685086   5.066152   5.967648
    33  H    7.114244   4.783579   5.526025   3.558295   5.398018
    34  H    6.456275   3.579963   5.079816   4.318557   4.973123
    35  H    9.523020   6.010698   7.157994   6.378260   8.291146
    36  H    9.164843   6.071694   7.437447   6.441227   7.581027
    37  H    7.310358   3.722108   5.040475   4.764687   6.366993
    38  H    7.862952   4.796672   5.109271   3.527535   6.809625
    39  H    8.917030   5.411297   5.962500   4.946856   7.965301
    40  H    6.113797   2.656689   3.296148   2.598075   5.393179
                   16         17         18         19         20
    16  H    0.000000
    17  H    2.230247   0.000000
    18  H    4.331804   4.446913   0.000000
    19  H    3.753644   3.997038   1.785633   0.000000
    20  H    3.505522   2.351675   2.825513   2.383443   0.000000
    21  C    7.058904   5.179050   8.429714   8.639959   6.377052
    22  C    5.704426   4.029889   7.341495   7.584792   5.480640
    23  C    4.643378   2.749506   6.572986   6.504718   4.368902
    24  O    3.322875   1.811514   5.829928   5.701760   3.895272
    25  C    5.923943   4.697172   8.208204   8.425222   6.525134
    26  O    4.990264   4.257873   7.627426   7.845280   6.244811
    27  C    5.816510   4.297008   6.655205   7.249372   5.283162
    28  O    5.051125   4.015522   5.954565   6.679088   5.058786
    29  H    7.242718   5.195464   8.118167   8.338503   6.005453
    30  H    7.327722   5.457122   9.089059   9.109364   6.835284
    31  H    7.885393   6.111854   9.132203   9.494291   7.273395
    32  H    5.131039   3.294489   7.423159   7.145310   5.018099
    33  H    4.801505   2.653611   6.042589   5.981323   3.688020
    34  H    3.564926   2.599226   6.451127   6.391983   4.764393
    35  H    6.876215   5.700768   8.916058   9.290412   7.396478
    36  H    6.246563   5.011401   8.895642   8.920266   6.988679
    37  H    4.817739   4.140664   7.002252   7.412746   5.891297
    38  H    5.991783   4.270631   6.203906   6.837317   4.778605
    39  H    6.828248   5.392231   7.555091   8.269452   6.338814
    40  H    4.276784   3.252699   5.009406   5.699064   4.137483
                   21         22         23         24         25
    21  C    0.000000
    22  C    1.533272   0.000000
    23  C    2.493688   1.538887   0.000000
    24  O    3.770742   2.466519   1.409179   0.000000
    25  C    2.509193   1.540604   2.509729   2.900889   0.000000
    26  O    3.777944   2.455033   2.911832   2.573041   1.413731
    27  C    2.495075   1.548288   2.563540   3.077671   2.518903
    28  O    3.786059   2.500819   3.124259   2.977236   2.936142
    29  H    1.104092   2.186143   2.754550   4.100027   3.482108
    30  H    1.103928   2.187962   2.735445   4.027591   2.767132
    31  H    1.103798   2.186013   3.469835   4.625208   2.760041
    32  H    2.640956   2.167810   1.110439   2.072901   2.802324
    33  H    2.776677   2.173914   1.104653   2.032609   3.470891
    34  H    3.921258   2.520434   1.946002   0.978733   2.395174
    35  H    2.737470   2.174880   3.474132   3.936703   1.109752
    36  H    2.733792   2.180255   2.752434   3.227839   1.104285
    37  H    3.960792   2.529046   3.079373   2.642916   1.930697
    38  H    2.739366   2.183057   2.790674   3.435148   3.482631
    39  H    2.648589   2.157210   3.493121   4.084180   2.761827
    40  H    4.206229   2.874472   3.006531   2.611339   3.501480
                   26         27         28         29         30
    26  O    0.000000
    27  C    2.990418   0.000000
    28  O    2.708936   1.408126   0.000000
    29  H    4.622100   2.747628   4.106349   0.000000
    30  H    4.067070   3.474946   4.653751   1.785490   0.000000
    31  H    4.095032   2.734890   4.024792   1.785230   1.785230
    32  H    3.358674   3.506231   4.156608   2.979075   2.409318
    33  H    3.896645   2.753785   3.413905   2.579644   3.147627
    34  H    1.739222   3.198620   2.936125   4.480516   4.128714
    35  H    2.088190   2.734472   3.211157   3.753243   3.105151
    36  H    2.027198   3.483948   3.982967   3.756811   2.529319
    37  H    0.980573   2.515135   1.871420   4.671761   4.482349
    38  H    3.984911   1.108532   2.077218   2.526325   3.759568
    39  H    3.410895   1.104970   2.015841   2.998336   3.675454
    40  H    3.124498   1.960697   0.980152   4.369878   5.019449
                   31         32         33         34         35
    31  H    0.000000
    32  H    3.672204   0.000000
    33  H    3.788031   1.785528   0.000000
    34  H    4.633082   2.436670   2.833241   0.000000
    35  H    2.523106   3.788625   4.318078   3.423123   0.000000
    36  H    3.081599   2.588511   3.783962   2.710871   1.785637
    37  H    4.219862   3.794845   3.882011   1.993720   2.383783
    38  H    3.094855   3.752096   2.521477   3.831791   3.754256
    39  H    2.416233   4.299612   3.735286   4.055280   2.513966
    40  H    4.641735   4.094873   3.113036   2.799024   3.992532
                   36         37         38         39         40
    36  H    0.000000
    37  H    2.825548   0.000000
    38  H    4.331717   3.503780   0.000000
    39  H    3.744089   2.953436   1.782163   0.000000
    40  H    4.442051   2.343969   2.231486   2.816646   0.000000
 Framework group  C1[X(C10H24O6)]
 Deg. of freedom   114
                         Standard orientation:                         
 ---------------------------------------------------------------------
 Center     Atomic      Atomic             Coordinates (Angstroms)
 Number     Number       Type             X           Y           Z
 ---------------------------------------------------------------------
      1          6           0        4.188538   -1.454828    0.074364
      2          6           0        3.076396   -0.400926    0.016483
      3          6           0        1.990743   -0.888567   -0.959003
[...]
 ,0.00000413,-0.00001125,0.00015818,-0.00003863,-0.00002061,-0.00000214
 ,-0.00000085,-0.00000395,-0.00000210,0.00000448,0.00000114,0.00001982,
 -0.00001733,0.00002737,0.00086977,0.00145446,0.00061731,0.00996991,0.0
 0613904,0.02393874,-0.00032485,0.00134086,0.00108286,-0.00020302,0.000
 35173,-0.00020752,-0.01847081,-0.06214049,-0.05054942,-0.02013590,-0.0
 1222974,-0.02432101,0.00158612,-0.00582846,0.00135528,0.00000859,0.001
 48197,-0.00160433,0.00000242,0.00015900,-0.00026126,-0.00028202,-0.000
 46506,-0.00030947,-0.00007030,-0.00007107,-0.00004607,-0.00008261,-0.0
 0027443,-0.00058782,-0.00035701,0.00011424,-0.00001705,0.00067112,-0.0
 0075662,-0.00028986,-0.00391254,-0.00110447,-0.01091357,0.03216333,0.0
 7534930,-0.00000553,0.00001435,0.00001203,-0.00000946,-0.00002435,-0.0
 0000845,0.00011884,0.00011363,-0.00004166,-0.00029082,-0.00001022,0.00
 007652,0.00000562,0.00000683,-0.00002553,-0.00003093,0.00001341,0.0000
 5700,0.00003910,0.00001328,0.00000214,-0.00007521,0.00003075,0.0000358
 6,0.00000373,-0.00000013,-0.00000132,0.00000365,-0.00000214,-0.0000024
 2,-0.00001051,-0.00000021,0.00000497,0.00000472,-0.00000250,-0.0000008
 7,-0.00002304,-0.00001320,-0.00000286,0.00006905,-0.00006585,-0.000032
 77,-0.00001110,0.00000422,0.00000784,0.00000467,-0.00000285,-0.0000070
 3,0.00005625,-0.00001956,-0.00005650,0.00000259,-0.00000374,-0.0000014
 1,-0.00001418,0.00000309,0.00000826,0.00001156,-0.00001996,-0.00002851
 ,-0.00014300,-0.00063347,0.00016646,-0.00420186,-0.00347713,-0.0119742
 9,0.00088102,-0.00084810,0.00043579,-0.00030421,0.00020587,0.00030934,
 -0.09041114,-0.05764903,-0.26561961,0.00298756,0.00235345,0.01235020,-
 0.00071075,0.00363037,0.00052185,-0.00017007,-0.00056966,0.00042928,0.
 00017075,0.00013558,0.00031072,0.00037789,0.00086029,0.00015678,-0.000
 08704,-0.00000268,-0.00007531,-0.00037562,0.00043025,0.00057900,0.0002
 4869,0.00011076,0.00016069,-0.00001551,-0.00032920,-0.00036182,-0.0070
 2573,-0.00305902,-0.01387017,0.09727550,0.05736613,0.27563868,0.000025
 30,-0.00007868,-0.00007346,-0.00000422,0.,0.00013500,-0.00070155,-0.00
 005675,-0.00004611,0.00115532,-0.00063217,0.00007404,0.00004006,0.0001
 9299,0.00009787,-0.00014014,-0.00016015,-0.00023356,-0.00009988,0.0000
 4614,-0.00008823,0.00029083,-0.00030185,-0.00013596,-0.00001912,0.0000
 0090,0.00001256,-0.00003165,-0.00000531,0.00002461,0.00006215,-0.00000
 261,-0.00002743,-0.00013797,-0.00021372,0.00009317,0.00016294,-0.00001
 800,0.00006803,-0.00011783,0.00057324,0.00008750,0.00005497,-0.0000674
 8,-0.00003788,-0.00000006,-0.00004442,0.00008816,0.00014177,0.00016719
 ,0.00027580,-0.00001285,0.00001787,0.00001377,0.00006907,-0.00005350,-
 0.00002603,-0.00001992,0.00014323,0.00010476,-0.00076004,0.00076991,-0
 .00092476,0.00176760,-0.00082497,0.00067626,0.00099718,0.00092163,-0.0
 0012116,-0.00285259,0.00012960,-0.00166358,-0.02000185,-0.01535628,-0.
 02632132,-0.10933168,-0.04169346,-0.13036684,0.00728012,0.00320305,0.0
 0245024,-0.01060534,-0.00661276,0.00401986,0.00018523,0.00044436,-0.00
 001275,-0.00015289,-0.00017449,-0.00001075,-0.00010556,-0.00010706,0.0
 0015610,-0.00019469,-0.00027873,-0.00019609,-0.00027191,0.00011598,0.0
 0007611,0.00423412,0.00086027,0.00501285,0.00038452,0.00107585,-0.0012
 1825,-0.00166299,-0.00213387,0.00176809,0.13512875,-0.00003264,0.00009
 106,0.00000600,-0.00009197,-0.00025369,0.00003856,0.00060669,0.0010820
 2,-0.00030098,-0.00178722,-0.00020977,0.00003875,0.00028246,0.00044027
 ,-0.00007108,-0.00082472,-0.00016310,0.00012589,0.00025916,0.00015933,
 -0.00003442,-0.00041050,0.00000451,0.00004766,-0.00001189,-0.00000468,
 -0.00001435,0.00000488,-0.00002665,0.00002661,-0.00002701,-0.00002168,
 0.00001515,0.00003226,-0.00006703,0.00012004,-0.00015498,-0.00012631,-
 0.00004084,0.00014701,-0.00025021,0.00002238,-0.00007025,-0.00002817,0
 .00002447,0.00002940,-0.00005700,0.00000108,0.00103154,-0.00017402,-0.
 00019502,-0.00000808,-0.00001664,-0.00001974,-0.00004021,-0.00001943,0
 .00003550,0.00014266,-0.00005815,0.00001181,-0.00027117,0.00023738,0.0
 0044822,0.00075798,0.00014624,-0.00161769,-0.00038086,-0.00192391,-0.0
 0059357,0.00001238,0.00093246,0.00155718,-0.02101483,-0.00917194,-0.03
 035992,-0.03304493,-0.04107780,-0.02486172,-0.00296209,-0.00819729,0.0
 0497091,-0.00347006,-0.00026722,-0.00703728,0.00016005,0.00017743,0.00
 004008,0.00030826,0.00036080,0.00015071,0.00009712,0.00003986,-0.00013
 774,0.00009250,0.00030462,0.00035452,0.00004991,0.00017226,-0.00001191
 ,0.00096840,-0.00127704,-0.00514094,0.00011335,0.00076477,0.00075149,-
 0.00423848,-0.00404999,0.00159222,0.05938200,0.06196880,0.00006594,-0.
 00012318,-0.00013652,0.00005443,0.00023197,0.00008982,-0.00074430,-0.0
 0108934,0.00046906,0.00307569,-0.00068634,-0.00092771,0.00035581,0.000
 10538,0.00033128,-0.00095848,0.00004439,-0.00043053,-0.00017103,-0.000
 08591,-0.00001546,0.00036586,-0.00027178,-0.00040004,-0.00005036,-0.00
 001076,-0.00001698,-0.00000764,0.00003252,0.00002200,0.00007466,0.0000
 1981,-0.00002765,-0.00006991,0.00009574,0.00007893,0.00011735,0.000147
 13,-0.00005324,-0.00009449,0.00070627,0.00026871,-0.00005267,-0.000029
 46,-0.00007083,0.00000837,0.00007745,-0.00002293,0.00135218,-0.0002773
 2,0.00028780,-0.00003925,0.00002921,-0.00002690,0.00007382,-0.00002752
 ,-0.00002862,0.00010651,0.00000608,0.00037095,-0.00105190,0.00057258,-
 0.00171507,0.00109076,0.00085084,0.00124803,-0.00145657,-0.00159692,0.
 00046509,-0.00184068,0.00437169,-0.00086404,-0.00106547,-0.00388849,0.
 00979970,-0.16175652,-0.05445937,-0.34008268,0.00962343,0.01039710,0.0
 0129979,0.00236435,-0.00923388,-0.00357348,0.00025195,0.00060382,-0.00
 008636,-0.00035946,-0.00051410,-0.00011370,0.00020009,-0.00003615,0.00
 010657,0.00036022,-0.00003282,-0.00035370,-0.00011153,0.00062762,-0.00
 000750,0.00489311,-0.00712714,-0.00403651,0.00265149,0.00138854,-0.000
 59285,0.00275885,0.00306408,0.00127989,0.14939860,0.06003687,0.3348428
 7,0.00001663,-0.00002518,-0.00002051,0.00005579,0.00009454,-0.00000024
 ,-0.00003055,-0.00034065,-0.00001957,0.00065494,0.00048913,-0.00021755
 ,-0.00001132,-0.00002008,0.00001382,0.00005131,-0.00001084,-0.00000902
 ,-0.00004249,-0.00001423,-0.00000783,0.00003135,-0.00003435,-0.0000149
 7,-0.00000006,0.00000035,0.00000354,-0.00000107,0.00000113,-0.00000162
 ,0.00001089,0.00000736,-0.00000477,0.00001120,0.00003541,-0.00002868,0
 .00004572,0.00003100,0.00000854,0.00002741,-0.00003053,0.00008162,0.00
 000560,0.00000095,-0.00000542,-0.00000299,-0.00000002,-0.00000219,-0.0
 0006534,0.00002675,-0.00001350,0.00000283,0.00000378,0.00000484,0.0000
 1253,0.00000367,-0.00000690,0.00000547,0.00003210,0.00000940,0.0000927
 8,0.00084952,-0.00008305,-0.00478243,0.00939051,-0.00266209,0.00021509
 ,-0.00029180,0.00114078,0.00025507,0.00003872,-0.00004052,-0.00113160,
 -0.00237835,-0.00232271,0.00104918,0.00065717,0.00082041,-0.12507911,0
 .10460311,-0.04975564,0.01069578,-0.02776540,0.00989147,-0.00027577,-0
 .00075683,-0.00024957,0.00014040,-0.00026860,0.00013906,0.00009090,0.0
 0008124,-0.00008638,0.00001732,-0.00015861,0.00011269,0.00046571,-0.00
 026609,-0.00017820,-0.00019504,0.00000264,-0.00000130,0.00042975,-0.00
 033021,0.00015012,0.00001788,0.00069874,-0.00066023,-0.00107735,-0.000
 03724,-0.00133616,0.12540701,-0.00000170,-0.00000065,-0.00000113,0.000
 03190,0.00006287,-0.00002956,-0.00006423,-0.00021846,0.00005783,-0.000
 75683,0.00121667,-0.00032737,-0.00001797,-0.00008159,0.00002970,-0.000
 03014,0.00011274,-0.00008256,-0.00007646,-0.00011826,0.00003884,0.0000
 6216,0.00018453,-0.00006173,0.00000133,-0.00000414,-0.00000140,0.00000
 512,0.00001268,-0.00000963,-0.00000156,0.00000307,0.00000287,0.0000680
 1,0.00010339,-0.00007620,0.00001210,0.00002055,-0.00000121,-0.00056292
 ,-0.00026247,0.00022145,-0.00000217,0.00001086,0.00000033,-0.00000054,
 0.00003238,-0.00002043,0.00011644,-0.00010400,0.00006721,-0.00000167,0
 .00000425,-0.00000418,0.00001366,0.00002499,-0.00001494,-0.00003228,-0
 .00005259,0.00008641,0.00007594,0.00091820,-0.00010810,-0.00234558,0.0
 0502818,-0.00322946,-0.00062358,0.00037645,-0.00063172,-0.00007443,0.0
 0056220,0.00008459,-0.00121800,-0.00025321,-0.00150525,0.00083833,0.00
 035457,0.00137636,0.09797218,-0.19266414,0.07207172,-0.00049637,-0.034
 05258,0.01209855,0.00017344,0.00010029,-0.00003108,0.00016478,0.000206
 44,0.00010010,-0.00005349,-0.00004919,0.00003393,-0.00009206,0.0002421
 8,-0.00001584,-0.00023395,0.00018668,0.00037186,0.00022977,-0.00042568
 ,-0.00037420,-0.00000759,0.00002900,-0.00008619,0.00000948,0.00060468,
 -0.00008278,-0.00132702,0.00063624,-0.00254432,-0.10023845,0.22088306,
 -0.00000249,0.00001287,0.00000801,-0.00002469,-0.00004283,-0.00000823,
 0.00013912,0.00018711,-0.00011110,-0.00010784,-0.00041451,-0.00011319,
 0.00006019,0.00008457,-0.00001754,-0.00008983,-0.00009006,0.00008779,0
 .00008545,0.00007136,0.00000614,-0.00014292,-0.00005712,0.00000278,-0.
 00000095,-0.00000106,-0.00000337,0.00000130,-0.00000563,0.00000205,-0.
 00000719,-0.00000154,0.00000402,-0.00001489,-0.00003163,0.00001695,-0.
 00006516,-0.00004417,-0.00000589,0.00026471,0.00006896,0.00006905,-0.0
 0001751,-0.00000444,0.00000576,-0.00000193,-0.00002082,-0.00000157,0.0
 0002221,0.00005041,-0.00013427,-0.00000804,-0.00001145,-0.00000714,-0.
 00002098,-0.00000886,0.00001146,0.00008682,0.00000315,-0.00003780,0.00
 086038,0.00104452,0.00024312,-0.01695007,0.02291916,-0.01316234,-0.001
 25790,0.00235009,0.00107369,0.00048217,-0.00051778,0.00009442,-0.00244
 953,-0.00410396,-0.00514257,0.00119233,0.00009189,0.00071232,-0.047488
 67,0.07168317,-0.08814180,0.00210517,0.00058228,0.00291028,-0.00025540
 ,-0.00069244,0.00033416,0.00018651,-0.00023569,0.00006202,-0.00001600,
 -0.00013928,-0.00002572,0.00004445,-0.00027317,0.00054467,0.00080592,-
 0.00101716,-0.00034596,-0.00048739,0.00030435,0.00021302,-0.00010999,-
 0.00003537,0.00017523,-0.00098862,0.00162043,-0.00079483,-0.00020748,-
 0.00012351,-0.00041167,0.05503069,-0.07920277,0.09153694,-0.00002017,0
 .00004919,0.00004040,-0.00003966,-0.00008543,-0.00003953,0.00047648,0.
 00044901,-0.00009691,-0.00123042,0.00042261,-0.00000883,0.00002897,0.0
 0001220,-0.00005925,-0.00005301,0.00002180,0.00011585,0.00012077,0.000
 02629,0.00002699,-0.00024497,0.00013773,0.00006858,0.00000519,-0.00000
 089,-0.00000852,0.00000992,-0.00000272,-0.00000326,-0.00002982,-0.0000
 0637,0.00001432,0.00003810,-0.00000469,-0.00000027,-0.00011162,-0.0000
 5870,-0.00002849,0.00012173,-0.00033233,0.00000458,-0.00002351,0.00001
 251,0.00002089,0.00000586,0.00000063,-0.00001867,0.00003633,-0.0000479
 3,-0.00014441,-0.00000071,-0.00001329,-0.00001183,-0.00003697,0.000009
 81,0.00001780,0.00005177,-0.00006968,-0.00005508,0.00088022,-0.0004714
 2,-0.00162387,0.00647367,-0.00226487,-0.00759162,-0.00073781,-0.000885
 14,-0.00213833,0.00016968,0.00038236,0.00042199,0.00036117,-0.00068903
 ,-0.00021781,0.00070735,0.00013334,0.00050370,-0.19513090,0.04941777,0
 .11724001,-0.02481389,-0.00905363,0.00866987,-0.00004003,0.00003507,0.
 00021200,0.00026649,0.00003379,0.00001757,-0.00001007,-0.00004810,-0.0
 0029397,0.00071220,-0.00025694,-0.00020010,0.00007199,-0.00018020,-0.0
 0001449,-0.00010243,-0.00001537,-0.00024589,0.00008886,-0.00010838,0.0
 0028321,0.00015133,-0.00006646,0.00011847,-0.00099936,0.00055657,-0.00
 097792,-0.00962406,0.00372428,0.00947678,0.22041254,-0.00001311,0.0000
 1878,0.00002471,0.00000066,-0.00002134,-0.00001755,0.00012957,0.000148
 33,-0.00004599,-0.00104827,0.00094611,-0.00003252,-0.00009049,-0.00009
 897,-0.00003582,0.00020088,0.00007118,0.00002476,-0.00001041,-0.000044
 86,0.00000634,0.00000097,0.00013876,0.00005664,0.00000723,0.00000266,0
 .00000182,0.00000332,0.00000108,-0.00000464,-0.00001226,-0.00000405,0.
 00000418,0.00005623,0.00001439,-0.00001750,-0.00001694,-0.00000787,0.0
 0000245,-0.00034002,-0.00028927,-0.00000719,0.00001245,0.00001398,0.00
 000796,0.00000099,0.00001261,-0.00000515,-0.00022796,-0.00001709,0.000
 00644,0.00000832,0.00000159,0.00000432,-0.00000155,0.00001407,-0.00000
 317,-0.00006701,-0.00002561,-0.00002804,0.00055879,-0.00003592,-0.0011
 7536,0.00486103,-0.00109039,-0.00334700,-0.00108615,-0.00050124,-0.001
 64659,0.00032120,0.00043602,0.00011794,-0.00077514,0.00011458,0.000840
 11,0.00039907,0.00019998,0.00045459,0.05545759,-0.06510026,-0.03678332
 ,-0.03691903,-0.00006329,0.01620199,0.00018537,-0.00005133,0.00001550,
 -0.00009486,-0.00010737,0.00029964,-0.00074810,-0.00011214,-0.00044228
 ,0.00030099,0.00012287,-0.00065183,-0.00035836,0.00041336,0.00011832,0
 .00003370,-0.00020006,-0.00012575,0.00000762,0.00021550,-0.00000274,0.
 00000361,-0.00004864,-0.00002658,-0.00053046,0.00022436,-0.00048757,0.
 01688033,-0.00271025,-0.01499656,-0.03668270,0.07206528,-0.00000027,-0
 .00000472,0.00001310,0.00000600,0.00000912,-0.00000921,0.00000626,-0.0
 0001618,-0.00001394,0.00016683,-0.00005590,0.00007580,-0.00009797,-0.0
 0009851,-0.00002225,0.00028152,0.00001736,0.00005337,-0.00001659,0.000
 00881,-0.00000257,0.00002297,-0.00001851,0.00005113,0.00000539,0.00000
 405,0.00000512,-0.00000259,-0.00000151,-0.00000241,-0.00000045,-0.0000
 0073,-0.00000241,-0.00000665,-0.00001543,-0.00000127,0.00000561,0.0000
 0332,0.00001001,0.00008455,0.00003148,-0.00006373,0.00002119,0.0000080
 8,-0.00000122,-0.00000475,0.00000275,0.00000582,-0.00037616,0.00006335
 ,-0.00003930,0.00000486,0.00000066,0.00000781,-0.00000111,-0.00000168,
 -0.00000259,-0.00003961,0.00002548,-0.00007042,0.00173084,0.00073522,0
 .00064140,0.02272240,-0.00979264,-0.02112575,-0.00489197,-0.00128270,-
 0.00440355,0.00037147,0.00084490,0.00020943,0.00211746,-0.00092971,0.0
 0085285,-0.00067688,0.00030947,0.00013858,0.11791899,-0.03341219,-0.14
 678967,0.00008382,0.00286446,0.00600835,-0.00014377,-0.00008458,-0.000
 03155,-0.00019186,0.00037138,0.00030814,-0.00121299,-0.00043560,0.0002
 2343,0.00133238,-0.00086128,-0.00135011,-0.00011053,-0.00004775,0.0002
 5471,0.00026148,-0.00047921,0.00012244,-0.00095070,0.00079953,-0.00003
 118,-0.00034160,-0.00002896,0.00040399,0.00041325,-0.00027962,-0.00017
 684,-0.01035494,0.00254357,0.00925456,-0.12662024,0.03899853,0.1557547
 2,0.00053660,-0.00096486,-0.00088873,0.00107738,0.00230240,0.00053339,
 -0.00874161,-0.01153614,0.00290981,-0.00299895,-0.00518438,0.00016632,
 0.00083186,0.00045688,0.00149645,-0.00215350,-0.00051433,-0.00195321,-
 0.00186181,-0.00011725,-0.00011358,0.00356512,-0.00336251,-0.00190884,
 -0.00014959,-0.00003649,0.00005425,-0.00010083,0.00010329,0.00003176,0
 .00052313,0.00019923,-0.00021542,0.00019680,0.00100077,-0.00036143,0.0
 0211585,0.00139535,0.00033971,0.00282351,0.00992408,-0.00060538,0.0000
 3509,-0.00021959,-0.00037918,-0.00006482,0.00009244,0.00005103,0.00322
 424,-0.00018573,0.00134220,-0.00008299,0.00015548,0.00006144,0.0004975
 7,-0.00016719,-0.00022544,0.00016929,0.00098081,0.00135121,-0.00001267
 ,0.00005397,0.00125500,0.00047916,0.00120912,-0.00111215,0.00183169,-0
 .00043354,-0.00157914,-0.00409961,0.00074420,0.00200656,-0.00143024,-0
 .00024268,-0.00026761,0.00152858,-0.00005618,0.00479101,-0.02696065,-0
 .00811015,0.00302066,-0.36585047,0.08779761,0.03735036,-0.00006989,-0.
 00000294,-0.00015350,0.00047203,0.00033084,0.00021203,-0.00011933,-0.0
 0006473,-0.00004676,-0.00035421,0.00009178,0.00046069,-0.00000329,0.00
 022711,-0.00014207,0.00149654,-0.00088333,-0.00160320,-0.00009277,0.00
 010978,-0.00017088,0.00034428,0.00000677,0.00042818,-0.00267849,0.0038
 4458,-0.00709914,0.00251065,0.00476006,-0.00012875,0.00205878,-0.00040
 710,-0.00151564,0.39150759,-0.00028460,0.00036777,0.00033688,-0.000813
 39,-0.00163876,-0.00000791,-0.00127055,0.00701373,-0.00132614,-0.00236
 430,-0.01352947,0.00238854,0.00013716,0.00033949,-0.00041946,-0.000069
 46,-0.00013078,0.00063059,0.00071134,0.00015244,-0.00013826,-0.0007788
 0,0.00024001,0.00031051,0.00002389,0.00002443,-0.00001641,0.00000864,-
 0.00005508,0.00003890,-0.00016619,-0.00011727,0.00007526,-0.00051813,-
 0.00096454,0.00083472,-0.00116068,-0.00091908,-0.00004324,0.00189107,-
 0.00096712,-0.00047069,-0.00004511,-0.00001689,0.00007552,0.00002858,-
 0.00011245,0.00005163,-0.00019840,0.00009518,-0.00067933,-0.00000005,-
 0.00004099,-0.00002078,-0.00011237,-0.00004843,0.00008923,0.00015434,-
 0.00019627,-0.00030684,-0.00014852,-0.00026459,-0.00094073,-0.00175978
 ,-0.00185076,0.00066911,-0.00133258,-0.00011028,-0.00060071,0.00102654
 ,-0.00077718,0.00023128,0.00027675,-0.00006918,0.00010421,-0.00040878,
 -0.00021313,0.00052227,-0.03882235,0.00911255,0.00376128,0.13145433,-0
 .09167090,-0.01123470,-0.00000919,-0.00006079,0.00008156,-0.00013222,-
 0.00030155,-0.00010799,0.00026123,0.00007165,-0.00003321,0.00023836,-0
 .00016573,0.00005808,0.00011810,-0.00041998,0.00001388,-0.00015703,0.0
 0091564,0.00050455,0.00001025,-0.00010940,0.00004303,-0.00007890,-0.00
 005968,-0.00004210,0.00262956,-0.00030068,-0.00088675,-0.00096065,-0.0
 0091993,0.00099749,-0.00408068,-0.00464552,0.00020587,-0.08329744,0.10
 234349,0.00008417,-0.00009436,-0.00014890,0.00047316,0.00045384,-0.000
 21440,0.00133881,-0.00086246,-0.00010358,0.00138278,0.00244269,-0.0042
 6287,0.00060828,0.00027413,0.00023526,-0.00116578,0.00006218,0.0000145
 3,0.00007525,0.00000303,0.00005043,-0.00024592,0.00011222,-0.00022231,
 -0.00005223,-0.00001293,-0.00001893,0.00001993,0.00003334,0.00000060,0
 .00003999,0.00002894,-0.00000869,0.00040988,0.00046491,0.00017478,-0.0
 0071255,-0.00019030,-0.00010178,-0.00086927,-0.00072508,-0.00058218,-0
 .00014978,0.00001312,-0.00004848,-0.00001569,0.00008706,-0.00013669,0.
 00139745,-0.00067773,-0.00061707,-0.00004591,-0.00001290,-0.00005688,-
 0.00000601,0.00000442,-0.00000665,0.00027318,-0.00019569,0.00031301,0.
 00005995,-0.00049153,-0.00070430,-0.00220304,-0.00086531,-0.00019516,-
 0.00271179,-0.00277886,0.00015808,0.00175932,0.00220160,0.00191972,-0.
 00036347,-0.00035681,0.00039519,0.00110114,-0.00004423,-0.00322435,0.0
 0187322,0.00064725,-0.00231653,0.03508422,-0.00826251,-0.01563653,0.00
 000810,0.00007868,0.00004918,-0.00015235,-0.00015533,-0.00003019,0.000
 10058,0.00008089,-0.00004116,0.00052584,0.00029785,0.00005366,0.000093
 75,0.00011655,-0.00008706,-0.00139507,0.00051402,-0.00201328,0.0002665
 4,0.00004280,-0.00008647,0.00001743,0.00013785,-0.00004192,-0.00333499
 ,0.00042422,0.00321128,0.00067660,-0.00074328,0.00109655,0.00314629,0.
 00269691,-0.00025482,-0.03739201,0.00525082,0.02348888\\-0.00000004,0.
 00000016,-0.00000043,0.00000004,0.00000015,-0.00000058,-0.00000004,-0.
 00000035,-0.00000007,0.00000040,-0.00000017,-0.00000044,-0.00000016,0.
 00000030,-0.00000022,-0.00000066,0.00000034,-0.00000032,0.00000044,0.0
 0000036,-0.00000058,-0.00000033,0.00000014,-0.00000104,-0.00000002,0.0
 0000010,-0.00000088,-0.00000003,-0.00000006,-0.00000030,-0.00000036,0.
 00000038,-0.00000050,0.00000012,-0.00000002,-0.00000002,0.00000018,0.,
 -0.00000033,0.00000028,0.00000013,-0.00000027,-0.00000050,0.00000030,-
 0.00000047,-0.00000020,0.00000003,-0.00000014,0.00000026,-0.00000015,-
 0.00000024,0.00000013,-0.00000015,-0.00000082,-0.00000017,0.00000023,-
 0.00000069,0.00000048,0.00000016,0.00000020,0.00000003,-0.00000016,0.0
 0000045,0.00000010,-0.00000004,0.00000072,0.00000038,0.00000045,0.0000
 0007,-0.00000047,-0.00000019,-0.00000005,-0.00000053,-0.00000044,0.000
 00056,0.00000012,0.00000015,0.00000127,-0.00000022,-0.00000077,0.00000
 021,0.00000089,0.,0.00000026,0.00000004,0.00000005,0.00000027,0.000000
 05,-0.00000007,0.00000087,0.00000037,-0.00000038,0.00000050,-0.0000001
 6,-0.00000002,0.00000035,-0.00000011,0.,0.00000008,-0.00000029,0.00000
 004,0.00000043,0.00000020,-0.00000019,0.00000068,-0.00000010,0.0000002
 2,0.00000080,-0.00000045,-0.00000023,-0.00000031,0.00000027,0.00000004
 ,0.00000009,0.00000052,-0.00000031,0.00000051,-0.00000044,0.,0.0000004
 0\\\@


 EVERYTHING'S GOT A MORAL, IF ONLY YOU CAN FIND IT.

                                    -- LEWIS CARROL, ALICE IN WONDERLAND
 File lengths (MBytes):  RWF=    368 Int=      0 D2E=      0 Chk=      7 Scr=      1
 Normal termination of Gaussian 16 at Thu Sep  1 01:15:40 2022.
real 7710.03
user 30564.27
sys 36.42
