 Entering Gaussian System, Link 0=g16
 Input=gaussian_test.inp
 Output=gaussian_test.log
 Initial command:
 /sw/restricted/lms/sw/Gaussian/g16_B01/g16/l1.exe "/scratch/user/peterchao1/peterchao1/7000725_1675660936000000649630039/Gau-132898.inp" -scrdir="/scratch/user/peterchao1/peterchao1/7000725_1675660936000000649630039/"
 Entering Link 1 = /sw/restricted/lms/sw/Gaussian/g16_B01/g16/l1.exe PID=    134172.
  
 Copyright (c) 1988-2017, Gaussian, Inc.  All Rights Reserved.
  
 This is part of the Gaussian(R) 16 program.  It is based on
 the Gaussian(R) 09 system (copyright 2009, Gaussian, Inc.),
 the Gaussian(R) 03 system (copyright 2003, Gaussian, Inc.),
 the Gaussian(R) 98 system (copyright 1998, Gaussian, Inc.),
 the Gaussian(R) 94 system (copyright 1995, Gaussian, Inc.),
 the Gaussian 92(TM) system (copyright 1992, Gaussian, Inc.),
 the Gaussian 90(TM) system (copyright 1990, Gaussian, Inc.),
 the Gaussian 88(TM) system (copyright 1988, Gaussian, Inc.),
 the Gaussian 86(TM) system (copyright 1986, Carnegie Mellon
 University), and the Gaussian 82(TM) system (copyright 1983,
 Carnegie Mellon University). Gaussian is a federally registered
 trademark of Gaussian, Inc.
  
 This software contains proprietary and confidential information,
 including trade secrets, belonging to Gaussian, Inc.
  
 This software is provided under written license and may be
 used, copied, transmitted, or stored only in accord with that
 written license.
  
 The following legend is applicable only to US Government
 contracts under FAR:
  
                    RESTRICTED RIGHTS LEGEND
  
 Use, reproduction and disclosure by the US Government is
 subject to restrictions as set forth in subparagraphs (a)
 and (c) of the Commercial Computer Software - Restricted
 Rights clause in FAR 52.227-19.
  
 Gaussian, Inc.
 340 Quinnipiac St., Bldg. 40, Wallingford CT 06492
  
  
 ---------------------------------------------------------------
 Warning -- This program may not be used in any manner that
 competes with the business of Gaussian, Inc. or will provide
 assistance to any competitor of Gaussian, Inc.  The licensee
 of this program is prohibited from giving any competitor of
 Gaussian, Inc. access to this program.  By using this program,
 the user acknowledges that Gaussian, Inc. is engaged in the
 business of creating and licensing software in the field of
 computational chemistry and represents and warrants to the
 licensee that it is not a competitor of Gaussian, Inc. and that
 it will not use this program in any manner prohibited above.
 ---------------------------------------------------------------
  

 Cite this work as:
 Gaussian 16, Revision B.01,
 M. J. Frisch, G. W. Trucks, H. B. Schlegel, G. E. Scuseria, 
 M. A. Robb, J. R. Cheeseman, G. Scalmani, V. Barone, 
 G. A. Petersson, H. Nakatsuji, X. Li, M. Caricato, A. V. Marenich, 
 J. Bloino, B. G. Janesko, R. Gomperts, B. Mennucci, H. P. Hratchian, 
 J. V. Ortiz, A. F. Izmaylov, J. L. Sonnenberg, D. Williams-Young, 
 F. Ding, F. Lipparini, F. Egidi, J. Goings, B. Peng, A. Petrone, 
 T. Henderson, D. Ranasinghe, V. G. Zakrzewski, J. Gao, N. Rega, 
 G. Zheng, W. Liang, M. Hada, M. Ehara, K. Toyota, R. Fukuda, 
 J. Hasegawa, M. Ishida, T. Nakajima, Y. Honda, O. Kitao, H. Nakai, 
 T. Vreven, K. Throssell, J. A. Montgomery, Jr., J. E. Peralta, 
 F. Ogliaro, M. J. Bearpark, J. J. Heyd, E. N. Brothers, K. N. Kudin, 
 V. N. Staroverov, T. A. Keith, R. Kobayashi, J. Normand, 
 K. Raghavachari, A. P. Rendell, J. C. Burant, S. S. Iyengar, 
 J. Tomasi, M. Cossi, J. M. Millam, M. Klene, C. Adamo, R. Cammi, 
 J. W. Ochterski, R. L. Martin, K. Morokuma, O. Farkas, 
 J. B. Foresman, and D. J. Fox, Gaussian, Inc., Wallingford CT, 2016.
 
 ******************************************
 Gaussian 16:  ES64L-G16RevB.01 20-Dec-2017
                 5-Feb-2023 
 ******************************************
 %nprocshared=4
 Will use up to    4 processors via shared memory.
 %mem=8000mb
 %chk=20.chk
 %nprocshared=4
 Will use up to    4 processors via shared memory.
 %mem=8000mb
 ----------------------------------------------------------------------
 #T wB97XD/def2svpp opt=tight freq int(grid=ultrafine) scf=(verytight,q
 c) Volume=tight
 ----------------------------------------------------------------------
 -----
 Dimer
 -----
 Symbolic Z-matrix:
 Charge =  0 Multiplicity = 1
 O                    -0.9302    2.32161   1.8293 
 C                    -1.55136   1.06852   1.89303 
 C                    -2.33221   0.67386   0.60865 
 C                    -3.3353    1.79343   0.25257 
 O                    -2.71479   3.01273  -0.06512 
 C                    -1.37324   0.43329  -0.57353 
 O                    -0.59515   1.55421  -0.90279 
 C                    -3.07425  -0.61463   0.94154 
 Br                   -4.16003  -1.29392  -0.52609 
 H                    -0.09606   2.24809   1.32791 
 H                    -2.26251   1.128     2.7253 
 H                    -0.82543   0.27839   2.12551 
 H                    -4.03379   1.92544   1.09255 
 H                    -3.91336   1.51133  -0.63285 
 H                    -2.16185   3.25509   0.70092 
 H                    -1.95964   0.11683  -1.44851 
 H                    -0.67423  -0.37266  -0.32263 
 H                    -1.20427   2.31182  -0.9792 
 H                    -3.76456  -0.46436   1.77129 
 H                    -2.37666  -1.4149    1.18883 
 O                     3.8642    2.74907  -0.61667 
 C                     4.36422   1.4628   -0.37165 
 C                     3.24729   0.40238  -0.21259 
 C                     2.32392   0.79852   0.95761 
 O                     1.67015   2.02546   0.79301 
 C                     2.47308   0.2788   -1.54893 
 O                     1.95553   1.49255  -2.02197 
 C                     3.92461  -0.92371   0.10677 
 Br                    2.65882  -2.38045   0.36412 
 H                     3.27568   2.67529  -1.39429 
 H                     4.95065   1.53141   0.55081 
 H                     5.03849   1.15119  -1.18344 
 H                     2.92414   0.80953   1.88262 
 H                     1.53606   0.04779   1.07421 
 H                     2.33773   2.68193   0.5248 
 H                     1.6758   -0.46537  -1.44009 
 H                     3.16921  -0.0793   -2.31753 
 H                     1.10135   1.657    -1.57966 
 H                     4.49682  -0.8627    1.0324 
 H                     4.57911  -1.23881  -0.70545 
 
 Add virtual bond connecting atoms O25        and H10        Dist= 3.51D+00.
 Add virtual bond connecting atoms H38        and O7         Dist= 3.46D+00.

 GradGradGradGradGradGradGradGradGradGradGradGradGradGradGradGradGradGrad
 Initialization pass.
                           ----------------------------
                           !    Initial Parameters    !
                           ! (Angstroms and Degrees)  !
 --------------------------                            --------------------------
 ! Name  Definition              Value          Derivative Info.                !
 --------------------------------------------------------------------------------
 ! R1    R(1,2)                  1.4001         estimate D2E/DX2                !
 ! R2    R(1,10)                 0.976          estimate D2E/DX2                !
 ! R3    R(2,3)                  1.5541         estimate D2E/DX2                !
 ! R4    R(2,11)                 1.0963         estimate D2E/DX2                !
 ! R5    R(2,12)                 1.0979         estimate D2E/DX2                !
 ! R6    R(3,4)                  1.5448         estimate D2E/DX2                !
 ! R7    R(3,6)                  1.5411         estimate D2E/DX2                !
 ! R8    R(3,8)                  1.5237         estimate D2E/DX2                !
 ! R9    R(4,5)                  1.4045         estimate D2E/DX2                !
 ! R10   R(4,13)                 1.1004         estimate D2E/DX2                !
 ! R11   R(4,14)                 1.0944         estimate D2E/DX2                !
 ! R12   R(5,15)                 0.9753         estimate D2E/DX2                !
 ! R13   R(6,7)                  1.4037         estimate D2E/DX2                !
 ! R14   R(6,16)                 1.0998         estimate D2E/DX2                !
 ! R15   R(6,17)                 1.096          estimate D2E/DX2                !
 ! R16   R(7,18)                 0.9751         estimate D2E/DX2                !
 ! R17   R(7,38)                 1.8294         estimate D2E/DX2                !
 ! R18   R(8,9)                  1.9479         estimate D2E/DX2                !
 ! R19   R(8,19)                 1.0898         estimate D2E/DX2                !
 ! R20   R(8,20)                 1.0901         estimate D2E/DX2                !
 ! R21   R(10,25)                1.8588         estimate D2E/DX2                !
 ! R22   R(21,22)                1.4016         estimate D2E/DX2                !
 ! R23   R(21,30)                0.978          estimate D2E/DX2                !
 ! R24   R(22,23)                1.5483         estimate D2E/DX2                !
 ! R25   R(22,31)                1.0952         estimate D2E/DX2                !
 ! R26   R(22,32)                1.1003         estimate D2E/DX2                !
 ! R27   R(23,24)                1.5424         estimate D2E/DX2                !
 ! R28   R(23,26)                1.5493         estimate D2E/DX2                !
 ! R29   R(23,28)                1.5229         estimate D2E/DX2                !
 ! R30   R(24,25)                1.4            estimate D2E/DX2                !
 ! R31   R(24,33)                1.1027         estimate D2E/DX2                !
 ! R32   R(24,34)                1.0945         estimate D2E/DX2                !
 ! R33   R(25,35)                0.9739         estimate D2E/DX2                !
 ! R34   R(26,27)                1.4017         estimate D2E/DX2                !
 ! R35   R(26,36)                1.096          estimate D2E/DX2                !
 ! R36   R(26,37)                1.0971         estimate D2E/DX2                !
 ! R37   R(27,38)                0.9759         estimate D2E/DX2                !
 ! R38   R(28,29)                1.9469         estimate D2E/DX2                !
 ! R39   R(28,39)                1.0899         estimate D2E/DX2                !
 ! R40   R(28,40)                1.0897         estimate D2E/DX2                !
 ! A1    A(2,1,10)             109.5815         estimate D2E/DX2                !
 ! A2    A(1,2,3)              114.368          estimate D2E/DX2                !
 ! A3    A(1,2,11)             105.89           estimate D2E/DX2                !
 ! A4    A(1,2,12)             111.1264         estimate D2E/DX2                !
 ! A5    A(3,2,11)             108.3763         estimate D2E/DX2                !
 ! A6    A(3,2,12)             108.9333         estimate D2E/DX2                !
 ! A7    A(11,2,12)            107.891          estimate D2E/DX2                !
 ! A8    A(2,3,4)              109.4335         estimate D2E/DX2                !
 ! A9    A(2,3,6)              111.1592         estimate D2E/DX2                !
 ! A10   A(2,3,8)              106.1936         estimate D2E/DX2                !
 ! A11   A(4,3,6)              109.8989         estimate D2E/DX2                !
 ! A12   A(4,3,8)              110.3039         estimate D2E/DX2                !
 ! A13   A(6,3,8)              109.7934         estimate D2E/DX2                !
 ! A14   A(3,4,5)              113.2307         estimate D2E/DX2                !
 ! A15   A(3,4,13)             108.8538         estimate D2E/DX2                !
 ! A16   A(3,4,14)             110.0385         estimate D2E/DX2                !
 ! A17   A(5,4,13)             110.4236         estimate D2E/DX2                !
 ! A18   A(5,4,14)             105.9108         estimate D2E/DX2                !
 ! A19   A(13,4,14)            108.2527         estimate D2E/DX2                !
 ! A20   A(4,5,15)             106.7702         estimate D2E/DX2                !
 ! A21   A(3,6,7)              113.5917         estimate D2E/DX2                !
 ! A22   A(3,6,16)             108.87           estimate D2E/DX2                !
 ! A23   A(3,6,17)             109.6372         estimate D2E/DX2                !
 ! A24   A(7,6,16)             109.7985         estimate D2E/DX2                !
 ! A25   A(7,6,17)             106.7019         estimate D2E/DX2                !
 ! A26   A(16,6,17)            108.0949         estimate D2E/DX2                !
 ! A27   A(6,7,18)             107.0109         estimate D2E/DX2                !
 ! A28   A(6,7,38)             130.2187         estimate D2E/DX2                !
 ! A29   A(18,7,38)            120.4394         estimate D2E/DX2                !
 ! A30   A(3,8,9)              113.6874         estimate D2E/DX2                !
 ! A31   A(3,8,19)             110.9917         estimate D2E/DX2                !
 ! A32   A(3,8,20)             111.0222         estimate D2E/DX2                !
 ! A33   A(9,8,19)             105.585          estimate D2E/DX2                !
 ! A34   A(9,8,20)             105.7608         estimate D2E/DX2                !
 ! A35   A(19,8,20)            109.5051         estimate D2E/DX2                !
 ! A36   A(22,21,30)           106.5256         estimate D2E/DX2                !
 ! A37   A(21,22,23)           112.9003         estimate D2E/DX2                !
 ! A38   A(21,22,31)           106.3057         estimate D2E/DX2                !
 ! A39   A(21,22,32)           110.4581         estimate D2E/DX2                !
 ! A40   A(23,22,31)           110.0373         estimate D2E/DX2                !
 ! A41   A(23,22,32)           108.8983         estimate D2E/DX2                !
 ! A42   A(31,22,32)           108.12           estimate D2E/DX2                !
 ! A43   A(22,23,24)           109.506          estimate D2E/DX2                !
 ! A44   A(22,23,26)           109.056          estimate D2E/DX2                !
 ! A45   A(22,23,28)           107.2818         estimate D2E/DX2                !
 ! A46   A(24,23,26)           112.0694         estimate D2E/DX2                !
 ! A47   A(24,23,28)           109.3176         estimate D2E/DX2                !
 ! A48   A(26,23,28)           109.4909         estimate D2E/DX2                !
 ! A49   A(23,24,25)           114.5487         estimate D2E/DX2                !
 ! A50   A(23,24,33)           108.2481         estimate D2E/DX2                !
 ! A51   A(23,24,34)           109.6092         estimate D2E/DX2                !
 ! A52   A(25,24,33)           110.1244         estimate D2E/DX2                !
 ! A53   A(25,24,34)           106.1114         estimate D2E/DX2                !
 ! A54   A(33,24,34)           108.0168         estimate D2E/DX2                !
 ! A55   A(10,25,24)           120.9884         estimate D2E/DX2                !
 ! A56   A(10,25,35)           130.5278         estimate D2E/DX2                !
 ! A57   A(24,25,35)           107.6384         estimate D2E/DX2                !
 ! A58   A(23,26,27)           113.9857         estimate D2E/DX2                !
 ! A59   A(23,26,36)           109.3905         estimate D2E/DX2                !
 ! A60   A(23,26,37)           108.2545         estimate D2E/DX2                !
 ! A61   A(27,26,36)           110.6608         estimate D2E/DX2                !
 ! A62   A(27,26,37)           106.2898         estimate D2E/DX2                !
 ! A63   A(36,26,37)           108.0305         estimate D2E/DX2                !
 ! A64   A(26,27,38)           108.4304         estimate D2E/DX2                !
 ! A65   A(23,28,29)           112.9598         estimate D2E/DX2                !
 ! A66   A(23,28,39)           111.2748         estimate D2E/DX2                !
 ! A67   A(23,28,40)           111.2623         estimate D2E/DX2                !
 ! A68   A(29,28,39)           105.7207         estimate D2E/DX2                !
 ! A69   A(29,28,40)           105.823          estimate D2E/DX2                !
 ! A70   A(39,28,40)           109.5043         estimate D2E/DX2                !
 ! A71   L(1,10,25,6,-1)       189.2692         estimate D2E/DX2                !
 ! A72   L(7,38,27,24,-1)      181.5957         estimate D2E/DX2                !
 ! A73   L(1,10,25,6,-2)       190.9593         estimate D2E/DX2                !
 ! A74   L(7,38,27,24,-2)      165.9957         estimate D2E/DX2                !
 ! D1    D(10,1,2,3)           -79.7611         estimate D2E/DX2                !
 ! D2    D(10,1,2,11)          160.9787         estimate D2E/DX2                !
 ! D3    D(10,1,2,12)           44.0794         estimate D2E/DX2                !
 ! D4    D(2,1,25,24)          -26.1916         estimate D2E/DX2                !
 ! D5    D(2,1,25,35)          172.4118         estimate D2E/DX2                !
 ! D6    D(1,2,3,4)            -53.7167         estimate D2E/DX2                !
 ! D7    D(1,2,3,6)             67.8555         estimate D2E/DX2                !
 ! D8    D(1,2,3,8)           -172.7701         estimate D2E/DX2                !
 ! D9    D(11,2,3,4)            64.135          estimate D2E/DX2                !
 ! D10   D(11,2,3,6)          -174.2927         estimate D2E/DX2                !
 ! D11   D(11,2,3,8)           -54.9184         estimate D2E/DX2                !
 ! D12   D(12,2,3,4)          -178.724          estimate D2E/DX2                !
 ! D13   D(12,2,3,6)           -57.1517         estimate D2E/DX2                !
 ! D14   D(12,2,3,8)            62.2226         estimate D2E/DX2                !
 ! D15   D(2,3,4,5)             63.494          estimate D2E/DX2                !
 ! D16   D(2,3,4,13)           -59.7256         estimate D2E/DX2                !
 ! D17   D(2,3,4,14)          -178.2048         estimate D2E/DX2                !
 ! D18   D(6,3,4,5)            -58.8349         estimate D2E/DX2                !
 ! D19   D(6,3,4,13)           177.9455         estimate D2E/DX2                !
 ! D20   D(6,3,4,14)            59.4662         estimate D2E/DX2                !
 ! D21   D(8,3,4,5)            179.9725         estimate D2E/DX2                !
 ! D22   D(8,3,4,13)            56.7529         estimate D2E/DX2                !
 ! D23   D(8,3,4,14)           -61.7263         estimate D2E/DX2                !
 ! D24   D(2,3,6,7)            -59.6431         estimate D2E/DX2                !
 ! D25   D(2,3,6,16)           177.6826         estimate D2E/DX2                !
 ! D26   D(2,3,6,17)            59.6185         estimate D2E/DX2                !
 ! D27   D(4,3,6,7)             61.6571         estimate D2E/DX2                !
 ! D28   D(4,3,6,16)           -61.0173         estimate D2E/DX2                !
 ! D29   D(4,3,6,17)          -179.0814         estimate D2E/DX2                !
 ! D30   D(8,3,6,7)           -176.8444         estimate D2E/DX2                !
 ! D31   D(8,3,6,16)            60.4812         estimate D2E/DX2                !
 ! D32   D(8,3,6,17)           -57.5829         estimate D2E/DX2                !
 ! D33   D(2,3,8,9)            179.0293         estimate D2E/DX2                !
 ! D34   D(2,3,8,19)            60.1759         estimate D2E/DX2                !
 ! D35   D(2,3,8,20)           -61.8691         estimate D2E/DX2                !
 ! D36   D(4,3,8,9)             60.5489         estimate D2E/DX2                !
 ! D37   D(4,3,8,19)           -58.3045         estimate D2E/DX2                !
 ! D38   D(4,3,8,20)           179.6505         estimate D2E/DX2                !
 ! D39   D(6,3,8,9)            -60.7065         estimate D2E/DX2                !
 ! D40   D(6,3,8,19)          -179.5599         estimate D2E/DX2                !
 ! D41   D(6,3,8,20)            58.3951         estimate D2E/DX2                !
 ! D42   D(3,4,5,15)           -56.7145         estimate D2E/DX2                !
 ! D43   D(13,4,5,15)           65.6354         estimate D2E/DX2                !
 ! D44   D(14,4,5,15)         -177.3847         estimate D2E/DX2                !
 ! D45   D(3,6,7,18)           -49.686          estimate D2E/DX2                !
 ! D46   D(3,6,7,38)           148.0353         estimate D2E/DX2                !
 ! D47   D(16,6,7,18)           72.4754         estimate D2E/DX2                !
 ! D48   D(16,6,7,38)          -89.8034         estimate D2E/DX2                !
 ! D49   D(17,6,7,18)         -170.6101         estimate D2E/DX2                !
 ! D50   D(17,6,7,38)           27.1111         estimate D2E/DX2                !
 ! D51   D(6,7,27,26)          -28.5324         estimate D2E/DX2                !
 ! D52   D(18,7,27,26)         174.9067         estimate D2E/DX2                !
 ! D53   D(30,21,22,23)        -54.3464         estimate D2E/DX2                !
 ! D54   D(30,21,22,31)       -175.0839         estimate D2E/DX2                !
 ! D55   D(30,21,22,32)         67.8522         estimate D2E/DX2                !
 ! D56   D(21,22,23,24)        -59.0495         estimate D2E/DX2                !
 ! D57   D(21,22,23,26)         63.9122         estimate D2E/DX2                !
 ! D58   D(21,22,23,28)       -177.5879         estimate D2E/DX2                !
 ! D59   D(31,22,23,24)         59.5368         estimate D2E/DX2                !
 ! D60   D(31,22,23,26)       -177.5015         estimate D2E/DX2                !
 ! D61   D(31,22,23,28)        -59.0016         estimate D2E/DX2                !
 ! D62   D(32,22,23,24)        177.8808         estimate D2E/DX2                !
 ! D63   D(32,22,23,26)        -59.1575         estimate D2E/DX2                !
 ! D64   D(32,22,23,28)         59.3424         estimate D2E/DX2                !
 ! D65   D(22,23,24,25)         61.1157         estimate D2E/DX2                !
 ! D66   D(22,23,24,33)        -62.1744         estimate D2E/DX2                !
 ! D67   D(22,23,24,34)       -179.7676         estimate D2E/DX2                !
 ! D68   D(26,23,24,25)        -60.0408         estimate D2E/DX2                !
 ! D69   D(26,23,24,33)        176.6691         estimate D2E/DX2                !
 ! D70   D(26,23,24,34)         59.0759         estimate D2E/DX2                !
 ! D71   D(28,23,24,25)        178.3825         estimate D2E/DX2                !
 ! D72   D(28,23,24,33)         55.0925         estimate D2E/DX2                !
 ! D73   D(28,23,24,34)        -62.5007         estimate D2E/DX2                !
 ! D74   D(22,23,26,27)        -55.1014         estimate D2E/DX2                !
 ! D75   D(22,23,26,36)       -179.5737         estimate D2E/DX2                !
 ! D76   D(22,23,26,37)         62.9349         estimate D2E/DX2                !
 ! D77   D(24,23,26,27)         66.3141         estimate D2E/DX2                !
 ! D78   D(24,23,26,36)        -58.1582         estimate D2E/DX2                !
 ! D79   D(24,23,26,37)       -175.6496         estimate D2E/DX2                !
 ! D80   D(28,23,26,27)       -172.2087         estimate D2E/DX2                !
 ! D81   D(28,23,26,36)         63.319          estimate D2E/DX2                !
 ! D82   D(28,23,26,37)        -54.1724         estimate D2E/DX2                !
 ! D83   D(22,23,28,29)        179.2742         estimate D2E/DX2                !
 ! D84   D(22,23,28,39)         60.5405         estimate D2E/DX2                !
 ! D85   D(22,23,28,40)        -61.87           estimate D2E/DX2                !
 ! D86   D(24,23,28,29)         60.614          estimate D2E/DX2                !
 ! D87   D(24,23,28,39)        -58.1197         estimate D2E/DX2                !
 ! D88   D(24,23,28,40)        179.4699         estimate D2E/DX2                !
 ! D89   D(26,23,28,29)        -62.5077         estimate D2E/DX2                !
 ! D90   D(26,23,28,39)        178.7587         estimate D2E/DX2                !
 ! D91   D(26,23,28,40)         56.3482         estimate D2E/DX2                !
 ! D92   D(23,24,25,10)        140.7694         estimate D2E/DX2                !
 ! D93   D(23,24,25,35)        -48.7047         estimate D2E/DX2                !
 ! D94   D(33,24,25,10)        -96.9543         estimate D2E/DX2                !
 ! D95   D(33,24,25,35)         73.5716         estimate D2E/DX2                !
 ! D96   D(34,24,25,10)         19.7071         estimate D2E/DX2                !
 ! D97   D(34,24,25,35)       -169.767          estimate D2E/DX2                !
 ! D98   D(23,26,27,38)        -83.674          estimate D2E/DX2                !
 ! D99   D(36,26,27,38)         40.1152         estimate D2E/DX2                !
 ! D100  D(37,26,27,38)        157.1691         estimate D2E/DX2                !
 --------------------------------------------------------------------------------
 Number of steps in this run=    224 maximum allowed number of steps=    240.
 GradGradGradGradGradGradGradGradGradGradGradGradGradGradGradGradGradGrad

                    Distance matrix (angstroms):
                    1          2          3          4          5
     1  O    0.000000
     2  C    1.400052   0.000000
     3  C    2.484093   1.554072   0.000000
     4  C    2.923958   2.529638   1.544805   0.000000
     5  O    2.692806   2.994642   2.463867   1.404502   0.000000
     6  C    3.087982   2.553270   1.541118   2.526279   2.951564
     7  O    2.857529   2.994475   2.465130   2.983371   2.705894
     8  C    3.742534   2.461202   1.523689   2.518252   3.781570
     9  Br   5.389963   4.270647   2.915592   3.289109   4.566006
    10  H    0.976002   1.956694   2.827707   3.443212   3.063155
    11  H    2.000644   1.096328   2.165946   2.776347   3.397529
    12  H    2.067240   1.097873   2.174318   3.478895   3.980595
    13  H    3.214349   2.745462   2.167021   1.100404   2.064500
    14  H    3.951957   3.486435   2.177777   1.094395   2.003267
    15  H    1.913526   2.564165   2.588495   1.927286   0.975344
    16  H    4.082261   3.498336   2.163565   2.756289   3.297010
    17  H    3.457665   2.784879   2.170576   3.479096   3.961196
    18  H    2.821848   3.148966   2.544887   2.515405   1.899603
    19  H    3.974745   2.694958   2.167690   2.754704   4.069952
    20  H    4.057580   2.710053   2.168292   3.476922   4.614174
    21  O    5.399239   6.200901   6.648568   7.314477   6.607334
    22  C    5.797637   6.346520   6.813634   7.731848   7.253177
    23  C    5.030324   5.282461   5.646145   6.744020   6.510148
    24  C    3.697158   3.995714   4.670858   5.789102   5.597974
    25  O    2.814855   3.536085   4.228442   5.039880   4.575889
    26  C    5.212278   5.354149   5.282242   6.267119   6.048975
    27  O    4.883340   5.273073   5.096579   5.766875   5.286971
    28  C    6.088385   6.094751   6.477034   7.753089   7.720540
    29  Br   6.094033   5.653194   5.856538   7.305014   7.625374
    30  H    5.310930   6.057101   6.282191   6.869845   6.145425
    31  H    6.069877   6.655225   7.333411   8.295456   7.831521
    32  H    6.787617   7.273078   7.600442   8.520264   8.051665
    33  H    4.140680   4.483004   5.410242   6.542611   6.359668
    34  H    3.438441   3.353287   3.946170   5.239512   5.306472
    35  H    3.537074   4.427206   5.084066   5.748629   5.097585
    36  H    5.024679   4.886419   4.643202   5.751378   5.767578
    37  H    6.306011   6.428854   6.276580   7.240247   7.018225
    38  H    4.023667   4.409398   4.188629   4.802029   4.323742
    39  H    6.342511   6.407087   7.012580   8.306939   8.260193
    40  H    7.032365   7.046889   7.290517   8.529375   8.466799
                    6          7          8          9         10
     6  C    0.000000
     7  O    1.403675   0.000000
     8  C    2.507389   3.775097   0.000000
     9  Br   3.278973   4.578438   1.947895   0.000000
    10  H    2.922358   2.388846   4.148982   5.700787   0.000000
    11  H    3.486503   4.015569   2.622494   4.476363   2.810835
    12  H    2.758424   3.294135   2.693781   4.541220   2.246746
    13  H    3.475751   3.992928   2.719457   3.605576   3.957931
    14  H    2.760056   3.329456   2.775341   2.818099   4.354212
    15  H    3.195105   2.814155   3.983100   5.117788   2.382152
    16  H    1.099818   2.055651   2.736743   2.771785   3.965315
    17  H    1.095961   2.013869   2.723378   3.611217   3.150704
    18  H    1.929250   0.975112   3.968651   4.684358   2.560254
    19  H    3.467325   4.611994   1.089765   2.474370   4.583870
    20  H    2.743821   4.045274   1.090057   2.477094   4.317172
    21  O    5.726736   4.625509   7.866675   8.985664   4.440278
    22  C    5.832590   4.988562   7.833964   8.960251   4.837282
    23  C    4.634710   4.070305   6.506009   7.605525   4.117983
    24  C    4.018310   3.543038   5.580099   6.972894   2.845123
    25  O    3.696576   2.868690   5.431523   6.837342   1.858812
    26  C    3.971082   3.384996   6.146019   6.893313   4.330686
    27  O    3.781627   2.786089   6.206548   6.884913   4.000194
    28  C    5.511036   5.252379   7.055243   8.117816   5.264727
    29  Br   5.005385   5.260695   6.026581   6.962021   5.471902
    30  H    5.226153   4.059763   7.523379   8.473375   4.354477
    31  H    6.516265   5.733184   8.316084   9.599309   5.156246
    32  H    6.480563   5.655002   8.570311   9.540618   5.820113
    33  H    4.964049   4.549559   6.236553   7.772507   3.390994
    34  H    3.365665   3.274118   4.659547   6.066841   2.751277
    35  H    4.475936   3.451307   6.350626   7.689768   2.599333
    36  H    3.294718   3.086189   5.315771   5.964792   4.261948
    37  H    4.892666   4.340534   7.063211   7.642139   5.419229
    38  H    2.938259   1.829430   5.380741   6.123724   3.199555
    39  H    6.222238   5.959406   7.575679   8.806580   5.555081
    40  H    6.184165   5.883273   7.853419   8.741155   6.176600
                   11         12         13         14         15
    11  H    0.000000
    12  H    1.773918   0.000000
    13  H    2.537567   3.751450   0.000000
    14  H    3.761574   4.320187   1.778474   0.000000
    15  H    2.938158   3.560370   2.329273   2.808455   0.000000
    16  H    4.305222   3.753153   3.745689   2.535156   3.809155
    17  H    3.750269   2.537739   4.309370   3.760009   4.052320
    18  H    4.030460   3.730622   3.528122   2.846044   2.151632
    19  H    2.387869   3.052158   2.498854   3.115339   4.189111
    20  H    2.973233   2.480102   3.730042   3.773965   4.700320
    21  O    7.164719   5.967948   8.122691   7.875454   6.189140
    22  C    7.322341   5.879715   8.537241   8.281843   6.852176
    23  C    6.286139   4.697772   7.552298   7.258190   6.183143
    24  C    4.926319   3.398959   6.458227   6.476218   5.120823
    25  O    4.472689   3.325011   5.712676   5.785586   4.025506
    26  C    6.435526   4.937777   7.213061   6.568490   5.950024
    27  O    6.360917   5.139011   6.764580   6.031076   5.241517
    28  C    7.024718   5.299361   8.510323   8.240772   7.406784
    29  Br   6.488750   4.723548   7.991394   7.702829   7.423724
    30  H    7.073654   5.912117   7.757253   7.322357   5.856005
    31  H    7.544590   6.116604   9.009386   8.942722   7.319930
    32  H    8.281507   6.789437   9.385409   8.975998   7.734478
    33  H    5.264303   3.794784   7.091006   7.319265   5.765812
    34  H    4.280430   2.595195   5.877854   5.895102   4.909245
    35  H    5.330952   4.283083   6.441342   6.464254   4.539357
    36  H    5.949753   4.418462   6.688022   5.983120   5.757892
    37  H    7.509415   5.985456   8.217718   7.451923   6.974919
    38  H    5.488904   4.397875   5.795035   5.105391   4.289922
    39  H    7.246881   5.551872   8.974891   8.896082   7.836070
    40  H    8.011221   6.286916   9.350266   8.926969   8.222757
                   16         17         18         19         20
    16  H    0.000000
    17  H    1.777492   0.000000
    18  H    2.368301   2.813979   0.000000
    19  H    3.736663   3.734042   4.671985   0.000000
    20  H    3.078258   2.503803   4.468030   1.780190   0.000000
    21  O    6.444975   5.516250   5.100191   8.615479   7.716654
    22  C    6.554570   5.362582   5.665503   8.624569   7.493706
    23  C    5.359206   3.998887   4.904076   7.338463   6.074143
    24  C    4.960140   3.464044   4.299930   6.271091   5.200780
    25  O    4.673611   3.534370   3.388946   6.057417   5.326291
    26  C    4.436812   3.440025   4.240362   7.105233   5.820987
    27  O    4.189265   3.644499   3.426786   7.137064   6.126196
    28  C    6.174623   4.651599   6.160629   7.880676   6.412340
    29  Br   5.554476   3.951212   6.224578   6.849192   5.193119
    30  H    5.827279   5.102963   4.513789   8.333260   7.439826
    31  H    7.331471   6.002311   6.390070   9.023729   7.923213
    32  H    7.079119   5.974805   6.353012   9.425188   8.197371
    33  H    5.952110   4.382810   5.243153   6.809845   5.790329
    34  H    4.311471   2.648269   4.105079   5.370740   4.178752
    35  H    5.379687   4.372705   3.865836   6.977878   6.280950
    36  H    3.681765   2.603832   4.027402   6.317475   4.922928
    37  H    5.205643   4.340245   5.160999   8.058780   6.695897
    38  H    3.429132   2.975286   2.470870   6.277427   5.403482
    39  H    6.985716   5.368055   6.828357   8.303921   6.897397
    40  H    6.719015   5.338014   6.791865   8.737905   7.211245
                   21         22         23         24         25
    21  O    0.000000
    22  C    1.401616   0.000000
    23  C    2.459837   1.548331   0.000000
    24  C    2.942016   2.524086   1.542365   0.000000
    25  O    2.706415   2.988484   2.476488   1.399966   0.000000
    26  C    2.984383   2.522744   1.549345   2.564194   3.029888
    27  O    2.682673   2.919970   2.476079   3.081441   2.879158
    28  C    3.743833   2.473372   1.522915   2.500441   3.775069
    29  Br   5.359741   4.268526   2.902246   3.251188   4.535800
    30  H    0.977999   1.923753   2.561901   3.155870   2.790030
    31  H    2.006511   1.095243   2.181503   2.757234   3.326330
    32  H    2.062372   1.100339   2.170642   3.475249   4.002055
    33  H    3.300303   2.753603   2.158726   1.102741   2.058704
    34  H    3.946667   3.477243   2.170222   1.094490   2.002055
    35  H    1.907247   2.529140   2.562688   1.932547   0.973933
    36  H    3.974885   3.476636   2.174703   2.786834   3.345297
    37  H    3.372774   2.755463   2.160765   3.494515   4.043848
    38  H    3.123030   3.484726   2.836902   2.944388   2.467564
    39  H    4.020507   2.719722   2.170657   2.736186   4.048314
    40  H    4.052429   2.730630   2.170300   3.464447   4.622011
                   26         27         28         29         30
    26  C    0.000000
    27  O    1.401722   0.000000
    28  C    2.508840   3.774535   0.000000
    29  Br   3.281136   4.603061   1.946932   0.000000
    30  H    2.532047   1.880338   3.953109   5.388230   0.000000
    31  H    3.480851   3.948609   2.697696   4.537622   2.810233
    32  H    2.734222   3.213148   2.685253   4.531034   2.339837
    33  H    3.501524   4.080512   2.675576   3.542907   3.787186
    34  H    2.795032   3.442320   2.754074   2.767883   4.002931
    35  H    3.177060   2.836677   3.961510   5.075094   2.136043
    36  H    1.096033   2.061616   2.767673   2.808749   3.524975
    37  H    1.097079   2.007760   2.675982   3.570301   2.907148
    38  H    1.944748   0.975859   4.180301   4.743946   2.408110
    39  H    3.473008   4.618932   1.089929   2.475562   4.460644
    40  H    2.729463   4.009586   1.089663   2.476860   4.182543
                   31         32         33         34         35
    31  H    0.000000
    32  H    1.777617   0.000000
    33  H    2.530134   3.740046   0.000000
    34  H    3.759590   4.310623   1.777794   0.000000
    35  H    2.855127   3.543353   2.386095   2.807700   0.000000
    36  H    4.321518   3.739898   3.771493   2.569933   3.768874
    37  H    3.741036   2.508881   4.300161   3.766593   4.049026
    38  H    4.401347   3.989225   4.003525   3.133933   2.647239
    39  H    2.483877   3.042880   2.447961   3.097875   4.181350
    40  H    3.064377   2.480250   3.692257   3.752694   4.680764
                   36         37         38         39         40
    36  H    0.000000
    37  H    1.774607   0.000000
    38  H    2.203160   2.799153   0.000000
    39  H    3.772170   3.687589   4.970008   0.000000
    40  H    3.093084   2.435386   4.609214   1.779992   0.000000
 Framework group  C1[X(C10H22Br2O6)]
 Deg. of freedom   114
                         Standard orientation:                         
 ---------------------------------------------------------------------
 Center     Atomic      Atomic             Coordinates (Angstroms)
 Number     Number       Type             X           Y           Z
 ---------------------------------------------------------------------
      1          8           0        1.022602   -2.194910    1.788861
      2          6           0        1.648130   -0.943700    1.846596
      3          6           0        2.407242   -0.545910    0.550196
      4          6           0        3.400891   -1.666649    0.172009
      5          8           0        2.771623   -2.883039   -0.139508
      6          6           0        1.428199   -0.298103   -0.613896
      7          8           0        0.641423   -1.415663   -0.933812
      8          6           0        3.158475    0.739294    0.875047
      9         35           0        4.219984    1.421656   -0.608824
     10          1           0        0.179943   -2.117210    1.302581
     11          1           0        2.373696   -1.008372    2.665929
     12          1           0        0.928526   -0.152628    2.094990
     13          1           0        4.113752   -1.803840    0.998991
     14          1           0        3.963991   -1.382495   -0.722349
     15          1           0        2.231649   -3.127043    0.635209
     16          1           0        1.999897    0.020348   -1.497836
     17          1           0        0.735876    0.508649   -0.347492
     18          1           0        1.247073   -2.174545   -1.023971
     19          1           0        3.862924    0.583896    1.691866
     20          1           0        2.467492    1.540376    1.137793
     21          8           0       -3.815353   -2.600071   -0.573726
     22          6           0       -4.307531   -1.313508   -0.314804
     23          6           0       -3.185141   -0.256640   -0.171282
     24          6           0       -2.242325   -0.659875    0.980841
     25          8           0       -1.594834   -1.887841    0.799850
     26          6           0       -2.434319   -0.129698   -1.520586
     27          8           0       -1.928434   -1.342880   -2.007512
     28          6           0       -3.853182    1.069911    0.165251
     29         35           0       -2.579165    2.522312    0.405994
     30          1           0       -3.240452   -2.524702   -1.361311
     31          1           0       -4.877776   -1.384301    0.617594
     32          1           0       -4.995195   -0.996889   -1.113314
     33          1           0       -2.826153   -0.673040    1.916261
     34          1           0       -1.450529    0.088327    1.086486
     35          1           0       -2.268794   -2.541486    0.540867
     36          1           0       -1.633254    0.611948   -1.422894
     37          1           0       -3.142948    0.233293   -2.275347
     38          1           0       -1.067023   -1.511326   -1.581017
     39          1           0       -4.409124    1.006666    1.100598
     40          1           0       -4.521077    1.389978   -0.634023
 ---------------------------------------------------------------------
 Rotational constants (GHZ):           0.3225448           0.1270344           0.1034257
   332 basis functions,   648 primitive gaussians,   354 cartesian basis functions
   100 alpha electrons      100 beta electrons
       nuclear repulsion energy      2436.1085233973 Hartrees.
 NAtoms=   40 NActive=   40 NUniq=   40 SFac= 1.00D+00 NAtFMM=   60 NAOKFM=F Big=F
 Nuclear repulsion after empirical dispersion term =     2436.0699405155 Hartrees.
   1 Symmetry operations used in ECPInt.
 ECPInt:  NShTT=   13530 NPrTT=   58324 LenC2=   12328 LenP2D=   35603.
 LDataN:  DoStor=T MaxTD1= 4 Len=   56
 ExpMin= 1.22D-01 ExpMax= 1.13D+05 ExpMxC= 1.70D+04 IAcc=3 IRadAn=         5 AccDes= 0.00D+00
 Harris functional with IExCor= 4639 and IRadAn=       5 diagonalized for initial guess.
 HarFok:  IExCor= 4639 AccDes= 0.00D+00 IRadAn=         5 IDoV= 1 UseB2=F ITyADJ=14
 ICtDFT=  3500011 ScaDFX=  1.000000  1.000000  1.000000  1.000000
 FoFCou: FMM=F IPFlag=           0 FMFlag=      100000 FMFlg1=           0
         NFxFlg=           0 DoJE=T BraDBF=F KetDBF=T FulRan=T
         wScrn=  0.000000 ICntrl=       500 IOpCl=  0 I1Cent=   200000004 NGrid=           0
         NMat0=    1 NMatS0=      1 NMatT0=    0 NMatD0=    1 NMtDS0=    0 NMtDT0=    0
 Petite list used in FoFCou.
     Accept linear search using points  2 and  3.
     Accept linear search using points  1 and  2.
     Accept linear search using points  2 and  3.
     Minimum is close to point  3 DX= -5.63D-02 DF= -7.14D-08 DXR=  4.92D-02 DFR=  5.46D-04 which will be used.
     Accept linear search using points  1 and  2.
     Minimum is close to point  2 DX= -1.08D-04 DF=  0.00D+00 DXR=  1.08D-04 DFR=  0.00D+00 which will be used.
 SCF Done:  E(RwB97XD) =  -5992.51005255     a.u. after    7 cycles
            Convg  =    0.1240D-05                    26 Fock formations.
              S**2 =  0.0000                  -V/T =  2.0021

 **********************************************************************

            Population analysis using the SCF Density.

 **********************************************************************

 Orbital symmetries:
       Occupied  (A) (A) (A) (A) (A) (A) (A) (A) (A) (A) (A) (A)
                 (A) (A) (A) (A) (A) (A) (A) (A) (A) (A) (A) (A)
                 (A) (A) (A) (A) (A) (A) (A) (A) (A) (A) (A) (A)
                 (A) (A) (A) (A) (A) (A) (A) (A) (A) (A) (A) (A)
                 (A) (A) (A) (A) (A) (A) (A) (A) (A) (A) (A) (A)
                 (A) (A) (A) (A) (A) (A) (A) (A) (A) (A) (A) (A)
                 (A) (A) (A) (A) (A) (A) (A) (A) (A) (A) (A) (A)
                 (A) (A) (A) (A) (A) (A) (A) (A) (A) (A) (A) (A)
                 (A) (A) (A) (A)
       Virtual   (A) (A) (A) (A) (A) (A) (A) (A) (A) (A) (A) (A)
                 (A) (A) (A) (A) (A) (A) (A) (A) (A) (A) (A) (A)
                 (A) (A) (A) (A) (A) (A) (A) (A) (A) (A) (A) (A)
                 (A) (A) (A) (A) (A) (A) (A) (A) (A) (A) (A) (A)
                 (A) (A) (A) (A) (A) (A) (A) (A) (A) (A) (A) (A)
                 (A) (A) (A) (A) (A) (A) (A) (A) (A) (A) (A) (A)
                 (A) (A) (A) (A) (A) (A) (A) (A) (A) (A) (A) (A)
                 (A) (A) (A) (A) (A) (A) (A) (A) (A) (A) (A) (A)
                 (A) (A) (A) (A) (A) (A) (A) (A) (A) (A) (A) (A)
                 (A) (A) (A) (A) (A) (A) (A) (A) (A) (A) (A) (A)
                 (A) (A) (A) (A) (A) (A) (A) (A) (A) (A) (A) (A)
                 (A) (A) (A) (A) (A) (A) (A) (A) (A) (A) (A) (A)
                 (A) (A) (A) (A) (A) (A) (A) (A) (A) (A) (A) (A)
                 (A) (A) (A) (A) (A) (A) (A) (A) (A) (A) (A) (A)
                 (A) (A) (A) (A) (A) (A) (A) (A) (A) (A) (A) (A)
                 (A) (A) (A) (A) (A) (A) (A) (A) (A) (A) (A) (A)
                 (A) (A) (A) (A) (A) (A) (A) (A) (A) (A) (A) (A)
                 (A) (A) (A) (A) (A) (A) (A) (A) (A) (A) (A) (A)
                 (A) (A) (A) (A) (A) (A) (A) (A) (A) (A) (A) (A)
                 (A) (A) (A) (A)
 The electronic state is 1-A.
 Alpha  occ. eigenvalues -- -483.06304-483.05802 -62.64516 -62.64018 -56.45285
 Alpha  occ. eigenvalues --  -56.44928 -56.44921 -56.44789 -56.44427 -56.44421
 Alpha  occ. eigenvalues --  -19.26346 -19.26314 -19.26193 -19.25848 -19.25510
 Alpha  occ. eigenvalues --  -19.25210 -10.36427 -10.36122 -10.35578 -10.35419
 Alpha  occ. eigenvalues --  -10.35218 -10.34968 -10.34750 -10.34643 -10.32967
 Alpha  occ. eigenvalues --  -10.32786  -8.81463  -8.80966  -6.64003  -6.63515
 Alpha  occ. eigenvalues --   -6.62704  -6.62676  -6.62200  -6.62178  -2.74368
 Alpha  occ. eigenvalues --   -2.74005  -2.73983  -2.73878  -2.73510  -2.73491
 Alpha  occ. eigenvalues --   -2.72947  -2.72947  -2.72444  -2.72443  -1.14847
 Alpha  occ. eigenvalues --   -1.14263  -1.12213  -1.11817  -1.11123  -1.10974
 Alpha  occ. eigenvalues --   -0.95447  -0.95097  -0.87959  -0.87618  -0.78610
 Alpha  occ. eigenvalues --   -0.78466  -0.78002  -0.77742  -0.76318  -0.75915
 Alpha  occ. eigenvalues --   -0.68221  -0.68137  -0.64041  -0.63847  -0.63479
 Alpha  occ. eigenvalues --   -0.61973  -0.59106  -0.58665  -0.56933  -0.56339
 Alpha  occ. eigenvalues --   -0.55823  -0.54798  -0.54529  -0.54177  -0.52923
 Alpha  occ. eigenvalues --   -0.52779  -0.51227  -0.50755  -0.50375  -0.49541
 Alpha  occ. eigenvalues --   -0.49099  -0.48642  -0.48185  -0.46649  -0.45481
 Alpha  occ. eigenvalues --   -0.45368  -0.44634  -0.43164  -0.42044  -0.41297
 Alpha  occ. eigenvalues --   -0.39161  -0.38403  -0.36978  -0.36963  -0.36637
 Alpha  occ. eigenvalues --   -0.36333  -0.35825  -0.35186  -0.34554  -0.34477
 Alpha virt. eigenvalues --    0.06487   0.06906   0.10837   0.12623   0.13496
 Alpha virt. eigenvalues --    0.14720   0.15020   0.15880   0.16382   0.18360
 Alpha virt. eigenvalues --    0.19338   0.19757   0.20061   0.20557   0.21160
 Alpha virt. eigenvalues --    0.21367   0.21873   0.22093   0.23326   0.23999
 Alpha virt. eigenvalues --    0.24395   0.24822   0.25654   0.26124   0.26988
 Alpha virt. eigenvalues --    0.28665   0.29007   0.29921   0.30443   0.31022
 Alpha virt. eigenvalues --    0.31444   0.31719   0.31980   0.32236   0.32982
 Alpha virt. eigenvalues --    0.33358   0.35412   0.36121   0.44466   0.45017
 Alpha virt. eigenvalues --    0.47382   0.49273   0.49668   0.50053   0.50789
 Alpha virt. eigenvalues --    0.51773   0.52397   0.53446   0.54727   0.55024
 Alpha virt. eigenvalues --    0.55907   0.56314   0.58119   0.58402   0.59270
 Alpha virt. eigenvalues --    0.60466   0.61731   0.63087   0.63247   0.64087
 Alpha virt. eigenvalues --    0.64550   0.64862   0.65506   0.66070   0.66935
 Alpha virt. eigenvalues --    0.67550   0.68011   0.68752   0.69256   0.69847
 Alpha virt. eigenvalues --    0.70794   0.71183   0.72237   0.72669   0.72763
 Alpha virt. eigenvalues --    0.73769   0.74518   0.75163   0.75708   0.75831
 Alpha virt. eigenvalues --    0.76251   0.76699   0.76838   0.77488   0.78010
 Alpha virt. eigenvalues --    0.78375   0.78671   0.78968   0.79475   0.79988
 Alpha virt. eigenvalues --    0.80525   0.81945   0.82593   0.83291   0.84050
 Alpha virt. eigenvalues --    0.84871   0.85073   0.85804   0.86067   0.87602
 Alpha virt. eigenvalues --    0.89489   0.93418   0.94700   0.95054   0.96245
 Alpha virt. eigenvalues --    0.97980   0.99721   1.00722   1.03490   1.05669
 Alpha virt. eigenvalues --    1.07284   1.08543   1.11476   1.13221   1.13592
 Alpha virt. eigenvalues --    1.16211   1.18500   1.19247   1.19873   1.22423
 Alpha virt. eigenvalues --    1.22737   1.23602   1.23733   1.25570   1.27543
 Alpha virt. eigenvalues --    1.28068   1.29320   1.34208   1.35138   1.37014
 Alpha virt. eigenvalues --    1.37907   1.39841   1.40841   1.43200   1.45967
 Alpha virt. eigenvalues --    1.50672   1.51036   1.52270   1.54925   1.59515
 Alpha virt. eigenvalues --    1.65271   1.65895   1.67606   1.68329   1.69031
 Alpha virt. eigenvalues --    1.70287   1.76108   1.79349   1.80823   1.81701
 Alpha virt. eigenvalues --    1.84180   1.86469   1.88087   1.88232   1.89904
 Alpha virt. eigenvalues --    1.90285   1.91870   1.93449   2.03492   2.03723
 Alpha virt. eigenvalues --    2.04222   2.04892   2.05588   2.05710   2.06454
 Alpha virt. eigenvalues --    2.07405   2.08251   2.13755   2.14324   2.14582
 Alpha virt. eigenvalues --    2.18210   2.18497   2.20044   2.21316   2.21580
 Alpha virt. eigenvalues --    2.22653   2.22968   2.23426   2.23945   2.25146
 Alpha virt. eigenvalues --    2.26314   2.26656   2.51509   2.51945   2.52679
 Alpha virt. eigenvalues --    2.53212   2.64328   2.64579   2.66175   2.66784
 Alpha virt. eigenvalues --    2.69462   2.69797   2.73292   2.74254   2.74837
 Alpha virt. eigenvalues --    2.75207   2.75449   2.76442   2.90694   2.91316
 Alpha virt. eigenvalues --    2.92164   2.92868   2.93442   2.93750   3.02848
 Alpha virt. eigenvalues --    3.03100   3.04142   3.04683   3.08616   3.09712
 Alpha virt. eigenvalues --    3.10075   3.10248   3.10734   3.11082   3.14398
 Alpha virt. eigenvalues --    3.16192   3.46305   3.47012   3.47264   3.48245
 Alpha virt. eigenvalues --    3.49331   3.50131   3.55887   3.56341   3.56876
 Alpha virt. eigenvalues --    3.57055   3.63820   3.64298   3.66006   3.66119
 Alpha virt. eigenvalues --    3.88217   3.88576
          Condensed to atoms (all electrons):
 Mulliken charges:
               1
     1  O   -0.530530
     2  C    0.077953
     3  C   -0.378820
     4  C    0.081189
     5  O   -0.515223
     6  C    0.084173
     7  O   -0.531354
     8  C   -0.189470
     9  Br  -0.112314
    10  H    0.360938
    11  H    0.102073
    12  H    0.106028
    13  H    0.096895
    14  H    0.124847
    15  H    0.339606
    16  H    0.119081
    17  H    0.105742
    18  H    0.339022
    19  H    0.161016
    20  H    0.161625
    21  O   -0.513047
    22  C    0.089246
    23  C   -0.381333
    24  C    0.085919
    25  O   -0.520704
    26  C    0.072223
    27  O   -0.533805
    28  C   -0.183004
    29  Br  -0.120576
    30  H    0.342902
    31  H    0.106051
    32  H    0.099324
    33  H    0.093253
    34  H    0.119396
    35  H    0.336132
    36  H    0.125136
    37  H    0.099782
    38  H    0.357590
    39  H    0.160649
    40  H    0.162390
 Sum of Mulliken charges =   0.00000
 Mulliken charges with hydrogens summed into heavy atoms:
               1
     1  O   -0.169592
     2  C    0.286054
     3  C   -0.378820
     4  C    0.302931
     5  O   -0.175617
     6  C    0.308996
     7  O   -0.192332
     8  C    0.133171
     9  Br  -0.112314
    21  O   -0.170145
    22  C    0.294621
    23  C   -0.381333
    24  C    0.298569
    25  O   -0.184572
    26  C    0.297141
    27  O   -0.176215
    28  C    0.140034
    29  Br  -0.120576
 Electronic spatial extent (au):  <R**2>=           9622.3019
 Charge=              0.0000 electrons
 Dipole moment (field-independent basis, Debye):
    X=             -1.6035    Y=              1.8968    Z=              1.7052  Tot=              3.0128
 Evaluate density.
 Using the total density.
 Monte-Carlo method of calculating molar volume:
 based on  0.001 e/bohr**3 density envelope.
 Number of points per bohr**3 =  100 CutOff= 1.00D-04
 Using the SCF density.
 There are      2588 points.  Will hold      2588 in memory.
 LenV=  1047531383 MDV=  1048576000.
 Box volume =17345.869 fraction occupied=0.148
 Integrated density= 3.0053150712250374D+02 error= 1.0053150712250374D+02
 Molar volume = 2560.325 bohr**3/mol (228.481 cm**3/mol)
 Recommended a0 for SCRF calculation =  5.44 angstrom ( 10.29 bohr)
   1 Symmetry operations used in ECPInt.
 ECPInt:  NShTT=   13530 NPrTT=   58324 LenC2=   12328 LenP2D=   35603.
 LDataN:  DoStor=T MaxTD1= 5 Len=  102
 Calling FoFJK, ICntrl=      2127 FMM=F ISym2X=0 I1Cent= 0 IOpClX= 0 NMat=1 NMatS=1 NMatT=0.

 GradGradGradGradGradGradGradGradGradGradGradGradGradGradGradGradGradGrad
 FormGI is forming the generalized inverse of G from B-inverse, IUseBI=4.
 Internal  Forces:  Max     0.011646101 RMS     0.002672236
 Step number   1 out of a maximum of  224
 All quantities printed in internal units (Hartrees-Bohrs-Radians)
 Mixed Optimization -- RFO/linear search
 Second derivative matrix not updated -- first step.
 ITU=  0
     Eigenvalues ---    0.00230   0.00230   0.00230   0.00230   0.00248
     Eigenvalues ---    0.00322   0.00453   0.00463   0.00564   0.01175
     Eigenvalues ---    0.01268   0.01394   0.01559   0.01592   0.01632
     Eigenvalues ---    0.01670   0.02003   0.03473   0.03752   0.03938
     Eigenvalues ---    0.04135   0.04433   0.04558   0.04653   0.04728
     Eigenvalues ---    0.04764   0.04863   0.05096   0.05250   0.05361
     Eigenvalues ---    0.05422   0.05436   0.05503   0.05637   0.05705
     Eigenvalues ---    0.05722   0.05737   0.05751   0.05761   0.05857
     Eigenvalues ---    0.07021   0.07618   0.08399   0.09367   0.09853
     Eigenvalues ---    0.09990   0.11767   0.11796   0.11821   0.11858
     Eigenvalues ---    0.12201   0.12313   0.13258   0.13923   0.14016
     Eigenvalues ---    0.14033   0.14250   0.14583   0.14922   0.15245
     Eigenvalues ---    0.15623   0.15750   0.16000   0.16000   0.16000
     Eigenvalues ---    0.16000   0.16000   0.16000   0.16004   0.16098
     Eigenvalues ---    0.16138   0.17300   0.20661   0.22034   0.22072
     Eigenvalues ---    0.22081   0.22273   0.22281   0.26813   0.27517
     Eigenvalues ---    0.27703   0.27794   0.28097   0.28366   0.30014
     Eigenvalues ---    0.30088   0.33381   0.33637   0.33645   0.33702
     Eigenvalues ---    0.33918   0.34007   0.34091   0.34125   0.34133
     Eigenvalues ---    0.34214   0.34299   0.34310   0.34806   0.34821
     Eigenvalues ---    0.34840   0.34852   0.43795   0.44509   0.44882
     Eigenvalues ---    0.45354   0.45383   0.45473   0.50243   0.51775
     Eigenvalues ---    0.52156   0.52300   0.52346   0.52581
 Linear search not attempted -- first point.
 Iteration  1 RMS(Cart)=  0.07983854 RMS(Int)=  0.00192727
 Iteration  2 RMS(Cart)=  0.00498918 RMS(Int)=  0.00027677
 Iteration  3 RMS(Cart)=  0.00000826 RMS(Int)=  0.00027674
 Iteration  4 RMS(Cart)=  0.00000001 RMS(Int)=  0.00027674
 Variable       Old X    -DE/DX   Delta X   Delta X   Delta X     New X
                                 (Linear)    (Quad)   (Total)
    R1        2.64572   0.00285   0.00000   0.00642   0.00613   2.65185
    R2        1.84438   0.00380   0.00000   0.00739   0.00729   1.85167
    R3        2.93677   0.00107   0.00000   0.00417   0.00422   2.94099
    R4        2.07176   0.00570   0.00000   0.01633   0.01633   2.08809
    R5        2.07468   0.00736   0.00000   0.02117   0.02117   2.09585
    R6        2.91926  -0.00023   0.00000  -0.00080  -0.00080   2.91846
    R7        2.91229   0.00041   0.00000   0.00105   0.00112   2.91342
    R8        2.87935   0.00610   0.00000   0.01978   0.01978   2.89913
    R9        2.65412   0.00511   0.00000   0.01117   0.01117   2.66530
   R10        2.07946   0.00635   0.00000   0.01841   0.01841   2.09787
   R11        2.06811   0.00455   0.00000   0.01294   0.01294   2.08105
   R12        1.84313   0.00273   0.00000   0.00513   0.00513   1.84826
   R13        2.65256   0.00304   0.00000   0.00637   0.00663   2.65919
   R14        2.07835   0.00423   0.00000   0.01225   0.01225   2.09061
   R15        2.07107   0.00609   0.00000   0.01741   0.01741   2.08847
   R16        1.84269   0.00295   0.00000   0.00554   0.00554   1.84824
   R17        3.45712  -0.00223   0.00000  -0.03586  -0.03579   3.42133
   R18        3.68099   0.00307   0.00000   0.01811   0.01811   3.69910
   R19        2.05936   0.00697   0.00000   0.01953   0.01953   2.07889
   R20        2.05991   0.00699   0.00000   0.01962   0.01962   2.07953
   R21        3.51265  -0.00264   0.00000  -0.03893  -0.03890   3.47375
   R22        2.64867   0.00469   0.00000   0.01015   0.01015   2.65882
   R23        1.84815   0.00266   0.00000   0.00505   0.00505   1.85320
   R24        2.92592  -0.00083   0.00000  -0.00291  -0.00291   2.92301
   R25        2.06971   0.00596   0.00000   0.01700   0.01700   2.08671
   R26        2.07934   0.00629   0.00000   0.01823   0.01823   2.09757
   R27        2.91465   0.00004   0.00000   0.00042   0.00040   2.91505
   R28        2.92784   0.00151   0.00000   0.00491   0.00482   2.93266
   R29        2.87789   0.00637   0.00000   0.02059   0.02059   2.89848
   R30        2.64555   0.00308   0.00000   0.00674   0.00701   2.65256
   R31        2.08388   0.00554   0.00000   0.01619   0.01619   2.10007
   R32        2.06829   0.00484   0.00000   0.01377   0.01377   2.08206
   R33        1.84047   0.00311   0.00000   0.00582   0.00582   1.84629
   R34        2.64887   0.00353   0.00000   0.00753   0.00722   2.65609
   R35        2.07120   0.00605   0.00000   0.01730   0.01730   2.08850
   R36        2.07318   0.00560   0.00000   0.01606   0.01606   2.08924
   R37        1.84411   0.00420   0.00000   0.00762   0.00762   1.85172
   R38        3.67917   0.00438   0.00000   0.02581   0.02581   3.70498
   R39        2.05967   0.00699   0.00000   0.01960   0.01960   2.07927
   R40        2.05916   0.00706   0.00000   0.01977   0.01977   2.07893
    A1        1.91256   0.00106   0.00000   0.01296   0.01171   1.92427
    A2        1.99610   0.00316   0.00000   0.02160   0.02067   2.01677
    A3        1.84813  -0.00043   0.00000  -0.00413  -0.00354   1.84459
    A4        1.93952  -0.00113   0.00000   0.00176   0.00154   1.94106
    A5        1.89152  -0.00163   0.00000  -0.01577  -0.01561   1.87592
    A6        1.90124   0.00024   0.00000   0.00678   0.00686   1.90811
    A7        1.88305  -0.00046   0.00000  -0.01326  -0.01334   1.86971
    A8        1.90997  -0.00076   0.00000  -0.01460  -0.01438   1.89559
    A9        1.94009   0.00116   0.00000   0.00539   0.00539   1.94548
   A10        1.85343  -0.00235   0.00000  -0.02546  -0.02540   1.82803
   A11        1.91810  -0.00096   0.00000   0.00172   0.00133   1.91942
   A12        1.92517   0.00200   0.00000   0.01851   0.01818   1.94334
   A13        1.91626   0.00092   0.00000   0.01393   0.01402   1.93028
   A14        1.97625  -0.00537   0.00000  -0.02191  -0.02187   1.95437
   A15        1.89986   0.00115   0.00000   0.00308   0.00313   1.90299
   A16        1.92053   0.00098   0.00000   0.00237   0.00242   1.92295
   A17        1.92726   0.00242   0.00000   0.01404   0.01403   1.94129
   A18        1.84849   0.00237   0.00000   0.01376   0.01374   1.86224
   A19        1.88937  -0.00143   0.00000  -0.01101  -0.01106   1.87830
   A20        1.86349  -0.00095   0.00000  -0.00562  -0.00562   1.85787
   A21        1.98255  -0.00531   0.00000  -0.01992  -0.02038   1.96217
   A22        1.90014   0.00178   0.00000   0.00940   0.00966   1.90980
   A23        1.91353   0.00085   0.00000  -0.00190  -0.00184   1.91169
   A24        1.91634   0.00239   0.00000   0.01584   0.01595   1.93230
   A25        1.86230   0.00183   0.00000   0.00594   0.00606   1.86836
   A26        1.88661  -0.00144   0.00000  -0.00934  -0.00944   1.87718
   A27        1.86769   0.00121   0.00000   0.01310   0.01245   1.88014
   A28        2.27274  -0.00098   0.00000  -0.00359  -0.00373   2.26902
   A29        2.10206   0.00015   0.00000   0.00630   0.00561   2.10767
   A30        1.98422   0.01073   0.00000   0.05048   0.05029   2.03451
   A31        1.93717  -0.00124   0.00000  -0.00732  -0.00749   1.92968
   A32        1.93770  -0.00110   0.00000  -0.00595  -0.00615   1.93155
   A33        1.84281  -0.00401   0.00000  -0.01125  -0.01139   1.83142
   A34        1.84587  -0.00399   0.00000  -0.01024  -0.01044   1.83544
   A35        1.91123  -0.00082   0.00000  -0.01763  -0.01780   1.89343
   A36        1.85922  -0.00109   0.00000  -0.00648  -0.00648   1.85274
   A37        1.97048  -0.00482   0.00000  -0.01993  -0.01991   1.95058
   A38        1.85538   0.00190   0.00000   0.00920   0.00917   1.86456
   A39        1.92786   0.00217   0.00000   0.01331   0.01332   1.94118
   A40        1.92051   0.00094   0.00000   0.00198   0.00200   1.92251
   A41        1.90063   0.00116   0.00000   0.00459   0.00464   1.90527
   A42        1.88705  -0.00124   0.00000  -0.00888  -0.00892   1.87813
   A43        1.91124  -0.00115   0.00000  -0.01791  -0.01778   1.89346
   A44        1.90339  -0.00081   0.00000  -0.01697  -0.01654   1.88685
   A45        1.87242  -0.00056   0.00000  -0.01451  -0.01445   1.85797
   A46        1.95598   0.00131   0.00000   0.01963   0.01897   1.97495
   A47        1.90795   0.00080   0.00000   0.01570   0.01547   1.92343
   A48        1.91098   0.00032   0.00000   0.01247   0.01188   1.92286
   A49        1.99925  -0.00483   0.00000  -0.01999  -0.01997   1.97928
   A50        1.88929   0.00181   0.00000   0.00473   0.00495   1.89423
   A51        1.91304   0.00026   0.00000  -0.00001  -0.00010   1.91295
   A52        1.92203   0.00138   0.00000   0.00675   0.00649   1.92852
   A53        1.85199   0.00293   0.00000   0.01961   0.01984   1.87183
   A54        1.88525  -0.00147   0.00000  -0.01096  -0.01103   1.87422
   A55        2.11165  -0.00135   0.00000  -0.00356  -0.00399   2.10766
   A56        2.27814   0.00029   0.00000   0.00325   0.00247   2.28061
   A57        1.87865   0.00129   0.00000   0.01132   0.01051   1.88916
   A58        1.98943   0.00253   0.00000   0.01186   0.01175   2.00117
   A59        1.90922   0.00049   0.00000   0.00871   0.00846   1.91769
   A60        1.88940  -0.00166   0.00000  -0.01420  -0.01405   1.87535
   A61        1.93140  -0.00074   0.00000   0.00582   0.00547   1.93686
   A62        1.85511  -0.00019   0.00000  -0.00070  -0.00045   1.85466
   A63        1.88549  -0.00064   0.00000  -0.01391  -0.01390   1.87159
   A64        1.89247  -0.00002   0.00000  -0.00167  -0.00298   1.88948
   A65        1.97152   0.01165   0.00000   0.05456   0.05437   2.02589
   A66        1.94211  -0.00112   0.00000  -0.00557  -0.00583   1.93628
   A67        1.94189  -0.00153   0.00000  -0.00938  -0.00953   1.93236
   A68        1.84517  -0.00430   0.00000  -0.01043  -0.01070   1.83447
   A69        1.84696  -0.00442   0.00000  -0.01375  -0.01384   1.83312
   A70        1.91121  -0.00069   0.00000  -0.01705  -0.01724   1.89397
   A71        3.30337  -0.00170   0.00000  -0.05755  -0.05826   3.24512
   A72        3.16944  -0.00107   0.00000  -0.05171  -0.05253   3.11691
   A73        3.33287   0.00097   0.00000   0.08108   0.08157   3.41444
   A74        2.89717  -0.00016   0.00000  -0.02895  -0.02911   2.86806
    D1       -1.39209  -0.00155   0.00000  -0.05471  -0.05489  -1.44698
    D2        2.80961  -0.00107   0.00000  -0.04486  -0.04500   2.76461
    D3        0.76933   0.00030   0.00000  -0.02761  -0.02792   0.74141
    D4       -0.45713   0.00109   0.00000   0.08572   0.08415  -0.37298
    D5        3.00915  -0.00083   0.00000   0.00885   0.00877   3.01793
    D6       -0.93753   0.00123   0.00000   0.05538   0.05533  -0.88220
    D7        1.18430   0.00027   0.00000   0.05125   0.05085   1.23515
    D8       -3.01541   0.00059   0.00000   0.05554   0.05523  -2.96017
    D9        1.11937   0.00152   0.00000   0.05262   0.05263   1.17199
   D10       -3.04198   0.00056   0.00000   0.04850   0.04814  -2.99384
   D11       -0.95851   0.00088   0.00000   0.05279   0.05252  -0.90598
   D12       -3.11932   0.00021   0.00000   0.03179   0.03190  -3.08743
   D13       -0.99749  -0.00075   0.00000   0.02766   0.02741  -0.97007
   D14        1.08599  -0.00043   0.00000   0.03195   0.03179   1.11778
   D15        1.10818   0.00117   0.00000   0.03969   0.03971   1.14789
   D16       -1.04241   0.00091   0.00000   0.03443   0.03444  -1.00797
   D17       -3.11026   0.00138   0.00000   0.04457   0.04460  -3.06566
   D18       -1.02686   0.00084   0.00000   0.04138   0.04148  -0.98538
   D19        3.10573   0.00058   0.00000   0.03613   0.03622  -3.14123
   D20        1.03788   0.00105   0.00000   0.04627   0.04637   1.08425
   D21        3.14111  -0.00097   0.00000   0.01091   0.01079  -3.13128
   D22        0.99052  -0.00123   0.00000   0.00565   0.00553   0.99605
   D23       -1.07733  -0.00076   0.00000   0.01579   0.01568  -1.06165
   D24       -1.04097  -0.00002   0.00000  -0.01861  -0.01872  -1.05969
   D25        3.10115  -0.00077   0.00000  -0.03230  -0.03226   3.06888
   D26        1.04054  -0.00056   0.00000  -0.02542  -0.02544   1.01510
   D27        1.07612  -0.00085   0.00000  -0.03228  -0.03239   1.04373
   D28       -1.06495  -0.00160   0.00000  -0.04596  -0.04593  -1.11088
   D29       -3.12556  -0.00140   0.00000  -0.03908  -0.03910   3.11853
   D30       -3.08652   0.00161   0.00000   0.00083   0.00062  -3.08590
   D31        1.05560   0.00086   0.00000  -0.01286  -0.01292   1.04268
   D32       -1.00501   0.00106   0.00000  -0.00598  -0.00609  -1.01110
   D33        3.12465  -0.00061   0.00000  -0.00707  -0.00707   3.11758
   D34        1.05027  -0.00187   0.00000  -0.02169  -0.02167   1.02860
   D35       -1.07982   0.00080   0.00000   0.01001   0.01003  -1.06979
   D36        1.05678   0.00059   0.00000   0.01522   0.01529   1.07207
   D37       -1.01761  -0.00067   0.00000   0.00059   0.00070  -1.01691
   D38        3.13549   0.00200   0.00000   0.03230   0.03239  -3.11530
   D39       -1.05953  -0.00010   0.00000  -0.00795  -0.00806  -1.06759
   D40       -3.13391  -0.00136   0.00000  -0.02257  -0.02266   3.12661
   D41        1.01919   0.00131   0.00000   0.00913   0.00904   1.02822
   D42       -0.98985   0.00087   0.00000   0.03281   0.03281  -0.95704
   D43        1.14555   0.00034   0.00000   0.03165   0.03155   1.17711
   D44       -3.09595   0.00122   0.00000   0.03353   0.03363  -3.06231
   D45       -0.86718   0.00007   0.00000   0.01418   0.01428  -0.85291
   D46        2.58370  -0.00143   0.00000  -0.04608  -0.04621   2.53749
   D47        1.26493   0.00044   0.00000   0.02418   0.02416   1.28909
   D48       -1.56736  -0.00107   0.00000  -0.03608  -0.03633  -1.60369
   D49       -2.97771   0.00099   0.00000   0.02466   0.02479  -2.95292
   D50        0.47318  -0.00052   0.00000  -0.03561  -0.03569   0.43748
   D51       -0.49798   0.00159   0.00000   0.07068   0.07062  -0.42736
   D52        3.05270  -0.00036   0.00000  -0.00769  -0.00763   3.04507
   D53       -0.94852   0.00073   0.00000   0.02890   0.02891  -0.91962
   D54       -3.05579   0.00115   0.00000   0.03212   0.03218  -3.02361
   D55        1.18424   0.00042   0.00000   0.03053   0.03046   1.21470
   D56       -1.03061   0.00028   0.00000   0.02637   0.02646  -1.00415
   D57        1.11548   0.00065   0.00000   0.02826   0.02825   1.14373
   D58       -3.09949   0.00028   0.00000   0.02574   0.02565  -3.07384
   D59        1.03911   0.00021   0.00000   0.02647   0.02657   1.06568
   D60       -3.09799   0.00058   0.00000   0.02836   0.02836  -3.06963
   D61       -1.02977   0.00020   0.00000   0.02583   0.02576  -1.00401
   D62        3.10461  -0.00006   0.00000   0.01959   0.01968   3.12428
   D63       -1.03249   0.00031   0.00000   0.02148   0.02147  -1.01103
   D64        1.03572  -0.00006   0.00000   0.01895   0.01887   1.05459
   D65        1.06667  -0.00106   0.00000  -0.06394  -0.06422   1.00245
   D66       -1.08515  -0.00089   0.00000  -0.06246  -0.06256  -1.14771
   D67       -3.13754  -0.00031   0.00000  -0.05203  -0.05211   3.09354
   D68       -1.04791  -0.00012   0.00000  -0.04311  -0.04339  -1.09130
   D69        3.08346   0.00006   0.00000  -0.04162  -0.04173   3.04173
   D70        1.03107   0.00063   0.00000  -0.03119  -0.03128   0.99979
   D71        3.11336  -0.00194   0.00000  -0.08271  -0.08309   3.03028
   D72        0.96155  -0.00176   0.00000  -0.08122  -0.08143   0.88012
   D73       -1.09084  -0.00119   0.00000  -0.07079  -0.07098  -1.16182
   D74       -0.96170   0.00092   0.00000   0.05491   0.05465  -0.90706
   D75       -3.13415  -0.00034   0.00000   0.03175   0.03170  -3.10245
   D76        1.09842   0.00110   0.00000   0.05163   0.05160   1.15002
   D77        1.15740  -0.00023   0.00000   0.03349   0.03308   1.19048
   D78       -1.01505  -0.00148   0.00000   0.01034   0.01013  -1.00492
   D79       -3.06566  -0.00004   0.00000   0.03021   0.03003  -3.03564
   D80       -3.00561   0.00188   0.00000   0.07503   0.07482  -2.93079
   D81        1.10513   0.00062   0.00000   0.05187   0.05188   1.15700
   D82       -0.94549   0.00206   0.00000   0.07175   0.07177  -0.87372
   D83        3.12892   0.00020   0.00000   0.01034   0.01031   3.13923
   D84        1.05663  -0.00140   0.00000  -0.00933  -0.00943   1.04720
   D85       -1.07983   0.00137   0.00000   0.02317   0.02306  -1.05677
   D86        1.05791   0.00145   0.00000   0.03138   0.03140   1.08931
   D87       -1.01438  -0.00015   0.00000   0.01170   0.01166  -1.00272
   D88        3.13234   0.00262   0.00000   0.04421   0.04415  -3.10669
   D89       -1.09096  -0.00091   0.00000  -0.01136  -0.01121  -1.10218
   D90        3.11993  -0.00251   0.00000  -0.03104  -0.03095   3.08898
   D91        0.98346   0.00026   0.00000   0.00147   0.00154   0.98500
   D92        2.45689  -0.00140   0.00000  -0.04351  -0.04401   2.41288
   D93       -0.85006  -0.00011   0.00000   0.01802   0.01794  -0.83212
   D94       -1.69217  -0.00144   0.00000  -0.04651  -0.04694  -1.73911
   D95        1.28407  -0.00016   0.00000   0.01503   0.01501   1.29907
   D96        0.34395  -0.00084   0.00000  -0.04513  -0.04544   0.29851
   D97       -2.96299   0.00044   0.00000   0.01641   0.01651  -2.94648
   D98       -1.46039  -0.00172   0.00000  -0.04988  -0.04963  -1.51002
   D99        0.70014   0.00024   0.00000  -0.02482  -0.02478   0.67536
   D100       2.74312  -0.00102   0.00000  -0.03872  -0.03872   2.70440
         Item               Value     Threshold  Converged?
 Maximum Force            0.011646     0.000015     NO 
 RMS     Force            0.002672     0.000010     NO 
 Maximum Displacement     0.288117     0.000060     NO 
 RMS     Displacement     0.082359     0.000040     NO 
 GradGradGradGradGradGradGradGradGradGradGradGradGradGradGradGradGradGrad

                    Distance matrix (angstroms):
                    1          2          3          4          5
     1  O    0.000000
     2  C    1.403296   0.000000
     3  C    2.505068   1.556304   0.000000
     4  C    2.904498   2.518177   1.544382   0.000000
     5  O    2.678105   2.983567   2.450459   1.410415   0.000000
     6  C    3.145626   2.560315   1.541713   2.527594   2.910335
     7  O    2.914863   2.993153   2.451978   2.948061   2.610251
     8  C    3.743187   2.447558   1.534154   2.542351   3.796091
     9  Br   5.458103   4.297742   2.978549   3.399545   4.680336
    10  H    0.979859   1.970105   2.885137   3.453926   3.040125
    11  H    2.007163   1.104967   2.162460   2.779306   3.438920
    12  H    2.079822   1.109076   2.189660   3.483483   3.964053
    13  H    3.144466   2.720229   2.176184   1.110144   2.086990
    14  H    3.958825   3.484948   2.184284   1.101243   2.023507
    15  H    1.856014   2.529621   2.552489   1.930556   0.978058
    16  H    4.151523   3.513800   2.176042   2.791201   3.294735
    17  H    3.505802   2.783023   2.176600   3.487428   3.920421
    18  H    2.866861   3.145271   2.531850   2.471334   1.791792
    19  H    3.933739   2.663142   2.179312   2.781200   4.096143
    20  H    4.054054   2.685574   2.180924   3.502012   4.619442
    21  O    5.219991   5.970817   6.470229   7.141828   6.405479
    22  C    5.692769   6.172561   6.675512   7.602335   7.095028
    23  C    4.959314   5.126135   5.516874   6.627624   6.368999
    24  C    3.647909   3.857145   4.574195   5.702287   5.504801
    25  O    2.791165   3.462594   4.224319   5.033501   4.552259
    26  C    5.143061   5.210288   5.156831   6.150070   5.884058
    27  O    4.852205   5.188095   5.040363   5.710380   5.165832
    28  C    6.070963   5.992991   6.390624   7.676848   7.618730
    29  Br   6.252667   5.728127   5.931476   7.389656   7.689697
    30  H    5.077088   5.774333   6.049018   6.642136   5.877667
    31  H    6.002358   6.514858   7.228020   8.200672   7.721169
    32  H    6.684966   7.105265   7.460075   8.384085   7.873692
    33  H    4.128587   4.366061   5.327565   6.476998   6.311265
    34  H    3.377530   3.190370   3.810706   5.111654   5.174790
    35  H    3.536839   4.374311   5.097723   5.772021   5.108717
    36  H    4.961936   4.743831   4.497558   5.610657   5.581192
    37  H    6.246965   6.290908   6.156724   7.135802   6.867106
    38  H    4.016962   4.352534   4.145823   4.742323   4.192658
    39  H    6.337174   6.323262   6.946584   8.247432   8.180798
    40  H    7.009402   6.951848   7.212051   8.456483   8.352146
                    6          7          8          9         10
     6  C    0.000000
     7  O    1.407185   0.000000
     8  C    2.528761   3.786771   0.000000
     9  Br   3.380176   4.687777   1.957480   0.000000
    10  H    3.030841   2.498208   4.197476   5.835143   0.000000
    11  H    3.489306   4.024349   2.564074   4.442335   2.821699
    12  H    2.764859   3.293968   2.700065   4.570322   2.260093
    13  H    3.487402   3.959673   2.754658   3.711855   3.919183
    14  H    2.788224   3.331582   2.798901   2.944917   4.407470
    15  H    3.111143   2.667203   3.976335   5.202160   2.272288
    16  H    1.106301   2.074913   2.764051   2.894408   4.086991
    17  H    1.105173   2.028178   2.750610   3.703103   3.247133
    18  H    1.942864   0.978045   3.977526   4.801372   2.647371
    19  H    3.490294   4.615651   1.100101   2.480269   4.586757
    20  H    2.772061   4.067473   1.100439   2.483857   4.361162
    21  O    5.603053   4.543261   7.690216   8.948185   4.246907
    22  C    5.735145   4.943288   7.689465   8.927632   4.732922
    23  C    4.544648   4.047059   6.365935   7.561827   4.071500
    24  C    3.984484   3.588127   5.456413   6.941073   2.826427
    25  O    3.766189   3.001251   5.410606   6.932976   1.838227
    26  C    3.867780   3.323538   6.036698   6.895065   4.294851
    27  O    3.750588   2.766502   6.178708   6.991568   3.988635
    28  C    5.456111   5.263463   6.948344   8.075108   5.277054
    29  Br   5.106548   5.428484   6.059387   7.004602   5.677290
    30  H    5.045571   3.905690   7.306383   8.409311   4.112975
    31  H    6.453554   5.732268   8.188527   9.570228   5.084518
    32  H    6.369829   5.584173   8.433772   9.514406   5.720312
    33  H    4.943121   4.622149   6.097453   7.706871   3.405681
    34  H    3.297430   3.287252   4.498809   5.982780   2.748958
    35  H    4.550122   3.587910   6.344931   7.810436   2.583501
    36  H    3.159001   3.001440   5.189966   5.929571   4.251924
    37  H    4.789882   4.283977   6.954413   7.642999   5.391939
    38  H    2.921240   1.810490   5.370674   6.235856   3.223241
    39  H    6.191831   5.993233   7.481027   8.767593   5.570642
    40  H    6.128941   5.876986   7.771042   8.729749   6.177903
                   11         12         13         14         15
    11  H    0.000000
    12  H    1.781228   0.000000
    13  H    2.521149   3.752267   0.000000
    14  H    3.752252   4.337993   1.784724   0.000000
    15  H    2.993139   3.506223   2.360342   2.824939   0.000000
    16  H    4.312239   3.763030   3.794519   2.597199   3.769172
    17  H    3.738603   2.526996   4.326390   3.799874   3.956711
    18  H    4.041278   3.731678   3.481582   2.840443   2.009216
    19  H    2.296706   3.046511   2.533225   3.138276   4.201619
    20  H    2.896620   2.464667   3.761934   3.812069   4.670410
    21  O    6.944325   5.698323   7.910260   7.775631   5.893478
    22  C    7.151614   5.659682   8.377393   8.213569   6.610266
    23  C    6.126439   4.494130   7.412195   7.195981   5.963510
    24  C    4.778168   3.203416   6.334483   6.439985   4.952057
    25  O    4.396781   3.205676   5.656215   5.840544   3.907432
    26  C    6.294147   4.764585   7.085795   6.509450   5.705840
    27  O    6.288341   5.029639   6.695548   6.040212   5.034534
    28  C    6.907138   5.154724   8.415765   8.208621   7.235032
    29  Br   6.526289   4.767120   8.065930   7.813061   7.431085
    30  H    6.804837   5.598923   7.495707   7.173687   5.490290
    31  H    7.402371   5.923387   8.878909   8.903623   7.132286
    32  H    8.118411   6.582642   9.226503   8.900250   7.474611
    33  H    5.125534   3.608632   6.981407   7.294811   5.655820
    34  H    4.102294   2.382245   5.720674   5.809458   4.713484
    35  H    5.281600   4.174238   6.414783   6.551923   4.457091
    36  H    5.803319   4.262168   6.546935   5.888922   5.505779
    37  H    7.371212   5.812225   8.105160   7.405715   6.744930
    38  H    5.445434   4.332521   5.726396   5.102487   4.082201
    39  H    7.143748   5.424454   8.891197   8.878401   7.689374
    40  H    7.904648   6.156260   9.264599   8.902398   8.033944
                   16         17         18         19         20
    16  H    0.000000
    17  H    1.784050   0.000000
    18  H    2.407659   2.834570   0.000000
    19  H    3.776945   3.760279   4.670011   0.000000
    20  H    3.110353   2.534413   4.487830   1.785736   0.000000
    21  O    6.369516   5.361707   5.036513   8.401944   7.522959
    22  C    6.486726   5.228778   5.637615   8.450717   7.327425
    23  C    5.290252   3.869578   4.893670   7.175070   5.912273
    24  C    4.945597   3.394651   4.343894   6.111548   5.050070
    25  O    4.774016   3.569912   3.515758   5.990588   5.282405
    26  C    4.359739   3.310641   4.197490   6.983012   5.706268
    27  O    4.198122   3.596835   3.426723   7.093241   6.095701
    28  C    6.121484   4.561792   6.179516   7.754087   6.280477
    29  Br   5.627665   4.029168   6.392431   6.868331   5.195648
    30  H    5.705188   4.899799   4.382336   8.083220   7.213765
    31  H    7.291444   5.897635   6.405690   8.862283   7.765030
    32  H    6.993310   5.834071   6.299587   9.265282   8.045155
    33  H    5.940250   4.315770   5.321351   6.628817   5.607931
    34  H    4.254019   2.559184   4.105507   5.180102   3.999350
    35  H    5.492092   4.399036   4.017475   6.929669   6.243453
    36  H    3.557230   2.450428   3.955009   6.187274   4.803772
    37  H    5.122731   4.205625   5.128489   7.940770   6.576233
    38  H    3.444407   2.960846   2.458812   6.251439   5.401168
    39  H    6.955644   5.304511   6.867259   8.182721   6.773721
    40  H    6.667326   5.255383   6.794817   8.639729   7.112485
                   21         22         23         24         25
    21  O    0.000000
    22  C    1.406988   0.000000
    23  C    2.446582   1.546790   0.000000
    24  C    2.887273   2.507052   1.542578   0.000000
    25  O    2.567841   2.913504   2.463743   1.403673   0.000000
    26  C    2.965264   2.508614   1.551898   2.582770   3.057089
    27  O    2.643234   2.887686   2.490788   3.135713   2.950440
    28  C    3.737794   2.467612   1.533809   2.523175   3.785916
    29  Br   5.413750   4.307729   2.973226   3.378005   4.700499
    30  H    0.980672   1.925907   2.527406   3.072070   2.637250
    31  H    2.024521   1.104239   2.188323   2.754252   3.262211
    32  H    2.083818   1.109987   2.179879   3.473962   3.940850
    33  H    3.298964   2.772579   2.168926   1.111307   2.073087
    34  H    3.886177   3.470442   2.175758   1.101778   2.025179
    35  H    1.756033   2.435694   2.547344   1.945095   0.977015
    36  H    3.951345   3.477904   2.189986   2.816643   3.396522
    37  H    3.402997   2.756167   2.158628   3.507019   4.071589
    38  H    3.076808   3.475196   2.874960   3.036782   2.595201
    39  H    4.001980   2.706711   2.183938   2.757116   4.040695
    40  H    4.040945   2.707967   2.180968   3.487486   4.622860
                   26         27         28         29         30
    26  C    0.000000
    27  O    1.405541   0.000000
    28  C    2.530331   3.796740   0.000000
    29  Br   3.390447   4.746219   1.960591   0.000000
    30  H    2.490159   1.802849   3.938853   5.434747   0.000000
    31  H    3.479451   3.940829   2.679245   4.554607   2.824887
    32  H    2.713225   3.144812   2.691192   4.559284   2.368859
[...]
 06,-0.00030438,0.00004952,-0.00002231,-0.00000829,0.00000131,0.0000116
 8,0.00001530,-0.00002497,-0.00063522,0.00002369,-0.00099436,0.00043866
 ,0.00019161,-0.00044802,-0.00450536,-0.00072371,-0.00098270,-0.0001639
 5,-0.00014217,0.00071311,0.00033957,0.00038589,-0.00029348,-0.12124517
 ,-0.15266486,0.01315263,-0.01426212,-0.03499928,0.00807488,-0.00009644
 ,-0.00001624,-0.00048778,0.00112436,-0.00139792,0.00139753,0.00188649,
 0.00090986,0.00145863,-0.00029871,0.00015034,0.00012033,-0.00017669,0.
 00002272,0.00012939,0.00011878,0.00022033,0.00005367,0.00022602,0.0001
 0978,-0.00043923,-0.00026251,-0.00011779,0.00052426,0.13332484,0.17775
 876,-0.00004302,0.00001153,0.00003158,0.00005839,-0.00003493,0.0000124
 7,-0.00005497,-0.00001799,-0.00004498,0.00004164,0.00000331,0.00002720
 ,-0.00007560,0.00001276,0.00002208,0.00042854,-0.00012335,0.00011966,-
 0.00056927,-0.00012368,-0.00010866,0.00004030,0.00004032,0.00005876,-0
 .00002781,-0.00002682,-0.00002410,0.00002584,-0.00003195,-0.00006782,-
 0.00002091,0.00001156,0.00000708,-0.00002370,0.00001609,-0.00002890,-0
 .00001735,0.00000748,0.00000522,-0.00000753,-0.00000107,-0.00001049,0.
 00003063,-0.00001990,-0.00000857,-0.00016779,0.00006258,-0.00003728,0.
 00052632,0.00005924,-0.00016649,0.00004268,-0.00006379,-0.00007236,-0.
 00001578,-0.00000801,-0.00000509,-0.00000413,0.00001033,-0.00000402,0.
 00151361,0.00003533,0.00091709,-0.00297269,0.00178309,-0.00551526,-0.0
 2252216,-0.01832988,0.00170963,-0.00131338,-0.00091192,0.00189558,0.00
 041882,0.00003596,-0.00004592,0.02098450,0.01411786,-0.05460084,0.0054
 1929,0.01344539,0.00018043,0.00015293,-0.00148256,0.00066098,0.0000529
 2,0.00127556,-0.00051884,-0.00103328,-0.00053113,-0.00101899,-0.001365
 44,-0.00130051,0.00030199,-0.00013249,0.00005459,0.00010222,0.00011948
 ,0.00030127,0.00029553,0.00061201,0.00027550,-0.00053689,-0.00026154,0
 .00006703,0.00006198,-0.01832723,-0.02252444,0.05601714,0.00002461,0.0
 0000428,0.00011823,-0.00002488,0.00000187,-0.00007405,-0.00007723,-0.0
 0001487,-0.00012869,0.00006798,0.00002172,0.00005622,-0.00018818,0.000
 07323,0.00011279,0.00030791,0.00012772,0.00005197,-0.00062650,-0.00029
 827,0.00028069,0.00003788,0.00009236,0.00007084,-0.00003877,-0.0000332
 4,-0.00000737,-0.00006213,-0.00002157,-0.00014243,-0.00001333,0.000011
 48,0.00003169,0.00000052,-0.00000840,-0.00001996,-0.00004145,0.0000198
 6,0.00002095,0.00000667,-0.00000817,-0.00000728,0.00002787,-0.00004811
 ,-0.00006290,-0.00010629,-0.00001315,-0.00001605,-0.00003874,0.0001877
 2,-0.00011240,0.00017905,-0.00023814,-0.00005391,-0.00003260,-0.000021
 23,0.00000476,0.00000489,0.00000127,-0.00002144,0.00047309,-0.00012016
 ,0.00041982,0.00116994,0.00033450,-0.00083846,0.00819927,-0.00524464,-
 0.01352916,-0.00213413,0.00032907,-0.00277563,0.00018784,-0.00033122,0
 .00062569,-0.14841605,0.04499127,0.11479556,-0.01048444,0.01391764,0.0
 0272967,0.00104493,-0.00022025,-0.00114761,-0.00000291,-0.00034294,0.0
 0007946,-0.00103912,-0.00051066,-0.00051069,0.00013086,0.00011148,0.00
 014628,-0.00011856,0.00009723,0.00022538,0.00085888,-0.00011283,-0.000
 70735,0.00009993,0.00012594,-0.00009895,-0.00005801,0.00000629,-0.0002
 1112,-0.01199716,0.00791140,0.01685795,0.15991171,0.00003767,0.0000492
 6,-0.00006606,-0.00001887,-0.00007636,0.00003464,0.00000786,0.00020369
 ,-0.00005460,-0.00008256,-0.00006987,0.00006570,0.00012753,0.00000001,
 -0.00007843,0.00012438,-0.00075870,0.00022863,0.00137313,0.00075497,-0
 .00058445,0.00002127,-0.00002698,-0.00003634,0.00000495,0.00000724,0.0
 0000056,-0.00002408,-0.00002373,0.00007179,0.00000359,0.00000873,-0.00
 000536,-0.00000859,0.00001499,-0.00001212,0.00000082,0.00002071,-0.000
 01448,0.00000081,0.00000199,0.00000237,-0.00002109,0.00000852,0.000035
 09,0.00002483,0.00010473,-0.00002619,-0.00002285,0.00017803,-0.0001124
 4,-0.00007284,0.00008431,0.00002004,0.00000680,0.00001261,-0.00000528,
 0.00000181,0.00000644,-0.00000556,-0.00092490,0.00013908,-0.00036211,0
 .00134390,-0.00033596,-0.00056310,0.00269516,-0.00066485,-0.00495025,-
 0.00078257,0.00037341,0.00029842,-0.00016402,0.00007036,-0.00016257,0.
 04084053,-0.07308558,-0.05628738,0.03224874,-0.02205710,-0.01423967,0.
 00024264,0.00046768,0.00178304,-0.00006493,0.00005542,-0.00023755,0.00
 119664,0.00040050,0.00022001,-0.00016336,0.00007932,0.00018699,-0.0005
 3562,-0.00009211,0.00003580,0.00014646,0.00028580,-0.00017872,0.000234
 15,0.00012103,-0.00016791,0.00018445,0.00009277,0.00017247,-0.01155087
 ,0.00911778,0.01431067,-0.06348110,0.09022480,0.00027408,0.00001214,0.
 00000671,-0.00011306,-0.00002408,-0.00005482,0.00000168,-0.00003879,0.
 00001233,-0.00000913,0.00001684,-0.00000079,0.00003171,-0.00000324,0.0
 0004636,-0.00012609,0.00010758,-0.00003370,-0.00021063,-0.00023100,0.0
 0022108,-0.00003605,-0.00002706,-0.00000899,0.00002328,0.00002050,0.00
 002114,-0.00038634,0.00008714,0.00003383,0.00003138,-0.00000096,0.0000
 0027,0.00000023,-0.00003893,0.00002559,-0.00000025,-0.00000225,-0.0000
 0305,0.00000789,-0.00000403,0.00000820,-0.00005712,0.00002987,-0.00005
 134,0.00001566,-0.00002684,0.00001950,-0.00000782,-0.00005486,-0.00000
 448,0.00000308,0.00000505,-0.00003289,-0.00000006,-0.00000117,0.000004
 80,-0.00000015,-0.00000731,0.00000160,-0.00041676,-0.00002669,0.000475
 06,0.00183554,0.00065388,0.00051937,0.01715769,-0.00800442,-0.02339489
 ,-0.00530640,0.00073394,-0.00367513,0.00026897,-0.00081295,0.00058880,
 0.11669592,-0.06171693,-0.18493351,-0.01206861,0.00726539,0.01394262,0
 .00154102,-0.00100735,0.00005635,-0.00004725,0.00035224,-0.00013159,0.
 00014088,-0.00005425,-0.00036781,-0.00019191,0.00027798,0.00031052,-0.
 00099022,-0.00043224,0.00044194,0.00092647,-0.00049795,-0.00168446,-0.
 00017995,0.00006145,0.00034308,0.00035592,0.00035803,-0.00020830,0.000
 22345,-0.00075344,-0.00004604,-0.11688414,0.06069262,0.19721715,-0.002
 17497,-0.00041672,-0.00153508,0.00104505,0.00018534,0.00135975,0.00074
 664,0.00336480,0.00017720,-0.00171613,-0.00072987,0.00039868,0.0032401
 2,-0.00169366,-0.00255054,-0.00176360,-0.01539371,0.00334388,-0.001262
 62,0.00591585,-0.00246646,0.00025361,-0.00118182,-0.00123578,0.0003013
 1,0.00027074,-0.00007019,0.00333694,-0.00004252,0.00076233,-0.00005161
 ,-0.00013031,-0.00037359,-0.00011472,0.00021892,-0.00004531,0.00039329
 ,0.00001401,-0.00034425,-0.00011161,0.00008292,0.00005369,0.00019339,0
 .00077776,0.00128787,0.00129916,0.00171377,-0.00022902,-0.00032734,0.0
 0162482,-0.00073600,-0.00160679,0.00762400,0.00023428,0.00042487,0.000
 42472,-0.00016653,-0.00003161,0.00007818,0.00012724,0.00271295,0.00062
 024,0.00294877,-0.00125429,0.00085618,-0.00022840,-0.00054619,-0.00193
 141,-0.00032005,0.00117060,0.00031997,-0.00173092,-0.00287821,0.000481
 94,0.00288580,-0.01316567,0.01397848,-0.00173084,-0.36103167,0.0445156
 9,0.11668048,0.00058054,0.00140028,0.00073415,-0.00017707,-0.00063928,
 0.00027522,-0.00602702,-0.00423639,-0.00271188,0.00039528,-0.00000485,
 0.00032214,-0.00011382,-0.00020573,-0.00008571,-0.00020818,0.00004508,
 0.00049574,-0.00011687,-0.00040569,0.00012461,0.00058595,-0.00042468,-
 0.00243935,0.00187683,-0.00440450,0.00155410,0.00277829,-0.00298491,-0
 .00102328,0.37343801,-0.00035390,-0.00044266,0.00019953,0.00024711,0.0
 0042935,0.00001220,-0.00012444,-0.00064290,0.00002966,0.00002168,0.000
 22493,-0.00009318,0.00038662,-0.00081183,-0.00033188,-0.00304032,0.001
 37735,0.00047147,0.00250356,-0.01473811,0.00178309,-0.00006847,0.00002
 220,0.00007237,0.00001402,-0.00001289,-0.00001502,0.00023547,0.0003220
 1,-0.00040988,-0.00003513,-0.00006304,-0.00002593,0.00001795,-0.000076
 76,0.00002875,0.00002365,-0.00008645,0.00001981,-0.00001792,-0.0000081
 4,0.00000016,0.00019499,0.00019217,-0.00003145,-0.00031176,-0.00038714
 ,0.00012762,0.00003620,-0.00041926,0.00043427,0.00276624,0.00334385,-0
 .00154125,0.00000517,-0.00001881,-0.00000054,-0.00001311,-0.00001505,0
 .00003353,-0.00067807,-0.00166572,-0.00280870,0.00005660,-0.00000250,0
 .00010513,0.00009503,-0.00109601,0.00003651,-0.00007194,0.00136415,0.0
 0045384,0.00053914,-0.00147753,0.00064818,0.04010422,-0.01144459,-0.01
 137424,0.00577926,-0.04929623,0.01238582,0.00035011,0.00007188,0.00018
 935,-0.00017646,0.00012573,-0.00014957,-0.00124452,0.00346790,0.003669
 08,-0.00007760,-0.00011281,-0.00002816,0.00009178,-0.00011417,0.000000
 20,0.00005469,-0.00029418,-0.00000800,-0.00009953,-0.00022376,0.000139
 72,-0.00104852,0.00019919,-0.00077275,0.00041470,0.00032315,-0.0006202
 1,0.00277334,-0.00579327,0.00231188,-0.04914240,0.07778534,-0.00064500
 ,-0.00014956,0.00078047,0.00034048,0.00048101,-0.00026663,-0.00000328,
 -0.00046499,-0.00038031,0.00059025,0.00026491,-0.00011510,-0.00130777,
 0.00053131,0.00055520,0.00084114,0.00395378,-0.00232731,-0.00024765,0.
 00092728,-0.00398641,0.00010767,0.00032468,0.00027028,-0.00017186,-0.0
 0014295,-0.00004717,0.00054152,-0.00032906,-0.00132672,-0.00012947,-0.
 00000944,0.00009228,-0.00000405,-0.00002106,-0.00007822,-0.00010834,-0
 .00001542,0.00008997,-0.00001835,-0.00004187,-0.00004295,0.00035716,-0
 .00033921,-0.00015332,-0.00099593,-0.00100163,0.00024524,0.00025189,-0
 .00024161,0.00035377,-0.00037024,-0.00302545,0.00078202,-0.00009732,-0
 .00008129,0.00000845,-0.00000412,-0.00000357,-0.00004539,-0.00041502,-
 0.00133017,-0.00290498,0.00019658,0.00034536,0.00025616,-0.00229099,0.
 00282524,-0.00043149,-0.00250276,0.00297173,-0.00086797,0.00244351,-0.
 00129112,0.00203872,-0.01464956,-0.00024752,0.00378228,0.13271580,-0.0
 0109741,-0.06262368,-0.00028699,-0.00021480,-0.00127496,0.00006261,0.0
 0008631,-0.00012073,-0.00012871,0.00204720,0.00279158,-0.00010787,-0.0
 0007591,-0.00004908,0.00021649,-0.00006260,-0.00006622,0.00056898,-0.0
 0032543,0.00003011,0.00014427,0.00008707,-0.00015813,-0.00189285,-0.00
 098019,-0.00038267,0.00044435,0.00181886,0.00055389,0.00051587,-0.0003
 1265,0.00002513,-0.11391932,-0.00503083,0.06517511,0.00019179,0.000034
 15,0.00001464,-0.00007884,-0.00004958,-0.00003600,0.00000747,-0.000000
 65,-0.00000764,-0.00000415,-0.00000566,0.00001216,0.00001410,0.0000229
 0,0.00003687,0.00002432,-0.00001779,-0.00000490,-0.00006518,0.00004639
 ,0.00009591,-0.00001385,-0.00002219,-0.00000068,0.00001041,0.00001604,
 0.00001663,-0.00024518,0.00002797,0.00002100,0.00001344,0.00000499,0.0
 0000362,0.00000536,-0.00001649,-0.00000906,-0.00000568,0.00000390,-0.0
 0000043,0.00000678,-0.00000368,0.00000520,-0.00003721,0.00000676,-0.00
 003891,0.00000778,-0.00000316,0.00001193,-0.00000481,-0.00001649,-0.00
 001808,0.00000681,-0.00003173,-0.00003297,-0.00000509,0.00000216,0.000
 00240,0.00000351,-0.00000390,-0.00001024,0.00010379,-0.00006346,0.0005
 3216,0.00040239,-0.00088585,0.00018488,-0.00856334,-0.00044661,-0.0147
 5001,-0.00072481,-0.00019780,-0.00200181,0.00079581,-0.00069310,0.0005
 9992,-0.00005728,0.00302715,0.00184716,-0.00060837,0.00053008,-0.00109
 380,-0.12713171,-0.00012032,-0.12825842,-0.01006880,-0.00875223,-0.007
 72390,-0.00022861,-0.00028644,-0.00008697,0.00060746,0.00011209,0.0000
 3665,-0.00000346,0.00009449,0.00011055,-0.00020914,0.00054212,0.001118
 19,0.00006974,0.00002255,0.00012247,0.00006366,0.00007505,-0.00020816,
 0.00013248,-0.00021831,0.00016132,0.00016697,-0.00012325,-0.00023191,0
 .00018102,-0.00006761,-0.00020573,0.13195655,0.00000430,0.00004129,-0.
 00003049,0.00000356,-0.00004629,0.00001691,-0.00000087,0.00004090,0.00
 000220,-0.00002038,-0.00003993,0.00000958,0.00004992,0.00002004,-0.000
 03945,-0.00003967,-0.00021847,0.00007257,0.00028530,0.00013500,-0.0001
 5798,0.00001133,-0.00003713,-0.00000501,-0.00000003,0.00001487,0.00000
 159,0.00000599,0.00000105,0.00002944,-0.00000019,0.00000076,-0.0000052
 0,-0.00001098,0.00000630,-0.00000289,0.00000406,0.00000335,-0.00000496
 ,-0.00000163,0.00000022,0.00000186,-0.00000060,-0.00000417,0.00001828,
 0.00001430,0.00001681,0.00000268,-0.00002469,-0.00001412,-0.00000504,-
 0.00002625,0.00004966,0.00002089,0.00000191,0.00001072,-0.00000369,0.0
 0000189,-0.00000015,-0.00001194,-0.00048685,0.00022119,-0.00056098,0.0
 0170301,0.00083156,0.00140433,0.01465597,0.00221989,0.02323440,0.00007
 473,0.00014670,0.00169476,-0.00031558,0.00019762,-0.00043682,0.0007195
 7,-0.00432062,-0.00211204,0.00171238,-0.00106027,0.00166237,-0.0037184
 8,-0.04198476,-0.01626154,-0.01713675,-0.01217334,-0.01227476,0.000400
 29,0.00043140,0.00024449,-0.00043456,-0.00080224,-0.00041619,-0.000160
 99,-0.00000005,-0.00012731,0.00012699,-0.00016525,-0.00080424,0.000044
 12,-0.00004641,-0.00014210,0.00002320,0.00004852,0.00018727,0.00019538
 ,0.00007461,0.00009852,-0.00017908,-0.00010163,-0.00005310,-0.00051550
 ,-0.00004831,0.00034421,0.00582916,0.05566666,-0.00003729,-0.00000218,
 0.00001279,0.00001410,0.00000493,-0.00000226,-0.00000628,-0.00000999,-
 0.00000736,0.00001625,0.00000643,-0.00000227,-0.00003925,0.00000959,0.
 00001734,0.00003243,0.00007312,-0.00002560,-0.00015516,-0.00003952,0.0
 0006946,0.00000584,0.00001967,0.00001061,-0.00000811,-0.00000845,-0.00
 000345,0.00004818,-0.00001630,-0.00000925,-0.00000486,0.00000094,0.000
 00492,0.00000445,0.00000505,-0.00000468,-0.00000483,0.00000074,0.00000
 515,0.00000021,0.,-0.00000261,0.00001191,-0.00001199,-0.00000397,-0.00
 000653,-0.00000665,-0.00000214,0.00000699,0.00001669,-0.00000192,0.000
 02461,-0.00004055,-0.00000994,-0.00000326,-0.00000405,0.00000117,0.000
 00033,0.00000184,0.00000014,0.00053434,0.00009769,0.00040756,-0.000599
 69,-0.00052005,-0.00016705,-0.00142313,0.00008591,-0.00336120,0.001347
 45,-0.00068415,0.00073519,0.00012364,0.00025371,0.00014540,0.00034236,
 0.00087701,0.00078320,-0.00070658,0.00035631,-0.00007816,-0.12588576,-
 0.01392078,-0.25072339,0.00615438,0.00399190,0.00628459,-0.00017190,-0
 .00029212,-0.00009942,0.00029010,0.00059903,0.00026112,-0.00006155,-0.
 00004032,-0.00004676,-0.00014532,-0.00025201,0.00031567,0.00012380,0.0
 0000615,-0.00004417,-0.00012067,-0.00006873,-0.00007933,-0.00015782,-0
 .00004108,-0.00004941,0.00010975,0.00002610,0.00045488,0.00024337,0.00
 007716,-0.00018257,0.13359360,0.00965286,0.26125850,-0.00013958,0.0000
 0732,-0.00000439,0.00004332,0.00001096,0.00002064,-0.00000800,0.000014
 36,-0.00000103,-0.00000219,-0.00002155,0.00000314,0.00001098,0.0000111
 8,-0.00003887,0.00000615,-0.00009703,0.00005266,0.00014096,0.00005754,
 -0.00013184,0.00002191,-0.00001182,0.00000672,-0.00000829,0.00000027,-
 0.00001039,0.00021231,-0.00001975,-0.00000552,-0.00000973,-0.00000526,
 -0.00000320,-0.00000611,0.00000414,-0.00000725,0.00000345,0.00000052,-
 0.00000207,-0.00000439,0.00000115,-0.00000148,0.00002220,-0.00001347,0
 .00002946,-0.00000636,0.00001076,-0.00000535,-0.00000542,-0.00000160,0
 .00000497,-0.00001064,0.00002617,0.00002826,0.00000043,0.00000437,-0.0
 0000473,0.00000072,0.00000104,-0.00000445,0.00017222,-0.00023927,-0.00
 054861,0.00037843,-0.00105603,0.00018803,-0.00979428,0.00413250,0.0132
 0241,-0.00004870,0.00247976,-0.00260736,-0.00067017,0.00083479,0.00096
 354,-0.00064098,0.00018066,0.00184841,0.00088892,-0.00055940,-0.000292
 03,-0.14993038,0.04193828,0.13080663,-0.01038235,-0.00580530,0.0087600
 5,-0.00002147,0.00011081,0.00014396,-0.00000829,0.00005147,-0.00012872
 ,0.00065004,0.00010115,-0.00005641,0.00017450,-0.00007783,0.00027369,0
 .00013418,-0.00024014,-0.00010972,-0.00025606,-0.00033296,0.00013975,0
 .00009489,-0.00001081,-0.00008521,-0.00017863,0.00015828,-0.00124772,-
 0.00027384,-0.00013982,0.00016462,0.01328390,-0.00279430,-0.01349010,0
 .15616634,0.00041944,0.00011594,-0.00005862,-0.00010440,-0.00018107,-0
 .00002025,-0.00000194,0.00003302,-0.00001325,-0.00002383,-0.00003451,0
 .00001528,0.00005989,0.00003795,0.00002715,-0.00002691,-0.00012512,0.0
 0003048,0.00007109,0.00010841,0.00006940,0.00000367,-0.00004923,0.0000
 1306,0.00000992,0.00002578,0.00001025,-0.00060145,0.00003955,0.0000958
 1,0.00003367,0.00001386,-0.00000513,-0.00001565,-0.00000686,0.00001290
 ,-0.00000150,0.00000490,-0.00000524,0.00000607,-0.00000160,0.00000645,
 -0.00006242,0.00001646,-0.00004636,0.00001407,0.00000660,0.00001270,-0
 .00002025,-0.00002683,-0.00002040,-0.00001698,-0.00000447,-0.00003178,
 -0.00000304,0.00000501,-0.00000117,0.00000303,-0.00000307,-0.00000964,
 -0.00081931,0.00046970,0.00048910,0.00203866,0.00012743,-0.00155659,0.
 01611124,-0.00463807,-0.02100464,0.00059611,-0.00378911,0.00332954,0.0
 0191009,-0.00157177,-0.00136586,-0.00034098,0.00001625,-0.00141742,-0.
 00036597,0.00013811,0.00031815,0.03788468,-0.05178744,-0.04256075,-0.0
 1951754,-0.00826659,0.01537850,0.00015644,0.00006479,-0.00014900,-0.00
 014567,0.00003804,0.00008349,-0.00057839,-0.00076733,0.00077023,-0.000
 20819,-0.00001860,0.00015223,0.00019889,0.00002505,-0.00001798,0.00036
 609,0.00057885,-0.00020032,-0.00002442,0.00001202,0.00011617,0.0001083
 2,0.00020198,0.00083330,-0.00002972,0.00004291,-0.00017323,0.00162835,
 0.00088405,-0.00020389,-0.03871116,0.06826501,0.00003562,-0.00000782,-
 0.00000541,-0.00001694,0.00000552,-0.00000614,0.00000526,-0.00000190,0
 .00000366,-0.00000901,0.00000389,0.00000094,0.00002170,-0.00001143,-0.
 00000266,-0.00001795,-0.00001142,0.00000659,0.00005545,-0.00000198,-0.
 00001175,-0.00000783,-0.00000872,-0.00000697,0.00000738,0.00000418,0.0
 0000297,-0.00004342,0.00001567,0.00002088,0.00000636,-0.00000084,-0.00
 000237,0.00000253,-0.00000873,0.00000370,0.00000265,-0.00000094,-0.000
 00328,0.00000059,-0.00000026,0.00000215,-0.00001251,0.00001189,-0.0000
 0373,0.00000164,0.00000112,0.00000154,-0.00000169,-0.00000667,0.000005
 94,-0.00001456,0.00001911,0.00000151,0.00000173,0.00000060,-0.00000010
 ,-0.00000049,-0.00000159,0.00000258,-0.00042036,0.00003856,0.00016979,
 0.00009058,0.00031213,0.00018703,-0.00434672,0.00072287,0.00489026,-0.
 00050732,0.00067322,-0.00043765,-0.00003296,0.00009824,0.00054081,-0.0
 0148129,0.00096764,0.00098751,0.00011494,-0.00042014,0.00008336,0.1297
 4624,-0.04469888,-0.21865981,-0.00168342,0.00009970,0.00281008,0.00013
 895,0.00008458,0.00003531,0.00013698,0.00001011,-0.00011594,-0.0001622
 6,-0.00018644,0.00021927,-0.00004059,0.00009994,0.00041955,0.00007135,
 0.00000213,-0.00004335,0.00010038,0.00006526,-0.00014262,-0.00011206,-
 0.00001301,-0.00006957,0.00009603,0.00027828,-0.00014454,-0.00006680,0
 .00001228,0.00000136,0.01619233,-0.00524348,-0.01586078,-0.13785050,0.
 04709732,0.22511986\\-0.00000051,0.00000056,-0.00000109,0.00000012,0.0
 0000046,0.00000017,-0.00000061,-0.00000066,-0.00000015,-0.00000013,-0.
 00000037,-0.00000071,-0.00000037,-0.00000053,-0.00000087,0.00000093,-0
 .00000031,-0.00000033,-0.00000059,-0.00000078,-0.00000098,0.00000069,0
 .00000036,0.00000068,0.00000014,-0.00000091,0.00000035,-0.00000060,0.0
 0000031,-0.00000012,-0.00000030,0.00000041,-0.00000019,0.00000009,0.00
 000034,0.00000010,-0.00000033,-0.00000035,-0.00000049,-0.00000018,-0.0
 0000114,-0.00000049,-0.00000017,0.00000012,-0.00000056,0.00000015,-0.0
 0000088,0.00000017,0.00000010,-0.00000038,0.00000053,-0.00000021,-0.00
 000075,-0.00000057,-0.00000014,-0.00000011,0.00000022,0.00000031,-0.00
 000013,0.00000052,0.00000010,0.00000046,-0.00000042,-0.00000057,0.0000
 0003,0.00000005,0.00000091,0.00000047,0.00000100,-0.00000039,0.0000005
 5,0.00000022,0.00000063,0.00000045,0.00000002,-0.00000042,-0.00000013,
 -0.00000053,0.00000017,-0.00000088,-0.00000015,0.00000008,0.00000075,0
 .00000059,0.00000050,0.00000046,0.00000126,-0.00000049,-0.00000005,-0.
 00000063,0.00000007,0.00000078,0.00000011,0.00000021,0.00000014,0.,-0.
 00000018,0.00000103,0.00000030,0.00000005,0.00000042,0.00000010,-0.000
 00063,0.00000050,-0.00000087,0.00000017,-0.00000050,0.00000062,0.00000
 038,-0.00000033,0.00000046,0.00000038,-0.00000058,-0.00000005,0.000000
 30,0.00000093,0.00000094,0.00000036,0.00000021,0.00000076\\\@


 SLITHERY-DITHERY
 FRIEDRICH A. KEKULE
 DREAMT ON A BUS OF THINGS
 FREUD WOULD THINK KEEN.
 MOST OF THE TIME THEY WERE
 HERPETOLOGICAL
 BITING THEIR TAILS IN THE
 SHAPE OF BENZENE.
 File lengths (MBytes):  RWF=    608 Int=      0 D2E=      0 Chk=     10 Scr=      1
 Normal termination of Gaussian 16 at Mon Feb  6 02:51:31 2023.
real 12554.50
user 49730.93
sys 32.27
