 Entering Gaussian System, Link 0=g16
 Input=gaussian_test.inp
 Output=gaussian_test.log
 Initial command:
 /sw/restricted/lms/sw/Gaussian/g16_B01/g16/l1.exe "/scratch/user/peterchao1/peterchao1/6097784_1659647559000000795552138/Gau-150752.inp" -scrdir="/scratch/user/peterchao1/peterchao1/6097784_1659647559000000795552138/"
 Entering Link 1 = /sw/restricted/lms/sw/Gaussian/g16_B01/g16/l1.exe PID=    150753.
  
 Copyright (c) 1988-2017, Gaussian, Inc.  All Rights Reserved.
  
 This is part of the Gaussian(R) 16 program.  It is based on
 the Gaussian(R) 09 system (copyright 2009, Gaussian, Inc.),
 the Gaussian(R) 03 system (copyright 2003, Gaussian, Inc.),
 the Gaussian(R) 98 system (copyright 1998, Gaussian, Inc.),
 the Gaussian(R) 94 system (copyright 1995, Gaussian, Inc.),
 the Gaussian 92(TM) system (copyright 1992, Gaussian, Inc.),
 the Gaussian 90(TM) system (copyright 1990, Gaussian, Inc.),
 the Gaussian 88(TM) system (copyright 1988, Gaussian, Inc.),
 the Gaussian 86(TM) system (copyright 1986, Carnegie Mellon
 University), and the Gaussian 82(TM) system (copyright 1983,
 Carnegie Mellon University). Gaussian is a federally registered
 trademark of Gaussian, Inc.
  
 This software contains proprietary and confidential information,
 including trade secrets, belonging to Gaussian, Inc.
  
 This software is provided under written license and may be
 used, copied, transmitted, or stored only in accord with that
 written license.
  
 The following legend is applicable only to US Government
 contracts under FAR:
  
                    RESTRICTED RIGHTS LEGEND
  
 Use, reproduction and disclosure by the US Government is
 subject to restrictions as set forth in subparagraphs (a)
 and (c) of the Commercial Computer Software - Restricted
 Rights clause in FAR 52.227-19.
  
 Gaussian, Inc.
 340 Quinnipiac St., Bldg. 40, Wallingford CT 06492
  
  
 ---------------------------------------------------------------
 Warning -- This program may not be used in any manner that
 competes with the business of Gaussian, Inc. or will provide
 assistance to any competitor of Gaussian, Inc.  The licensee
 of this program is prohibited from giving any competitor of
 Gaussian, Inc. access to this program.  By using this program,
 the user acknowledges that Gaussian, Inc. is engaged in the
 business of creating and licensing software in the field of
 computational chemistry and represents and warrants to the
 licensee that it is not a competitor of Gaussian, Inc. and that
 it will not use this program in any manner prohibited above.
 ---------------------------------------------------------------
  

 Cite this work as:
 Gaussian 16, Revision B.01,
 M. J. Frisch, G. W. Trucks, H. B. Schlegel, G. E. Scuseria, 
 M. A. Robb, J. R. Cheeseman, G. Scalmani, V. Barone, 
 G. A. Petersson, H. Nakatsuji, X. Li, M. Caricato, A. V. Marenich, 
 J. Bloino, B. G. Janesko, R. Gomperts, B. Mennucci, H. P. Hratchian, 
 J. V. Ortiz, A. F. Izmaylov, J. L. Sonnenberg, D. Williams-Young, 
 F. Ding, F. Lipparini, F. Egidi, J. Goings, B. Peng, A. Petrone, 
 T. Henderson, D. Ranasinghe, V. G. Zakrzewski, J. Gao, N. Rega, 
 G. Zheng, W. Liang, M. Hada, M. Ehara, K. Toyota, R. Fukuda, 
 J. Hasegawa, M. Ishida, T. Nakajima, Y. Honda, O. Kitao, H. Nakai, 
 T. Vreven, K. Throssell, J. A. Montgomery, Jr., J. E. Peralta, 
 F. Ogliaro, M. J. Bearpark, J. J. Heyd, E. N. Brothers, K. N. Kudin, 
 V. N. Staroverov, T. A. Keith, R. Kobayashi, J. Normand, 
 K. Raghavachari, A. P. Rendell, J. C. Burant, S. S. Iyengar, 
 J. Tomasi, M. Cossi, J. M. Millam, M. Klene, C. Adamo, R. Cammi, 
 J. W. Ochterski, R. L. Martin, K. Morokuma, O. Farkas, 
 J. B. Foresman, and D. J. Fox, Gaussian, Inc., Wallingford CT, 2016.
 
 ******************************************
 Gaussian 16:  ES64L-G16RevB.01 20-Dec-2017
                 4-Aug-2022 
 ******************************************
 %nprocshared=4
 Will use up to    4 processors via shared memory.
 %mem=8000mb
 ----------------------------------------------------------------------
 #T wB97XD/def2svpp opt=tight freq int(grid=ultrafine) scf=(verytight,q
 c)
 ----------------------------------------------------------------------
 --------------
 Comment gs min
 --------------
 Symbolic Z-matrix:
 Charge =  0 Multiplicity = 1
 F                     2.77165   1.21239   0.18607 
 C                     2.3724   -0.05757  -0.08829 
 C                     2.89001  -1.01281   0.98463 
 C                     2.37728  -0.57321   2.3504 
 F                     1.01716  -0.6481    2.35732 
 C                     2.38148  -2.417     0.67899 
 F                     2.8701   -2.81457  -0.52706 
 C                     4.41614  -1.02636   0.9925 
 F                     4.89187   0.1881    1.37189 
 H                     2.75219  -0.31522  -1.08243 
 H                     1.27832  -0.05273  -0.13497 
 H                     2.65822   0.45687   2.59377 
 H                     2.74272  -1.22616   3.1503 
 H                     1.28775  -2.45942   0.62298 
 H                     2.71357  -3.14456   1.42618 
 H                     4.83139  -1.2555    0.00564 
 H                     4.80756  -1.76107   1.70443 
 

 GradGradGradGradGradGradGradGradGradGradGradGradGradGradGradGradGradGrad
 Initialization pass.
                           ----------------------------
                           !    Initial Parameters    !
                           ! (Angstroms and Degrees)  !
 --------------------------                            --------------------------
 ! Name  Definition              Value          Derivative Info.                !
 --------------------------------------------------------------------------------
 ! R1    R(1,2)                  1.3592         estimate D2E/DX2                !
 ! R2    R(2,3)                  1.5269         estimate D2E/DX2                !
 ! R3    R(2,10)                 1.095          estimate D2E/DX2                !
 ! R4    R(2,11)                 1.0951         estimate D2E/DX2                !
 ! R5    R(3,4)                  1.5236         estimate D2E/DX2                !
 ! R6    R(3,6)                  1.5244         estimate D2E/DX2                !
 ! R7    R(3,8)                  1.5262         estimate D2E/DX2                !
 ! R8    R(4,5)                  1.3622         estimate D2E/DX2                !
 ! R9    R(4,12)                 1.0951         estimate D2E/DX2                !
 ! R10   R(4,13)                 1.0953         estimate D2E/DX2                !
 ! R11   R(6,7)                  1.3606         estimate D2E/DX2                !
 ! R12   R(6,14)                 1.096          estimate D2E/DX2                !
 ! R13   R(6,15)                 1.0945         estimate D2E/DX2                !
 ! R14   R(8,9)                  1.3584         estimate D2E/DX2                !
 ! R15   R(8,16)                 1.0949         estimate D2E/DX2                !
 ! R16   R(8,17)                 1.0954         estimate D2E/DX2                !
 ! A1    A(1,2,3)              110.0661         estimate D2E/DX2                !
 ! A2    A(1,2,10)             107.5319         estimate D2E/DX2                !
 ! A3    A(1,2,11)             107.3339         estimate D2E/DX2                !
 ! A4    A(3,2,10)             111.9117         estimate D2E/DX2                !
 ! A5    A(3,2,11)             111.8013         estimate D2E/DX2                !
 ! A6    A(10,2,11)            107.9913         estimate D2E/DX2                !
 ! A7    A(2,3,4)              109.5899         estimate D2E/DX2                !
 ! A8    A(2,3,6)              108.8017         estimate D2E/DX2                !
 ! A9    A(2,3,8)              110.3738         estimate D2E/DX2                !
 ! A10   A(4,3,6)              109.4652         estimate D2E/DX2                !
 ! A11   A(4,3,8)              109.5384         estimate D2E/DX2                !
 ! A12   A(6,3,8)              109.0525         estimate D2E/DX2                !
 ! A13   A(3,4,5)              108.9471         estimate D2E/DX2                !
 ! A14   A(3,4,12)             112.5985         estimate D2E/DX2                !
 ! A15   A(3,4,13)             111.7373         estimate D2E/DX2                !
 ! A16   A(5,4,12)             107.8628         estimate D2E/DX2                !
 ! A17   A(5,4,13)             107.2562         estimate D2E/DX2                !
 ! A18   A(12,4,13)            108.2309         estimate D2E/DX2                !
 ! A19   A(3,6,7)              109.0912         estimate D2E/DX2                !
 ! A20   A(3,6,14)             112.2599         estimate D2E/DX2                !
 ! A21   A(3,6,15)             111.9769         estimate D2E/DX2                !
 ! A22   A(7,6,14)             107.5635         estimate D2E/DX2                !
 ! A23   A(7,6,15)             107.573          estimate D2E/DX2                !
 ! A24   A(14,6,15)            108.177          estimate D2E/DX2                !
 ! A25   A(3,8,9)              110.1028         estimate D2E/DX2                !
 ! A26   A(3,8,16)             112.1136         estimate D2E/DX2                !
 ! A27   A(3,8,17)             111.5076         estimate D2E/DX2                !
 ! A28   A(9,8,16)             107.8194         estimate D2E/DX2                !
 ! A29   A(9,8,17)             107.0378         estimate D2E/DX2                !
 ! A30   A(16,8,17)            108.0537         estimate D2E/DX2                !
 ! D1    D(1,2,3,4)             58.1708         estimate D2E/DX2                !
 ! D2    D(1,2,3,6)            177.8281         estimate D2E/DX2                !
 ! D3    D(1,2,3,8)            -62.5493         estimate D2E/DX2                !
 ! D4    D(10,2,3,4)           177.6825         estimate D2E/DX2                !
 ! D5    D(10,2,3,6)           -62.6601         estimate D2E/DX2                !
 ! D6    D(10,2,3,8)            56.9625         estimate D2E/DX2                !
 ! D7    D(11,2,3,4)           -61.0213         estimate D2E/DX2                !
 ! D8    D(11,2,3,6)            58.636          estimate D2E/DX2                !
 ! D9    D(11,2,3,8)           178.2586         estimate D2E/DX2                !
 ! D10   D(2,3,4,5)             62.6508         estimate D2E/DX2                !
 ! D11   D(2,3,4,12)           -56.9644         estimate D2E/DX2                !
 ! D12   D(2,3,4,13)          -179.0211         estimate D2E/DX2                !
 ! D13   D(6,3,4,5)            -56.5989         estimate D2E/DX2                !
 ! D14   D(6,3,4,12)          -176.2141         estimate D2E/DX2                !
 ! D15   D(6,3,4,13)            61.7293         estimate D2E/DX2                !
 ! D16   D(8,3,4,5)           -176.1238         estimate D2E/DX2                !
 ! D17   D(8,3,4,12)            64.261          estimate D2E/DX2                !
 ! D18   D(8,3,4,13)           -57.7957         estimate D2E/DX2                !
 ! D19   D(2,3,6,7)             61.7288         estimate D2E/DX2                !
 ! D20   D(2,3,6,14)           -57.3955         estimate D2E/DX2                !
 ! D21   D(2,3,6,15)          -179.311          estimate D2E/DX2                !
 ! D22   D(4,3,6,7)           -178.5363         estimate D2E/DX2                !
 ! D23   D(4,3,6,14)            62.3393         estimate D2E/DX2                !
 ! D24   D(4,3,6,15)           -59.5761         estimate D2E/DX2                !
 ! D25   D(8,3,6,7)            -58.7128         estimate D2E/DX2                !
 ! D26   D(8,3,6,14)          -177.8372         estimate D2E/DX2                !
 ! D27   D(8,3,6,15)            60.2474         estimate D2E/DX2                !
 ! D28   D(2,3,8,9)             65.5762         estimate D2E/DX2                !
 ! D29   D(2,3,8,16)           -54.4546         estimate D2E/DX2                !
 ! D30   D(2,3,8,17)          -175.765          estimate D2E/DX2                !
 ! D31   D(4,3,8,9)            -55.1746         estimate D2E/DX2                !
 ! D32   D(4,3,8,16)          -175.2054         estimate D2E/DX2                !
 ! D33   D(4,3,8,17)            63.4842         estimate D2E/DX2                !
 ! D34   D(6,3,8,9)           -174.9528         estimate D2E/DX2                !
 ! D35   D(6,3,8,16)            65.0164         estimate D2E/DX2                !
 ! D36   D(6,3,8,17)           -56.2941         estimate D2E/DX2                !
 --------------------------------------------------------------------------------
 Number of steps in this run=     92 maximum allowed number of steps=    102.
 GradGradGradGradGradGradGradGradGradGradGradGradGradGradGradGradGradGrad

                    Distance matrix (angstroms):
                    1          2          3          4          5
     1  F    0.000000
     2  C    1.359218   0.000000
     3  C    2.367113   1.526945   0.000000
     4  C    2.833411   2.492613   1.523636   0.000000
     5  F    3.354696   2.857693   2.350502   1.362198   0.000000
     6  C    3.683432   2.481071   1.524391   2.488612   2.794131
     7  F    4.090801   2.835714   2.352008   3.680536   4.055444
     8  C    2.892521   2.506698   1.526210   2.491222   3.682238
     9  F    2.636413   2.922364   2.366347   2.803612   4.084566
    10  H    1.985715   1.094960   2.185947   3.462866   3.866913
    11  H    1.983338   1.095086   2.184674   2.766889   2.575690
    12  H    2.526004   2.745867   2.191579   1.095090   1.992472
    13  H    3.838492   3.462832   2.181133   1.095322   1.985076
    14  H    3.984349   2.729699   2.188769   2.780080   2.522307
    15  H    4.530371   3.455362   2.184137   2.753019   3.158661
    16  H    3.219560   2.736876   2.187756   3.462091   4.521912
    17  H    3.910475   3.470700   2.180597   2.781106   4.004010
                    6          7          8          9         10
     6  C    0.000000
     7  F    1.360650   0.000000
     8  C    2.484353   2.810160   0.000000
     9  F    3.683574   4.087737   1.358370   0.000000
    10  H    2.767220   2.563023   2.753141   3.294730   0.000000
    11  H    2.732996   3.211738   3.473479   3.922546   1.771687
    12  H    3.464404   4.526234   2.802556   2.560160   3.757579
    13  H    2.766942   4.007774   2.737947   3.127574   4.329654
    14  H    1.095984   1.988103   3.460785   4.534304   3.106542
    15  H    1.094495   1.987094   2.752016   3.981779   3.781505
    16  H    2.793661   2.561470   1.094911   1.988537   2.528062
    17  H    2.714339   3.137381   1.095378   1.979130   3.752548
                   11         12         13         14         15
    11  H    0.000000
    12  H    3.099974   0.000000
    13  H    3.783438   1.774671   0.000000
    14  H    2.523239   3.777161   3.166262   0.000000
    15  H    3.749206   3.786374   2.579476   1.774122   0.000000
    16  H    3.753763   3.788574   3.775220   3.793141   3.173585
    17  H    4.330976   3.214008   2.576865   3.747838   2.525126
                   16         17
    16  H    0.000000
    17  H    1.772585   0.000000
 Framework group  C1[X(C5H8F4)]
 Deg. of freedom    45
                         Standard orientation:                         
 ---------------------------------------------------------------------
 Center     Atomic      Atomic             Coordinates (Angstroms)
 Number     Number       Type             X           Y           Z
 ---------------------------------------------------------------------
      1          9           0       -1.613425    0.055514    1.407143
      2          6           0       -0.256668    0.033956    1.328280
      3          6           0        0.182558   -0.007218   -0.133549
      4          6           0       -0.377770    1.203446   -0.869615
      5          9           0        0.141224    2.335672   -0.317987
      6          6           0        1.705582    0.024055   -0.190003
      7          9           0        2.197007   -1.076697    0.441038
      8          6           0       -0.314611   -1.286055   -0.801919
      9          9           0       -1.671604   -1.283758   -0.863019
     10          1           0        0.092185   -0.842260    1.884593
     11          1           0        0.114114    0.928712    1.839305
     12          1           0       -1.469019    1.267698   -0.804294
     13          1           0       -0.097484    1.199928   -1.928463
     14          1           0        2.121584    0.905703    0.310819
     15          1           0        2.077713    0.008656   -1.219179
     16          1           0       -0.005300   -2.183442   -0.256160
     17          1           0        0.052827   -1.370678   -1.830355
 ---------------------------------------------------------------------
 Rotational constants (GHZ):           1.5850752           1.4156650           1.1203688
   142 basis functions,   257 primitive gaussians,   151 cartesian basis functions
    37 alpha electrons       37 beta electrons
       nuclear repulsion energy       529.6485157508 Hartrees.
 NAtoms=   17 NActive=   17 NUniq=   17 SFac= 1.00D+00 NAtFMM=   60 NAOKFM=F Big=F
 Nuclear repulsion after empirical dispersion term =      529.6371906294 Hartrees.
   1 Symmetry operations used in ECPInt.
 ECPInt:  NShTT=    2485 NPrTT=   10011 LenC2=    2452 LenP2D=    7713.
 LDataN:  DoStor=T MaxTD1= 4 Len=   56
 ExpMin= 1.22D-01 ExpMax= 2.89D+03 ExpMxC= 4.35D+02 IAcc=3 IRadAn=         5 AccDes= 0.00D+00
 Harris functional with IExCor= 4639 and IRadAn=       5 diagonalized for initial guess.
 HarFok:  IExCor= 4639 AccDes= 0.00D+00 IRadAn=         5 IDoV= 1 UseB2=F ITyADJ=14
 ICtDFT=  3500011 ScaDFX=  1.000000  1.000000  1.000000  1.000000
 FoFCou: FMM=F IPFlag=           0 FMFlag=      100000 FMFlg1=           0
         NFxFlg=           0 DoJE=T BraDBF=F KetDBF=T FulRan=T
         wScrn=  0.000000 ICntrl=       500 IOpCl=  0 I1Cent=   200000004 NGrid=           0
         NMat0=    1 NMatS0=      1 NMatT0=    0 NMatD0=    1 NMtDS0=    0 NMtDT0=    0
 Petite list used in FoFCou.
     Minimum is close to point  3 DX=  1.08D-02 DF= -1.14D-04 DXR=  2.11D-02 DFR=  4.37D-04 which will be used.
     Minimum is close to point  3 DX=  3.54D-02 DF= -1.98D-05 DXR=  4.24D-02 DFR=  1.79D-03 which will be used.
     Accept linear search using points  1 and  2.
     Minimum is close to point  2 DX= -6.32D-02 DF= -4.67D-06 DXR=  9.93D-02 DFR=  4.18D-03 which will be used.
     Accept linear search using points  1 and  2.
     Minimum is close to point  2 DX=  3.07D-04 DF= -5.34D-12 DXR=  3.07D-04 DFR=  9.37D-08 which will be used.
 SCF Done:  E(RwB97XD) =  -594.060891096     a.u. after    7 cycles
            Convg  =    0.1903D-08                    30 Fock formations.
              S**2 =  0.0000                  -V/T =  2.0065

 **********************************************************************

            Population analysis using the SCF Density.

 **********************************************************************

 Orbital symmetries:
       Occupied  (A) (A) (A) (A) (A) (A) (A) (A) (A) (A) (A) (A)
                 (A) (A) (A) (A) (A) (A) (A) (A) (A) (A) (A) (A)
                 (A) (A) (A) (A) (A) (A) (A) (A) (A) (A) (A) (A)
                 (A)
       Virtual   (A) (A) (A) (A) (A) (A) (A) (A) (A) (A) (A) (A)
                 (A) (A) (A) (A) (A) (A) (A) (A) (A) (A) (A) (A)
                 (A) (A) (A) (A) (A) (A) (A) (A) (A) (A) (A) (A)
                 (A) (A) (A) (A) (A) (A) (A) (A) (A) (A) (A) (A)
                 (A) (A) (A) (A) (A) (A) (A) (A) (A) (A) (A) (A)
                 (A) (A) (A) (A) (A) (A) (A) (A) (A) (A) (A) (A)
                 (A) (A) (A) (A) (A) (A) (A) (A) (A) (A) (A) (A)
                 (A) (A) (A) (A) (A) (A) (A) (A) (A) (A) (A) (A)
                 (A) (A) (A) (A) (A) (A) (A) (A) (A)
 The electronic state is 1-A.
 Alpha  occ. eigenvalues --  -24.81410 -24.80874 -24.80164 -24.79673 -10.38421
 Alpha  occ. eigenvalues --  -10.37800 -10.37719 -10.37083 -10.33283  -1.30318
 Alpha  occ. eigenvalues --   -1.29724  -1.29299  -1.28313  -0.94376  -0.79898
 Alpha  occ. eigenvalues --   -0.79518  -0.79273  -0.68277  -0.63437  -0.63244
 Alpha  occ. eigenvalues --   -0.62798  -0.60393  -0.60165  -0.57986  -0.57341
 Alpha  occ. eigenvalues --   -0.56744  -0.54881  -0.54307  -0.53739  -0.49513
 Alpha  occ. eigenvalues --   -0.46390  -0.45342  -0.44080  -0.42438  -0.42083
 Alpha  occ. eigenvalues --   -0.41080  -0.40298
 Alpha virt. eigenvalues --    0.13179   0.14166   0.15516   0.16625   0.18286
 Alpha virt. eigenvalues --    0.20037   0.21537   0.22022   0.22736   0.24848
 Alpha virt. eigenvalues --    0.25021   0.26202   0.29472   0.31417   0.32061
 Alpha virt. eigenvalues --    0.34249   0.50412   0.53130   0.55517   0.56034
 Alpha virt. eigenvalues --    0.57253   0.59350   0.60382   0.62326   0.63135
 Alpha virt. eigenvalues --    0.63946   0.70890   0.72495   0.72783   0.73144
 Alpha virt. eigenvalues --    0.73566   0.75195   0.77521   0.78750   0.79106
 Alpha virt. eigenvalues --    0.79814   0.81066   0.82617   0.85670   0.95707
 Alpha virt. eigenvalues --    1.01327   1.09350   1.11771   1.13272   1.24574
 Alpha virt. eigenvalues --    1.27934   1.28236   1.30364   1.31951   1.33995
 Alpha virt. eigenvalues --    1.37259   1.41745   1.45830   1.46292   1.48533
 Alpha virt. eigenvalues --    1.50799   1.59392   1.62304   1.73294   1.73831
 Alpha virt. eigenvalues --    1.75335   1.83651   1.83852   1.85334   1.95023
 Alpha virt. eigenvalues --    1.96692   1.98071   1.98725   2.02632   2.04469
 Alpha virt. eigenvalues --    2.05381   2.06121   2.07405   2.16267   2.17189
 Alpha virt. eigenvalues --    2.18146   2.21376   2.25989   2.28035   2.28935
 Alpha virt. eigenvalues --    2.54389   2.57390   2.70718   2.71094   2.75147
 Alpha virt. eigenvalues --    3.18063   3.18306   3.18678   3.19580   3.19761
 Alpha virt. eigenvalues --    3.20451   3.21141   3.23478   3.37945   3.38441
 Alpha virt. eigenvalues --    3.39051   3.40296   3.40888   3.43439   3.46461
 Alpha virt. eigenvalues --    3.47860   3.85848   3.87889   3.89879   3.91021
          Condensed to atoms (all electrons):
 Mulliken charges:
               1
     1  F   -0.265075
     2  C    0.150424
     3  C   -0.451628
     4  C    0.142902
     5  F   -0.272905
     6  C    0.139302
     7  F   -0.269151
     8  C    0.152308
     9  F   -0.261594
    10  H    0.117249
    11  H    0.115062
    12  H    0.141660
    13  H    0.103881
    14  H    0.126953
    15  H    0.107939
    16  H    0.121609
    17  H    0.101063
 Sum of Mulliken charges =   0.00000
 Mulliken charges with hydrogens summed into heavy atoms:
               1
     1  F   -0.265075
     2  C    0.382735
     3  C   -0.451628
     4  C    0.388443
     5  F   -0.272905
     6  C    0.374194
     7  F   -0.269151
     8  C    0.374980
     9  F   -0.261594
 Electronic spatial extent (au):  <R**2>=           1155.9021
 Charge=              0.0000 electrons
 Dipole moment (field-independent basis, Debye):
    X=              1.8778    Y=             -0.0592    Z=             -1.3089  Tot=              2.2897
   1 Symmetry operations used in ECPInt.
 ECPInt:  NShTT=    2485 NPrTT=   10011 LenC2=    2452 LenP2D=    7713.
 LDataN:  DoStor=T MaxTD1= 5 Len=  102
 Calling FoFJK, ICntrl=      2127 FMM=F ISym2X=0 I1Cent= 0 IOpClX= 0 NMat=1 NMatS=1 NMatT=0.

 GradGradGradGradGradGradGradGradGradGradGradGradGradGradGradGradGradGrad
 FormGI is forming the generalized inverse of G from B-inverse, IUseBI=4.
 Internal  Forces:  Max     0.015560139 RMS     0.004475718
 Step number   1 out of a maximum of   92
 All quantities printed in internal units (Hartrees-Bohrs-Radians)
 Mixed Optimization -- RFO/linear search
 Second derivative matrix not updated -- first step.
 ITU=  0
     Eigenvalues ---    0.00410   0.00419   0.00443   0.00453   0.04760
     Eigenvalues ---    0.04953   0.04983   0.05601   0.05618   0.05618
     Eigenvalues ---    0.05639   0.05665   0.05701   0.05740   0.05778
     Eigenvalues ---    0.14385   0.14555   0.16000   0.16000   0.16000
     Eigenvalues ---    0.16000   0.16000   0.16000   0.16000   0.16000
     Eigenvalues ---    0.22232   0.22234   0.22234   0.22236   0.29707
     Eigenvalues ---    0.29776   0.29948   0.30019   0.34130   0.34198
     Eigenvalues ---    0.34205   0.34231   0.34231   0.34246   0.34251
     Eigenvalues ---    0.34298   0.52506   0.52816   0.53106   0.53278
 Linear search not attempted -- first point.
 Iteration  1 RMS(Cart)=  0.04726670 RMS(Int)=  0.00169679
 Iteration  2 RMS(Cart)=  0.00172830 RMS(Int)=  0.00047200
 Iteration  3 RMS(Cart)=  0.00000207 RMS(Int)=  0.00047200
 Iteration  4 RMS(Cart)=  0.00000000 RMS(Int)=  0.00047200
 Variable       Old X    -DE/DX   Delta X   Delta X   Delta X     New X
                                 (Linear)    (Quad)   (Total)
    R1        2.56855   0.01135   0.00000   0.02110   0.02110   2.58965
    R2        2.88551   0.00540   0.00000   0.01777   0.01777   2.90328
    R3        2.06918   0.00584   0.00000   0.01674   0.01674   2.08592
    R4        2.06941   0.00636   0.00000   0.01824   0.01824   2.08765
    R5        2.87926   0.00316   0.00000   0.01030   0.01030   2.88956
    R6        2.88068   0.00303   0.00000   0.00990   0.00990   2.89058
    R7        2.88412   0.00473   0.00000   0.01552   0.01552   2.89964
    R8        2.57418   0.01445   0.00000   0.02718   0.02718   2.60136
    R9        2.06942   0.00369   0.00000   0.01057   0.01057   2.07999
   R10        2.06986   0.00748   0.00000   0.02145   0.02145   2.09131
   R11        2.57126   0.01556   0.00000   0.02910   0.02910   2.60035
   R12        2.07111   0.00449   0.00000   0.01291   0.01291   2.08403
   R13        2.06830   0.00771   0.00000   0.02206   0.02206   2.09035
   R14        2.56695   0.01224   0.00000   0.02269   0.02269   2.58963
   R15        2.06908   0.00544   0.00000   0.01557   0.01557   2.08465
   R16        2.06996   0.00797   0.00000   0.02285   0.02285   2.09282
    A1        1.92102   0.00605   0.00000   0.03259   0.03293   1.95395
    A2        1.87678   0.00137   0.00000   0.02618   0.02641   1.90320
    A3        1.87333   0.00071   0.00000   0.01251   0.01294   1.88627
    A4        1.95323  -0.00536   0.00000  -0.03206  -0.03273   1.92050
    A5        1.95130  -0.00646   0.00000  -0.04373  -0.04431   1.90699
    A6        1.88480   0.00417   0.00000   0.00844   0.00683   1.89163
    A7        1.91270  -0.00015   0.00000   0.00660   0.00647   1.91917
    A8        1.89895  -0.00110   0.00000  -0.00781  -0.00763   1.89131
    A9        1.92639   0.00311   0.00000   0.03430   0.03431   1.96069
   A10        1.91053   0.00066   0.00000  -0.00948  -0.00962   1.90091
   A11        1.91181  -0.00109   0.00000  -0.00674  -0.00718   1.90463
   A12        1.90332  -0.00144   0.00000  -0.01727  -0.01733   1.88600
   A13        1.90149   0.00421   0.00000   0.02404   0.02429   1.92578
   A14        1.96522  -0.00654   0.00000  -0.04332  -0.04381   1.92140
   A15        1.95018  -0.00396   0.00000  -0.02501  -0.02559   1.92460
   A16        1.88256   0.00169   0.00000   0.01828   0.01861   1.90118
   A17        1.87197   0.00126   0.00000   0.02188   0.02204   1.89401
   A18        1.88899   0.00386   0.00000   0.00857   0.00729   1.89627
   A19        1.90400   0.00487   0.00000   0.02752   0.02778   1.93178
   A20        1.95931  -0.00495   0.00000  -0.03176  -0.03226   1.92704
   A21        1.95436  -0.00460   0.00000  -0.03123  -0.03174   1.92263
   A22        1.87734   0.00128   0.00000   0.02162   0.02188   1.89921
   A23        1.87750   0.00072   0.00000   0.01523   0.01549   1.89299
   A24        1.88804   0.00309   0.00000   0.00244   0.00118   1.88923
   A25        1.92166   0.00682   0.00000   0.03694   0.03729   1.95894
   A26        1.95675  -0.00556   0.00000  -0.03417  -0.03483   1.92192
   A27        1.94618  -0.00549   0.00000  -0.03782  -0.03843   1.90775
   A28        1.88180   0.00106   0.00000   0.02501   0.02527   1.90708
   A29        1.86816   0.00018   0.00000   0.01245   0.01285   1.88101
   A30        1.88589   0.00337   0.00000   0.00106  -0.00060   1.88529
    D1        1.01527  -0.00068   0.00000  -0.02779  -0.02772   0.98755
    D2        3.10369  -0.00062   0.00000  -0.04012  -0.04019   3.06349
    D3       -1.09169  -0.00120   0.00000  -0.04545  -0.04561  -1.13730
    D4        3.10115   0.00162   0.00000   0.00617   0.00580   3.10694
    D5       -1.09363   0.00168   0.00000  -0.00616  -0.00667  -1.10030
    D6        0.99418   0.00110   0.00000  -0.01149  -0.01210   0.98209
    D7       -1.06502  -0.00143   0.00000  -0.03699  -0.03631  -1.10133
    D8        1.02339  -0.00137   0.00000  -0.04932  -0.04878   0.97461
    D9        3.11120  -0.00195   0.00000  -0.05465  -0.05420   3.05700
   D10        1.09346  -0.00171   0.00000  -0.02323  -0.02322   1.07024
   D11       -0.99422  -0.00253   0.00000  -0.03500  -0.03450  -1.02872
   D12       -3.12451   0.00014   0.00000   0.00400   0.00367  -3.12084
   D13       -0.98784  -0.00067   0.00000  -0.01193  -0.01197  -0.99981
   D14       -3.07552  -0.00150   0.00000  -0.02370  -0.02326  -3.09877
   D15        1.07738   0.00118   0.00000   0.01530   0.01492   1.09229
   D16       -3.07394   0.00135   0.00000   0.01904   0.01892  -3.05502
   D17        1.12157   0.00052   0.00000   0.00727   0.00764   1.12921
   D18       -1.00872   0.00320   0.00000   0.04627   0.04581  -0.96291
   D19        1.07737   0.00109   0.00000   0.01441   0.01442   1.09180
   D20       -1.00174  -0.00064   0.00000  -0.01095  -0.01053  -1.01227
   D21       -3.12957   0.00232   0.00000   0.03198   0.03159  -3.09798
   D22       -3.11605   0.00064   0.00000   0.01210   0.01210  -3.10395
   D23        1.08803  -0.00108   0.00000  -0.01325  -0.01285   1.07517
   D24       -1.03980   0.00187   0.00000   0.02967   0.02926  -1.01054
   D25       -1.02473  -0.00116   0.00000  -0.01226  -0.01227  -1.03700
   D26       -3.10384  -0.00289   0.00000  -0.03762  -0.03722  -3.14107
   D27        1.05152   0.00007   0.00000   0.00531   0.00490   1.05641
   D28        1.14452   0.00138   0.00000   0.06205   0.06215   1.20667
   D29       -0.95041  -0.00095   0.00000   0.02776   0.02834  -0.92207
   D30       -3.06768   0.00256   0.00000   0.07764   0.07714  -2.99054
   D31       -0.96298   0.00029   0.00000   0.03645   0.03653  -0.92645
   D32       -3.05791  -0.00204   0.00000   0.00216   0.00272  -3.05519
   D33        1.10801   0.00148   0.00000   0.05204   0.05151   1.15952
   D34       -3.05350   0.00101   0.00000   0.06254   0.06248  -2.99102
   D35        1.13475  -0.00132   0.00000   0.02825   0.02867   1.16342
   D36       -0.98252   0.00220   0.00000   0.07813   0.07747  -0.90505
         Item               Value     Threshold  Converged?
 Maximum Force            0.015560     0.000015     NO 
 RMS     Force            0.004476     0.000010     NO 
 Maximum Displacement     0.175105     0.000060     NO 
 RMS     Displacement     0.047435     0.000040     NO 
 GradGradGradGradGradGradGradGradGradGradGradGradGradGradGradGradGradGrad

                    Distance matrix (angstroms):
                    1          2          3          4          5
     1  F    0.000000
     2  C    1.370384   0.000000
     3  C    2.410913   1.536350   0.000000
     4  C    2.877022   2.510458   1.529089   0.000000
     5  F    3.375818   2.893692   2.386697   1.376581   0.000000
     6  C    3.715637   2.486149   1.529628   2.488816   2.829836
     7  F    4.168423   2.881234   2.391677   3.711888   4.117374
     8  C    3.006858   2.550864   1.534425   2.496029   3.714557
     9  F    2.859487   3.049326   2.413308   2.831613   4.145873
    10  H    2.020786   1.103819   2.177350   3.472285   3.906767
    11  H    2.009435   1.104737   2.168101   2.768929   2.588894
    12  H    2.547260   2.743413   2.169274   1.100681   2.022258
    13  H    3.892790   3.478432   2.176103   1.106673   2.021740
    14  H    3.969129   2.710875   2.175459   2.747045   2.515869
    15  H    4.560877   3.459063   2.174757   2.713938   3.155287
    16  H    3.304108   2.748228   2.176195   3.460273   4.545934
    17  H    4.037092   3.495908   2.169007   2.782065   4.009068
                    6          7          8          9         10
     6  C    0.000000
     7  F    1.376047   0.000000
     8  C    2.479812   2.842726   0.000000
     9  F    3.709245   4.158176   1.370375   0.000000
    10  H    2.749727   2.578752   2.773805   3.407750   0.000000
    11  H    2.678118   3.194801   3.495997   4.051589   1.791084
    12  H    3.453354   4.543290   2.774349   2.553441   3.748254
    13  H    2.754696   4.011997   2.700728   3.084046   4.324558
    14  H    1.102819   2.022044   3.453094   4.559561   3.089059
    15  H    1.106167   2.020170   2.722374   3.949853   3.772477
    16  H    2.774350   2.572232   1.103150   2.023005   2.511815
    17  H    2.639926   3.085182   1.107472   2.007734   3.745348
                   11         12         13         14         15
    11  H    0.000000
    12  H    3.124044   0.000000
    13  H    3.782179   1.793103   0.000000
    14  H    2.430479   3.744407   3.139263   0.000000
    15  H    3.693595   3.740032   2.513372   1.789878   0.000000
    16  H    3.745577   3.753197   3.742794   3.777488   3.157860
    17  H    4.312124   3.219165   2.527363   3.673277   2.408994
                   16         17
    16  H    0.000000
    17  H    1.788650   0.000000
 Framework group  C1[X(C5H8F4)]
 Deg. of freedom    45
                         Standard orientation:                         
 ---------------------------------------------------------------------
 Center     Atomic      Atomic             Coordinates (Angstroms)
 Number     Number       Type             X           Y           Z
 ---------------------------------------------------------------------
      1          9           0       -1.610397    0.066078    1.507809
      2          6           0       -0.248861    0.100371    1.356168
      3          6           0        0.167761   -0.009747   -0.118509
      4          6           0       -0.493405    1.103280   -0.932232
      5          9           0       -0.088577    2.336437   -0.473524
      6          6           0        1.686724    0.149367   -0.203334
      7          9           0        2.320391   -0.864077    0.478503
      8          6           0       -0.203158   -1.367515   -0.729529
      9          9           0       -1.557665   -1.520005   -0.870894
     10          1           0        0.199258   -0.723484    1.938294
     11          1           0        0.117886    1.057628    1.767992
     12          1           0       -1.588664    1.033151   -0.848636
     13          1           0       -0.213647    1.016022   -1.999399
     14          1           0        1.996836    1.116057    0.227421
     15          1           0        2.014751    0.119601   -1.259326
     16          1           0        0.191955   -2.185759   -0.103986
     17          1           0        0.253490   -1.453659   -1.734788
 ---------------------------------------------------------------------
 Rotational constants (GHZ):           1.5158656           1.3685022           1.1022567
   142 basis functions,   257 primitive gaussians,   151 cartesian basis functions
    37 alpha electrons       37 beta electrons
       nuclear repulsion energy       523.2530743876 Hartrees.
 NAtoms=   17 NActive=   17 NUniq=   17 SFac= 1.00D+00 NAtFMM=   60 NAOKFM=F Big=F
 Nuclear repulsion after empirical dispersion term =      523.2415862405 Hartrees.
   1 Symmetry operations used in ECPInt.
 ECPInt:  NShTT=    2485 NPrTT=   10011 LenC2=    2444 LenP2D=    7687.
 LDataN:  DoStor=T MaxTD1= 4 Len=   56
 Initial guess from the checkpoint file:  "/scratch/user/peterchao1/peterchao1/6097784_1659647559000000795552138/Gau-150753.chk"
 B after Tr=     0.000000    0.000000    0.000000
         Rot=    0.998520    0.030694   -0.004652   -0.044656 Ang=   6.24 deg.
 ExpMin= 1.22D-01 ExpMax= 2.89D+03 ExpMxC= 4.35D+02 IAcc=3 IRadAn=         5 AccDes= 0.00D+00
 Harris functional with IExCor= 4639 and IRadAn=       5 diagonalized for initial guess.
 HarFok:  IExCor= 4639 AccDes= 0.00D+00 IRadAn=         5 IDoV= 1 UseB2=F ITyADJ=14
 ICtDFT=  3500011 ScaDFX=  1.000000  1.000000  1.000000  1.000000
 FoFCou: FMM=F IPFlag=           0 FMFlag=      100000 FMFlg1=           0
         NFxFlg=           0 DoJE=T BraDBF=F KetDBF=T FulRan=T
         wScrn=  0.000000 ICntrl=       500 IOpCl=  0 I1Cent=   200000004 NGrid=           0
         NMat0=    1 NMatS0=      1 NMatT0=    0 NMatD0=    1 NMtDS0=    0 NMtDT0=    0
 Petite list used in FoFCou.
     Accept linear search using points  3 and  4.
     Minimum is close to point  4 DX= -8.62D-02 DF= -7.88D-06 DXR=  7.74D-02 DFR=  1.75D-03 which will be used.
     Accept linear search using points  2 and  3.
     Accept linear search using points  1 and  2.
     Minimum is close to point  2 DX= -6.17D-03 DF= -1.55D-08 DXR=  6.21D-03 DFR=  3.86D-05 which will be used.
     Accept linear search using points  1 and  2.
     Minimum is close to point  2 DX=  6.94D-02 DF= -4.67D-07 DXR=  7.16D-02 DFR=  5.15D-03 which will be used.
     Minimum is close to point  2 DX=  1.27D-02 DF= -8.89D-09 DXR=  1.39D-02 DFR=  1.94D-04 which will be used.
     Accept linear search using points  1 and  2.
     Minimum is close to point  2 DX= -2.38D-04 DF= -2.84D-12 DXR=  2.38D-04 DFR=  5.69D-08 which will be used.
 SCF Done:  E(RwB97XD) =  -594.063585941     a.u. after    9 cycles
            Convg  =    0.4474D-09                    35 Fock formations.
              S**2 =  0.0000                  -V/T =  2.0070
   1 Symmetry operations used in ECPInt.
 ECPInt:  NShTT=    2485 NPrTT=   10011 LenC2=    2444 LenP2D=    7687.
 LDataN:  DoStor=T MaxTD1= 5 Len=  102
 Calling FoFJK, ICntrl=      2127 FMM=F ISym2X=0 I1Cent= 0 IOpClX= 0 NMat=1 NMatS=1 NMatT=0.

 GradGradGradGradGradGradGradGradGradGradGradGradGradGradGradGradGradGrad
 Using GEDIIS/GDIIS optimizer.
 FormGI is forming the generalized inverse of G from B-inverse, IUseBI=4.
 Internal  Forces:  Max     0.003178033 RMS     0.000816902
 Step number   2 out of a maximum of   92
 All quantities printed in internal units (Hartrees-Bohrs-Radians)
 Mixed Optimization -- En-DIIS/RFO-DIIS
 Trust test= 7.68D-01 RLast= 2.66D-01 DXMaxT set to 5.05D-01
 ITU=  1  0
 Use linear search instead of GDIIS.
     Eigenvalues ---    0.00412   0.00437   0.00443   0.00453   0.04549
     Eigenvalues ---    0.05013   0.05198   0.05485   0.05551   0.05650
     Eigenvalues ---    0.05711   0.05983   0.06013   0.06050   0.06574
     Eigenvalues ---    0.14310   0.14611   0.15559   0.16000   0.16000
     Eigenvalues ---    0.16000   0.16000   0.16000   0.16000   0.16134
     Eigenvalues ---    0.22142   0.22355   0.22361   0.23434   0.29744
     Eigenvalues ---    0.29866   0.29994   0.30274   0.34041   0.34137
     Eigenvalues ---    0.34204   0.34219   0.34233   0.34240   0.34249
     Eigenvalues ---    0.34291   0.52393   0.52666   0.53200   0.53935
 Quartic linear search produced a step of -0.14422.
 Iteration  1 RMS(Cart)=  0.01406895 RMS(Int)=  0.00017900
 Iteration  2 RMS(Cart)=  0.00016376 RMS(Int)=  0.00006144
 Iteration  3 RMS(Cart)=  0.00000001 RMS(Int)=  0.00006144
 Variable       Old X    -DE/DX   Delta X   Delta X   Delta X     New X
                                 (Linear)    (Quad)   (Total)
    R1        2.58965  -0.00212  -0.00304   0.00023  -0.00281   2.58684
    R2        2.90328  -0.00228  -0.00256  -0.00351  -0.00607   2.89721
    R3        2.08592  -0.00021  -0.00241   0.00236  -0.00005   2.08586
    R4        2.08765  -0.00031  -0.00263   0.00236  -0.00027   2.08738
    R5        2.88956   0.00017  -0.00149   0.00225   0.00076   2.89032
    R6        2.89058   0.00034  -0.00143   0.00268   0.00125   2.89183
    R7        2.89964  -0.00167  -0.00224  -0.00213  -0.00437   2.89528
    R8        2.60136  -0.00131  -0.00392   0.00256  -0.00136   2.60000
    R9        2.07999  -0.00009  -0.00152   0.00159   0.00007   2.08005
   R10        2.09131  -0.00044  -0.00309   0.00261  -0.00048   2.09083
   R11        2.60035  -0.00091  -0.00420   0.00355  -0.00065   2.59971
   R12        2.08403  -0.00027  -0.00186   0.00156  -0.00030   2.08372
   R13        2.09035  -0.00038  -0.00318   0.00287  -0.00032   2.09004
   R14        2.58963  -0.00177  -0.00327   0.00108  -0.00219   2.58744
   R15        2.08465  -0.00019  -0.00225   0.00221  -0.00004   2.08462
   R16        2.09282  -0.00037  -0.00330   0.00302  -0.00027   2.09254
    A1        1.95395  -0.00318  -0.00475  -0.00922  -0.01405   1.93990
    A2        1.90320   0.00023  -0.00381  -0.00422  -0.00815   1.89505
    A3        1.88627   0.00116  -0.00187   0.00660   0.00469   1.89096
    A4        1.92050   0.00070   0.00472  -0.00323   0.00152   1.92202
    A5        1.90699   0.00075   0.00639  -0.00051   0.00596   1.91295
    A6        1.89163   0.00045  -0.00099   0.01145   0.01064   1.90227
    A7        1.91917   0.00045  -0.00093   0.00266   0.00172   1.92090
    A8        1.89131   0.00002   0.00110   0.00131   0.00238   1.89370
    A9        1.96069  -0.00057  -0.00495  -0.00023  -0.00519   1.95551
   A10        1.90091  -0.00011   0.00139   0.00048   0.00189   1.90279
   A11        1.90463  -0.00037   0.00104  -0.00578  -0.00468   1.89994
   A12        1.88600   0.00059   0.00250   0.00164   0.00415   1.89015
   A13        1.92578  -0.00001  -0.00350   0.00219  -0.00135   1.92443
   A14        1.92140  -0.00020   0.00632  -0.00751  -0.00114   1.92027
   A15        1.92460   0.00093   0.00369   0.00195   0.00571   1.93031
   A16        1.90118  -0.00026  -0.00268  -0.00138  -0.00412   1.89706
   A17        1.89401  -0.00078  -0.00318  -0.00308  -0.00628   1.88773
   A18        1.89627   0.00030  -0.00105   0.00796   0.00708   1.90335
   A19        1.93178  -0.00000  -0.00401   0.00293  -0.00111   1.93067
   A20        1.92704   0.00056   0.00465  -0.00154   0.00317   1.93022
   A21        1.92263   0.00051   0.00458  -0.00144   0.00320   1.92583
   A22        1.89921  -0.00063  -0.00316  -0.00260  -0.00579   1.89343
   A23        1.89299  -0.00054  -0.00223  -0.00268  -0.00495   1.88805
   A24        1.88923   0.00008  -0.00017   0.00534   0.00532   1.89455
   A25        1.95894  -0.00246  -0.00538  -0.00547  -0.01093   1.94802
   A26        1.92192   0.00054   0.00502  -0.00481   0.00025   1.92217
   A27        1.90775   0.00103   0.00554   0.00237   0.00799   1.91574
   A28        1.90708  -0.00004  -0.00365  -0.00555  -0.00931   1.89777
   A29        1.88101   0.00079  -0.00185   0.00609   0.00420   1.88522
   A30        1.88529   0.00024   0.00009   0.00818   0.00846   1.89375
    D1        0.98755   0.00031   0.00400   0.01910   0.02306   1.01060
    D2        3.06349   0.00045   0.00580   0.02200   0.02779   3.09128
    D3       -1.13730   0.00085   0.00658   0.02476   0.03133  -1.10597
    D4        3.10694  -0.00106  -0.00084   0.00527   0.00450   3.11144
    D5       -1.10030  -0.00091   0.00096   0.00818   0.00923  -1.09107
    D6        0.98209  -0.00052   0.00174   0.01093   0.01277   0.99486
    D7       -1.10133   0.00037   0.00524   0.01702   0.02217  -1.07916
    D8        0.97461   0.00052   0.00704   0.01992   0.02690   1.00151
    D9        3.05700   0.00091   0.00782   0.02267   0.03045   3.08744
   D10        1.07024   0.00029   0.00335   0.00351   0.00687   1.07711
   D11       -1.02872   0.00075   0.00498   0.00865   0.01357  -1.01515
   D12       -3.12084  -0.00009  -0.00053   0.00232   0.00184  -3.11900
   D13       -0.99981   0.00006   0.00173   0.00007   0.00181  -0.99800
   D14       -3.09877   0.00052   0.00335   0.00522   0.00851  -3.09027
   D15        1.09229  -0.00032  -0.00215  -0.00112  -0.00322   1.08907
   D16       -3.05502  -0.00037  -0.00273   0.00112  -0.00159  -3.05661
   D17        1.12921   0.00008  -0.00110   0.00626   0.00511   1.13432
   D18       -0.96291  -0.00076  -0.00661  -0.00007  -0.00662  -0.96953
   D19        1.09180  -0.00030  -0.00208  -0.00030  -0.00238   1.08941
   D20       -1.01227   0.00013   0.00152   0.00205   0.00352  -1.00876
   D21       -3.09798  -0.00065  -0.00456  -0.00269  -0.00719  -3.10517
   D22       -3.10395   0.00020  -0.00175   0.00394   0.00219  -3.10176
   D23        1.07517   0.00062   0.00185   0.00628   0.00808   1.08326
   D24       -1.01054  -0.00015  -0.00422   0.00155  -0.00262  -1.01316
   D25       -1.03700   0.00003   0.00177  -0.00177  -0.00000  -1.03700
   D26       -3.14107   0.00045   0.00537   0.00058   0.00590  -3.13517
   D27        1.05641  -0.00032  -0.00071  -0.00416  -0.00481   1.05160
   D28        1.20667  -0.00050  -0.00896   0.00607  -0.00287   1.20380
   D29       -0.92207   0.00086  -0.00409   0.02035   0.01618  -0.90589
   D30       -2.99054  -0.00038  -0.01112   0.01180   0.00074  -2.98980
   D31       -0.92645  -0.00044  -0.00527   0.00691   0.00165  -0.92480
   D32       -3.05519   0.00092  -0.00039   0.02119   0.02070  -3.03449
   D33        1.15952  -0.00031  -0.00743   0.01265   0.00526   1.16478
   D34       -2.99102  -0.00043  -0.00901   0.00862  -0.00035  -2.99137
   D35        1.16342   0.00093  -0.00414   0.02290   0.01870   1.18212
   D36       -0.90505  -0.00031  -0.01117   0.01436   0.00326  -0.90179
         Item               Value     Threshold  Converged?
 Maximum Force            0.003178     0.000015     NO 
 RMS     Force            0.000817     0.000010     NO 
 Maximum Displacement     0.079910     0.000060     NO 
 RMS     Displacement     0.014091     0.000040     NO 
 GradGradGradGradGradGradGradGradGradGradGradGradGradGradGradGradGradGrad

                    Distance matrix (angstroms):
                    1          2          3          4          5
     1  F    0.000000
     2  C    1.368897   0.000000
     3  C    2.395564   1.533135   0.000000
     4  C    2.873249   2.509667   1.529493   0.000000
     5  F    3.392071   2.896262   2.385341   1.375861   0.000000
     6  C    3.708090   2.486212   1.530291   2.491361   2.829940
     7  F    4.154172   2.880006   2.391046   3.712931   4.117547
     8  C    2.965070   2.541841   1.532115   2.490310   3.708547
     9  F    2.796338   3.027098   2.401566   2.811082   4.123784
    10  H    2.013714   1.103792   2.175615   3.472226   3.907300
    11  H    2.011412   1.104595   2.169567   2.762664   2.585812
    12  H    2.536134   2.736423   2.168828   1.100717   2.018746
    13  H    3.884562   3.479224   2.180426   1.106418   2.016435
    14  H    3.975915   2.713298   2.178226   2.756461   2.524426
    15  H    4.551368   3.459585   2.177549   2.720864   3.159107
    16  H    3.245222   2.731662   2.174329   3.455203   4.541801
    17  H    4.001327   3.491862   2.172762   2.784596   4.011686
                    6          7          8          9         10
     6  C    0.000000
     7  F    1.375705   0.000000
     8  C    2.482208   2.845484   0.000000
     9  F    3.704514   4.157257   1.369213   0.000000
    10  H    2.746731   2.574104   2.770792   3.397969   0.000000
    11  H    2.696246   3.217259   3.492107   4.023078   1.797796
    12  H    3.454811   4.542673   2.769771   2.531650   3.744485
    13  H    2.760742   4.017373   2.702448   3.074547   4.327049
    14  H    1.102659   2.017510   3.455468   4.552730   3.083792
    15  H    1.106000   2.016210   2.726566   3.950654   3.769130
    16  H    2.786750   2.587889   1.103132   2.015409   2.500328
    17  H    2.648881   3.090613   1.107326   2.009654   3.743266
                   11         12         13         14         15
    11  H    0.000000
    12  H    3.101322   0.000000
    13  H    3.780392   1.797469   0.000000
    14  H    2.452678   3.750173   3.150600   0.000000
    15  H    3.710769   3.748198   2.525051   1.793051   0.000000
    16  H    3.741699   3.742304   3.748651   3.786043   3.173650
    17  H    4.317284   3.223354   2.537755   3.684328   2.420996
                   16         17
    16  H    0.000000
    17  H    1.793994   0.000000
 Framework group  C1[X(C5H8F4)]
 Deg. of freedom    45
                         Standard orientation:                         
 ---------------------------------------------------------------------
 Center     Atomic      Atomic             Coordinates (Angstroms)
 Number     Number       Type             X           Y           Z
 ---------------------------------------------------------------------
      1          9           0       -1.602144    0.024936    1.494277
      2          6           0       -0.240770    0.068848    1.357851
      3          6           0        0.170050   -0.007469   -0.117244
      4          6           0       -0.471021    1.139313   -0.900359
      5          9           0       -0.035089    2.350394   -0.414316
      6          6           0        1.692620    0.118907   -0.204438
      7          9           0        2.303697   -0.926991    0.447672
      8          6           0       -0.239937   -1.336293   -0.760293
      9          9           0       -1.599342   -1.435367   -0.890469
     10          1           0        0.196225   -0.775940    1.917963
     11          1           0        0.122053    1.016117    1.795081
     12          1           0       -1.566685    1.094627   -0.804957
     13          1           0       -0.198945    1.079370   -1.971127
     14          1           0        2.030413    1.062625    0.255072
     15          1           0        2.019680    0.105131   -1.260884
     16          1           0        0.119930   -2.180991   -0.148834
     17          1           0        0.207588   -1.417516   -1.769895
 ---------------------------------------------------------------------
 Rotational constants (GHZ):           1.5314782           1.3729104           1.1047998
   142 basis functions,   257 primitive gaussians,   151 cartesian basis functions
    37 alpha electrons       37 beta electrons
       nuclear repulsion energy       524.2615115288 Hartrees.
 NAtoms=   17 NActive=   17 NUniq=   17 SFac= 1.00D+00 NAtFMM=   60 NAOKFM=F Big=F
 Nuclear repulsion after empirical dispersion term =      524.2500417057 Hartrees.
   1 Symmetry operations used in ECPInt.
 ECPInt:  NShTT=    2485 NPrTT=   10011 LenC2=    2444 LenP2D=    7686.
 LDataN:  DoStor=T MaxTD1= 4 Len=   56
 Initial guess from the checkpoint file:  "/scratch/user/peterchao1/peterchao1/6097784_1659647559000000795552138/Gau-150753.chk"
 B after Tr=    -0.000000   -0.000000   -0.000000
         Rot=    0.999832   -0.014459   -0.001586    0.011194 Ang=  -2.10 deg.
 ExpMin= 1.22D-01 ExpMax= 2.89D+03 ExpMxC= 4.35D+02 IAcc=3 IRadAn=         5 AccDes= 0.00D+00
 Harris functional with IExCor= 4639 and IRadAn=       5 diagonalized for initial guess.
 HarFok:  IExCor= 4639 AccDes= 0.00D+00 IRadAn=         5 IDoV= 1 UseB2=F ITyADJ=14
 ICtDFT=  3500011 ScaDFX=  1.000000  1.000000  1.000000  1.000000
 FoFCou: FMM=F IPFlag=           0 FMFlag=      100000 FMFlg1=           0
         NFxFlg=           0 DoJE=T BraDBF=F KetDBF=T FulRan=T
         wScrn=  0.000000 ICntrl=       500 IOpCl=  0 I1Cent=   200000004 NGrid=           0
         NMat0=    1 NMatS0=      1 NMatT0=    0 NMatD0=    1 NMtDS0=    0 NMtDT0=    0
 Petite list used in FoFCou.
     Minimum is close to point  4 DX=  2.06D-02 DF= -1.22D-07 DXR=  1.69D-02 DFR=  2.86D-04 which will be used.
     Accept linear search using points  2 and  3.
     Accept linear search using points  1 and  2.
     Minimum is close to point  2 DX= -4.71D-05 DF= -1.14D-13 DXR=  4.71D-05 DFR=  1.53D-09 which will be used.
 SCF Done:  E(RwB97XD) =  -594.063760443     a.u. after    5 cycles
            Convg  =    0.2556D-08                    28 Fock formations.
              S**2 =  0.0000                  -V/T =  2.0070
   1 Symmetry operations used in ECPInt.
 ECPInt:  NShTT=    2485 NPrTT=   10011 LenC2=    2444 LenP2D=    7686.
 LDataN:  DoStor=T MaxTD1= 5 Len=  102
 Calling FoFJK, ICntrl=      2127 FMM=F ISym2X=0 I1Cent= 0 IOpClX= 0 NMat=1 NMatS=1 NMatT=0.

 GradGradGradGradGradGradGradGradGradGradGradGradGradGradGradGradGradGrad
 Using GEDIIS/GDIIS optimizer.
 FormGI is forming the generalized inverse of G from B-inverse, IUseBI=4.
 Internal  Forces:  Max     0.000440132 RMS     0.000153683
 Step number   3 out of a maximum of   92
 All quantities printed in internal units (Hartrees-Bohrs-Radians)
 Mixed Optimization -- En-DIIS/RFO-DIIS
 Swapping is turned off.
 Trust test= 1.10D+00 RLast= 8.71D-02 DXMaxT set to 5.05D-01
 ITU=  1  1  0
     Eigenvalues ---    0.00369   0.00437   0.00444   0.00453   0.04578
     Eigenvalues ---    0.04982   0.05183   0.05556   0.05655   0.05659
     Eigenvalues ---    0.05730   0.05936   0.05965   0.06000   0.06590
     Eigenvalues ---    0.14213   0.14639   0.15632   0.15940   0.16000
     Eigenvalues ---    0.16000   0.16000   0.16000   0.16000   0.16154
     Eigenvalues ---    0.22240   0.22330   0.22369   0.24251   0.29600
     Eigenvalues ---    0.29907   0.29986   0.30877   0.34014   0.34150
     Eigenvalues ---    0.34202   0.34218   0.34232   0.34243   0.34276
     Eigenvalues ---    0.34287   0.52351   0.52660   0.53216   0.54191
 En-DIIS/RFO-DIIS/Sim-DIIS IScMMF=       -3 using points:     3    2
 RFO step:  Lambda=-3.98371426D-05.
 DidBck=F Rises=F RFO-DIIS coefs:    1.52971   -0.52971
 Iteration  1 RMS(Cart)=  0.01128356 RMS(Int)=  0.00011363
 Iteration  2 RMS(Cart)=  0.00011781 RMS(Int)=  0.00001228
 Iteration  3 RMS(Cart)=  0.00000001 RMS(Int)=  0.00001228
 Variable       Old X    -DE/DX   Delta X   Delta X   Delta X     New X
                                 (Linear)    (Quad)   (Total)
    R1        2.58684   0.00010  -0.00149   0.00137  -0.00012   2.58673
    R2        2.89721  -0.00022  -0.00322   0.00183  -0.00139   2.89582
    R3        2.08586  -0.00024  -0.00003  -0.00072  -0.00075   2.08511
    R4        2.08738  -0.00031  -0.00014  -0.00083  -0.00097   2.08641
    R5        2.89032   0.00003   0.00040  -0.00025   0.00016   2.89048
    R6        2.89183  -0.00025   0.00066  -0.00140  -0.00073   2.89110
    R7        2.89528   0.00031  -0.00231   0.00291   0.00059   2.89587
    R8        2.60000   0.00011  -0.00072   0.00075   0.00003   2.60003
    R9        2.08005  -0.00022   0.00004  -0.00070  -0.00066   2.07939
   R10        2.09083  -0.00040  -0.00026  -0.00102  -0.00127   2.08955
   R11        2.59971   0.00003  -0.00034   0.00030  -0.00005   2.59966
   R12        2.08372  -0.00018  -0.00016  -0.00042  -0.00058   2.08314
   R13        2.09004  -0.00032  -0.00017  -0.00085  -0.00102   2.08902
   R14        2.58744  -0.00002  -0.00116   0.00086  -0.00030   2.58714
   R15        2.08462  -0.00012  -0.00002  -0.00037  -0.00038   2.08423
   R16        2.09254  -0.00044  -0.00015  -0.00124  -0.00138   2.09116
    A1        1.93990   0.00012  -0.00744   0.00642  -0.00103   1.93887
    A2        1.89505  -0.00000  -0.00432   0.00433  -0.00003   1.89503
    A3        1.89096  -0.00024   0.00249  -0.00469  -0.00220   1.88876
    A4        1.92202   0.00005   0.00081   0.00042   0.00119   1.92321
    A5        1.91295   0.00008   0.00316  -0.00233   0.00082   1.91376
    A6        1.90227  -0.00003   0.00564  -0.00437   0.00123   1.90351
    A7        1.92090   0.00008   0.00091  -0.00038   0.00052   1.92142
    A8        1.89370   0.00006   0.00126  -0.00040   0.00087   1.89457
    A9        1.95551  -0.00012  -0.00275   0.00163  -0.00112   1.95439
   A10        1.90279  -0.00016   0.00100  -0.00227  -0.00127   1.90152
   A11        1.89994   0.00004  -0.00248   0.00216  -0.00032   1.89962
   A12        1.89015   0.00010   0.00220  -0.00089   0.00132   1.89147
   A13        1.92443  -0.00013  -0.00072  -0.00031  -0.00103   1.92339
   A14        1.92027   0.00000  -0.00060   0.00081   0.00020   1.92047
   A15        1.93031  -0.00001   0.00303  -0.00242   0.00060   1.93091
   A16        1.89706   0.00004  -0.00218   0.00169  -0.00050   1.89656
   A17        1.88773   0.00000  -0.00333   0.00196  -0.00136   1.88637
   A18        1.90335   0.00010   0.00375  -0.00167   0.00207   1.90542
   A19        1.93067  -0.00039  -0.00059  -0.00169  -0.00228   1.92839
   A20        1.93022   0.00013   0.00168  -0.00027   0.00141   1.93162
   A21        1.92583   0.00009   0.00170  -0.00075   0.00094   1.92676
   A22        1.89343   0.00009  -0.00307   0.00239  -0.00067   1.89276
   A23        1.88805   0.00007  -0.00262   0.00162  -0.00100   1.88705
   A24        1.89455   0.00001   0.00282  -0.00121   0.00159   1.89614
   A25        1.94802   0.00012  -0.00579   0.00502  -0.00078   1.94724
   A26        1.92217   0.00033   0.00013   0.00325   0.00335   1.92551
   A27        1.91574   0.00003   0.00423  -0.00403   0.00019   1.91593
   A28        1.89777  -0.00006  -0.00493   0.00539   0.00041   1.89818
   A29        1.88522  -0.00031   0.00223  -0.00597  -0.00373   1.88148
   A30        1.89375  -0.00013   0.00448  -0.00400   0.00045   1.89420
    D1        1.01060  -0.00001   0.01221  -0.00209   0.01010   1.02071
    D2        3.09128  -0.00012   0.01472  -0.00532   0.00939   3.10067
    D3       -1.10597  -0.00003   0.01660  -0.00568   0.01091  -1.09507
    D4        3.11144   0.00010   0.00238   0.00780   0.01018   3.12162
    D5       -1.09107  -0.00001   0.00489   0.00458   0.00947  -1.08160
    D6        0.99486   0.00008   0.00676   0.00422   0.01099   1.00584
    D7       -1.07916   0.00015   0.01174   0.00121   0.01296  -1.06621
    D8        1.00151   0.00004   0.01425  -0.00202   0.01225   1.01376
    D9        3.08744   0.00013   0.01613  -0.00238   0.01376   3.10120
   D10        1.07711   0.00006   0.00364   0.00044   0.00408   1.08119
   D11       -1.01515   0.00009   0.00719  -0.00198   0.00522  -1.00994
   D12       -3.11900  -0.00002   0.00097   0.00113   0.00211  -3.11689
   D13       -0.99800   0.00004   0.00096   0.00252   0.00348  -0.99452
   D14       -3.09027   0.00007   0.00451   0.00011   0.00462  -3.08565
   D15        1.08907  -0.00005  -0.00171   0.00322   0.00151   1.09058
   D16       -3.05661  -0.00001  -0.00084   0.00365   0.00281  -3.05380
   D17        1.13432   0.00002   0.00271   0.00124   0.00394   1.13826
   D18       -0.96953  -0.00009  -0.00351   0.00435   0.00084  -0.96869
   D19        1.08941   0.00001  -0.00126   0.00758   0.00632   1.09573
   D20       -1.00876   0.00007   0.00186   0.00586   0.00773  -1.00103
   D21       -3.10517  -0.00009  -0.00381   0.00803   0.00422  -3.10096
   D22       -3.10176   0.00005   0.00116   0.00556   0.00672  -3.09504
   D23        1.08326   0.00011   0.00428   0.00384   0.00813   1.09138
   D24       -1.01316  -0.00005  -0.00139   0.00601   0.00461  -1.00855
   D25       -1.03700   0.00006  -0.00000   0.00637   0.00636  -1.03064
   D26       -3.13517   0.00012   0.00312   0.00465   0.00778  -3.12739
   D27        1.05160  -0.00004  -0.00255   0.00682   0.00426   1.05586
   D28        1.20380   0.00027  -0.00152   0.02831   0.02681   1.23061
   D29       -0.90589   0.00003   0.00857   0.01595   0.02452  -0.88137
   D30       -2.98980  -0.00003   0.00039   0.02138   0.02177  -2.96803
   D31       -0.92480   0.00022   0.00087   0.02622   0.02711  -0.89769
   D32       -3.03449  -0.00001   0.01096   0.01387   0.02482  -3.00967
   D33        1.16478  -0.00007   0.00279   0.01930   0.02207   1.18685
   D34       -2.99137   0.00034  -0.00019   0.02823   0.02806  -2.96331
   D35        1.18212   0.00010   0.00991   0.01587   0.02577   1.20790
   D36       -0.90179   0.00004   0.00173   0.02130   0.02302  -0.87876
         Item               Value     Threshold  Converged?
 Maximum Force            0.000440     0.000015     NO 
 RMS     Force            0.000154     0.000010     NO 
 Maximum Displacement     0.052168     0.000060     NO 
 RMS     Displacement     0.011282     0.000040     NO 
 GradGradGradGradGradGradGradGradGradGradGradGradGradGradGradGradGradGrad

                    Distance matrix (angstroms):
                    1          2          3          4          5
     1  F    0.000000
     2  C    1.368836   0.000000
     3  C    2.394050   1.532401   0.000000
     4  C    2.877603   2.509588   1.529576   0.000000
     5  F    3.403741   2.897746   2.384569   1.375877   0.000000
     6  C    3.707420   2.486077   1.529904   2.489984   2.825331
     7  F    4.151093   2.881549   2.388820   3.710624   4.115090
     8  C    2.956361   2.540534   1.532429   2.490345   3.708050
     9  F    2.804811   3.039904   2.401069   2.796026   4.112943
    10  H    2.013339   1.103395   2.175539   3.472406   3.905060
    11  H    2.009399   1.104081   2.169138   2.756964   2.581615
    12  H    2.538983   2.734256   2.168785   1.100366   2.018139
    13  H    3.886149   3.478580   2.180427   1.105745   2.014960
    14  H    3.977302   2.710999   2.178671   2.759745   2.524734
    15  H    4.550196   3.459074   2.177485   2.717602   3.150143
    16  H    3.216981   2.722948   2.176893   3.455317   4.542953
    17  H    3.997853   3.488672   2.172633   2.795413   4.017855
                    6          7          8          9         10
     6  C    0.000000
     7  F    1.375680   0.000000
     8  C    2.483330   2.840837   0.000000
     9  F    3.702385   4.159151   1.369054   0.000000
    10  H    2.743063   2.572215   2.774912   3.425791   0.000000
    11  H    2.702649   3.231196   3.491400   4.028002   1.797845
    12  H    3.453356   4.540305   2.771643   2.520016   3.745533
    13  H    2.760138   4.013961   2.702233   3.049340   4.327007
    14  H    1.102351   2.016776   3.456654   4.551413   3.072820
    15  H    1.105462   2.015064   2.730514   3.942499   3.767233
    16  H    2.803707   2.602395   1.102929   2.015411   2.498357
    17  H    2.640165   3.066583   1.106596   2.006282   3.738178
                   11         12         13         14         15
    11  H    0.000000
    12  H    3.088590   0.000000
    13  H    3.776245   1.797960   0.000000
    14  H    2.457709   3.751114   3.156335   0.000000
    15  H    3.714169   3.746365   2.522905   1.793391   0.000000
    16  H    3.739809   3.736525   3.753296   3.798062   3.198264
    17  H    4.315714   3.240914   2.551712   3.679851   2.416989
                   16         17
    16  H    0.000000
    17  H    1.793525   0.000000
 Framework group  C1[X(C5H8F4)]
 Deg. of freedom    45
                         Standard orientation:                         
 ---------------------------------------------------------------------
 Center     Atomic      Atomic             Coordinates (Angstroms)
 Number     Number       Type             X           Y           Z
 ---------------------------------------------------------------------
      1          9           0       -1.595640    0.015878    1.504121
      2          6           0       -0.235197    0.070194    1.362853
      3          6           0        0.169435   -0.007709   -0.113107
      4          6           0       -0.472347    1.139568   -0.895073
      5          9           0       -0.027515    2.349544   -0.414325
      6          6           0        1.691326    0.116739   -0.207790
      7          9           0        2.301425   -0.934782    0.436088
      8          6           0       -0.247272   -1.336493   -0.752661
      9          9           0       -1.605206   -1.416649   -0.907256
     10          1           0        0.210312   -0.768474    1.924671
     11          1           0        0.118984    1.022374    1.795176
     12          1           0       -1.567118    1.100414   -0.791396
     13          1           0       -0.206598    1.077373   -1.966605
     14          1           0        2.034585    1.056117    0.255803
     15          1           0        2.013689    0.106115   -1.265153
     16          1           0        0.089509   -2.183060   -0.131088
     17          1           0        0.213397   -1.430576   -1.754403
 ---------------------------------------------------------------------
 Rotational constants (GHZ):           1.5313524           1.3709704           1.1073283
   142 basis functions,   257 primitive gaussians,   151 cartesian basis functions
    37 alpha electrons       37 beta electrons
       nuclear repulsion energy       524.3517275047 Hartrees.
 NAtoms=   17 NActive=   17 NUniq=   17 SFac= 1.00D+00 NAtFMM=   60 NAOKFM=F Big=F
 Nuclear repulsion after empirical dispersion term =      524.3402577801 Hartrees.
   1 Symmetry operations used in ECPInt.
 ECPInt:  NShTT=    2485 NPrTT=   10011 LenC2=    2444 LenP2D=    7684.
 LDataN:  DoStor=T MaxTD1= 4 Len=   56
 Initial guess from the checkpoint file:  "/scratch/user/peterchao1/peterchao1/6097784_1659647559000000795552138/Gau-150753.chk"
 B after Tr=    -0.000000   -0.000000   -0.000000
         Rot=    0.999997   -0.001403   -0.001182    0.001502 Ang=  -0.27 deg.
 ExpMin= 1.22D-01 ExpMax= 2.89D+03 ExpMxC= 4.35D+02 IAcc=3 IRadAn=         5 AccDes= 0.00D+00
 Harris functional with IExCor= 4639 and IRadAn=       5 diagonalized for initial guess.
 HarFok:  IExCor= 4639 AccDes= 0.00D+00 IRadAn=         5 IDoV= 1 UseB2=F ITyADJ=14
 ICtDFT=  3500011 ScaDFX=  1.000000  1.000000  1.000000  1.000000
 FoFCou: FMM=F IPFlag=           0 FMFlag=      100000 FMFlg1=           0
         NFxFlg=           0 DoJE=T BraDBF=F KetDBF=T FulRan=T
         wScrn=  0.000000 ICntrl=       500 IOpCl=  0 I1Cent=   200000004 NGrid=           0
         NMat0=    1 NMatS0=      1 NMatT0=    0 NMatD0=    1 NMtDS0=    0 NMtDT0=    0
 Petite list used in FoFCou.
     Minimum is close to point  4 DX=  1.21D-01 DF= -2.52D-06 DXR=  9.19D-02 DFR=  8.51D-03 which will be used.
     Accept linear search using points  2 and  3.
     Accept linear search using points  1 and  2.
     Minimum is close to point  2 DX= -2.98D-05 DF=  0.00D+00 DXR=  2.98D-05 DFR=  0.00D+00 which will be used.
 SCF Done:  E(RwB97XD) =  -594.063790365     a.u. after    5 cycles
            Convg  =    0.2712D-09                    28 Fock formations.
              S**2 =  0.0000                  -V/T =  2.0070
   1 Symmetry operations used in ECPInt.
 ECPInt:  NShTT=    2485 NPrTT=   10011 LenC2=    2444 LenP2D=    7684.
 LDataN:  DoStor=T MaxTD1= 5 Len=  102
 Calling FoFJK, ICntrl=      2127 FMM=F ISym2X=0 I1Cent= 0 IOpClX= 0 NMat=1 NMatS=1 NMatT=0.

 GradGradGradGradGradGradGradGradGradGradGradGradGradGradGradGradGradGrad
 Using GEDIIS/GDIIS optimizer.
 FormGI is forming the generalized inverse of G from B-inverse, IUseBI=4.
 Internal  Forces:  Max     0.000469445 RMS     0.000112323
 Step number   4 out of a maximum of   92
 All quantities printed in internal units (Hartrees-Bohrs-Radians)
 Mixed Optimization -- En-DIIS/RFO-DIIS
 Swapping is turned off.
 Trust test= 1.49D+00 RLast= 8.54D-02 DXMaxT set to 5.05D-01
 ITU=  1  1  1  0
     Eigenvalues ---    0.00101   0.00431   0.00450   0.00512   0.04584
     Eigenvalues ---    0.04980   0.05190   0.05574   0.05666   0.05738
     Eigenvalues ---    0.05923   0.05954   0.05984   0.06627   0.07427
     Eigenvalues ---    0.14385   0.14657   0.15482   0.15920   0.16000
     Eigenvalues ---    0.16000   0.16000   0.16000   0.16105   0.16866
     Eigenvalues ---    0.22055   0.22339   0.22576   0.24362   0.29415
     Eigenvalues ---    0.29924   0.30052   0.31087   0.34129   0.34164
     Eigenvalues ---    0.34203   0.34218   0.34235   0.34245   0.34286
     Eigenvalues ---    0.35587   0.52202   0.52711   0.53222   0.57701
 En-DIIS/RFO-DIIS/Sim-DIIS IScMMF=       -3 using points:     4    3    2
 RFO step:  Lambda=-7.63734531D-05.
 DidBck=F Rises=F RFO-DIIS coefs:    2.90398   -1.29051   -0.61347
 Iteration  1 RMS(Cart)=  0.02658141 RMS(Int)=  0.00052522
 Iteration  2 RMS(Cart)=  0.00054623 RMS(Int)=  0.00001780
 Iteration  3 RMS(Cart)=  0.00000020 RMS(Int)=  0.00001779
 Variable       Old X    -DE/DX   Delta X   Delta X   Delta X     New X
                                 (Linear)    (Quad)   (Total)
    R1        2.58673   0.00047  -0.00194   0.00273   0.00079   2.58751
    R2        2.89582  -0.00002  -0.00637   0.00369  -0.00268   2.89314
    R3        2.08511   0.00000  -0.00146   0.00077  -0.00069   2.08443
    R4        2.08641   0.00004  -0.00201   0.00116  -0.00085   2.08556
    R5        2.89048   0.00012   0.00076   0.00024   0.00100   2.89148
    R6        2.89110  -0.00009  -0.00063  -0.00030  -0.00093   2.89017
    R7        2.89587   0.00026  -0.00155   0.00284   0.00129   2.89716
    R8        2.60003   0.00035  -0.00078   0.00185   0.00108   2.60111
    R9        2.07939  -0.00005  -0.00122   0.00039  -0.00084   2.07855
   R10        2.08955  -0.00002  -0.00272   0.00129  -0.00143   2.08812
   R11        2.59966   0.00038  -0.00048   0.00170   0.00122   2.60088
   R12        2.08314   0.00001  -0.00129   0.00074  -0.00055   2.08259
   R13        2.08902  -0.00002  -0.00213   0.00107  -0.00106   2.08796
   R14        2.58714   0.00045  -0.00192   0.00257   0.00065   2.58779
   R15        2.08423  -0.00003  -0.00075   0.00041  -0.00034   2.08389
   R16        2.09116   0.00001  -0.00280   0.00139  -0.00141   2.08975
    A1        1.93887   0.00002  -0.01058   0.00758  -0.00302   1.93585
    A2        1.89503   0.00003  -0.00505   0.00404  -0.00106   1.89396
    A3        1.88876   0.00005  -0.00131   0.00086  -0.00044   1.88833
    A4        1.92321  -0.00011   0.00320  -0.00321  -0.00007   1.92314
    A5        1.91376   0.00004   0.00521  -0.00330   0.00189   1.91565
    A6        1.90351  -0.00003   0.00888  -0.00607   0.00276   1.90626
    A7        1.92142   0.00001   0.00205  -0.00080   0.00123   1.92264
    A8        1.89457  -0.00001   0.00311  -0.00163   0.00149   1.89605
    A9        1.95439   0.00000  -0.00531   0.00333  -0.00199   1.95240
   A10        1.90152   0.00002  -0.00126   0.00011  -0.00115   1.90038
   A11        1.89962  -0.00002  -0.00349   0.00181  -0.00169   1.89793
   A12        1.89147  -0.00000   0.00506  -0.00293   0.00214   1.89361
   A13        1.92339  -0.00014  -0.00280   0.00102  -0.00178   1.92161
   A14        1.92047   0.00009  -0.00031   0.00021  -0.00012   1.92035
   A15        1.93091  -0.00009   0.00465  -0.00414   0.00050   1.93142
   A16        1.89656   0.00005  -0.00347   0.00296  -0.00052   1.89604
   A17        1.88637   0.00013  -0.00644   0.00490  -0.00154   1.88483
   A18        1.90542  -0.00003   0.00829  -0.00481   0.00346   1.90888
   A19        1.92839  -0.00007  -0.00502   0.00212  -0.00289   1.92550
   A20        1.93162   0.00003   0.00462  -0.00249   0.00211   1.93374
   A21        1.92676  -0.00011   0.00374  -0.00358   0.00015   1.92691
   A22        1.89276   0.00007  -0.00483   0.00427  -0.00056   1.89220
   A23        1.88705   0.00008  -0.00494   0.00349  -0.00145   1.88560
   A24        1.89614  -0.00000   0.00630  -0.00364   0.00262   1.89876
   A25        1.94724   0.00006  -0.00819   0.00637  -0.00183   1.94541
   A26        1.92551   0.00003   0.00652  -0.00269   0.00379   1.92930
   A27        1.91593  -0.00007   0.00527  -0.00479   0.00045   1.91638
   A28        1.89818  -0.00003  -0.00492   0.00419  -0.00076   1.89742
   A29        1.88148   0.00005  -0.00453   0.00168  -0.00283   1.87865
   A30        1.89420  -0.00005   0.00604  -0.00490   0.00108   1.89527
    D1        1.02071   0.00008   0.03338   0.00265   0.03601   1.05672
    D2        3.10067   0.00011   0.03492   0.00133   0.03624   3.13691
    D3       -1.09507   0.00010   0.03999  -0.00133   0.03864  -1.05643
    D4        3.12162   0.00007   0.02215   0.01053   0.03267  -3.12889
    D5       -1.08160   0.00009   0.02369   0.00921   0.03290  -1.04870
    D6        1.00584   0.00008   0.02875   0.00655   0.03530   1.04115
    D7       -1.06621  -0.00002   0.03827  -0.00105   0.03724  -1.02897
    D8        1.01376   0.00000   0.03982  -0.00237   0.03747   1.05122
    D9        3.10120   0.00000   0.04488  -0.00503   0.03987   3.14107
   D10        1.08119   0.00004   0.01198   0.00225   0.01424   1.09543
   D11       -1.00994   0.00001   0.01825  -0.00218   0.01608  -0.99386
   D12       -3.11689   0.00005   0.00514   0.00637   0.01150  -3.10539
   D13       -0.99452   0.00003   0.00774   0.00465   0.01239  -0.98213
   D14       -3.08565   0.00000   0.01401   0.00022   0.01424  -3.07141
   D15        1.09058   0.00004   0.00090   0.00877   0.00966   1.10024
   D16       -3.05380   0.00003   0.00437   0.00707   0.01144  -3.04236
   D17        1.13826   0.00000   0.01065   0.00264   0.01328   1.15154
   D18       -0.96869   0.00005  -0.00247   0.01118   0.00870  -0.95999
   D19        1.09573   0.00006   0.01057   0.00950   0.02008   1.11581
   D20       -1.00103  -0.00000   0.01687   0.00440   0.02129  -0.97974
   D21       -3.10096   0.00005   0.00362   0.01292   0.01653  -3.08443
   D22       -3.09504   0.00008   0.01413   0.00764   0.02177  -3.07328
   D23        1.09138   0.00002   0.02043   0.00254   0.02298   1.11436
   D24       -1.00855   0.00007   0.00718   0.01105   0.01822  -0.99033
   D25       -1.03064   0.00006   0.01212   0.00821   0.02032  -1.01032
   D26       -3.12739   0.00000   0.01842   0.00310   0.02153  -3.10586
   D27        1.05586   0.00005   0.00517   0.01162   0.01677   1.07263
   D28        1.23061   0.00005   0.04928   0.00085   0.05015   1.28076
   D29       -0.88137   0.00003   0.05662  -0.00688   0.04975  -0.83161
   D30       -2.96803   0.00011   0.04191   0.00386   0.04576  -2.92227
   D31       -0.89769   0.00005   0.05262  -0.00156   0.05106  -0.84663
   D32       -3.00967   0.00002   0.05996  -0.00929   0.05066  -2.95901
   D33        1.18685   0.00011   0.04525   0.00145   0.04667   1.23352
   D34       -2.96331   0.00004   0.05321  -0.00105   0.05217  -2.91114
   D35        1.20790   0.00002   0.06055  -0.00879   0.05177   1.25967
   D36       -0.87876   0.00010   0.04584   0.00196   0.04778  -0.83099
         Item               Value     Threshold  Converged?
 Maximum Force            0.000469     0.000015     NO 
 RMS     Force            0.000112     0.000010     NO 
 Maximum Displacement     0.103370     0.000060     NO 
 RMS     Displacement     0.026581     0.000040     NO 
 GradGradGradGradGradGradGradGradGradGradGradGradGradGradGradGradGradGrad

                    Distance matrix (angstroms):
                    1          2          3          4          5
     1  F    0.000000
     2  C    1.369252   0.000000
     3  C    2.390713   1.530984   0.000000
     4  C    2.894845   2.509937   1.530105   0.000000
     5  F    3.447089   2.905290   2.383993   1.376447   0.000000
     6  C    3.706211   2.485852   1.529411   2.488995   2.815734
     7  F    4.144224   2.891017   2.386530   3.708547   4.113878
     8  C    2.929443   2.538216   1.533113   2.489828   3.707060
     9  F    2.811577   3.064291   2.400440   2.767108   4.093769
    10  H    2.012662   1.103033   2.173972   3.472362   3.900103
    11  H    2.009097   1.103629   2.168941   2.741336   2.573621
    12  H    2.551707   2.727577   2.168834   1.099923   2.017917
    13  H    3.893511   3.477832   2.180687   1.104987   2.013764
    14  H    3.982740   2.703309   2.179546   2.771121   2.528822
    15  H    4.547275   3.457627   2.176735   2.707630   3.122328
    16  H    3.143192   2.703574   2.180116   3.453253   4.543851
    17  H    3.983290   3.482403   2.173009   2.818043   4.029337
                    6          7          8          9         10
     6  C    0.000000
     7  F    1.376325   0.000000
     8  C    2.485400   2.829054   0.000000
     9  F    3.697876   4.159565   1.369398   0.000000
    10  H    2.727151   2.566608   2.787656   3.486623   0.000000
    11  H    2.722096   3.276836   3.490649   4.033375   1.798944
    12  H    3.451688   4.537938   2.776965   2.501696   3.748370
    13  H    2.763803   4.008969   2.697369   2.994673   4.326095
    14  H    1.102059   2.016708   3.458766   4.549145   3.034777
    15  H    1.104900   2.014148   2.740828   3.927823   3.758067
    16  H    2.835158   2.627687   1.102750   2.015027   2.499138
    17  H    2.622506   3.011464   1.105850   2.003972   3.729182
                   11         12         13         14         15
    11  H    0.000000
    12  H    3.051463   0.000000
    13  H    3.767021   1.799188   0.000000
    14  H    2.472126   3.755274   3.178988   0.000000
    15  H    3.723708   3.741029   2.518511   1.794380   0.000000
    16  H    3.736369   3.723937   3.757444   3.817748   3.250056
    17  H    4.314269   3.280351   2.577293   3.671809   2.412788
                   16         17
    16  H    0.000000
    17  H    1.793468   0.000000
 Framework group  C1[X(C5H8F4)]
 Deg. of freedom    45
                         Standard orientation:                         
 ---------------------------------------------------------------------
 Center     Atomic      Atomic             Coordinates (Angstroms)
 Number     Number       Type             X           Y           Z
 ---------------------------------------------------------------------
      1          9           0       -1.587400   -0.017032    1.520143
      2          6           0       -0.228416    0.064738    1.374103
      3          6           0        0.167762   -0.005604   -0.103058
      4          6           0       -0.460104    1.157835   -0.873394
      5          9           0        0.020095    2.355830   -0.395036
      6          6           0        1.690256    0.096796   -0.206128
      7          9           0        2.284446   -0.984699    0.403443
      8          6           0       -0.276131   -1.322175   -0.751158
      9          9           0       -1.629893   -1.348494   -0.955815
     10          1           0        0.234522   -0.766351    1.932369
     11          1           0        0.107397    1.023583    1.805196
     12          1           0       -1.553218    1.143708   -0.752019
     13          1           0       -0.209791    1.094329   -1.947780
     14          1           0        2.054575    1.015187    0.282095
     15          1           0        2.004756    0.107995   -1.265264
     16          1           0        0.002389   -2.179401   -0.115824
     17          1           0        0.213925   -1.439024   -1.735585
 ---------------------------------------------------------------------
 Rotational constants (GHZ):           1.5295046           1.3670825           1.1113628
   142 basis functions,   257 primitive gaussians,   151 cartesian basis functions
    37 alpha electrons       37 beta electrons
       nuclear repulsion energy       524.4045493955 Hartrees.
 NAtoms=   17 NActive=   17 NUniq=   17 SFac= 1.00D+00 NAtFMM=   60 NAOKFM=F Big=F
 Nuclear repulsion after empirical dispersion term =      524.3930774150 Hartrees.
   1 Symmetry operations used in ECPInt.
 ECPInt:  NShTT=    2485 NPrTT=   10011 LenC2=    2446 LenP2D=    7687.
 LDataN:  DoStor=T MaxTD1= 4 Len=   56
 Initial guess from the checkpoint file:  "/scratch/user/peterchao1/peterchao1/6097784_1659647559000000795552138/Gau-150753.chk"
 B after Tr=     0.000000    0.000000    0.000000
         Rot=    0.999926   -0.008510   -0.001323    0.008572 Ang=  -1.39 deg.
 ExpMin= 1.22D-01 ExpMax= 2.89D+03 ExpMxC= 4.35D+02 IAcc=3 IRadAn=         5 AccDes= 0.00D+00
 Harris functional with IExCor= 4639 and IRadAn=       5 diagonalized for initial guess.
 HarFok:  IExCor= 4639 AccDes= 0.00D+00 IRadAn=         5 IDoV= 1 UseB2=F ITyADJ=14
 ICtDFT=  3500011 ScaDFX=  1.000000  1.000000  1.000000  1.000000
 FoFCou: FMM=F IPFlag=           0 FMFlag=      100000 FMFlg1=           0
         NFxFlg=           0 DoJE=T BraDBF=F KetDBF=T FulRan=T
         wScrn=  0.000000 ICntrl=       500 IOpCl=  0 I1Cent=   200000004 NGrid=           0
         NMat0=    1 NMatS0=      1 NMatT0=    0 NMatD0=    1 NMtDS0=    0 NMtDT0=    0
 Petite list used in FoFCou.
     Minimum is close to point  4 DX=  1.29D-01 DF= -1.55D-05 DXR=  9.72D-02 DFR=  9.54D-03 which will be used.
     Accept linear search using points  2 and  3.
[...]
   xx         0.520722D+02      0.771631D+01      0.858555D+01
   yx         0.389981D+00      0.577892D-01      0.642992D-01
   yy         0.521776D+02      0.773192D+01      0.860292D+01
   zx         0.165454D+00      0.245177D-01      0.272796D-01
   zy         0.227555D+00      0.337201D-01      0.375187D-01
   zz         0.518781D+02      0.768755D+01      0.855355D+01

 ----------------------------------------------------------------------
 1\1\GINC-C622\Freq\RwB97XD\def2SVPP\C5H8F4\PETERCHAO1\04-Aug-2022\0\\#
 T Geom=AllCheck Guess=TCheck SCRF=Check GenChk RwB97XD/def2SVPP Freq\\
 Comment gs min\\0,1\F,2.8292857541,1.220522116,0.0697222963\C,2.350519
 3938,-0.0505981571,-0.1082007434\C,2.8866441007,-0.9932736656,0.972121
 4687\C,2.3746969254,-0.5667096665,2.3490713446\F,1.0054404216,-0.70356
 52089,2.4048766094\C,2.3904928125,-2.4087434239,0.6725706012\F,2.96068
 24953,-2.8782948631,-0.4889444302\C,4.4206318428,-1.0131916585,1.00073
 95031\F,4.9248326563,0.1107556292,1.6012049683\H,2.6592662488,-0.40563
 6383,-1.1065969697\H,1.2477750721,-0.0165016383,-0.0615788862\H,2.6313
 993491,0.4859292786,2.540797978\H,2.815988277,-1.1970162234,3.14272948
 87\H,1.2945145552,-2.4261857727,0.5548310062\H,2.6678982787,-3.0941749
 02,1.4940431695\H,4.8272604633,-1.0806451354,-0.0219127258\H,4.7724813
 532,-1.8895903255,1.5768753213\\Version=ES64L-G16RevB.01\State=1-A\HF=
 -594.063888\RMSD=5.092e-10\RMSF=1.151e-06\ZeroPoint=0.1334181\Thermal=
 0.1429704\Dipole=-0.0801112,-0.7814343,0.1437893\DipoleDeriv=-0.308848
 1,-0.1838816,-0.0173167,-0.1450311,-0.888816,0.0418971,-0.0306953,-0.0
 045781,-0.2874257,0.3972628,0.1196638,0.0335197,0.1301721,0.9097331,-0
 .0494194,0.0278008,-0.0617952,0.3867027,-0.1451647,-0.0691563,-0.09100
 19,0.0398411,-0.1312328,-0.0955254,0.0949109,0.0656086,-0.137643,0.896
 1218,0.0076779,-0.1341331,0.0073481,0.3294513,0.0065984,-0.1534689,0.0
 181459,0.4730685,-0.9044628,-0.0106746,0.1459522,-0.03939,-0.2652942,-
 0.0143203,0.1023758,-0.0275112,-0.3403931,0.43344,-0.041605,-0.1390576
 ,-0.0475243,0.5891785,0.239685,-0.1421346,0.213921,0.742167,-0.3470072
 ,0.0841751,0.1985763,0.0552147,-0.4492275,-0.2402636,0.1718423,-0.2671
 369,-0.7111171,0.6243785,0.2166805,0.1050478,0.1899099,0.7031408,0.179
 1111,0.1168857,0.1789786,0.4490161,-0.4789825,-0.2273809,-0.0946147,-0
 .2637489,-0.6444616,-0.2152054,-0.1325075,-0.222912,-0.3573044,0.03089
 85,0.0122442,0.0739144,-0.0095099,0.0017024,-0.0183264,0.023266,-0.034
 9573,-0.0964259,-0.1205283,-0.0094337,-0.0265969,0.0247737,-0.0094708,
 0.0074044,0.0194451,0.0047896,0.0622059,0.0234537,0.018341,0.0123677,-
 0.0287955,-0.0496685,-0.050491,0.0080536,-0.0170091,0.055012,-0.024991
 3,0.0204403,-0.0165597,0.0552584,-0.0195208,0.111482,-0.0361331,0.0624
 747,-0.0686003,-0.0946323,-0.018068,-0.000347,0.0033045,0.0409893,-0.0
 210259,-0.0533047,-0.0252265,0.0228162,0.0274036,0.068593,-0.0519887,0
 .0247091,-0.0540091,0.0598344,-0.00435,0.0583264,-0.0787886,0.0006932,
 -0.0083727,0.0425839,-0.0289588,0.0347896,0.0141518,0.0579117,-0.03638
 81,-0.0820832,-0.0090348,0.020757,-0.0403456,0.0324266,-0.0972838,0.04
 44133,-0.0698976,0.0952697,-0.0312072\Polar=51.9775485,-0.09001,51.820
 8538,0.3721526,-0.1996075,52.3295499\Quadrupole=-0.2717936,-1.6846061,
 1.9563998,-1.3791594,1.4330865,-1.9209527\PG=C01 [X(C5H8F4)]\NImag=0\\
 0.09468635,0.11114385,0.34805853,0.01874534,0.03906613,0.06157248,-0.1
 0164301,-0.07528446,-0.00962933,0.61773120,-0.07355505,-0.25803514,-0.
 03172420,-0.00436652,0.50817191,-0.01064239,-0.03342410,-0.07576174,-0
 .04160014,0.04722032,0.58216878,0.00762622,-0.01547287,0.01115847,-0.1
 0676164,0.02733451,-0.03234666,0.53647250,0.00514284,-0.04498469,0.024
 66076,0.02155311,-0.10550576,0.03554498,-0.00071315,0.53414227,0.00336
 685,-0.00249334,0.00858165,-0.02905524,0.04299187,-0.14768404,0.006404
 80,0.00344507,0.54099799,-0.00097406,0.00024853,0.00007711,0.01016949,
 -0.00760521,-0.00948276,-0.08136474,0.00748350,0.02401433,0.51132372,-
 0.00106474,-0.00125172,-0.00198707,-0.00675237,0.01172086,0.02248357,0
 .00572549,-0.10047150,-0.02712986,0.00374799,0.64655635,-0.00055968,-0
 .00440650,0.00074458,0.00623352,-0.00018391,-0.03603322,0.01327138,-0.
 02936286,-0.17582355,0.04881241,-0.03038268,0.53848716,0.00110176,-0.0
 0013537,0.00092759,-0.00320554,0.00142729,-0.00315780,-0.03760373,0.00
 051963,0.00708014,-0.27618374,-0.02555492,0.00086219,0.37756827,0.0003
 3502,0.00073233,0.00036427,-0.00014258,-0.00081601,0.00000025,0.010125
 09,0.00453664,0.00038230,-0.02004310,-0.07532544,0.00130697,0.03040573
 ,0.05498197,0.00060190,0.00115588,0.00006240,-0.00156561,-0.00028011,0
 .00123344,0.03966561,0.00366326,0.00189807,0.00391380,0.00285677,-0.06
 914673,-0.01614688,0.00204338,0.06054822,-0.00025915,0.00388542,-0.001
 83304,0.00474179,0.00653194,0.00379011,-0.10465236,-0.03440043,-0.0067
 6350,0.00938177,0.01545621,0.00241845,-0.00301015,-0.00198216,-0.00175
 711,0.61978168,0.00148695,-0.00134771,0.00275650,-0.00731434,-0.030992
 69,0.00068014,-0.04077103,-0.17448147,0.00116749,0.00520136,-0.0079321
 9,-0.01187936,-0.00377162,-0.00142443,-0.00038003,-0.02014977,0.517694
 59,-0.00137850,0.00865710,-0.00665254,0.01097466,0.01936791,0.01438572
 ,-0.00824938,-0.00366565,-0.08000365,-0.00850522,-0.03224831,-0.013112
 69,-0.00146648,0.00060437,0.00052681,0.03442430,-0.06002018,0.55317035
 ,0.00035973,0.00068280,-0.00044556,0.00026873,-0.00061269,0.00135221,0
 .00674901,0.00130723,-0.00346278,-0.00183424,-0.00253689,-0.00075688,0
 .00163513,0.00134436,0.00072486,-0.11018326,0.02848780,0.07336892,0.10
 853351,-0.00051529,-0.00051604,-0.00025961,0.00090489,0.00190741,0.000
 50460,0.01916914,-0.01253102,-0.04091552,-0.00521762,-0.00891493,0.001
 57384,0.00082558,0.00075164,0.00029103,0.03176588,-0.09065260,-0.05748
 952,-0.04319505,0.09730914,-0.00027989,-0.00055912,0.00223882,-0.00058
 259,0.00153664,-0.00507939,0.00913993,-0.01477487,-0.02208232,-0.00308
 474,-0.00508555,0.00238966,0.00031629,-0.00015443,0.00015078,0.0764807
 4,-0.05420339,-0.22075226,-0.11491856,0.09669909,0.28701796,-0.0011668
 8,-0.00457541,0.00041388,-0.01763983,0.00960245,-0.00644057,-0.1824471
 7,0.02150547,0.00652448,-0.02136731,0.00149134,0.00984936,0.00209696,-
 0.00001844,0.00002411,-0.01020972,-0.01255029,-0.00556679,-0.00291297,
 0.00101837,0.00365298,0.49735236,-0.00511738,-0.00214755,-0.00314721,0
 .03140595,0.00679983,0.00165832,0.01512893,-0.08257233,0.00165332,0.01
 150591,0.00304555,0.00459056,0.00113251,-0.00144107,-0.00319216,-0.037
 19713,-0.00373363,0.00089235,0.00170061,0.00078343,0.00028290,-0.02606
 251,0.56404281,0.00141831,-0.00242134,0.00004400,-0.02795795,0.0014318
 4,-0.00052886,0.00431880,0.00388206,-0.09094274,0.03236198,0.00412990,
 0.00727430,0.00679725,-0.00367868,-0.00854126,-0.01060390,-0.00223909,
 0.00082864,0.00132750,0.00112115,-0.00112379,-0.02455000,-0.03438326,0
 .63125448,-0.00065050,0.00248473,-0.00168919,0.00127614,-0.00188963,0.
 00115067,-0.01448927,-0.04224373,-0.01965711,0.00144801,0.00089449,-0.
 00006806,-0.00004010,-0.00059750,-0.00053979,-0.01033153,0.00404519,0.
 00086290,0.00147085,0.00004457,-0.00086049,-0.09439871,-0.06525539,-0.
 03429268,0.10486988,0.00424023,0.00383393,0.00209262,-0.00389140,-0.00
 648309,0.00032591,-0.01262959,-0.00983427,-0.00607454,0.00040437,-0.00
 290539,-0.00352545,0.00042481,0.00142394,0.00101821,-0.00210134,0.0023
 2167,-0.00022713,-0.00060838,0.00018320,0.00021664,-0.06066475,-0.2240
 5882,-0.08072658,0.10127270,0.28540712,-0.00109070,0.00170885,-0.00027
 521,0.00069086,-0.00110359,0.00011131,-0.00543558,-0.00843354,0.000271
 89,-0.00001379,-0.00155926,-0.00333097,0.00054033,0.00126109,0.0013480
 2,-0.00016675,0.00117946,-0.00041041,-0.00111783,-0.00012316,0.0007794
 4,-0.03162184,-0.07888297,-0.11522629,0.05188222,0.12194787,0.11458241
 ,0.00722539,-0.01101468,-0.01637120,-0.08398138,0.02539554,0.07779849,
 0.00403252,-0.00217311,-0.01261995,-0.00209143,0.00199230,-0.00146298,
 0.00109046,-0.00027344,0.00071772,0.00037540,-0.00020819,0.00065205,-0
 .00017314,0.00030346,-0.00023365,0.00143251,-0.00085562,-0.00156469,-0
 .00020525,0.00015750,0.00016082,0.07793701,0.00211087,-0.02869310,-0.0
 3493304,0.02201724,-0.07066179,-0.06447512,-0.00519851,0.00815928,0.01
 898746,0.00283157,-0.00327448,0.00277473,-0.00019489,0.00000352,-0.000
 44892,-0.00101093,0.00144001,0.00092150,0.00074894,-0.00169334,-0.0009
 0317,-0.00111912,0.00036612,-0.00014571,0.00012277,0.00017728,-0.00007
 234,-0.02170329,0.09059132,-0.00306495,-0.00667862,0.00330143,0.072428
 57,-0.06953818,-0.27134407,0.00809292,-0.00543699,-0.02045788,-0.00314
 148,0.00369335,-0.00175260,0.00042562,-0.00000735,0.00047689,0.0006531
 6,-0.00116134,-0.00274084,-0.00054977,-0.00085913,0.00250962,0.0016556
 2,-0.00088536,0.00030251,-0.00010816,0.00031673,0.00039340,-0.07514186
 ,0.07934243,0.28743394,-0.00816435,-0.01230828,-0.00177214,-0.31325339
 ,0.01899294,0.01475559,-0.01028565,0.00152920,0.00054909,-0.00224320,0
 .00005192,0.00079613,0.00177853,-0.00047005,0.00164257,-0.00021655,-0.
 00056492,-0.00009909,0.00024897,0.00014420,-0.00015587,0.00066115,0.00
 161109,-0.00131467,-0.00013155,-0.00016583,-0.00025290,-0.00538921,0.0
 0166575,-0.00046632,0.33640518,-0.04552362,-0.01485754,-0.00082795,0.0
 2706091,-0.05265659,-0.00279890,0.01930896,0.00078180,-0.00186003,0.00
 047016,0.00036734,-0.00048906,-0.00088727,-0.00001478,0.00000791,0.001
 77263,0.00122478,-0.00002573,-0.00046655,-0.00019200,-0.00000659,0.000
 54835,-0.00397527,0.00324090,0.00014093,0.00104712,0.00019805,0.008543
 35,0.00301773,0.00106933,-0.01107650,0.06605377,-0.00776977,-0.0021629
 9,0.00441389,0.01970087,-0.00223423,-0.05835147,-0.02508719,0.00337307
 ,0.00147118,-0.00264900,-0.00054161,0.00085514,0.00188498,0.00014623,-
 0.00052956,-0.00019859,-0.00127957,0.00022206,-0.00005158,-0.00029314,
 0.00007941,-0.00009046,0.00402278,-0.00320128,0.00017954,-0.00056770,0
 .00003010,0.02828813,-0.00152068,0.00186998,-0.01344872,0.00082570,0.0
 5245583,-0.00016739,-0.00027562,0.00019529,0.00025429,-0.00032462,-0.0
 0032391,0.00557503,0.01010153,0.00013972,-0.05928389,-0.04313277,-0.01
 014543,-0.02789618,-0.03947997,-0.00577755,-0.00144913,-0.00048595,0.0
 0182490,0.00015672,0.00110310,0.00120568,0.00098184,0.00138147,0.00005
 215,-0.00228888,-0.00080625,0.00004215,-0.00006470,0.00006648,-0.00000
 287,0.00002789,-0.00009838,0.00021918,0.07805031,0.00013637,0.00066488
 ,0.00146315,0.00002852,-0.00097061,0.00040724,-0.00053178,-0.00603151,
 -0.00138800,-0.05284260,-0.31341899,-0.04552176,-0.00458167,0.00718820
 ,0.00058756,0.00066445,0.00074838,-0.00061478,-0.00006632,-0.00034368,
 -0.00054028,-0.00081548,-0.00191868,-0.00160003,-0.00114729,0.00158205
 ,0.00163188,-0.00005792,-0.00004198,-0.00000031,-0.00001117,0.00000154
 ,-0.00012409,0.06162576,0.32493817,0.00058841,0.00240765,0.00030575,-0
 .00124141,-0.00321264,0.00067736,-0.00493007,-0.03025099,-0.00552544,-
 0.01125743,-0.04281755,-0.06276627,0.00059240,0.00180040,0.00422796,0.
 00337214,0.00222925,-0.00380744,-0.00013844,-0.00257738,-0.00182399,-0
 .00147037,-0.00127073,-0.00042993,0.00042183,0.00126222,0.00067214,0.0
 0007608,0.00006146,0.00039690,-0.00006867,0.00030854,-0.00015153,0.009
 71301,0.04955987,0.06164462,0.00005126,0.00023713,-0.00010159,-0.00088
 136,0.00119114,0.00240050,0.00603401,-0.00623246,0.00715376,-0.0813489
 6,0.05105890,-0.06359988,-0.03623653,0.01889229,-0.02595542,-0.0001824
 1,-0.00001639,-0.00026158,0.00001041,-0.00009006,-0.00003173,0.0008711
 6,-0.00078695,0.00067797,-0.00003543,-0.00009648,0.00000072,0.00030722
 ,-0.00055552,0.00055709,0.00007680,0.00001880,0.00016731,0.00593980,-0
 .00253750,0.00419885,0.10535115,0.00015149,0.00072810,0.00074107,0.000
 48996,-0.00143193,-0.00189777,-0.00336991,0.00617353,-0.00808615,0.056
 09430,-0.14901261,0.11146019,-0.00146106,0.00915656,-0.00605903,-0.000
 46300,0.00100723,-0.00152799,-0.00009642,0.00015766,0.00041983,0.00007
 261,0.00082978,0.00094024,-0.00032849,-0.00013692,-0.00063334,-0.00026
 146,0.00032836,-0.00031502,-0.00008637,-0.00003187,-0.00009081,0.01100
 851,-0.01300025,0.02252552,-0.06154693,0.14549780,0.00025970,0.0004437
 6,0.00084215,0.00263314,-0.00457042,-0.00466743,-0.01039320,0.01808858
 ,-0.02124781,-0.06942736,0.10980470,-0.18988648,0.00007910,-0.00387670
 ,0.00776601,-0.00024130,0.00223919,0.00000549,0.00017351,-0.00022798,0
 .00088323,-0.00162204,0.00050451,-0.00014782,0.00053639,0.00027675,0.0
 0036633,-0.00060227,0.00130296,-0.00118286,-0.00000119,-0.00012486,0.0
 0032024,0.00273718,-0.00398755,0.00633569,0.07492790,-0.11755947,0.200
 18931,0.00047432,0.00023208,-0.00007735,-0.00010251,0.00104240,-0.0003
 6959,-0.00818070,-0.00052314,-0.00291289,-0.00227934,-0.00091484,0.000
 26947,0.00130210,0.00194736,0.00164110,-0.31514211,-0.00631092,-0.0395
 5312,-0.01134675,0.00426217,0.01075627,0.00110045,-0.00113200,-0.00018
 984,-0.00069784,-0.00053282,-0.00014061,-0.00004764,-0.00005801,-0.000
 06013,0.00044216,-0.00043253,0.00037395,0.00021239,-0.00000434,-0.0001
 6835,0.00003565,-0.00010996,0.00008159,0.33852332,0.00072436,0.0007782
 1,0.00004181,-0.00214696,0.00053237,-0.00059361,-0.03130201,0.00037670
 ,-0.00406857,-0.00176905,0.00064596,0.00084515,0.00182333,-0.00031813,
 -0.00045539,-0.00764832,-0.05483285,0.00244759,0.01635296,0.00148225,-
 0.00518195,0.00227668,-0.00515292,-0.00139670,-0.00277927,-0.00118008,
 -0.00057792,0.00016995,-0.00006700,0.00023796,0.00062608,-0.00105301,0
 .00040814,0.00010612,-0.00003392,0.00002535,0.00015447,-0.00010355,-0.
 00010100,0.00387349,0.05564958,-0.00007652,-0.00022226,-0.00012401,0.0
 0087935,0.00050625,-0.00003017,-0.00561416,0.00194820,0.00191462,-0.00
 170391,0.00028761,0.00023925,0.00169329,-0.00041461,-0.00075252,-0.048
 01882,0.00304234,-0.05980334,0.04299780,-0.00605058,-0.00744974,-0.000
 03102,-0.00119413,-0.00031344,-0.00070547,-0.00077664,0.00002515,0.000
 04791,-0.00024420,0.00003106,0.00002385,0.00004957,0.00035923,0.000176
 23,0.00006947,0.00016596,0.00019274,-0.00004982,0.00007735,0.03204093,
 0.00469671,0.06491152,0.00045142,-0.00066078,0.00040217,-0.00124937,-0
 .00075297,-0.00116232,0.00345401,-0.00861710,0.00792193,0.00071401,0.0
 0089142,0.00003126,-0.00018711,-0.00030046,0.00026857,-0.07842886,0.04
 881671,-0.05797208,0.00601885,-0.00937607,0.02053496,0.00087593,-0.001
 72703,0.00124935,0.00013619,0.00045226,0.00000545,-0.00007389,0.000001
 30,-0.00000218,0.00033904,-0.00023199,0.00012592,-0.00012101,0.0000558
 5,0.00011491,0.00003153,0.00013226,-0.00007472,-0.00447349,0.01977063,
 -0.02219358,0.07307625,0.00015057,-0.00304306,0.00142246,-0.00360510,-
 0.00220614,-0.00400903,0.00909898,-0.02038061,0.02199547,0.00001037,0.
 00043323,0.00233761,0.00029913,0.00013395,-0.00044015,0.04609595,-0.15
 969410,0.12320310,-0.00274211,0.01289977,-0.01715248,0.00206325,-0.000
 25229,0.00077559,0.00004526,0.00073843,-0.00033525,-0.00001805,0.00022
 818,0.00008685,0.00011001,0.00014719,-0.00011184,-0.00032975,0.0003037
 4,-0.00019879,-0.00006856,-0.00003124,-0.00133321,-0.00139374,0.002971
 36,-0.00127008,-0.04839627,0.16727740,0.00006922,-0.00062524,0.0005305
 2,-0.00059836,-0.00108363,-0.00045331,0.00064688,-0.00371257,0.0055407
 6,0.00045865,-0.00066523,0.00127732,-0.00020459,0.00019050,0.00018336,
 -0.05220653,0.11729520,-0.18129285,0.00276714,0.00995719,-0.03794830,-
 0.00021704,-0.00033817,0.00000476,0.00012751,-0.00010192,0.00013961,-0
 .00007043,-0.00018738,0.00021472,0.00000758,-0.00003062,-0.00003018,-0
 .00000463,-0.00001516,0.00014082,-0.00023505,0.00009425,-0.00003797,-0
 .00169873,0.00372051,0.00049641,0.05089955,-0.12444334,0.21110290,0.00
 022644,0.00057300,-0.00036906,0.00114678,-0.00075606,0.00236363,-0.012
 61934,0.00190575,0.03060263,-0.00417696,-0.00182268,-0.00389401,-0.002
 62996,0.00071880,0.00211194,-0.00075664,0.00161139,0.00207862,0.000959
 06,-0.00073735,-0.00176115,-0.09283056,0.00533590,0.09724108,0.0075718
 6,-0.00641650,-0.01856245,-0.00043994,0.00042718,-0.00129978,0.0002889
 5,-0.00045826,-0.00016094,0.00012578,0.00014811,0.00010500,0.00012575,
 -0.00018102,-0.00000238,-0.00003102,-0.00014931,-0.00022288,-0.0000985
 8,-0.00005102,-0.00016063,0.09672592,-0.00001323,-0.00004331,0.0001312
 6,0.00026078,0.00003499,-0.00090959,0.00340065,0.00267513,-0.00088596,
 -0.00031312,0.00002138,0.00020008,-0.00024568,0.00022287,-0.00013348,0
 .00021350,0.00009725,0.00088032,-0.00023595,-0.00103234,-0.00085140,0.
 00184331,-0.05344580,0.00425598,0.00545298,-0.01269336,-0.03983236,0.0
 0004276,0.00012591,0.00007489,-0.00009262,0.00004760,0.00005797,-0.000
 22609,0.00017843,0.00006526,0.00009676,-0.00005550,-0.00040234,0.00008
 522,0.00022085,-0.00014709,0.00004257,0.00010460,-0.00019246,-0.000799
 60,0.05945379,-0.00012234,-0.00030810,0.00009043,-0.00083979,0.0007717
 6,0.00102187,-0.00128116,0.00168835,0.00257570,-0.00092693,-0.00017116
 ,0.00003388,-0.00006799,0.00002409,0.00044984,0.00163238,-0.00036393,-
 0.00124766,-0.00176387,-0.00086627,0.00051128,0.09484446,-0.00374738,-
 0.28179093,-0.00123425,-0.01282663,-0.01251463,0.00017094,-0.00035308,
 0.00014859,-0.00004876,0.00015077,0.00013254,-0.00004155,0.00012464,-0
 .00002300,-0.00005725,-0.00003722,0.00022955,-0.00002895,0.00018165,0.
 00018006,0.00001331,-0.00019038,0.00009665,-0.09754445,0.01556749,0.30
 179134,0.00082244,0.00023991,0.00036862,-0.00687040,-0.00165546,0.0019
 1494,-0.01153868,0.02385484,-0.01928626,0.00011087,0.00046916,-0.00205
 726,0.00041983,-0.00046096,0.00043018,0.00054121,0.00249404,-0.0011341
 1,0.00003938,-0.00040991,-0.00017816,-0.08239922,0.06893166,-0.0449706
 6,0.00649614,-0.01903854,0.00507991,0.00006608,-0.00015184,0.00002452,
 -0.00058479,0.00131101,-0.00148363,-0.00005288,-0.00006298,0.00009210,
 -0.00015004,-0.00004451,0.00093595,0.00021102,-0.00008317,0.00051426,-
 0.00046492,-0.00126893,0.00041945,0.00641245,-0.00951223,0.00729620,0.
 08694151,0.00016676,0.00012388,0.00013906,-0.00021762,0.00059238,-0.00
 071719,0.00069711,-0.00005218,0.00227900,-0.00020737,-0.00028343,0.000
 66246,-0.00002554,0.00020824,-0.00023473,-0.00143289,0.00055775,-0.001
 15494,-0.00006434,0.00040145,0.00025813,0.06538417,-0.19716915,0.10681
 372,-0.00026232,-0.03942281,0.00362653,-0.00003911,-0.00000601,0.00006
 077,0.00004455,0.00009217,0.00009277,-0.00023357,0.00015422,0.00008257
 ,0.00028135,-0.00007513,-0.00047693,-0.00003044,0.00008419,-0.00023075
 ,-0.00010034,0.00036959,0.00013806,0.00065167,0.00408753,0.00035541,-0
 .06461209,0.23033730,-0.00006497,-0.00013776,0.00008538,-0.00047056,0.
 00010431,0.00033521,0.00063859,-0.00065686,0.00051557,0.00055432,-0.00
 066760,0.00055123,-0.00015543,0.00000793,0.00009829,-0.00098174,0.0009
 3735,0.00068459,0.00049334,-0.00048460,-0.00030041,-0.04535475,0.11343
 666,-0.13746236,0.00399414,-0.02263036,0.01303772,0.00015490,-0.000106
 89,0.00039919,-0.00014648,0.00031299,0.00005442,-0.00000957,-0.0000518
 5,-0.00003958,-0.00003433,0.00007550,0.00015502,0.00003626,-0.00022971
 ,0.00007260,-0.00016250,-0.00033654,0.00003477,-0.01052516,0.02212143,
 -0.01168551,0.05203393,-0.11169397,0.13346386\\-0.00000215,0.00000117,
 0.00000047,-0.00000160,-0.00000231,-0.00000030,-0.00000011,0.00000007,
 -0.00000015,-0.00000107,-0.00000100,-0.00000005,0.00000056,-0.00000174
 ,0.00000052,0.00000097,0.00000024,0.00000122,0.00000224,-0.00000023,-0
 .00000096,0.00000045,0.00000195,-0.00000035,-0.00000114,0.00000200,-0.
 00000055,-0.00000112,-0.00000014,0.00000024,-0.00000097,-0.00000169,0.
 00000053,-0.00000137,-0.00000038,0.00000015,0.00000074,-0.00000007,0.0
 0000009,0.00000153,-0.00000182,0.00000017,0.00000234,-0.00000025,-0.00
 000030,-0.00000017,0.00000214,-0.00000028,0.00000085,0.00000207,-0.000
 00045\\\@


 ACCORDING TO HEN3RY, LIFE IS MUCH LIKE A SEWER........
 YOU GET OUT OF IT JUST WHAT YOU PUT INTO IT...........
                         TOM LEHRER - (THE 3 IS SILENT)
 File lengths (MBytes):  RWF=     50 Int=      0 D2E=      0 Chk=      3 Scr=      1
 Normal termination of Gaussian 16 at Thu Aug  4 16:21:26 2022.
real 526.12
user 1984.35
sys 12.63
