 Entering Gaussian System, Link 0=g16
 Input=gaussian_test.inp
 Output=gaussian_test.log
 Initial command:
 /sw/restricted/lms/sw/Gaussian/g16_B01/g16/l1.exe "/scratch/user/peterchao1/peterchao1/6950552_1675450008000000293698551/Gau-192531.inp" -scrdir="/scratch/user/peterchao1/peterchao1/6950552_1675450008000000293698551/"
 Entering Link 1 = /sw/restricted/lms/sw/Gaussian/g16_B01/g16/l1.exe PID=    192532.
  
 Copyright (c) 1988-2017, Gaussian, Inc.  All Rights Reserved.
  
 This is part of the Gaussian(R) 16 program.  It is based on
 the Gaussian(R) 09 system (copyright 2009, Gaussian, Inc.),
 the Gaussian(R) 03 system (copyright 2003, Gaussian, Inc.),
 the Gaussian(R) 98 system (copyright 1998, Gaussian, Inc.),
 the Gaussian(R) 94 system (copyright 1995, Gaussian, Inc.),
 the Gaussian 92(TM) system (copyright 1992, Gaussian, Inc.),
 the Gaussian 90(TM) system (copyright 1990, Gaussian, Inc.),
 the Gaussian 88(TM) system (copyright 1988, Gaussian, Inc.),
 the Gaussian 86(TM) system (copyright 1986, Carnegie Mellon
 University), and the Gaussian 82(TM) system (copyright 1983,
 Carnegie Mellon University). Gaussian is a federally registered
 trademark of Gaussian, Inc.
  
 This software contains proprietary and confidential information,
 including trade secrets, belonging to Gaussian, Inc.
  
 This software is provided under written license and may be
 used, copied, transmitted, or stored only in accord with that
 written license.
  
 The following legend is applicable only to US Government
 contracts under FAR:
  
                    RESTRICTED RIGHTS LEGEND
  
 Use, reproduction and disclosure by the US Government is
 subject to restrictions as set forth in subparagraphs (a)
 and (c) of the Commercial Computer Software - Restricted
 Rights clause in FAR 52.227-19.
  
 Gaussian, Inc.
 340 Quinnipiac St., Bldg. 40, Wallingford CT 06492
  
  
 ---------------------------------------------------------------
 Warning -- This program may not be used in any manner that
 competes with the business of Gaussian, Inc. or will provide
 assistance to any competitor of Gaussian, Inc.  The licensee
 of this program is prohibited from giving any competitor of
 Gaussian, Inc. access to this program.  By using this program,
 the user acknowledges that Gaussian, Inc. is engaged in the
 business of creating and licensing software in the field of
 computational chemistry and represents and warrants to the
 licensee that it is not a competitor of Gaussian, Inc. and that
 it will not use this program in any manner prohibited above.
 ---------------------------------------------------------------
  

 Cite this work as:
 Gaussian 16, Revision B.01,
 M. J. Frisch, G. W. Trucks, H. B. Schlegel, G. E. Scuseria, 
 M. A. Robb, J. R. Cheeseman, G. Scalmani, V. Barone, 
 G. A. Petersson, H. Nakatsuji, X. Li, M. Caricato, A. V. Marenich, 
 J. Bloino, B. G. Janesko, R. Gomperts, B. Mennucci, H. P. Hratchian, 
 J. V. Ortiz, A. F. Izmaylov, J. L. Sonnenberg, D. Williams-Young, 
 F. Ding, F. Lipparini, F. Egidi, J. Goings, B. Peng, A. Petrone, 
 T. Henderson, D. Ranasinghe, V. G. Zakrzewski, J. Gao, N. Rega, 
 G. Zheng, W. Liang, M. Hada, M. Ehara, K. Toyota, R. Fukuda, 
 J. Hasegawa, M. Ishida, T. Nakajima, Y. Honda, O. Kitao, H. Nakai, 
 T. Vreven, K. Throssell, J. A. Montgomery, Jr., J. E. Peralta, 
 F. Ogliaro, M. J. Bearpark, J. J. Heyd, E. N. Brothers, K. N. Kudin, 
 V. N. Staroverov, T. A. Keith, R. Kobayashi, J. Normand, 
 K. Raghavachari, A. P. Rendell, J. C. Burant, S. S. Iyengar, 
 J. Tomasi, M. Cossi, J. M. Millam, M. Klene, C. Adamo, R. Cammi, 
 J. W. Ochterski, R. L. Martin, K. Morokuma, O. Farkas, 
 J. B. Foresman, and D. J. Fox, Gaussian, Inc., Wallingford CT, 2016.
 
 ******************************************
 Gaussian 16:  ES64L-G16RevB.01 20-Dec-2017
                 3-Feb-2023 
 ******************************************
 %chk=13.chk
 %nprocshared=4
 Will use up to    4 processors via shared memory.
 %mem=8000mb
 --------------------------------------------------------------
 #T wB97XD//def2svpp Volume=tight Geom=AllCheckpoint Guess=Read
 --------------------------------------------------------------
 Structure from the checkpoint file:  "13.chk"
 -----
 Dimer
 -----
 Charge =  0 Multiplicity = 1
 Redundant internal coordinates found in file.  (old form).
 N,0,0.0388449503,-1.3120946665,-0.8614624215
 C,0,0.0839604822,-0.7417575773,0.4857952104
 C,0,1.2732066566,0.2160700772,0.6232366505
 O,0,1.3121629824,1.1915960288,-0.3783250721
 C,0,-1.2497784229,-0.0029084309,0.6918768641
 O,0,-1.4730016951,0.853698033,-0.4006357552
 H,0,-0.2811305841,-2.2776545675,-0.8691097074
 H,0,0.9353101815,-1.2502980046,-1.3397856884
 H,0,0.1938863849,-1.5136171471,1.2737900699
 H,0,2.216356273,-0.355596389,0.5523098434
 H,0,1.2415827824,0.6631772471,1.6403359674
 H,0,0.4098895113,1.5470897837,-0.470503926
 H,0,-1.2304382001,0.6092732301,1.6089973351
 H,0,-2.0751201363,-0.7383667337,0.7956146112
 H,0,-1.2504739568,0.2922570487,-1.1731044791
 Recover connectivity data from disk.
                           ----------------------------
                           !    Current Parameters    !
                           ! (Angstroms and Degrees)  !
 --------------------------                            --------------------------
 ! Name  Definition              Value                                          !
 --------------------------------------------------------------------------------
 ! R1    R(1,2)                  1.4637                                         !
 ! R2    R(1,7)                  1.0172                                         !
 ! R3    R(1,8)                  1.018                                          !
 ! R4    R(2,3)                  1.5332                                         !
 ! R5    R(2,5)                  1.5386                                         !
 ! R6    R(2,9)                  1.1085                                         !
 ! R7    R(3,4)                  1.3987                                         !
 ! R8    R(3,10)                 1.1052                                         !
 ! R9    R(3,11)                 1.1115                                         !
 ! R10   R(4,12)                 0.9742                                         !
 ! R11   R(5,6)                  1.4061                                         !
 ! R12   R(5,13)                 1.1028                                         !
 ! R13   R(5,14)                 1.1103                                         !
 ! R14   R(6,15)                 0.9805                                         !
 ! A1    A(2,1,7)              112.7355                                         !
 ! A2    A(2,1,8)              112.4391                                         !
 ! A3    A(7,1,8)              109.3357                                         !
 ! A4    A(1,2,3)              110.4783                                         !
 ! A5    A(1,2,5)              106.4803                                         !
 ! A6    A(1,2,9)              112.7088                                         !
 ! A7    A(3,2,5)              111.1242                                         !
 ! A8    A(3,2,9)              107.1192                                         !
 ! A9    A(5,2,9)              108.9731                                         !
 ! A10   A(2,3,4)              113.1501                                         !
 ! A11   A(2,3,10)             109.4544                                         !
 ! A12   A(2,3,11)             108.1358                                         !
 ! A13   A(4,3,10)             106.921                                          !
 ! A14   A(4,3,11)             112.0552                                         !
 ! A15   A(10,3,11)            106.9232                                         !
 ! A16   A(3,4,12)             107.2466                                         !
 ! A17   A(2,5,6)              109.0317                                         !
 ! A18   A(2,5,13)             111.2692                                         !
 ! A19   A(2,5,14)             109.8034                                         !
 ! A20   A(6,5,13)             108.1043                                         !
 ! A21   A(6,5,14)             110.9838                                         !
 ! A22   A(13,5,14)            107.6392                                         !
 ! A23   A(5,6,15)             103.1354                                         !
 ! D1    D(7,1,2,3)            144.3921                                         !
 ! D2    D(7,1,2,5)            -94.8331                                         !
 ! D3    D(7,1,2,9)             24.5964                                         !
 ! D4    D(8,1,2,3)             20.2357                                         !
 ! D5    D(8,1,2,5)            141.0105                                         !
 ! D6    D(8,1,2,9)            -99.56                                           !
 ! D7    D(1,2,3,4)             52.529                                          !
 ! D8    D(1,2,3,10)           -66.5973                                         !
 ! D9    D(1,2,3,11)           177.2638                                         !
 ! D10   D(5,2,3,4)            -65.4353                                         !
 ! D11   D(5,2,3,10)           175.4384                                         !
 ! D12   D(5,2,3,11)            59.2995                                         !
 ! D13   D(9,2,3,4)            175.637                                          !
 ! D14   D(9,2,3,10)            56.5107                                         !
 ! D15   D(9,2,3,11)           -59.6281                                         !
 ! D16   D(1,2,5,6)            -50.6166                                         !
 ! D17   D(1,2,5,13)          -169.7614                                         !
 ! D18   D(1,2,5,14)            71.175                                          !
 ! D19   D(3,2,5,6)             69.7427                                         !
 ! D20   D(3,2,5,13)           -49.4021                                         !
 ! D21   D(3,2,5,14)          -168.4656                                         !
 ! D22   D(9,2,5,6)           -172.4484                                         !
 ! D23   D(9,2,5,13)            68.4069                                         !
 ! D24   D(9,2,5,14)           -50.6567                                         !
 ! D25   D(2,3,4,12)            45.4992                                         !
 ! D26   D(10,3,4,12)          166.076                                          !
 ! D27   D(11,3,4,12)          -77.0814                                         !
 ! D28   D(2,5,6,15)            44.9685                                         !
 ! D29   D(13,5,6,15)          166.0655                                         !
 ! D30   D(14,5,6,15)          -76.1051                                         !
 --------------------------------------------------------------------------------
                    Distance matrix (angstroms):
                    1          2          3          4          5
     1  N    0.000000
     2  C    1.463702   0.000000
     3  C    2.462370   1.533177   0.000000
     4  O    2.850128   2.448069   1.398676   0.000000
     5  C    2.405698   1.538580   2.533400   3.022535   0.000000
     6  O    2.681175   2.399035   2.999424   2.805676   1.406125
     7  H    1.017226   2.080394   3.295713   3.849046   2.923940
     8  H    1.017969   2.077536   2.473432   2.651277   3.233921
     9  H    2.150338   1.108507   2.140086   3.361280   2.169109
    10  H    2.766803   2.168100   1.105154   2.019270   3.486826
    11  H    3.406945   2.155666   1.111484   2.087870   2.747749
    12  H    2.909546   2.501911   1.926966   0.974151   2.551102
    13  H    3.377263   2.194199   2.719296   3.279233   1.102837
    14  H    2.746619   2.181199   3.485966   4.071434   1.110338
    15  H    2.081684   2.366823   3.098646   2.829769   1.888195
                    6          7          8          9         10
     6  O    0.000000
     7  H    3.383104   0.000000
     8  H    3.332982   1.660339   0.000000
     9  H    3.344607   2.324094   2.729437   0.000000
    10  H    3.997732   3.457193   2.453894   2.439658   0.000000
    11  H    3.401593   4.155053   3.554760   2.443452   1.780978
    12  H    2.007723   3.907053   2.976087   3.529468   2.815970
    13  H    2.038923   3.921295   4.104119   2.578319   3.732017
    14  H    2.080440   2.891213   3.726218   2.445006   4.315377
    15  H    0.980532   2.763419   2.680468   3.366697   3.926281
                   11         12         13         14         15
    11  H    0.000000
    12  H    2.434884   0.000000
    13  H    2.472807   2.809715   0.000000
    14  H    3.698432   3.605779   1.786397   0.000000
    15  H    3.776688   2.196602   2.800177   2.370249   0.000000
 Framework group  C1[X(C3H9NO2)]
 Deg. of freedom    39
                         Standard orientation:                         
 ---------------------------------------------------------------------
 Center     Atomic      Atomic             Coordinates (Angstroms)
 Number     Number       Type             X           Y           Z
 ---------------------------------------------------------------------
      1          7           0        0.217169    1.401081   -0.725818
      2          6           0        0.040719    0.710928    0.552844
      3          6           0       -1.304751   -0.023455    0.584801
      4          8           0       -1.497838   -0.865545   -0.515151
      5          6           0        1.214185   -0.275765    0.681849
      6          8           0        1.302350   -1.039808   -0.495289
      7          1           0        0.706498    2.287694   -0.629775
      8          1           0       -0.665194    1.553803   -1.209939
      9          1           0        0.055193    1.403297    1.418409
     10          1           0       -2.127282    0.714565    0.573198
     11          1           0       -1.376363   -0.572604    1.548494
     12          1           0       -0.672915   -1.367729   -0.642761
     13          1           0        1.064773   -0.966593    1.528421
     14          1           0        2.156445    0.282247    0.865198
     15          1           0        1.201650   -0.369675   -1.203967
 ---------------------------------------------------------------------
 Rotational constants (GHZ):           4.2933090           3.2111606           2.6012016
   102 basis functions,   186 primitive gaussians,   108 cartesian basis functions
    25 alpha electrons       25 beta electrons
       nuclear repulsion energy       272.7294758953 Hartrees.
 NAtoms=   15 NActive=   15 NUniq=   15 SFac= 1.00D+00 NAtFMM=   60 NAOKFM=F Big=F
 Nuclear repulsion after empirical dispersion term =      272.7214179462 Hartrees.
   1 Symmetry operations used in ECPInt.
 ECPInt:  NShTT=    1485 NPrTT=    5991 LenC2=    1481 LenP2D=    4984.
 LDataN:  DoStor=T MaxTD1= 4 Len=   56
 Initial guess from the checkpoint file:  "13.chk"
 B after Tr=     0.000000    0.000000    0.000000
         Rot=    1.000000    0.000000   -0.000000    0.000000 Ang=   0.00 deg.
 Skip diagonalization as Alpha Fock matrix is already diagonal.
 SCF Done:  E(RwB97XD) =  -324.547334888     A.U. after    1 cycles
            NFock=  1  Conv=0.00D+00     -V/T= 2.0083

 **********************************************************************

            Population analysis using the SCF Density.

 **********************************************************************

 Orbital symmetries:
       Occupied  (A) (A) (A) (A) (A) (A) (A) (A) (A) (A) (A) (A)
                 (A) (A) (A) (A) (A) (A) (A) (A) (A) (A) (A) (A)
                 (A)
       Virtual   (A) (A) (A) (A) (A) (A) (A) (A) (A) (A) (A) (A)
                 (A) (A) (A) (A) (A) (A) (A) (A) (A) (A) (A) (A)
                 (A) (A) (A) (A) (A) (A) (A) (A) (A) (A) (A) (A)
                 (A) (A) (A) (A) (A) (A) (A) (A) (A) (A) (A) (A)
                 (A) (A) (A) (A) (A) (A) (A) (A) (A) (A) (A) (A)
                 (A) (A) (A) (A) (A) (A) (A) (A) (A) (A) (A) (A)
                 (A) (A) (A) (A) (A)
 The electronic state is 1-A.
 Alpha  occ. eigenvalues --  -19.24870 -19.23495 -14.43631 -10.33798 -10.33716
 Alpha  occ. eigenvalues --  -10.33119  -1.12288  -1.09781  -0.98631  -0.83607
 Alpha  occ. eigenvalues --   -0.76091  -0.68692  -0.61513  -0.60315  -0.57309
 Alpha  occ. eigenvalues --   -0.56485  -0.52781  -0.49262  -0.48981  -0.48455
 Alpha  occ. eigenvalues --   -0.42273  -0.41250  -0.35569  -0.35219  -0.33181
 Alpha virt. eigenvalues --    0.11976   0.16226   0.17489   0.18717   0.19023
 Alpha virt. eigenvalues --    0.20323   0.23140   0.23382   0.24872   0.27406
 Alpha virt. eigenvalues --    0.29449   0.29922   0.33562   0.36286   0.54528
 Alpha virt. eigenvalues --    0.54792   0.56985   0.58163   0.62622   0.63696
 Alpha virt. eigenvalues --    0.67754   0.69392   0.71602   0.72635   0.74080
 Alpha virt. eigenvalues --    0.75067   0.76253   0.77255   0.78268   0.80185
 Alpha virt. eigenvalues --    0.81670   0.84321   0.85848   0.92055   0.96844
 Alpha virt. eigenvalues --    0.99462   1.07248   1.09818   1.13299   1.18053
 Alpha virt. eigenvalues --    1.21636   1.27905   1.30280   1.34312   1.40601
 Alpha virt. eigenvalues --    1.52122   1.59999   1.66095   1.69666   1.82442
 Alpha virt. eigenvalues --    1.88388   1.90313   1.92296   1.98637   2.07892
 Alpha virt. eigenvalues --    2.15291   2.16833   2.17753   2.22121   2.33624
 Alpha virt. eigenvalues --    2.43095   2.46542   2.53398   2.63893   2.68757
 Alpha virt. eigenvalues --    2.75106   2.78932   2.79457   2.94953   2.95994
 Alpha virt. eigenvalues --    3.02643   3.04790   3.07858   3.08690   3.12855
 Alpha virt. eigenvalues --    3.45829   3.47713
          Condensed to atoms (all electrons):
 Mulliken charges:
               1
     1  N   -0.531847
     2  C   -0.168371
     3  C    0.044017
     4  O   -0.507931
     5  C    0.057460
     6  O   -0.511172
     7  H    0.233832
     8  H    0.244005
     9  H    0.095826
    10  H    0.102066
    11  H    0.092521
    12  H    0.318716
    13  H    0.108547
    14  H    0.094064
    15  H    0.328267
 Sum of Mulliken charges =  -0.00000
 Mulliken charges with hydrogens summed into heavy atoms:
               1
     1  N   -0.054010
     2  C   -0.072545
     3  C    0.238603
     4  O   -0.189215
     5  C    0.260071
     6  O   -0.182905
 Electronic spatial extent (au):  <R**2>=            574.1173
 Charge=              0.0000 electrons
 Dipole moment (field-independent basis, Debye):
    X=              0.5714    Y=              3.0806    Z=              1.3056  Tot=              3.3943
 Evaluate density.
 Using the total density.
 Monte-Carlo method of calculating molar volume:
 based on  0.001 e/bohr**3 density envelope.
 Number of points per bohr**3 =  100 CutOff= 1.00D-04
 Using the SCF density.
 There are      1581 points.  Will hold      1581 in memory.
 LenV=  1048387789 MDV=  1048576000.
 Box volume = 3952.958 fraction occupied=0.202
 Integrated density= 4.2189598418395370D+01 error=-7.8104015816046299D+00
 Molar volume =  800.093 bohr**3/mol ( 71.399 cm**3/mol)
 Recommended a0 for SCRF calculation =  3.85 angstrom (  7.28 bohr)
 1\1\GINC-C580\SP\RwB97XD\def2SVPP\C3H9N1O2\PETERCHAO1\03-Feb-2023\0\\#
 T wB97XD//def2svpp Volume=tight Geom=AllCheckpoint Guess=Read\\Dimer\\
 0,1\N,0,0.0388449503,-1.3120946665,-0.8614624215\C,0,0.0839604822,-0.7
 417575773,0.4857952104\C,0,1.2732066566,0.2160700772,0.6232366505\O,0,
 1.3121629824,1.1915960288,-0.3783250721\C,0,-1.2497784229,-0.002908430
 9,0.6918768641\O,0,-1.4730016951,0.853698033,-0.4006357552\H,0,-0.2811
 305841,-2.2776545675,-0.8691097074\H,0,0.9353101815,-1.2502980046,-1.3
 397856884\H,0,0.1938863849,-1.5136171471,1.2737900699\H,0,2.216356273,
 -0.355596389,0.5523098434\H,0,1.2415827824,0.6631772471,1.6403359674\H
 ,0,0.4098895113,1.5470897837,-0.470503926\H,0,-1.2304382001,0.60927323
 01,1.6089973351\H,0,-2.0751201363,-0.7383667337,0.7956146112\H,0,-1.25
 04739568,0.2922570487,-1.1731044791\\Version=ES64L-G16RevB.01\State=1-
 A\HF=-324.5473349\RMSD=0.000e+00\Dipole=-0.0015442,-1.2804061,0.379297
 8\Quadrupole=-2.9109046,1.303921,1.6069837,-0.7981231,0.1118573,1.4771
 772\PG=C01 [X(C3H9N1O2)]\\@


 AS FAR AS THE LAWS OF MATHEMATICS REFER TO REALITY,
 THEY ARE NOT CERTAIN; AND AS FAR AS THEY ARE CERTAIN,
 THEY DO NOT REFER TO REALITY.

                                         -- ALBERT EINSTEIN
 File lengths (MBytes):  RWF=     10 Int=      0 D2E=      0 Chk=      2 Scr=      1
 Normal termination of Gaussian 16 at Fri Feb  3 13:00:36 2023.
