You are running Q-Chem version: 5.3.2

#
# job setting
#
local host:  tnxt-0665.cluster
current dir: /scratch/user/peterli3819/peterli3819/12613597_1663277317000000466497577
input file:  qchem_test.inp
output file: 
nprocs     : 0
nthreads   : 8
#
# qchem installation setting
#
QC:          /sw/restricted/qchem/sw/5.3.2
QCAUX:       /sw/restricted/qchem/sw/5.3.2/qcaux
QCPROG:      /sw/restricted/qchem/sw/5.3.2/exe/qcprog.exe_s
QCPROG_S:    /sw/restricted/qchem/sw/5.3.2/exe/qcprog.exe_s
PARALLEL:    -DSERIAL
QCMPI:       seq
#
# qchem directory setting
#
qcrun:       qchem52594
QCSCRATCH:   /scratch/user/peterli3819/peterli3819/12613597_1663277317000000466497577
QCLOCALSCR:  
QCTMPDIR:    /scratch/user/peterli3819/peterli3819/12613597_1663277317000000466497577
QCFILEPREF:  /scratch/user/peterli3819/peterli3819/12613597_1663277317000000466497577/qchem52594
QCSAVEDIR:   
workdirs:    /scratch/user/peterli3819/peterli3819/12613597_1663277317000000466497577/qchem52594
workdir0:    /scratch/user/peterli3819/peterli3819/12613597_1663277317000000466497577/qchem52594
partmpdirs =  
#
# parallel setting
#
QCRSH:           ssh
QCMPI:           seq
QCMPIRUN:        
QCMACHINEFILE:   /scratch/user/peterli3819/peterli3819/12613597_1663277317000000466497577/qchem52594/hostfile

#
# env setting
#
exported envs:   QC QCAUX QCSCRATCH QCRUNNAME QCFILEPREF QCPROG QCPROG_S GUIFILE

Running Job 1 of 1 qchem_test.inp
qchem qchem_test.inp_52594.0 /scratch/user/peterli3819/peterli3819/12613597_1663277317000000466497577/qchem52594/ 0
/sw/restricted/qchem/sw/5.3.2/exe/qcprog.exe_s qchem_test.inp_52594.0 /scratch/user/peterli3819/peterli3819/12613597_1663277317000000466497577/qchem52594/
                  Welcome to Q-Chem
     A Quantum Leap Into The Future Of Chemistry


 Q-Chem 5.3, Q-Chem, Inc., Pleasanton, CA (2020)

 License issued to: MRG Daniel Tabor and Mike Hall, Texas A&M University

 Yihan Shao,  Zhengting Gan,  E. Epifanovsky,  A. T. B. Gilbert,  M. Wormit,  
 J. Kussmann,  A. W. Lange,  A. Behn,  Jia Deng,  Xintian Feng,  D. Ghosh,  
 M. Goldey,  P. R. Horn,  L. D. Jacobson,  I. Kaliman,  T. Kus,  A. Landau,  
 Jie Liu,  E. I. Proynov,  R. M. Richard,  R. P. Steele,  E. J. Sundstrom,  
 H. L. Woodcock III,  P. M. Zimmerman,  D. Zuev,  B. Alam,  B. Albrecht,  
 A. Aldossary,  E. Alguire,  S. A. Baeppler,  D. Barton,  Z. Benda,  
 Y. A. Bernard,  E. J. Berquist,  K. B. Bravaya,  H. Burton,  K. Carter-Fenk,  
 D. Casanova,  Chun-Min Chang,  Yunqing Chen,  A. Chien,  K. D. Closser,  
 M. P. Coons,  S. Coriani,  S. Dasgupta,  A. L. Dempwolff,  M. Diedenhofen,  
 Hainam Do,  R. G. Edgar,  Po-Tung Fang,  S. Faraji,  S. Fatehi,  
 Qingguo Feng,  J. Fosso-Tande,  J. Gayvert,  Qinghui Ge,  A. Ghysels,  
 G. Gidofalvi,  J. Gomes,  J. Gonthier,  S. Gulania,  A. Gunina,  D. Hait,  
 M. W. D. Hanson-Heine,  S. Hammes-Schiffer,  P. H. P. Harbach,  
 A. W. Hauser,  M. F. Herbst,  J. E. Herr,  E. G. Hohenstein,  Z. C. Holden,  
 S. Houck,  Kerwin Hui,  B. C. Huynh,  M. Ivanov,  T.-C. Jagau,  Hyunjun Ji,  
 B. Kaduk,  K. Khistyaev,  Jaehoon Kim,  P. Klunzinger,  K. Koh,  
 D. Kosenkov,  L. Koulias,  T. Kowalczyk,  C. M. Krauter,  A. Kunitsa,  
 Ka Un Lao,  A. Laurent,  K. V. Lawler,  Joonho Lee,  D. Lefrancois,  
 S. Lehtola,  D. S. Levine,  Yi-Pei Li,  You-Sheng Lin,  Fenglai Liu,  
 Kuan-Yu Liu,  E. Livshits,  M. Loipersberger,  A. Luenser,  A. Manjanath,  
 P. Manohar,  E. Mansoor,  S. F. Manzer,  Shan-Ping Mao,  Yuezhi Mao,  
 N. Mardirossian,  A. V. Marenich,  T. Markovich,  L. A. Martinez-Martinez,  
 S. A. Maurer,  N. J. Mayhall,  S. C. McKenzie,  J.-M. Mewes,  P. Morgante,  
 A. F. Morrison,  J. W. Mullinax,  K. Nanda,  T. S. Nguyen-Beck,  
 R. Olivares-Amaya,  K. J. Oosterbaan,  J. A. Parkhill,  S. K. Paul,  
 F. Pavosevic,  Zheng Pei,  T. M. Perrine,  F. Plasser,  P. Pokhilko,  
 S. Prager,  A. Prociuk,  E. Ramos,  B. Rana,  D. R. Rehn,  F. Rob,  
 E. Rossomme,  M. Scheurer,  M. Schneider,  N. Sergueev,  S. M. Sharada,  
 S. Sharma,  W. Skomorowski,  D. W. Small,  T. Stauch,  C. J. Stein,  
 T. Stein,  Yu-Chuan Su,  S. P. Veccham,  Zhen Tao,  A. J. W. Thom,  
 A. Tkatchenko,  T. Tsuchimochi,  N. M. Tubman,  L. Vogt,  M. L. Vidal,  
 O. Vydrov,  M. A. Watson,  J. Wenzel,  M. de Wergifosse,  T. A. Wesolowski,  
 A. White,  J. Witte,  A. Yamada,  Jun Yang,  K. Yao,  S. Yeganeh,  
 S. R. Yost,  Zhi-Qiang You,  A. Zech,  Igor Ying Zhang,  Xing Zhang,  
 Yan Zhao,  Ying Zhu,  B. R. Brooks,  G. K. L. Chan,  C. J. Cramer,  
 M. S. Gordon,  W. J. Hehre,  A. Klamt,  M. W. Schmidt,  C. D. Sherrill,  
 D. G. Truhlar,  A. Aspuru-Guzik,  R. Baer,  A. T. Bell,  N. A. Besley,  
 Jeng-Da Chai,  A. E. DePrince, III,  R. A. DiStasio Jr.,  A. Dreuw,  
 B. D. Dunietz,  T. R. Furlani,  Chao-Ping Hsu,  Yousung Jung,  Jing Kong,  
 D. S. Lambrecht,  WanZhen Liang,  C. Ochsenfeld,  V. A. Rassolov,  
 L. V. Slipchenko,  J. E. Subotnik,  T. Van Voorhis,  J. M. Herbert,  
 A. I. Krylov,  P. M. W. Gill,  M. Head-Gordon

 Contributors to earlier versions of Q-Chem not listed above: 
 R. D. Adamson,  B. Austin,  J. Baker,  G. J. O. Beran,  K. Brandhorst,  
 S. T. Brown,  E. F. C. Byrd,  A. K. Chakraborty,  C.-L. Cheng,  
 Siu Hung Chien,  D. M. Chipman,  D. L. Crittenden,  H. Dachsel,  
 R. J. Doerksen,  A. D. Dutoi,  L. Fusti-Molnar,  W. A. Goddard III,  
 A. Golubeva-Zadorozhnaya,  S. R. Gwaltney,  G. Hawkins,  A. Heyden,  
 S. Hirata,  G. Kedziora,  F. J. Keil,  C. Kelley,  Jihan Kim,  R. A. King,  
 R. Z. Khaliullin,  P. P. Korambath,  W. Kurlancheek,  A. M. Lee,  M. S. Lee,  
 S. V. Levchenko,  Ching Yeh Lin,  D. Liotard,  R. C. Lochan,  I. Lotan,  
 P. E. Maslen,  N. Nair,  D. P. O'Neill,  D. Neuhauser,  E. Neuscamman,  
 C. M. Oana,  R. Olson,  B. Peters,  R. Peverati,  P. A. Pieniazek,  
 Y. M. Rhee,  J. Ritchie,  M. A. Rohrdanz,  E. Rosta,  N. J. Russ,  
 H. F. Schaefer III,  N. E. Schultz,  N. Shenvi,  A. C. Simmonett,  A. Sodt,  
 D. Stuck,  K. S. Thanthiriwatte,  V. Vanovschi,  Tao Wang,  A. Warshel,  
 C. F. Williams,  Q. Wu,  X. Xu,  W. Zhang

 Please cite Q-Chem as follows:
 Y. Shao et al., Mol. Phys. 113, 184-215 (2015)
 DOI: 10.1080/00268976.2014.952696

 Q-Chem 5.3.2 for Intel X86 EM64T Linux

 Parts of Q-Chem use Armadillo 9.800.1 (Horizon Scraper).
 http://arma.sourceforge.net/

 Q-Chem begins on Thu Sep 15 16:29:06 2022  

Host: 
0

     Scratch files written to /scratch/user/peterli3819/peterli3819/12613597_1663277317000000466497577/qchem52594//
 Dec820 |scratch|qcdevops|jenkins|workspace|build_RNUM 7711   
Processing $rem in /sw/restricted/qchem/sw/5.3.2/config/preferences:
Processing $rem in /home/peterli3819/.qchemrc:

 Q-Chem warning in module libgen/rem_setup.C, line 2945:

 Neither GIA nor STOLL is specified by user. Use STOLL as the default


Checking the input file for inconsistencies... 	...done.

--------------------------------------------------------------
User input:
--------------------------------------------------------------
$molecule
0 1
--
0 1
C       -3.980884   -0.317101   -0.389677
C       -2.489922   -0.072349   -0.117630
N       -1.661713   -0.358065   -1.294718
C       -2.296665    1.406263    0.274926
O       -1.050878    1.697785    0.825861
C       -2.045165   -0.995408    1.036109
O       -0.665543   -1.157044    1.185400
H       -4.588577   -0.207446    0.526408
H       -4.141282   -1.335515   -0.785922
H       -4.365273    0.402129   -1.135841
H       -2.029674    0.128177   -2.114076
H       -1.649149   -1.355627   -1.512070
H       -3.054606    1.663047    1.036249
H       -2.509755    2.036609   -0.617475
H       -0.365948    1.623874    0.120697
H       -2.450539   -2.008328    0.857116
H       -2.506298   -0.622917    1.972906
H       -0.189133   -0.299005    1.298895
--
0 1
C        3.980873    0.317129    0.389719
C        2.489920    0.072357    0.117646
N        1.661693    0.358000    1.294739
C        2.045156    0.995454   -1.036058
O        0.665529    1.156981   -1.185425
C        2.296691   -1.406240   -0.274973
O        1.050906   -1.697754   -0.825923
H        4.141247    1.335535    0.785995
H        4.588580    0.207509   -0.526361
H        4.365265   -0.402115    1.135869
H        1.649070    1.355554    1.512122
H        2.029670   -0.128249    2.114085
H        2.506378    0.623063   -1.972851
H        2.450434    2.008397   -0.856972
H        0.189197    0.298903   -1.298938
H        2.509785   -2.036621    0.617402
H        3.054636   -1.662983   -1.036305
H        0.365973   -1.623902   -0.120759
$end

$rem
JOBTYPE           eda
EDA2              2
METHOD            wB97X-D
BASIS             def2-SV(P)
SCF_CONVERGENCE   8
THRESH            14
SYMMETRY          false
DISP_FREE_X       wB97X-D
DISP_FREE_C       none
EDA_BSSE          true
$end
--------------------------------------------------------------
 ----------------------------------------------------------------
             Standard Nuclear Orientation (Angstroms)
    I     Atom           X                Y                Z
 ----------------------------------------------------------------
    1      C       3.9808839683    -0.3171011359     0.3896769790
    2      C       2.4899219726    -0.0723490984     0.1176299896
    3      N       1.6617129598    -0.3580652084     1.2947179539
    4      C       2.2966649867     1.4062629416    -0.2749258665
    5      O       1.0508779938     1.6977850048    -0.8258608491
    6      C       2.0451649764    -0.9954079816    -1.0361091053
    7      O       0.6655429766    -1.1570439570    -1.1854001338
    8      H       4.5885769774    -0.2074460500    -0.5264080047
    9      H       4.1412819574    -1.3355151761     0.7859218802
   10      H       4.3652729667     0.4021287879     1.1358410533
   11      H       2.0296739559     0.1281767083     2.1140760052
   12      H       1.6491489507    -1.3556272297     1.5120698556
   13      H       3.0546059955     1.6630470112    -1.0362488344
   14      H       2.5097549831     2.0366088522     0.6174751975
   15      H       0.3659479869     1.6238739403    -0.1206968626
   16      H       2.4505389675    -2.0083280021    -0.8571162014
   17      H       2.5062979876    -0.6229168926    -1.9729060645
   18      H       0.1891329838    -0.2990049424    -1.2988950536
   19      C      -3.9808730201     0.3171289980    -0.3897190307
   20      C      -2.4899200243     0.0723569605    -0.1176460413
   21      N      -1.6616930115     0.3580000705    -1.2947390057
   22      C      -2.0451560281     0.9954538437     1.0360580536
   23      O      -0.6655290283     1.1569808191     1.1854250821
   24      C      -2.2966910384    -1.4062400796     0.2749728148
   25      O      -1.0509060455    -1.6977541428     0.8259227974
   26      H      -4.1412470092     1.3355350381    -0.7859949319
   27      H      -4.5885800291     0.2075089121     0.5263609529
   28      H      -4.3652650184    -0.4021149258    -1.1358691051
   29      H      -1.6490700024     1.3555540918    -1.5121219073
   30      H      -2.0296700076    -0.1282488462    -2.1140850569
   31      H      -2.5063780393     0.6230627547     1.9728510128
   32      H      -2.4504340192     2.0083968642     0.8569721497
   33      H      -0.1891970355     0.2989028045     1.2989380019
   34      H      -2.5097850349    -2.0366209902    -0.6174022492
   35      H      -3.0546360472    -1.6629831491     1.0363047826
   36      H      -0.3659730386    -1.6239020782     0.1207588109
 ----------------------------------------------------------------
 Molecular Point Group                 C1    NOp =  1
 Largest Abelian Subgroup              C1    NOp =  1
 Nuclear Repulsion Energy =        1116.42491175 hartrees
 There are       58 alpha and       58 beta electrons
 Requested basis set is def2-SV(P)
 There are 128 shells and 240 basis functions

 Total QAlloc Memory Limit  56000 MB
 Mega-Array Size       188 MB
 MEM_STATIC part       192 MB
 A cutoff of  1.0D-14 yielded   7506 shell pairs
 There are     26330 function pairs (     29362 Cartesian)
 Smallest overlap matrix eigenvalue = 1.35E-03

 Scale SEOQF with 1.000000e-01/1.000000e-01/1.000000e-01

 Standard Electronic Orientation quadrupole field applied
 Nucleus-field energy     =     0.0000000211 hartrees

 -----------------------------------------------------------------------
  General SCF calculation program by
  Eric Jon Sundstrom, Paul Horn, Yuezhi Mao, Dmitri Zuev, Alec White,
  David Stuck, Shaama M.S., Shane Yost, Joonho Lee, David Small,
  Daniel Levine, Susi Lehtola, Hugh Burton, Evgeny Epifanovsky,
  Bang C. Huynh
 -----------------------------------------------------------------------
================================================================
                 ALMO-EDA with the EDA2 driver                  
================================================================
 The second-generation ALMO-EDA (for DFT):                      
 P. R. Horn, Y. Mao and M. Head-Gordon, PCCP, 18, 23067 (2016)  
 Decomposition of the frozen energy:                            
 P. R. Horn, Y. Mao and M. Head-Gordon, JCP, 144, 114107 (2016) 
Using eda2 option set 2
Option set summary: Frozen orbital wavefunction, initial wavefunction decomposition, and traditional AO-based POL.
--------------------------------
Printing EDA Options
--------------------------------
eda_child_super_basis      0
fragmo_guess_mode          0
child_mp                   0
child_mp_orders            0
cls_elec                   1
cls_disp                   0
scfmi_mode                 1
scfmi_occs                 0
scfmi_virts                0
frz_relax                  0
frz_relax_method           0
dc_pen_start               0
dc_pen_conv                0
dc_pen_increment           0
dc_pen_steps               0
dc_pen_thresh_factor       0
dc_pen_pre_newton_thresh   0
frz_ortho_decomp           1
frz_ortho_decomp_conv      6
plot_mo_ortho_frz          0
frgm_method                2
scfmi_freeze_ss            0
separate_rehyb             0
plot_diff_den              0
eda_nocv                   0
eda_vct_relax              1
disp_free_x                -110
disp_free_c                0
eda_bsse                   1
eda_pct_a                  0
eda_covp                   0
--------------------------------
Attempting to make child job directory: /scratch/user/peterli3819/peterli3819/12613597_1663277317000000466497577/qchem52594//Frg1/
Attempting to make child job directory: /scratch/user/peterli3819/peterli3819/12613597_1663277317000000466497577/qchem52594//Frg2/
Creating input file /scratch/user/peterli3819/peterli3819/12613597_1663277317000000466497577/qchem52594/Frg1.input
using default PutDataFrgm: nothing
calling putenv with: QCSCRATCH=/scratch/user/peterli3819/peterli3819/12613597_1663277317000000466497577/qchem52594/ 
Spawning Job For Fragment 0
Done Job For Fragment 0
calling putenv with: QCSCRATCH=/scratch/user/peterli3819/peterli3819/12613597_1663277317000000466497577 
calling putenv with: QCTHREADS=8 
Creating input file /scratch/user/peterli3819/peterli3819/12613597_1663277317000000466497577/qchem52594/Frg2.input
using default PutDataFrgm: nothing
calling putenv with: QCSCRATCH=/scratch/user/peterli3819/peterli3819/12613597_1663277317000000466497577/qchem52594/ 
Spawning Job For Fragment 1
Done Job For Fragment 1
calling putenv with: QCSCRATCH=/scratch/user/peterli3819/peterli3819/12613597_1663277317000000466497577 
calling putenv with: QCTHREADS=8 
Doing General SCFMI
 Exchange:     0.2220 Hartree-Fock + 1.0000 wB97X-D + LR-HF
 Correlation:  1.0000 wB97X-D
 Using SG-2 standard quadrature grid
 Dispersion:   Grimme D
performing fock build before subrot guess so that all methods have access
Printing subrot_rss_gen Method Specification:
Occupied Subspace Method is 0
Virtual Subspace Method is 0
Energy of the unrelaxed supersystem initial determinant -727.625463099641
write pseudocanon occs and virts to disk
write pseudocanon orbital energies to disk
Tolerance of ortho_decomp_scf: 1.00e-06
GDM subspace size: 20
Beginning the Orthogonal Decomposition of the Initial Supersystem Wavefunction
    1    -727.4157387906      8.65e-02     ortho_decomp Preconditoned Steepest Descent
    2    -727.4368119822      1.39e-03     ortho_decomp BFGS Step
    3    -727.4368400208      9.39e-05     ortho_decomp BFGS Step
    4    -727.4368400952      3.54e-06     ortho_decomp BFGS Step
    5    -727.4368400953      9.60e-08     ortho_decomp 00000 Convergence criterion met
 Exchange:     0.2220 Hartree-Fock + 1.0000 wB97X-D + LR-HF
 Correlation:  1.0000 wB97X-D
 Using SG-2 standard quadrature grid
 Dispersion:   Grimme D
 Long-range K will be added via erf
 Coulomb attenuation parameter = 0.2 bohr**(-1)
 Exchange:     0.2220 Hartree-Fock + 1.0000 wB97X-D + LR-HF
 Correlation:  1.0000 wB97X-D
 Using SG-2 standard quadrature grid
 Dispersion:   Grimme D
 Long-range K will be added via erf
 Coulomb attenuation parameter = 0.2 bohr**(-1)
 Exchange:     0.2220 Hartree-Fock + 1.0000 wB97X-D + LR-HF
 Correlation:  1.0000 wB97X-D
 Using SG-2 standard quadrature grid
 Dispersion:   Grimme D
 Long-range K will be added via erf
 Coulomb attenuation parameter = 0.2 bohr**(-1)
Doing General SCFMI
 Exchange:     0.2220 Hartree-Fock + 1.0000 wB97X-D + LR-HF
 Correlation:  1.0000 wB97X-D
 Using SG-2 standard quadrature grid
 Dispersion:   Grimme D
performing fock build at end of subrot_r(subrot) constructor so that all methods have access
<S^2> of initial wavefunction before polarization iterations 0.0000000000
Beginning iterations for the determination of the polarized wavefunction
Energy prior to optimization (guess energy) = -727.625463099640
Begin Timing: Total SCF Calculation
begin iterations for algorithm: DIIS         
the SCF tolerance is set to 1.00e-08
    1    -727.6254630996      6.22e-04     00000 
    2    -727.6357103277      1.65e-04     00000 
    3    -727.6365674109      8.74e-05     00000 
    4    -727.6366958118      3.99e-05     00000 
    5    -727.6367245619      1.21e-05     00000 
    6    -727.6367279847      3.38e-06     00000 
    7    -727.6367281853      1.05e-06     00000 
    8    -727.6367282075      2.75e-07     00000 
    9    -727.6367282091      1.26e-07     00000 
   10    -727.6367282095      3.79e-08     00000 
   11    -727.6367282095      1.02e-08     00000 
   12    -727.6367282095      4.85e-09     00000 Convergence criterion met
write pseudocanon occs and virts to disk
write pseudocanon orbital energies to disk
Timing for Total SCF: 54.00s (wall), 340.95s (cpu)
<S^2> of polarized wavefunction after polarization iterations 0.0000000000
relaxing scfmi constraint to allow all rotations in the entire AO span
Doing General SCFMI
 Exchange:     0.2220 Hartree-Fock + 1.0000 wB97X-D + LR-HF
 Correlation:  1.0000 wB97X-D
 Using SG-2 standard quadrature grid
 Dispersion:   Grimme D
performing fock build at end of subrot_r(subrot) constructor so that all methods have access
<S^2> of polarized wavefunction before ct-allowed iterations 0.0000000000
Beginning iterations for the determination of the CT-Allowed wavefunction
Energy prior to optimization (guess energy) = -727.636728209508
Begin Timing: Total SCF Calculation
begin iterations for algorithm: DIIS         
the SCF tolerance is set to 1.00e-08
    1    -727.6367282095      8.45e-04     00000 
    2    -727.6729406651      1.76e-04     00000 
    3    -727.6748406078      9.51e-05     00000 
    4    -727.6750596085      3.66e-05     00000 
    5    -727.6751005981      8.39e-06     00000 
    6    -727.6751028934      2.35e-06     00000 
    7    -727.6751030786      8.27e-07     00000 
    8    -727.6751030999      2.06e-07     00000 
    9    -727.6751031013      5.39e-08     00000 
   10    -727.6751031014      1.31e-08     00000 
   11    -727.6751031014      5.67e-09     00000 Convergence criterion met
write pseudocanon occs and virts to disk
write pseudocanon orbital energies to disk
Timing for Total SCF: 50.00s (wall), 315.76s (cpu)
<S^2> of ct_allowed wavefunction after ct-allowed iterations 0.0000000000
Attempting to make child job directory: /scratch/user/peterli3819/peterli3819/12613597_1663277317000000466497577/qchem52594//FrgBSSE1/
Attempting to make child job directory: /scratch/user/peterli3819/peterli3819/12613597_1663277317000000466497577/qchem52594//FrgBSSE2/
Creating input file /scratch/user/peterli3819/peterli3819/12613597_1663277317000000466497577/qchem52594/FrgBSSE1.input
calling putenv with: QCSCRATCH=/scratch/user/peterli3819/peterli3819/12613597_1663277317000000466497577/qchem52594/ 
Spawning Job For Fragment 0
Done Job For Fragment 0
calling putenv with: QCSCRATCH=/scratch/user/peterli3819/peterli3819/12613597_1663277317000000466497577 
calling putenv with: QCTHREADS=8 
Creating input file /scratch/user/peterli3819/peterli3819/12613597_1663277317000000466497577/qchem52594/FrgBSSE2.input
calling putenv with: QCSCRATCH=/scratch/user/peterli3819/peterli3819/12613597_1663277317000000466497577/qchem52594/ 
Spawning Job For Fragment 1
Done Job For Fragment 1
calling putenv with: QCSCRATCH=/scratch/user/peterli3819/peterli3819/12613597_1663277317000000466497577 
calling putenv with: QCTHREADS=8 
====================================================================
   Evaluating the BSSE with fragment SCF in the supersystem basis
   Fragment contributions (kJ/mol) 
   Frgm 1: 22.0026
   Frgm 2: 22.0027
   BSSE (kJ/mol) = 44.0053
====================================================================

================================
        Results of EDA2         
================================
Basic EDA Quantities
--------------------
Fragment Energies (Ha):
1 -363.8083687647
2 -363.8083699746
--------------------
  E_prp (kJ/mol) = 0.0000
  E_frz (kJ/mol) = -22.9061
  E_pol (kJ/mol) = -29.5769
  E_vct (kJ/mol) = -56.7491 (CP-corrected)
  E_int (kJ/mol) = -109.2321 (CP-corrected)
--------------------


Decomposition of frozen interaction energy
--------------------
  --------------------
  Orthogonal Frozen Decomposition:
  --------------------
     E_elec   (ELEC)   (kJ/mol) = -360.1194
     E_pauli  (PAULI)  (kJ/mol) = 363.7681
     E_disp   (DISP)   (kJ/mol) = -26.5548
  --------------------
  Classical Frozen Decomposition:
  --------------------
     E_cls_elec  (CLS ELEC)  (kJ/mol) = -195.3643
     E_mod_pauli (MOD PAULI) (kJ/mol) = 199.0130 (FRZ - CLS ELEC - DISP)
     E_disp      (DISP)      (kJ/mol) = -26.5548
  --------------------
--------------------

Simplified EDA Summary (kJ/mol)
--------------------
 PREPARATION      0.0000
 FROZEN           -22.9061 (ELEC + PAULI + DISP)
[ELEC + PAULI = 3.6487, DISP = -26.5548]
 POLARIZATION    -29.5769
 CHARGE TRANSFER -56.7491     (counterpoise-corrected)
 TOTAL           -109.2321     (PRP + FRZ + POL + CT)
--------------------
 
 --------------------------------------------------------------
 
                    Orbital Energies (a.u.)
 --------------------------------------------------------------
 
 Alpha MOs
 -- Occupied --
-19.2386 -19.2386 -19.2216 -19.2216 -14.4303 -14.4302 -10.3333 -10.3333
-10.3288 -10.3288 -10.3269 -10.3269 -10.2897 -10.2897  -1.1149  -1.1014
 -1.0918  -1.0803  -0.9914  -0.9872  -0.8590  -0.8517  -0.7678  -0.7660
 -0.7592  -0.7568  -0.6676  -0.6655  -0.6217  -0.6106  -0.5949  -0.5919
 -0.5725  -0.5558  -0.5480  -0.5413  -0.5291  -0.5256  -0.5076  -0.5030
 -0.4880  -0.4807  -0.4767  -0.4759  -0.4706  -0.4679  -0.4602  -0.4551
 -0.4214  -0.4161  -0.3946  -0.3858  -0.3514  -0.3469  -0.3438  -0.3394
 -0.3253  -0.3218
 -- Virtual --
  0.1221   0.1223   0.1652   0.1684   0.1742   0.1744   0.1756   0.1867
  0.1966   0.1975   0.2162   0.2170   0.2291   0.2331   0.2335   0.2355
  0.2453   0.2503   0.2545   0.2612   0.2756   0.2947   0.3017   0.3076
  0.3141   0.3193   0.3260   0.3345   0.3394   0.3439   0.3554   0.3832
  0.3841   0.4060   0.5072   0.5459   0.5470   0.5588   0.5643   0.5724
  0.5777   0.5781   0.5946   0.6086   0.6382   0.6385   0.6440   0.6485
  0.6588   0.6730   0.6928   0.6937   0.7049   0.7103   0.7304   0.7316
  0.7377   0.7475   0.7514   0.7637   0.7728   0.7730   0.7826   0.7867
  0.7937   0.8048   0.8090   0.8143   0.8183   0.8190   0.8222   0.8229
  0.8253   0.8259   0.8364   0.8497   0.8617   0.8772   0.8790   0.9024
  0.9099   0.9436   1.0130   1.0200   1.0352   1.0379   1.0439   1.0459
  1.0968   1.0983   1.1305   1.1612   1.2076   1.2128   1.2494   1.2566
  1.2771   1.2773   1.3210   1.3306   1.3633   1.3999   1.4016   1.4218
  1.4473   1.4742   1.4774   1.5021   1.5562   1.5759   1.5960   1.6333
  1.6715   1.6918   1.7247   1.7961   1.8113   1.8512   1.8558   1.8599
  1.8716   1.8832   1.9239   1.9290   1.9547   1.9563   1.9829   2.0122
  2.0675   2.0762   2.0763   2.0857   2.1185   2.1415   2.1866   2.1873
  2.2094   2.2157   2.2168   2.2179   2.2431   2.2435   2.3390   2.3398
  2.3721   2.3784   2.3941   2.3982   2.4154   2.4172   2.5656   2.5709
  2.6317   2.6377   2.6869   2.6907   2.7665   2.7711   2.7724   2.7762
  2.7903   2.7907   2.8248   2.8255   2.9196   2.9197   2.9516   2.9569
  3.0515   3.0624   3.0794   3.0851   3.1348   3.1368   3.1440   3.1468
  3.1857   3.1916   3.4980   3.5034   3.5375   3.5467
 --------------------------------------------------------------
 
          Ground-State Mulliken Net Atomic Charges

     Atom                 Charge (a.u.)
  ----------------------------------------
      1 C                    -0.275561
      2 C                    -0.212739
      3 N                    -0.508516
      4 C                     0.086264
      5 O                    -0.519805
      6 C                     0.092245
      7 O                    -0.537517
      8 H                     0.119331
      9 H                     0.114262
     10 H                     0.116178
     11 H                     0.232727
     12 H                     0.239098
     13 H                     0.091477
     14 H                     0.081500
     15 H                     0.334782
     16 H                     0.092267
     17 H                     0.095121
     18 H                     0.358872
     19 C                    -0.275561
     20 C                    -0.212737
     21 N                    -0.508520
     22 C                     0.092243
     23 O                    -0.537515
     24 C                     0.086264
     25 O                    -0.519804
     26 H                     0.114264
     27 H                     0.119332
     28 H                     0.116180
     29 H                     0.239102
     30 H                     0.232730
     31 H                     0.095122
     32 H                     0.092271
     33 H                     0.358878
     34 H                     0.081503
     35 H                     0.091480
     36 H                     0.334781
  ----------------------------------------
  Sum of atomic charges =     0.000000

 -----------------------------------------------------------------
                    Cartesian Multipole Moments
 -----------------------------------------------------------------
    Charge (ESU x 10^10)
                 0.0000
    Dipole Moment (Debye)
         X      -0.0003      Y      -0.0000      Z      -0.0001
       Tot       0.0003
    Quadrupole Moments (Debye-Ang)
        XX     -72.8971     XY      -3.8630     YY     -94.0406
        XZ       6.5600     YZ       0.3795     ZZ     -86.4337
    Octopole Moments (Debye-Ang^2)
       XXX      -0.0024    XXY      -0.0005    XYY      -0.0007
       YYY      -0.0009    XXZ       0.0001    XYZ      -0.0005
       YYZ       0.0005    XZZ      -0.0003    YZZ       0.0001
       ZZZ      -0.0004
    Hexadecapole Moments (Debye-Ang^3)
      XXXX   -3072.1533   XXXY      17.9777   XXYY    -616.7177
      XYYY     -26.7497   YYYY    -731.8206   XXXZ     -14.1691
      XXYZ       1.6044   XYYZ      22.8415   YYYZ       2.5417
      XXZZ    -563.9946   XYZZ      -0.9826   YYZZ    -223.2167
      XZZZ      32.1085   YZZZ      -8.3456   ZZZZ    -509.2242
 -----------------------------------------------------------------
Archival summary:
1\1\tnxt-0665.cluster\SP\ProcedureUnspecified\BasisUnspecified\42822\peterli3\ThuSep1516:34:432022ThuSep1516:34:432022\0\\#,ProcedureUnspecified,BasisUnspecified,\\0,1\O\H,1,0.987965\C,1,1.39706,2,112.829\H,3,1.10561,1,105.866,2,-176.616,0\H,3,1.10859,1,111.06,2,67.6064,0\C,3,1.54303,1,115.706,2,-56.1152,0\N,6,1.46734,3,108.701,1,-42.1034,0\H,7,1.02104,6,111.59,3,-51.6202,0\H,7,1.02136,6,110.334,3,-170.917,0\C,6,1.53521,3,108.485,1,-164.147,0\H,10,1.10449,6,110.586,3,66.5741,0\H,10,1.10477,6,111.805,3,-53.8181,0\H,10,1.10535,6,110.709,3,-173.894,0\C,6,1.54199,3,110.313,1,76.9585,0\H,14,1.10455,6,108.204,3,71.2095,0\H,14,1.11316,6,108.355,3,-173.305,0\O,14,1.39302,6,114.421,3,-47.9599,0\H,17,0.985821,14,108.83,6,-69.6042,0\H,1,1.72855,2,91.9318,3,-126.879,0\O,19,0.985824,1,167.25,2,-0.774269,0\C,20,1.39302,19,108.83,1,-49.1938,0\H,21,1.10455,20,107.003,19,-170.554,0\H,21,1.11316,20,111.7,19,-53.9653,0\C,21,1.54199,20,114.421,19,69.6031,0\N,24,1.46734,21,108.675,20,-71.119,0\H,25,1.02104,24,111.589,21,171.707,0\H,25,1.02136,24,110.334,21,-68.9968,0\C,24,1.53521,21,108.645,20,166.756,0\H,28,1.10449,24,110.586,21,173.484,0\H,28,1.10477,24,111.805,21,-66.1235,0\H,28,1.10535,24,110.709,21,53.9524,0\C,24,1.54304,21,110.313,20,47.9596,0\H,32,1.10561,24,108.743,21,164.106,0\H,32,1.10859,24,108.116,21,48.2834,0\O,32,1.39706,24,115.706,21,-76.9638,0\H,35,0.987967,32,112.829,24,56.1196,0\\\@

 Total job time:  336.17s(wall), 1282.30s(cpu) 
 Thu Sep 15 16:34:43 2022

        *************************************************************
        *                                                           *
        *  Thank you very much for using Q-Chem.  Have a nice day.  *
        *                                                           *
        *************************************************************


remove work dirs /scratch/user/peterli3819/peterli3819/12613597_1663277317000000466497577/qchem52594.0 -- /scratch/user/peterli3819/peterli3819/12613597_1663277317000000466497577/qchem52594.-1
rm -rf /scratch/user/peterli3819/peterli3819/12613597_1663277317000000466497577/qchem52594
real 362.93
user 1867.10
sys 175.30
