 Entering Gaussian System, Link 0=g16
 Input=gaussian_test.inp
 Output=gaussian_test.log
 Initial command:
 /sw/restricted/lms/sw/Gaussian/g16_B01/g16/l1.exe "/scratch/user/peterchao1/peterchao1/6949348_1675442988000000901381711/Gau-111381.inp" -scrdir="/scratch/user/peterchao1/peterchao1/6949348_1675442988000000901381711/"
 Entering Link 1 = /sw/restricted/lms/sw/Gaussian/g16_B01/g16/l1.exe PID=    111388.
  
 Copyright (c) 1988-2017, Gaussian, Inc.  All Rights Reserved.
  
 This is part of the Gaussian(R) 16 program.  It is based on
 the Gaussian(R) 09 system (copyright 2009, Gaussian, Inc.),
 the Gaussian(R) 03 system (copyright 2003, Gaussian, Inc.),
 the Gaussian(R) 98 system (copyright 1998, Gaussian, Inc.),
 the Gaussian(R) 94 system (copyright 1995, Gaussian, Inc.),
 the Gaussian 92(TM) system (copyright 1992, Gaussian, Inc.),
 the Gaussian 90(TM) system (copyright 1990, Gaussian, Inc.),
 the Gaussian 88(TM) system (copyright 1988, Gaussian, Inc.),
 the Gaussian 86(TM) system (copyright 1986, Carnegie Mellon
 University), and the Gaussian 82(TM) system (copyright 1983,
 Carnegie Mellon University). Gaussian is a federally registered
 trademark of Gaussian, Inc.
  
 This software contains proprietary and confidential information,
 including trade secrets, belonging to Gaussian, Inc.
  
 This software is provided under written license and may be
 used, copied, transmitted, or stored only in accord with that
 written license.
  
 The following legend is applicable only to US Government
 contracts under FAR:
  
                    RESTRICTED RIGHTS LEGEND
  
 Use, reproduction and disclosure by the US Government is
 subject to restrictions as set forth in subparagraphs (a)
 and (c) of the Commercial Computer Software - Restricted
 Rights clause in FAR 52.227-19.
  
 Gaussian, Inc.
 340 Quinnipiac St., Bldg. 40, Wallingford CT 06492
  
  
 ---------------------------------------------------------------
 Warning -- This program may not be used in any manner that
 competes with the business of Gaussian, Inc. or will provide
 assistance to any competitor of Gaussian, Inc.  The licensee
 of this program is prohibited from giving any competitor of
 Gaussian, Inc. access to this program.  By using this program,
 the user acknowledges that Gaussian, Inc. is engaged in the
 business of creating and licensing software in the field of
 computational chemistry and represents and warrants to the
 licensee that it is not a competitor of Gaussian, Inc. and that
 it will not use this program in any manner prohibited above.
 ---------------------------------------------------------------
  

 Cite this work as:
 Gaussian 16, Revision B.01,
 M. J. Frisch, G. W. Trucks, H. B. Schlegel, G. E. Scuseria, 
 M. A. Robb, J. R. Cheeseman, G. Scalmani, V. Barone, 
 G. A. Petersson, H. Nakatsuji, X. Li, M. Caricato, A. V. Marenich, 
 J. Bloino, B. G. Janesko, R. Gomperts, B. Mennucci, H. P. Hratchian, 
 J. V. Ortiz, A. F. Izmaylov, J. L. Sonnenberg, D. Williams-Young, 
 F. Ding, F. Lipparini, F. Egidi, J. Goings, B. Peng, A. Petrone, 
 T. Henderson, D. Ranasinghe, V. G. Zakrzewski, J. Gao, N. Rega, 
 G. Zheng, W. Liang, M. Hada, M. Ehara, K. Toyota, R. Fukuda, 
 J. Hasegawa, M. Ishida, T. Nakajima, Y. Honda, O. Kitao, H. Nakai, 
 T. Vreven, K. Throssell, J. A. Montgomery, Jr., J. E. Peralta, 
 F. Ogliaro, M. J. Bearpark, J. J. Heyd, E. N. Brothers, K. N. Kudin, 
 V. N. Staroverov, T. A. Keith, R. Kobayashi, J. Normand, 
 K. Raghavachari, A. P. Rendell, J. C. Burant, S. S. Iyengar, 
 J. Tomasi, M. Cossi, J. M. Millam, M. Klene, C. Adamo, R. Cammi, 
 J. W. Ochterski, R. L. Martin, K. Morokuma, O. Farkas, 
 J. B. Foresman, and D. J. Fox, Gaussian, Inc., Wallingford CT, 2016.
 
 ******************************************
 Gaussian 16:  ES64L-G16RevB.01 20-Dec-2017
                 3-Feb-2023 
 ******************************************
 %nprocshared=4
 Will use up to    4 processors via shared memory.
 %mem=8000mb
 %chk=8.chk
 %nprocshared=4
 Will use up to    4 processors via shared memory.
 %mem=8000mb
 ----------------------------------------------------------------------
 #T wB97XD/def2svpp opt=tight freq int(grid=ultrafine) scf=(verytight,q
 c) Volume=tight
 ----------------------------------------------------------------------
 -----
 Dimer
 -----
 Symbolic Z-matrix:
 Charge =  0 Multiplicity = 1
 C                    -2.24365  -0.81015  -0.68781 
 C                    -1.93666   0.61287  -0.24025 
 O                    -1.17676   0.65212   0.95385 
 H                    -2.76473  -0.79348  -1.64074 
 H                    -2.87437  -1.31319   0.04382 
 H                    -1.31997  -1.37358  -0.79727 
 H                    -2.86767   1.18077  -0.10662 
 H                    -1.3252    1.1237   -0.98716 
 H                    -1.65177   0.16198   1.63511 
 C                     2.13306   0.90771  -0.7052 
 C                     2.25843  -0.31382   0.19997 
 O                     1.05267  -1.02518   0.31521 
 H                     3.09191   1.41182  -0.79108 
 H                     1.4056    1.60355  -0.29038 
 H                     1.8027    0.60633  -1.69682 
 H                     2.61032   0.00162   1.19464 
 H                     2.98487  -1.02002  -0.21181 
 H                     0.36134  -0.39401   0.5835 
 
 Add virtual bond connecting atoms H18        and O3         Dist= 3.58D+00.

 GradGradGradGradGradGradGradGradGradGradGradGradGradGradGradGradGradGrad
 Initialization pass.
                           ----------------------------
                           !    Initial Parameters    !
                           ! (Angstroms and Degrees)  !
 --------------------------                            --------------------------
 ! Name  Definition              Value          Derivative Info.                !
 --------------------------------------------------------------------------------
 ! R1    R(1,2)                  1.523          estimate D2E/DX2                !
 ! R2    R(1,4)                  1.0862         estimate D2E/DX2                !
 ! R3    R(1,5)                  1.0891         estimate D2E/DX2                !
 ! R4    R(1,6)                  1.0875         estimate D2E/DX2                !
 ! R5    R(2,3)                  1.4159         estimate D2E/DX2                !
 ! R6    R(2,7)                  1.0987         estimate D2E/DX2                !
 ! R7    R(2,8)                  1.0921         estimate D2E/DX2                !
 ! R8    R(3,9)                  0.9644         estimate D2E/DX2                !
 ! R9    R(3,18)                 1.8967         estimate D2E/DX2                !
 ! R10   R(10,11)                1.5255         estimate D2E/DX2                !
 ! R11   R(10,13)                1.0867         estimate D2E/DX2                !
 ! R12   R(10,14)                1.0888         estimate D2E/DX2                !
 ! R13   R(10,15)                1.0878         estimate D2E/DX2                !
 ! R14   R(11,12)                1.4047         estimate D2E/DX2                !
 ! R15   R(11,16)                1.1012         estimate D2E/DX2                !
 ! R16   R(11,17)                1.0936         estimate D2E/DX2                !
 ! R17   R(12,18)                0.9738         estimate D2E/DX2                !
 ! A1    A(2,1,4)              109.8868         estimate D2E/DX2                !
 ! A2    A(2,1,5)              110.5414         estimate D2E/DX2                !
 ! A3    A(2,1,6)              110.0268         estimate D2E/DX2                !
 ! A4    A(4,1,5)              108.579          estimate D2E/DX2                !
 ! A5    A(4,1,6)              109.0938         estimate D2E/DX2                !
 ! A6    A(5,1,6)              108.675          estimate D2E/DX2                !
 ! A7    A(1,2,3)              112.4515         estimate D2E/DX2                !
 ! A8    A(1,2,7)              110.3581         estimate D2E/DX2                !
 ! A9    A(1,2,8)              110.421          estimate D2E/DX2                !
 ! A10   A(3,2,7)              109.7466         estimate D2E/DX2                !
 ! A11   A(3,2,8)              105.2678         estimate D2E/DX2                !
 ! A12   A(7,2,8)              108.412          estimate D2E/DX2                !
 ! A13   A(2,3,9)              108.5014         estimate D2E/DX2                !
 ! A14   A(2,3,18)             104.7886         estimate D2E/DX2                !
 ! A15   A(9,3,18)             104.8955         estimate D2E/DX2                !
 ! A16   A(11,10,13)           110.2328         estimate D2E/DX2                !
 ! A17   A(11,10,14)           109.913          estimate D2E/DX2                !
 ! A18   A(11,10,15)           110.1207         estimate D2E/DX2                !
 ! A19   A(13,10,14)           108.8552         estimate D2E/DX2                !
 ! A20   A(13,10,15)           108.9326         estimate D2E/DX2                !
 ! A21   A(14,10,15)           108.7515         estimate D2E/DX2                !
 ! A22   A(10,11,12)           112.5596         estimate D2E/DX2                !
 ! A23   A(10,11,16)           109.4409         estimate D2E/DX2                !
 ! A24   A(10,11,17)           110.3803         estimate D2E/DX2                !
 ! A25   A(12,11,16)           110.1968         estimate D2E/DX2                !
 ! A26   A(12,11,17)           105.9057         estimate D2E/DX2                !
 ! A27   A(16,11,17)           108.2285         estimate D2E/DX2                !
 ! A28   A(11,12,18)           107.6836         estimate D2E/DX2                !
 ! A29   L(3,18,12,6,-1)       170.8709         estimate D2E/DX2                !
 ! A30   L(3,18,12,6,-2)       181.4687         estimate D2E/DX2                !
 ! D1    D(4,1,2,3)           -175.9938         estimate D2E/DX2                !
 ! D2    D(4,1,2,7)             61.1005         estimate D2E/DX2                !
 ! D3    D(4,1,2,8)            -58.7432         estimate D2E/DX2                !
 ! D4    D(5,1,2,3)             64.1802         estimate D2E/DX2                !
 ! D5    D(5,1,2,7)            -58.7255         estimate D2E/DX2                !
 ! D6    D(5,1,2,8)           -178.5692         estimate D2E/DX2                !
 ! D7    D(6,1,2,3)            -55.8548         estimate D2E/DX2                !
 ! D8    D(6,1,2,7)           -178.7606         estimate D2E/DX2                !
 ! D9    D(6,1,2,8)             61.3958         estimate D2E/DX2                !
 ! D10   D(1,2,3,9)            -56.1835         estimate D2E/DX2                !
 ! D11   D(1,2,3,18)            55.4516         estimate D2E/DX2                !
 ! D12   D(7,2,3,9)             67.065          estimate D2E/DX2                !
 ! D13   D(7,2,3,18)           178.7001         estimate D2E/DX2                !
 ! D14   D(8,2,3,9)           -176.4576         estimate D2E/DX2                !
 ! D15   D(8,2,3,18)           -64.8225         estimate D2E/DX2                !
 ! D16   D(2,3,12,11)          110.9878         estimate D2E/DX2                !
 ! D17   D(9,3,12,11)         -136.0707         estimate D2E/DX2                !
 ! D18   D(13,10,11,12)       -178.3216         estimate D2E/DX2                !
 ! D19   D(13,10,11,16)         58.7844         estimate D2E/DX2                !
 ! D20   D(13,10,11,17)        -60.2278         estimate D2E/DX2                !
 ! D21   D(14,10,11,12)         61.6883         estimate D2E/DX2                !
 ! D22   D(14,10,11,16)        -61.2057         estimate D2E/DX2                !
 ! D23   D(14,10,11,17)        179.782          estimate D2E/DX2                !
 ! D24   D(15,10,11,12)        -58.103          estimate D2E/DX2                !
 ! D25   D(15,10,11,16)        179.003          estimate D2E/DX2                !
 ! D26   D(15,10,11,17)         59.9907         estimate D2E/DX2                !
 ! D27   D(10,11,12,18)        -52.9266         estimate D2E/DX2                !
 ! D28   D(16,11,12,18)         69.5428         estimate D2E/DX2                !
 ! D29   D(17,11,12,18)       -173.6238         estimate D2E/DX2                !
 --------------------------------------------------------------------------------
 Number of steps in this run=     86 maximum allowed number of steps=    108.
 GradGradGradGradGradGradGradGradGradGradGradGradGradGradGradGradGradGrad

                    Distance matrix (angstroms):
                    1          2          3          4          5
     1  C    0.000000
     2  C    1.523003   0.000000
     3  O    2.443670   1.415932   0.000000
     4  H    1.086221   2.150555   3.367980   0.000000
     5  H    1.089102   2.160951   2.751808   1.766312   0.000000
     6  H    1.087487   2.153268   2.681487   1.770682   1.768403
     7  H    2.165861   1.098706   2.064761   2.502356   2.498503
     8  H    2.161695   1.092107   2.002989   2.484951   3.066149
     9  H    2.586757   1.949733   0.964361   3.589256   2.490592
    10  C    4.701805   4.106790   3.711161   5.268558   5.528817
    11  C    4.615541   4.318716   3.647182   5.371261   5.231516
    12  O    3.452251   3.453672   2.862094   4.295581   3.946932
    13  H    5.780662   5.121352   4.673705   6.315503   6.612054
    14  H    4.393281   3.486351   3.020255   4.996088   5.190106
    15  H    4.404257   4.013034   3.988154   4.777456   5.346905
    16  H    5.269120   4.807033   3.850083   6.128847   5.756296
    17  H    5.254337   5.185420   4.634007   5.928836   5.872138
    18  H    2.928369   2.640672   1.896655   3.857344   3.406748
                    6          7          8          9         10
     6  H    0.000000
     7  H    3.065469   0.000000
     8  H    2.504494   1.777028   0.000000
     9  H    2.895600   2.355838   2.812098   0.000000
    10  C    4.139588   5.043826   3.476456   4.512003   0.000000
    11  C    3.862964   5.348337   4.039573   4.192343   1.525509
    12  O    2.643559   4.518104   3.459501   3.235048   2.438144
    13  H    5.217584   6.003207   4.430842   5.472759   1.086690
    14  H    4.068040   4.298064   2.858854   3.890142   1.088788
    15  H    3.805299   4.967002   3.248857   4.820024   1.087788
    16  H    4.615845   5.752571   4.637637   4.287797   2.158278
    17  H    4.358829   6.253542   4.875800   5.129010   2.164522
    18  H    2.385967   3.658235   2.759497   2.338298   2.548378
                   11         12         13         14         15
    11  C    0.000000
    12  O    1.404694   0.000000
    13  H    2.157474   3.364720   0.000000
    14  H    2.155006   2.720572   1.769492   0.000000
    15  H    2.156883   2.696779   1.769533   1.769239   0.000000
    16  H    1.101229   2.062518   2.482674   2.494557   3.062425
    17  H    1.093617   2.002789   2.502170   3.063229   2.499552
    18  H    1.937135   0.973807   3.550567   2.417518   2.877160
                   16         17         18
    16  H    0.000000
    17  H    1.778241   0.000000
    18  H    2.363886   2.811999   0.000000
 Framework group  C1[X(C4H12O2)]
 Deg. of freedom    48
                         Standard orientation:                         
 ---------------------------------------------------------------------
 Center     Atomic      Atomic             Coordinates (Angstroms)
 Number     Number       Type             X           Y           Z
 ---------------------------------------------------------------------
      1          6           0        2.258785    0.727352   -0.698660
      2          6           0        1.917848   -0.657184   -0.163534
      3          8           0        1.153290   -0.603587    1.027030
      4          1           0        2.782516    0.638629   -1.646135
      5          1           0        2.898405    1.261299    0.002717
      6          1           0        1.348594    1.303466   -0.847904
      7          1           0        2.835184   -1.236392    0.010158
      8          1           0        1.297360   -1.200304   -0.879573
      9          1           0        1.637117   -0.082176    1.678209
     10          6           0       -2.155980   -0.888775   -0.628300
     11          6           0       -2.256394    0.390117    0.197248
     12          8           0       -1.035078    1.079904    0.273048
     13          1           0       -3.125815   -1.375500   -0.686717
     14          1           0       -1.446003   -1.573229   -0.166876
     15          1           0       -1.815522   -0.658299   -1.635400
     16          1           0       -2.618711    0.146302    1.208181
     17          1           0       -2.965125    1.085084   -0.261794
     18          1           0       -0.359248    0.451511    0.583978
 ---------------------------------------------------------------------
 Rotational constants (GHZ):           4.9709795           1.3883509           1.3202646
   108 basis functions,   198 primitive gaussians,   114 cartesian basis functions
    26 alpha electrons       26 beta electrons
       nuclear repulsion energy       258.0321943010 Hartrees.
 NAtoms=   18 NActive=   18 NUniq=   18 SFac= 1.00D+00 NAtFMM=   60 NAOKFM=F Big=F
 Nuclear repulsion after empirical dispersion term =      258.0236056387 Hartrees.
   1 Symmetry operations used in ECPInt.
 ECPInt:  NShTT=    1830 NPrTT=    7374 LenC2=    1822 LenP2D=    5884.
 LDataN:  DoStor=T MaxTD1= 4 Len=   56
 ExpMin= 1.22D-01 ExpMax= 2.27D+03 ExpMxC= 3.41D+02 IAcc=3 IRadAn=         5 AccDes= 0.00D+00
 Harris functional with IExCor= 4639 and IRadAn=       5 diagonalized for initial guess.
 HarFok:  IExCor= 4639 AccDes= 0.00D+00 IRadAn=         5 IDoV= 1 UseB2=F ITyADJ=14
 ICtDFT=  3500011 ScaDFX=  1.000000  1.000000  1.000000  1.000000
 FoFCou: FMM=F IPFlag=           0 FMFlag=      100000 FMFlg1=           0
         NFxFlg=           0 DoJE=T BraDBF=F KetDBF=T FulRan=T
         wScrn=  0.000000 ICntrl=       500 IOpCl=  0 I1Cent=   200000004 NGrid=           0
         NMat0=    1 NMatS0=      1 NMatT0=    0 NMatD0=    1 NMtDS0=    0 NMtDT0=    0
 Petite list used in FoFCou.
     Minimum is close to point  3 DX= -2.60D-02 DF= -1.13D-04 DXR=  4.54D-02 DFR=  2.04D-03 which will be used.
     Accept linear search using points  2 and  3.
     Accept linear search using points  1 and  2.
     Minimum is close to point  2 DX=  1.35D-04 DF= -7.39D-13 DXR=  1.35D-04 DFR=  1.89D-08 which will be used.
 SCF Done:  E(RwB97XD) =  -309.727602472     a.u. after    7 cycles
            Convg  =    0.2895D-09                    33 Fock formations.
              S**2 =  0.0000                  -V/T =  2.0083

 **********************************************************************

            Population analysis using the SCF Density.

 **********************************************************************

 Orbital symmetries:
       Occupied  (A) (A) (A) (A) (A) (A) (A) (A) (A) (A) (A) (A)
                 (A) (A) (A) (A) (A) (A) (A) (A) (A) (A) (A) (A)
                 (A) (A)
       Virtual   (A) (A) (A) (A) (A) (A) (A) (A) (A) (A) (A) (A)
                 (A) (A) (A) (A) (A) (A) (A) (A) (A) (A) (A) (A)
                 (A) (A) (A) (A) (A) (A) (A) (A) (A) (A) (A) (A)
                 (A) (A) (A) (A) (A) (A) (A) (A) (A) (A) (A) (A)
                 (A) (A) (A) (A) (A) (A) (A) (A) (A) (A) (A) (A)
                 (A) (A) (A) (A) (A) (A) (A) (A) (A) (A) (A) (A)
                 (A) (A) (A) (A) (A) (A) (A) (A) (A) (A)
 The electronic state is 1-A.
 Alpha  occ. eigenvalues --  -19.27289 -19.21630 -10.34665 -10.31682 -10.28413
 Alpha  occ. eigenvalues --  -10.26769  -1.13340  -1.08231  -0.84878  -0.82274
 Alpha  occ. eigenvalues --   -0.72831  -0.69802  -0.60963  -0.57249  -0.55538
 Alpha  occ. eigenvalues --   -0.53639  -0.52417  -0.50662  -0.47699  -0.46929
 Alpha  occ. eigenvalues --   -0.45150  -0.44182  -0.42477  -0.39052  -0.36989
 Alpha  occ. eigenvalues --   -0.32971
 Alpha virt. eigenvalues --    0.12115   0.15722   0.16746   0.18495   0.19846
 Alpha virt. eigenvalues --    0.20673   0.21760   0.22787   0.23028   0.24891
 Alpha virt. eigenvalues --    0.25863   0.26870   0.28364   0.31371   0.32068
 Alpha virt. eigenvalues --    0.35746   0.50946   0.52391   0.52961   0.54801
 Alpha virt. eigenvalues --    0.55376   0.57260   0.59627   0.63291   0.67793
 Alpha virt. eigenvalues --    0.68629   0.70076   0.71901   0.75289   0.76635
 Alpha virt. eigenvalues --    0.77630   0.78600   0.79559   0.79619   0.80980
 Alpha virt. eigenvalues --    0.81564   0.82227   0.83241   0.83699   0.84838
 Alpha virt. eigenvalues --    0.85803   0.91048   0.99893   1.05153   1.12134
 Alpha virt. eigenvalues --    1.20446   1.22024   1.24086   1.26835   1.43233
 Alpha virt. eigenvalues --    1.54407   1.57600   1.59768   1.61649   1.68108
 Alpha virt. eigenvalues --    1.75885   1.92700   1.94517   1.99578   1.99789
 Alpha virt. eigenvalues --    2.03110   2.04011   2.20134   2.22009   2.24016
 Alpha virt. eigenvalues --    2.25527   2.27672   2.30447   2.32717   2.34255
 Alpha virt. eigenvalues --    2.57555   2.59910   2.69753   2.74606   2.88949
 Alpha virt. eigenvalues --    2.95722   3.00424   3.06079   3.07319   3.15951
 Alpha virt. eigenvalues --    3.42410   3.48902
          Condensed to atoms (all electrons):
 Mulliken charges:
               1
     1  C   -0.371877
     2  C   -0.026900
     3  O   -0.497402
     4  H    0.123489
     5  H    0.110699
     6  H    0.152984
     7  H    0.106497
     8  H    0.121921
     9  H    0.326831
    10  C   -0.370994
    11  C    0.001518
    12  O   -0.532308
    13  H    0.111526
    14  H    0.123051
    15  H    0.118060
    16  H    0.082325
    17  H    0.097088
    18  H    0.323490
 Sum of Mulliken charges =   0.00000
 Mulliken charges with hydrogens summed into heavy atoms:
               1
     1  C    0.015296
     2  C    0.201519
     3  O   -0.170571
    10  C   -0.018357
    11  C    0.180931
    12  O   -0.208819
 Electronic spatial extent (au):  <R**2>=            995.2587
 Charge=              0.0000 electrons
 Dipole moment (field-independent basis, Debye):
    X=              2.0797    Y=             -1.0422    Z=              0.1972  Tot=              2.3346
 Evaluate density.
 Using the total density.
 Monte-Carlo method of calculating molar volume:
 based on  0.001 e/bohr**3 density envelope.
 Number of points per bohr**3 =  100 CutOff= 1.00D-04
 Using the SCF density.
 There are      1722 points.  Will hold      1722 in memory.
 LenV=  1048360363 MDV=  1048576000.
 Box volume = 5111.087 fraction occupied=0.188
 Integrated density= 4.0821249659846011D+01 error=-1.1178750340153989D+01
 Molar volume =  958.700 bohr**3/mol ( 85.553 cm**3/mol)
 Recommended a0 for SCRF calculation =  4.06 angstrom (  7.68 bohr)
   1 Symmetry operations used in ECPInt.
 ECPInt:  NShTT=    1830 NPrTT=    7374 LenC2=    1822 LenP2D=    5884.
 LDataN:  DoStor=T MaxTD1= 5 Len=  102
 Calling FoFJK, ICntrl=      2127 FMM=F ISym2X=0 I1Cent= 0 IOpClX= 0 NMat=1 NMatS=1 NMatT=0.

 GradGradGradGradGradGradGradGradGradGradGradGradGradGradGradGradGradGrad
 FormGI is forming the generalized inverse of G from B-inverse, IUseBI=4.
 Internal  Forces:  Max     0.011849253 RMS     0.003565957
 Step number   1 out of a maximum of   86
 All quantities printed in internal units (Hartrees-Bohrs-Radians)
 Mixed Optimization -- RFO/linear search
 Second derivative matrix not updated -- first step.
 ITU=  0
     Eigenvalues ---    0.00230   0.00429   0.00462   0.01364   0.01375
     Eigenvalues ---    0.01481   0.01630   0.04433   0.04899   0.05083
     Eigenvalues ---    0.05136   0.05526   0.05712   0.05719   0.05751
     Eigenvalues ---    0.05765   0.05820   0.09721   0.11771   0.11813
     Eigenvalues ---    0.12921   0.13996   0.16000   0.16000   0.16000
     Eigenvalues ---    0.16000   0.16000   0.16000   0.16000   0.16000
     Eigenvalues ---    0.22002   0.22064   0.29842   0.30079   0.33547
     Eigenvalues ---    0.33826   0.34398   0.34570   0.34917   0.34953
     Eigenvalues ---    0.35070   0.35105   0.35198   0.35253   0.43079
     Eigenvalues ---    0.44851   0.52606   0.54546
 Linear search not attempted -- first point.
 Iteration  1 RMS(Cart)=  0.13989565 RMS(Int)=  0.00456296
 Iteration  2 RMS(Cart)=  0.01910614 RMS(Int)=  0.00008798
 Iteration  3 RMS(Cart)=  0.00007133 RMS(Int)=  0.00007409
 Iteration  4 RMS(Cart)=  0.00000000 RMS(Int)=  0.00007409
 Variable       Old X    -DE/DX   Delta X   Delta X   Delta X     New X
                                 (Linear)    (Quad)   (Total)
    R1        2.87806  -0.00009   0.00000  -0.00029  -0.00029   2.87777
    R2        2.05266   0.01163   0.00000   0.03262   0.03262   2.08528
    R3        2.05810   0.01084   0.00000   0.03071   0.03071   2.08882
    R4        2.05505   0.01062   0.00000   0.02992   0.02992   2.08497
    R5        2.67572   0.00289   0.00000   0.00664   0.00664   2.68236
    R6        2.07625   0.00561   0.00000   0.01641   0.01641   2.09266
    R7        2.06378   0.00605   0.00000   0.01732   0.01732   2.08110
    R8        1.82238   0.00342   0.00000   0.00623   0.00623   1.82860
    R9        3.58416  -0.00229   0.00000  -0.04135  -0.04135   3.54281
   R10        2.88279   0.00033   0.00000   0.00110   0.00110   2.88390
   R11        2.05355   0.01185   0.00000   0.03330   0.03330   2.08684
   R12        2.05751   0.01074   0.00000   0.03039   0.03039   2.08790
   R13        2.05562   0.01069   0.00000   0.03015   0.03015   2.08577
   R14        2.65449   0.00091   0.00000   0.00201   0.00201   2.65650
   R15        2.08102   0.00592   0.00000   0.01745   0.01745   2.09847
   R16        2.06664   0.00614   0.00000   0.01766   0.01766   2.08429
   R17        1.84023   0.00039   0.00000   0.00072   0.00072   1.84095
    A1        1.91789   0.00196   0.00000   0.01148   0.01146   1.92935
    A2        1.92931   0.00115   0.00000   0.00713   0.00712   1.93643
    A3        1.92033  -0.00075   0.00000  -0.00417  -0.00416   1.91617
    A4        1.89506  -0.00170   0.00000  -0.01119  -0.01122   1.88384
    A5        1.90405  -0.00064   0.00000  -0.00410  -0.00409   1.89995
    A6        1.89674  -0.00008   0.00000   0.00050   0.00051   1.89724
    A7        1.96265   0.00039   0.00000   0.00505   0.00499   1.96764
    A8        1.92611   0.00085   0.00000   0.00969   0.00963   1.93574
    A9        1.92721  -0.00039   0.00000  -0.00545  -0.00543   1.92178
   A10        1.91544  -0.00010   0.00000   0.00525   0.00515   1.92059
   A11        1.83727   0.00011   0.00000  -0.00047  -0.00046   1.83681
   A12        1.89215  -0.00095   0.00000  -0.01544  -0.01541   1.87673
   A13        1.89371   0.00224   0.00000   0.01818   0.01852   1.91223
   A14        1.82891  -0.00227   0.00000  -0.01275  -0.01265   1.81626
   A15        1.83077   0.00001   0.00000   0.00013   0.00015   1.83092
   A16        1.92393   0.00254   0.00000   0.01631   0.01626   1.94019
   A17        1.91834   0.00105   0.00000   0.00540   0.00537   1.92372
   A18        1.92197   0.00008   0.00000   0.00071   0.00069   1.92266
   A19        1.89988  -0.00188   0.00000  -0.01182  -0.01187   1.88801
   A20        1.90123  -0.00111   0.00000  -0.00489  -0.00493   1.89630
   A21        1.89807  -0.00077   0.00000  -0.00623  -0.00623   1.89184
   A22        1.96454  -0.00105   0.00000  -0.00017  -0.00017   1.96436
   A23        1.91010  -0.00005   0.00000  -0.00197  -0.00206   1.90805
   A24        1.92650  -0.00050   0.00000  -0.00805  -0.00810   1.91840
   A25        1.92330   0.00157   0.00000   0.01792   0.01790   1.94120
   A26        1.84840   0.00132   0.00000   0.01189   0.01190   1.86030
   A27        1.88894  -0.00128   0.00000  -0.02019  -0.02033   1.86861
   A28        1.87943   0.00115   0.00000   0.00700   0.00700   1.88643
   A29        2.98226  -0.00144   0.00000  -0.07662  -0.07658   2.90568
   A30        3.16723  -0.00235   0.00000  -0.13575  -0.13577   3.03146
    D1       -3.07167   0.00003   0.00000  -0.01189  -0.01185  -3.08352
    D2        1.06640  -0.00073   0.00000  -0.02936  -0.02938   1.03703
    D3       -1.02526   0.00016   0.00000  -0.01287  -0.01285  -1.03812
    D4        1.12016   0.00016   0.00000  -0.00985  -0.00984   1.11032
    D5       -1.02495  -0.00061   0.00000  -0.02733  -0.02736  -1.05232
    D6       -3.11662   0.00028   0.00000  -0.01083  -0.01084  -3.12746
    D7       -0.97485   0.00000   0.00000  -0.01234  -0.01232  -0.98717
    D8       -3.11996  -0.00076   0.00000  -0.02981  -0.02984   3.13338
    D9        1.07156   0.00013   0.00000  -0.01332  -0.01332   1.05824
   D10       -0.98059  -0.00079   0.00000  -0.02754  -0.02757  -1.00816
   D11        0.96781  -0.00090   0.00000  -0.02573  -0.02572   0.94209
   D12        1.17050   0.00051   0.00000  -0.00768  -0.00769   1.16281
   D13        3.11890   0.00039   0.00000  -0.00588  -0.00584   3.11307
   D14       -3.07977  -0.00060   0.00000  -0.02342  -0.02345  -3.10321
   D15       -1.13137  -0.00071   0.00000  -0.02162  -0.02160  -1.15296
   D16        1.93710  -0.00173   0.00000  -0.15881  -0.15848   1.77862
   D17       -2.37488  -0.00015   0.00000  -0.14516  -0.14548  -2.52037
   D18       -3.11230   0.00010   0.00000   0.00421   0.00422  -3.10808
   D19        1.02598  -0.00115   0.00000  -0.01725  -0.01721   1.00877
   D20       -1.05117   0.00076   0.00000   0.01369   0.01366  -1.03752
   D21        1.07666   0.00015   0.00000   0.00514   0.00513   1.08180
   D22       -1.06824  -0.00110   0.00000  -0.01632  -0.01630  -1.08454
   D23        3.13779   0.00081   0.00000   0.01462   0.01457  -3.13083
   D24       -1.01409   0.00039   0.00000   0.00901   0.00902  -1.00507
   D25        3.12419  -0.00086   0.00000  -0.01246  -0.01241   3.11178
   D26        1.04704   0.00105   0.00000   0.01848   0.01846   1.06549
   D27       -0.92374  -0.00041   0.00000  -0.01302  -0.01305  -0.93679
   D28        1.21375  -0.00007   0.00000  -0.00266  -0.00265   1.21110
   D29       -3.03031  -0.00005   0.00000  -0.01080  -0.01078  -3.04109
         Item               Value     Threshold  Converged?
 Maximum Force            0.011849     0.000015     NO 
 RMS     Force            0.003566     0.000010     NO 
 Maximum Displacement     0.563160     0.000060     NO 
 RMS     Displacement     0.153997     0.000040     NO 
 GradGradGradGradGradGradGradGradGradGradGradGradGradGradGradGradGradGrad

                    Distance matrix (angstroms):
                    1          2          3          4          5
     1  C    0.000000
     2  C    1.522852   0.000000
     3  O    2.450484   1.419446   0.000000
     4  H    1.103484   2.171671   3.395256   0.000000
     5  H    1.105355   2.178206   2.768204   1.786265   0.000000
     6  H    1.103319   2.161950   2.696627   1.795019   1.794798
     7  H    2.179245   1.107389   2.078103   2.522812   2.535474
     8  H    2.164510   1.101272   2.012344   2.508003   3.089454
     9  H    2.622258   1.967485   0.967656   3.639447   2.530943
    10  C    4.387021   3.787241   3.545003   4.912319   5.278311
    11  C    4.414271   4.129255   3.577741   5.139204   5.099524
    12  O    3.336275   3.355932   2.827319   4.182522   3.863087
    13  H    5.468688   4.805439   4.533723   5.935147   6.377419
    14  H    4.141927   3.198940   2.843965   4.730342   4.980477
    15  H    3.976448   3.600946   3.769764   4.286048   4.981001
    16  H    5.175714   4.716804   3.868479   6.003735   5.744303
    17  H    5.025609   4.980660   4.572943   5.644085   5.723691
    18  H    2.888777   2.612074   1.874774   3.844953   3.364265
                    6          7          8          9         10
     6  H    0.000000
     7  H    3.089843   0.000000
     8  H    2.503978   1.781495   0.000000
     9  H    2.946338   2.380735   2.833641   0.000000
    10  C    3.856950   4.713120   3.075722   4.398470   0.000000
    11  C    3.646867   5.175685   3.777587   4.192211   1.526093
    12  O    2.507837   4.439423   3.341963   3.241796   2.439368
    13  H    4.939649   5.661974   4.011151   5.395722   1.104310
    14  H    3.866587   3.990259   2.514891   3.752740   1.104871
    15  H    3.438347   4.525118   2.766618   4.636861   1.103744
    16  H    4.492227   5.690889   4.452493   4.392147   2.164164
    17  H    4.111361   6.060297   4.586146   5.146534   2.166159
    18  H    2.346159   3.640701   2.748315   2.320419   2.560741
                   11         12         13         14         15
    11  C    0.000000
    12  O    1.405758   0.000000
    13  H    2.182978   3.389590   0.000000
    14  H    2.171471   2.735692   1.789246   0.000000
    15  H    2.169854   2.701453   1.793688   1.791265   0.000000
    16  H    1.110464   2.083134   2.502574   2.516971   3.084319
    17  H    1.102959   2.019391   2.518433   3.084748   2.513400
    18  H    1.943043   0.974187   3.583870   2.439224   2.892890
                   16         17         18
    16  H    0.000000
    17  H    1.780012   0.000000
    18  H    2.388931   2.831178   0.000000
 Framework group  C1[X(C4H12O2)]
 Deg. of freedom    48
                         Standard orientation:                         
 ---------------------------------------------------------------------
 Center     Atomic      Atomic             Coordinates (Angstroms)
 Number     Number       Type             X           Y           Z
 ---------------------------------------------------------------------
      1          6           0        2.112515    0.686360   -0.786638
      2          6           0        1.798343   -0.652519   -0.132594
      3          8           0        1.130600   -0.511835    1.112056
      4          1           0        2.576485    0.534500   -1.776258
      5          1           0        2.815408    1.273340   -0.167602
      6          1           0        1.183106    1.267165   -0.913827
      7          1           0        2.718523   -1.254971   -0.003633
      8          1           0        1.109091   -1.231415   -0.767111
      9          1           0        1.671361    0.021805    1.711358
     10          6           0       -1.949182   -0.959280   -0.585525
     11          6           0       -2.194433    0.367849    0.126894
     12          8           0       -1.019045    1.124108    0.277523
     13          1           0       -2.891506   -1.518666   -0.721954
     14          1           0       -1.257853   -1.587438    0.004577
     15          1           0       -1.497771   -0.781131   -1.576859
     16          1           0       -2.676520    0.174422    1.108377
     17          1           0       -2.893551    0.986192   -0.460818
     18          1           0       -0.352673    0.563555    0.714294
 ---------------------------------------------------------------------
 Rotational constants (GHZ):           4.7417916           1.5132285           1.4447171
   108 basis functions,   198 primitive gaussians,   114 cartesian basis functions
    26 alpha electrons       26 beta electrons
       nuclear repulsion energy       260.9635733611 Hartrees.
 NAtoms=   18 NActive=   18 NUniq=   18 SFac= 1.00D+00 NAtFMM=   60 NAOKFM=F Big=F
 Nuclear repulsion after empirical dispersion term =      260.9543178167 Hartrees.
   1 Symmetry operations used in ECPInt.
 ECPInt:  NShTT=    1830 NPrTT=    7374 LenC2=    1822 LenP2D=    5922.
 LDataN:  DoStor=T MaxTD1= 4 Len=   56
 Initial guess from the checkpoint file:  "8.chk"
 B after Tr=     0.000000   -0.000000   -0.000000
         Rot=    0.999415    0.033221    0.000753   -0.008150 Ang=   3.92 deg.
 ExpMin= 1.22D-01 ExpMax= 2.27D+03 ExpMxC= 3.41D+02 IAcc=3 IRadAn=         5 AccDes= 0.00D+00
 Harris functional with IExCor= 4639 and IRadAn=       5 diagonalized for initial guess.
 HarFok:  IExCor= 4639 AccDes= 0.00D+00 IRadAn=         5 IDoV= 1 UseB2=F ITyADJ=14
 ICtDFT=  3500011 ScaDFX=  1.000000  1.000000  1.000000  1.000000
 FoFCou: FMM=F IPFlag=           0 FMFlag=      100000 FMFlg1=           0
         NFxFlg=           0 DoJE=T BraDBF=F KetDBF=T FulRan=T
         wScrn=  0.000000 ICntrl=       500 IOpCl=  0 I1Cent=   200000004 NGrid=           0
         NMat0=    1 NMatS0=      1 NMatT0=    0 NMatD0=    1 NMtDS0=    0 NMtDT0=    0
 Petite list used in FoFCou.
     Minimum is close to point  4 DX=  1.27D-01 DF= -1.06D-04 DXR=  9.59D-02 DFR=  9.29D-03 which will be used.
     Accept linear search using points  2 and  3.
     Accept linear search using points  1 and  2.
     Accept linear search using points  1 and  2.
     Accept linear search using points  1 and  2.
     Accept linear search using points  1 and  2.
     Minimum is close to point  2 DX= -2.04D-04 DF= -3.18D-12 DXR=  2.04D-04 DFR=  4.19D-08 which will be used.
 SCF Done:  E(RwB97XD) =  -309.729676927     a.u. after   10 cycles
            Convg  =    0.4557D-09                    41 Fock formations.
              S**2 =  0.0000                  -V/T =  2.0090
   1 Symmetry operations used in ECPInt.
 ECPInt:  NShTT=    1830 NPrTT=    7374 LenC2=    1822 LenP2D=    5922.
 LDataN:  DoStor=T MaxTD1= 5 Len=  102
 Calling FoFJK, ICntrl=      2127 FMM=F ISym2X=0 I1Cent= 0 IOpClX= 0 NMat=1 NMatS=1 NMatT=0.

 GradGradGradGradGradGradGradGradGradGradGradGradGradGradGradGradGradGrad
 Using GEDIIS/GDIIS optimizer.
 FormGI is forming the generalized inverse of G from B-inverse, IUseBI=4.
 Internal  Forces:  Max     0.002219727 RMS     0.000546373
 Step number   2 out of a maximum of   86
 All quantities printed in internal units (Hartrees-Bohrs-Radians)
 Mixed Optimization -- En-DIIS/RFO-DIIS
 Trust test= 9.82D-01 RLast= 3.00D-01 DXMaxT set to 5.05D-01
 ITU=  1  0
 Use linear search instead of GDIIS.
     Eigenvalues ---    0.00244   0.00428   0.00462   0.01360   0.01459
     Eigenvalues ---    0.01507   0.01628   0.04376   0.04848   0.05024
     Eigenvalues ---    0.05091   0.05506   0.05597   0.05652   0.05713
     Eigenvalues ---    0.05729   0.05835   0.09753   0.11677   0.11851
     Eigenvalues ---    0.12977   0.14010   0.15523   0.16000   0.16000
     Eigenvalues ---    0.16000   0.16000   0.16000   0.16000   0.16146
     Eigenvalues ---    0.21967   0.22112   0.29712   0.29930   0.33329
     Eigenvalues ---    0.33784   0.34151   0.34511   0.34600   0.34949
     Eigenvalues ---    0.35013   0.35156   0.35213   0.35235   0.43160
     Eigenvalues ---    0.45373   0.52743   0.54528
 Quartic linear search produced a step of  0.01122.
 Iteration  1 RMS(Cart)=  0.05330173 RMS(Int)=  0.00083329
 Iteration  2 RMS(Cart)=  0.00138184 RMS(Int)=  0.00000530
 Iteration  3 RMS(Cart)=  0.00000090 RMS(Int)=  0.00000529
 Variable       Old X    -DE/DX   Delta X   Delta X   Delta X     New X
                                 (Linear)    (Quad)   (Total)
    R1        2.87777  -0.00135  -0.00000  -0.00455  -0.00455   2.87322
    R2        2.08528  -0.00004   0.00037   0.00039   0.00075   2.08603
    R3        2.08882   0.00019   0.00034   0.00100   0.00135   2.09017
    R4        2.08497  -0.00036   0.00034  -0.00059  -0.00025   2.08472
    R5        2.68236  -0.00067   0.00007  -0.00147  -0.00140   2.68097
    R6        2.09266  -0.00002   0.00018   0.00019   0.00037   2.09303
    R7        2.08110  -0.00022   0.00019  -0.00039  -0.00020   2.08091
    R8        1.82860   0.00009   0.00007   0.00027   0.00034   1.82894
    R9        3.54281  -0.00068  -0.00046  -0.01387  -0.01434   3.52847
   R10        2.88390  -0.00074   0.00001  -0.00248  -0.00246   2.88143
   R11        2.08684  -0.00007   0.00037   0.00030   0.00068   2.08752
   R12        2.08790  -0.00006   0.00034   0.00029   0.00063   2.08854
   R13        2.08577   0.00017   0.00034   0.00094   0.00128   2.08705
   R14        2.65650  -0.00222   0.00002  -0.00497  -0.00494   2.65155
   R15        2.09847   0.00017   0.00020   0.00077   0.00096   2.09943
   R16        2.08429   0.00007   0.00020   0.00047   0.00067   2.08496
   R17        1.84095   0.00168   0.00001   0.00324   0.00325   1.84420
    A1        1.92935   0.00010   0.00013   0.00044   0.00057   1.92992
    A2        1.93643   0.00044   0.00008   0.00258   0.00266   1.93909
    A3        1.91617  -0.00016  -0.00005  -0.00040  -0.00045   1.91572
    A4        1.88384  -0.00042  -0.00013  -0.00405  -0.00417   1.87967
    A5        1.89995   0.00010  -0.00005   0.00119   0.00114   1.90110
    A6        1.89724  -0.00007   0.00001   0.00018   0.00018   1.89743
    A7        1.96764   0.00041   0.00006   0.00240   0.00245   1.97009
    A8        1.93574   0.00010   0.00011   0.00107   0.00118   1.93692
    A9        1.92178   0.00032  -0.00006   0.00452   0.00446   1.92623
   A10        1.92059  -0.00042   0.00006  -0.00419  -0.00414   1.91645
   A11        1.83681  -0.00028  -0.00001  -0.00093  -0.00094   1.83587
   A12        1.87673  -0.00018  -0.00017  -0.00320  -0.00338   1.87335
   A13        1.91223  -0.00123   0.00021  -0.00905  -0.00883   1.90340
   A14        1.81626   0.00042  -0.00014   0.00338   0.00325   1.81951
   A15        1.83092   0.00080   0.00000   0.00929   0.00930   1.84023
   A16        1.94019   0.00032   0.00018   0.00166   0.00184   1.94203
   A17        1.92372   0.00056   0.00006   0.00386   0.00391   1.92763
   A18        1.92266   0.00037   0.00001   0.00274   0.00275   1.92541
   A19        1.88801  -0.00054  -0.00013  -0.00432  -0.00446   1.88355
   A20        1.89630  -0.00041  -0.00006  -0.00310  -0.00316   1.89315
   A21        1.89184  -0.00035  -0.00007  -0.00112  -0.00120   1.89064
   A22        1.96436   0.00128  -0.00000   0.00685   0.00684   1.97121
   A23        1.90805  -0.00003  -0.00002   0.00102   0.00099   1.90904
   A24        1.91840  -0.00002  -0.00009   0.00055   0.00046   1.91886
   A25        1.94120  -0.00056   0.00020  -0.00177  -0.00158   1.93962
   A26        1.86030  -0.00053   0.00013  -0.00219  -0.00207   1.85823
   A27        1.86861  -0.00022  -0.00023  -0.00514  -0.00537   1.86324
   A28        1.88643   0.00148   0.00008   0.00944   0.00952   1.89595
   A29        2.90568  -0.00008  -0.00086  -0.01057  -0.01143   2.89425
   A30        3.03146   0.00046  -0.00152   0.03380   0.03228   3.06374
    D1       -3.08352  -0.00025  -0.00013  -0.01759  -0.01773  -3.10125
    D2        1.03703  -0.00008  -0.00033  -0.01468  -0.01501   1.02202
    D3       -1.03812  -0.00013  -0.00014  -0.01427  -0.01441  -1.05252
    D4        1.11032  -0.00007  -0.00011  -0.01449  -0.01460   1.09572
    D5       -1.05232   0.00009  -0.00031  -0.01157  -0.01188  -1.06420
    D6       -3.12746   0.00005  -0.00012  -0.01116  -0.01128  -3.13874
    D7       -0.98717  -0.00016  -0.00014  -0.01610  -0.01624  -1.00341
    D8        3.13338  -0.00000  -0.00033  -0.01318  -0.01352   3.11986
    D9        1.05824  -0.00004  -0.00015  -0.01277  -0.01292   1.04532
   D10       -1.00816  -0.00021  -0.00031  -0.00288  -0.00319  -1.01135
   D11        0.94209   0.00040  -0.00029   0.00560   0.00531   0.94740
   D12        1.16281  -0.00009  -0.00009  -0.00291  -0.00300   1.15982
   D13        3.11307   0.00052  -0.00007   0.00557   0.00550   3.11856
   D14       -3.10321  -0.00065  -0.00026  -0.00913  -0.00939  -3.11260
   D15       -1.15296  -0.00004  -0.00024  -0.00065  -0.00089  -1.15386
   D16        1.77862   0.00030  -0.00178  -0.07039  -0.07215   1.70647
   D17       -2.52037  -0.00069  -0.00163  -0.07894  -0.08058  -2.60095
   D18       -3.10808   0.00004   0.00005   0.00988   0.00993  -3.09815
   D19        1.00877  -0.00012  -0.00019   0.00657   0.00637   1.01515
   D20       -1.03752   0.00017   0.00015   0.01188   0.01203  -1.02549
   D21        1.08180   0.00014   0.00006   0.01168   0.01174   1.09354
   D22       -1.08454  -0.00002  -0.00018   0.00837   0.00819  -1.07635
   D23       -3.13083   0.00027   0.00016   0.01368   0.01385  -3.11698
   D24       -1.00507  -0.00002   0.00010   0.00890   0.00900  -0.99607
   D25        3.11178  -0.00018  -0.00014   0.00559   0.00544   3.11723
   D26        1.06549   0.00011   0.00021   0.01089   0.01110   1.07660
   D27       -0.93679  -0.00015  -0.00015  -0.00747  -0.00761  -0.94441
   D28        1.21110   0.00034  -0.00003  -0.00242  -0.00246   1.20865
   D29       -3.04109  -0.00052  -0.00012  -0.01076  -0.01088  -3.05197
         Item               Value     Threshold  Converged?
 Maximum Force            0.002220     0.000015     NO 
 RMS     Force            0.000546     0.000010     NO 
 Maximum Displacement     0.138713     0.000060     NO 
 RMS     Displacement     0.053512     0.000040     NO 
 GradGradGradGradGradGradGradGradGradGradGradGradGradGradGradGradGradGrad

                    Distance matrix (angstroms):
                    1          2          3          4          5
     1  C    0.000000
     2  C    1.520443   0.000000
     3  O    2.449831   1.418707   0.000000
     4  H    1.103882   2.170263   3.395204   0.000000
     5  H    1.106068   2.178546   2.764300   1.784447   0.000000
     6  H    1.103184   2.159410   2.702926   1.795965   1.795386
     7  H    2.178129   1.107585   2.074668   2.516975   2.541412
     8  H    2.165550   1.101168   2.010932   2.515595   3.091868
     9  H    2.616941   1.961139   0.967835   3.630165   2.520658
    10  C    4.317863   3.768381   3.586732   4.829419   5.220793
    11  C    4.378600   4.112607   3.589311   5.105199   5.063256
    12  O    3.336119   3.355624   2.821609   4.196962   3.845539
    13  H    5.394108   4.786169   4.583438   5.838441   6.318460
    14  H    4.089822   3.183513   2.908624   4.655687   4.953048
    15  H    3.881327   3.583012   3.804585   4.179015   4.888679
    16  H    5.155959   4.697004   3.880048   5.979457   5.735329
    17  H    4.989111   4.971239   4.581386   5.615589   5.675011
    18  H    2.894048   2.608301   1.867187   3.858102   3.360257
                    6          7          8          9         10
     6  H    0.000000
     7  H    3.088404   0.000000
     8  H    2.500305   1.779361   0.000000
     9  H    2.955095   2.369191   2.828959   0.000000
    10  C    3.764170   4.705489   3.044380   4.443169   0.000000
    11  C    3.602123   5.163328   3.756995   4.212604   1.524789
    12  O    2.514509   4.437544   3.352928   3.234812   2.441664
    13  H    4.840203   5.655506   3.972412   5.453995   1.104669
    14  H    3.798092   3.986120   2.455132   3.829617   1.105206
    15  H    3.309622   4.518998   2.767174   4.657401   1.104419
    16  H    4.471283   5.674055   4.409613   4.431213   2.164138
    17  H    4.062875   6.054612   4.587663   5.153530   2.165618
    18  H    2.362834   3.634621   2.746247   2.320594   2.576259
                   11         12         13         14         15
    11  C    0.000000
    12  O    1.403141   0.000000
    13  H    2.183423   3.391203   0.000000
    14  H    2.173422   2.748357   1.786914   0.000000
    15  H    2.171215   2.704700   1.792493   1.791310   0.000000
    16  H    1.110973   2.080156   2.506616   2.517310   3.086369
    17  H    1.103315   2.015905   2.515214   3.086539   2.519660
    18  H    1.948352   0.975908   3.600707   2.466716   2.905589
                   16         17         18
    16  H    0.000000
    17  H    1.777166   0.000000
    18  H    2.392702   2.834647   0.000000
 Framework group  C1[X(C4H12O2)]
 Deg. of freedom    48
                         Standard orientation:                         
 ---------------------------------------------------------------------
 Center     Atomic      Atomic             Coordinates (Angstroms)
 Number     Number       Type             X           Y           Z
 ---------------------------------------------------------------------
      1          6           0        2.068070    0.546457   -0.918758
      2          6           0        1.794348   -0.657109   -0.030922
      3          8           0        1.161707   -0.309126    1.190308
      4          1           0        2.521953    0.228966   -1.873611
      5          1           0        2.768474    1.249994   -0.431050
      6          1           0        1.123920    1.076465   -1.130149
      7          1           0        2.727025   -1.217510    0.175978
      8          1           0        1.098651   -1.350345   -0.528918
      9          1           0        1.718256    0.324478    1.665180
     10          6           0       -1.928363   -1.028991   -0.482386
     11          6           0       -2.188644    0.360074    0.090095
     12          8           0       -1.028774    1.145897    0.167481
     13          1           0       -2.865199   -1.607409   -0.572188
     14          1           0       -1.241253   -1.594228    0.173256
     15          1           0       -1.467909   -0.951183   -1.483220
     16          1           0       -2.674344    0.263862    1.084630
     17          1           0       -2.894795    0.907585   -0.557120
     18          1           0       -0.350707    0.652569    0.666730
 ---------------------------------------------------------------------
 Rotational constants (GHZ):           4.6922536           1.5124107           1.4659531
   108 basis functions,   198 primitive gaussians,   114 cartesian basis functions
    26 alpha electrons       26 beta electrons
       nuclear repulsion energy       261.1714528729 Hartrees.
 NAtoms=   18 NActive=   18 NUniq=   18 SFac= 1.00D+00 NAtFMM=   60 NAOKFM=F Big=F
 Nuclear repulsion after empirical dispersion term =      261.1621481672 Hartrees.
   1 Symmetry operations used in ECPInt.
 ECPInt:  NShTT=    1830 NPrTT=    7374 LenC2=    1822 LenP2D=    5926.
 LDataN:  DoStor=T MaxTD1= 4 Len=   56
 Initial guess from the checkpoint file:  "8.chk"
 B after Tr=     0.000000    0.000000   -0.000000
         Rot=    0.997469    0.070950   -0.003200   -0.003297 Ang=   8.15 deg.
 ExpMin= 1.22D-01 ExpMax= 2.27D+03 ExpMxC= 3.41D+02 IAcc=3 IRadAn=         5 AccDes= 0.00D+00
 Harris functional with IExCor= 4639 and IRadAn=       5 diagonalized for initial guess.
 HarFok:  IExCor= 4639 AccDes= 0.00D+00 IRadAn=         5 IDoV= 1 UseB2=F ITyADJ=14
 ICtDFT=  3500011 ScaDFX=  1.000000  1.000000  1.000000  1.000000
 FoFCou: FMM=F IPFlag=           0 FMFlag=      100000 FMFlg1=           0
         NFxFlg=           0 DoJE=T BraDBF=F KetDBF=T FulRan=T
         wScrn=  0.000000 ICntrl=       500 IOpCl=  0 I1Cent=   200000004 NGrid=           0
         NMat0=    1 NMatS0=      1 NMatT0=    0 NMatD0=    1 NMtDS0=    0 NMtDT0=    0
 Petite list used in FoFCou.
     Minimum is close to point  4 DX=  1.09D-01 DF= -1.32D-05 DXR=  8.30D-02 DFR=  6.93D-03 which will be used.
     Accept linear search using points  2 and  3.
     Accept linear search using points  1 and  2.
     Accept linear search using points  1 and  2.
     Minimum is close to point  2 DX=  3.79D-05 DF= -1.14D-13 DXR=  3.79D-05 DFR=  1.32D-09 which will be used.
 SCF Done:  E(RwB97XD) =  -309.729776441     a.u. after    7 cycles
            Convg  =    0.1487D-08                    33 Fock formations.
              S**2 =  0.0000                  -V/T =  2.0090
   1 Symmetry operations used in ECPInt.
 ECPInt:  NShTT=    1830 NPrTT=    7374 LenC2=    1822 LenP2D=    5926.
 LDataN:  DoStor=T MaxTD1= 5 Len=  102
 Calling FoFJK, ICntrl=      2127 FMM=F ISym2X=0 I1Cent= 0 IOpClX= 0 NMat=1 NMatS=1 NMatT=0.

 GradGradGradGradGradGradGradGradGradGradGradGradGradGradGradGradGradGrad
 Using GEDIIS/GDIIS optimizer.
 FormGI is forming the generalized inverse of G from B-inverse, IUseBI=4.
 Internal  Forces:  Max     0.000961194 RMS     0.000235571
 Step number   3 out of a maximum of   86
 All quantities printed in internal units (Hartrees-Bohrs-Radians)
 Mixed Optimization -- En-DIIS/RFO-DIIS
 Swapping is turned off.
 Trust test= 1.06D+00 RLast= 1.29D-01 DXMaxT set to 5.05D-01
 ITU=  1  1  0
     Eigenvalues ---    0.00336   0.00411   0.00514   0.01217   0.01464
     Eigenvalues ---    0.01500   0.01638   0.04011   0.04380   0.04812
     Eigenvalues ---    0.05129   0.05470   0.05575   0.05627   0.05662
     Eigenvalues ---    0.05727   0.05857   0.09897   0.10903   0.11990
     Eigenvalues ---    0.12994   0.14056   0.14966   0.16000   0.16000
     Eigenvalues ---    0.16000   0.16000   0.16000   0.16023   0.16098
     Eigenvalues ---    0.21681   0.22572   0.29182   0.29997   0.33387
     Eigenvalues ---    0.33787   0.34300   0.34588   0.34736   0.34947
     Eigenvalues ---    0.35023   0.35145   0.35198   0.35236   0.43534
     Eigenvalues ---    0.43915   0.52201   0.54523
 En-DIIS/RFO-DIIS/Sim-DIIS IScMMF=       -3 using points:     3    2
 RFO step:  Lambda=-7.30553635D-05.
 DidBck=T Rises=F RFO-DIIS coefs:    0.79099    0.20901
 Iteration  1 RMS(Cart)=  0.04943559 RMS(Int)=  0.00063607
 Iteration  2 RMS(Cart)=  0.00115174 RMS(Int)=  0.00000221
 Iteration  3 RMS(Cart)=  0.00000078 RMS(Int)=  0.00000218
 Variable       Old X    -DE/DX   Delta X   Delta X   Delta X     New X
                                 (Linear)    (Quad)   (Total)
    R1        2.87322  -0.00036   0.00095  -0.00403  -0.00308   2.87014
    R2        2.08603  -0.00024  -0.00016   0.00114   0.00098   2.08701
    R3        2.09017  -0.00025  -0.00028   0.00138   0.00109   2.09126
    R4        2.08472  -0.00027   0.00005   0.00033   0.00039   2.08510
    R5        2.68097   0.00044   0.00029   0.00056   0.00085   2.68182
    R6        2.09303  -0.00002  -0.00008   0.00087   0.00079   2.09382
    R7        2.08091  -0.00017   0.00004   0.00013   0.00017   2.08107
    R8        1.82894   0.00003  -0.00007   0.00053   0.00046   1.82941
    R9        3.52847  -0.00047   0.00300  -0.02029  -0.01729   3.51118
   R10        2.88143  -0.00044   0.00052  -0.00301  -0.00249   2.87894
   R11        2.08752  -0.00028  -0.00014   0.00102   0.00088   2.08840
   R12        2.08854  -0.00018  -0.00013   0.00116   0.00103   2.08956
   R13        2.08705  -0.00020  -0.00027   0.00148   0.00121   2.08826
   R14        2.65155  -0.00096   0.00103  -0.00518  -0.00415   2.64740
   R15        2.09943   0.00001  -0.00020   0.00137   0.00117   2.10060
   R16        2.08496  -0.00004  -0.00014   0.00104   0.00090   2.08587
   R17        1.84420   0.00045  -0.00068   0.00290   0.00222   1.84642
    A1        1.92992  -0.00002  -0.00012   0.00129   0.00117   1.93109
    A2        1.93909  -0.00003  -0.00056   0.00082   0.00026   1.93935
    A3        1.91572   0.00013   0.00009   0.00076   0.00085   1.91657
    A4        1.87967  -0.00003   0.00087  -0.00380  -0.00293   1.87674
    A5        1.90110   0.00012  -0.00024   0.00300   0.00275   1.90385
    A6        1.89743  -0.00017  -0.00004  -0.00213  -0.00217   1.89525
    A7        1.97009  -0.00044  -0.00051  -0.00019  -0.00070   1.96939
    A8        1.93692   0.00014  -0.00025   0.00192   0.00167   1.93859
    A9        1.92623   0.00006  -0.00093   0.00215   0.00122   1.92746
   A10        1.91645   0.00021   0.00087  -0.00049   0.00037   1.91682
   A11        1.83587   0.00021   0.00020   0.00070   0.00090   1.83677
   A12        1.87335  -0.00016   0.00071  -0.00439  -0.00369   1.86967
   A13        1.90340  -0.00034   0.00184  -0.00588  -0.00403   1.89937
   A14        1.81951   0.00026  -0.00068   0.00469   0.00401   1.82351
   A15        1.84023   0.00045  -0.00194   0.01271   0.01076   1.85099
   A16        1.94203  -0.00007  -0.00038   0.00091   0.00053   1.94256
   A17        1.92763   0.00019  -0.00082   0.00389   0.00307   1.93070
   A18        1.92541   0.00018  -0.00057   0.00326   0.00269   1.92809
   A19        1.88355  -0.00014   0.00093  -0.00483  -0.00390   1.87965
   A20        1.89315  -0.00007   0.00066  -0.00271  -0.00205   1.89110
   A21        1.89064  -0.00010   0.00025  -0.00085  -0.00061   1.89004
   A22        1.97121   0.00033  -0.00143   0.00605   0.00462   1.97583
   A23        1.90904  -0.00025  -0.00021  -0.00153  -0.00175   1.90730
   A24        1.91886  -0.00008  -0.00010  -0.00058  -0.00068   1.91818
   A25        1.93962   0.00003   0.00033   0.00077   0.00110   1.94072
   A26        1.85823  -0.00005   0.00043  -0.00006   0.00037   1.85860
   A27        1.86324   0.00001   0.00112  -0.00526  -0.00414   1.85910
   A28        1.89595   0.00045  -0.00199   0.00905   0.00706   1.90300
   A29        2.89425  -0.00026   0.00239  -0.03208  -0.02969   2.86456
   A30        3.06374   0.00015  -0.00675   0.02478   0.01803   3.08178
    D1       -3.10125  -0.00006   0.00370  -0.00569  -0.00199  -3.10324
    D2        1.02202  -0.00011   0.00314  -0.00637  -0.00323   1.01879
    D3       -1.05252  -0.00004   0.00301  -0.00350  -0.00049  -1.05301
    D4        1.09572   0.00002   0.00305  -0.00231   0.00075   1.09646
    D5       -1.06420  -0.00004   0.00248  -0.00298  -0.00050  -1.06470
    D6       -3.13874   0.00004   0.00236  -0.00011   0.00225  -3.13650
    D7       -1.00341   0.00016   0.00339  -0.00066   0.00273  -1.00067
    D8        3.11986   0.00011   0.00283  -0.00133   0.00149   3.12136
    D9        1.04532   0.00018   0.00270   0.00153   0.00424   1.04955
   D10       -1.01135  -0.00025   0.00067  -0.00658  -0.00591  -1.01726
   D11        0.94740   0.00025  -0.00111   0.00766   0.00655   0.95395
   D12        1.15982  -0.00022   0.00063  -0.00459  -0.00396   1.15586
   D13        3.11856   0.00027  -0.00115   0.00965   0.00850   3.12707
   D14       -3.11260  -0.00020   0.00196  -0.00956  -0.00760  -3.12020
   D15       -1.15386   0.00029   0.00019   0.00468   0.00487  -1.14899
   D16        1.70647   0.00027   0.01508   0.02874   0.04382   1.75029
   D17       -2.60095   0.00008   0.01684   0.02270   0.03953  -2.56141
   D18       -3.09815  -0.00000  -0.00207   0.01287   0.01079  -3.08736
   D19        1.01515  -0.00008  -0.00133   0.00870   0.00737   1.02251
   D20       -1.02549   0.00010  -0.00251   0.01630   0.01379  -1.01170
   D21        1.09354   0.00009  -0.00245   0.01576   0.01331   1.10685
   D22       -1.07635   0.00001  -0.00171   0.01159   0.00989  -1.06646
   D23       -3.11698   0.00019  -0.00289   0.01920   0.01631  -3.10068
   D24       -0.99607  -0.00002  -0.00188   0.01225   0.01036  -0.98571
   D25        3.11723  -0.00010  -0.00114   0.00807   0.00694   3.12417
   D26        1.07660   0.00008  -0.00232   0.01568   0.01336   1.08995
   D27       -0.94441   0.00006   0.00159  -0.00383  -0.00224  -0.94665
   D28        1.20865  -0.00001   0.00051  -0.00077  -0.00025   1.20840
   D29       -3.05197  -0.00001   0.00227  -0.00667  -0.00440  -3.05637
         Item               Value     Threshold  Converged?
 Maximum Force            0.000961     0.000015     NO 
 RMS     Force            0.000236     0.000010     NO 
 Maximum Displacement     0.177674     0.000060     NO 
 RMS     Displacement     0.049427     0.000040     NO 
 GradGradGradGradGradGradGradGradGradGradGradGradGradGradGradGradGradGrad

                    Distance matrix (angstroms):
                    1          2          3          4          5
     1  C    0.000000
     2  C    1.518814   0.000000
     3  O    2.448254   1.419158   0.000000
     4  H    1.104401   2.170071   3.395101   0.000000
     5  H    1.106647   2.177737   2.763241   1.783421   0.000000
     6  H    1.103389   2.158757   2.700690   1.798319   1.794622
     7  H    2.178219   1.108004   2.075643   2.517265   2.542289
     8  H    2.165071   1.101256   2.012054   2.516665   3.092002
     9  H    2.614878   1.959044   0.968081   3.627899   2.518406
    10  C    4.409955   3.864041   3.642695   4.939451   5.300863
    11  C    4.402326   4.150801   3.613411   5.138408   5.075607
    12  O    3.318524   3.342040   2.809469   4.182124   3.827271
    13  H    5.492232   4.898713   4.653791   5.960262   6.402133
    14  H    4.224316   3.326467   2.999268   4.807630   5.076024
    15  H    3.973699   3.653783   3.835677   4.291188   4.973995
    16  H    5.180968   4.749214   3.918688   6.015832   5.743434
    17  H    4.993807   4.994395   4.595239   5.629192   5.667158
    18  H    2.898139   2.604788   1.858036   3.863653   3.366073
                    6          7          8          9         10
     6  H    0.000000
     7  H    3.089038   0.000000
     8  H    2.502332   1.777355   0.000000
     9  H    2.954021   2.365772   2.828390   0.000000
    10  C    3.842584   4.804501   3.158863   4.492412   0.000000
    11  C    3.617501   5.203641   3.812487   4.227844   1.523470
    12  O    2.496470   4.424448   3.345565   3.226094   2.442464
    13  H    4.916652   5.779641   4.110320   5.512855   1.105132
    14  H    3.911249   4.131024   2.618886   3.910047   1.105749
    15  H    3.397829   4.590409   2.841073   4.693585   1.105061
    16  H    4.482838   5.731303   4.486132   4.452248   2.162157
    17  H    4.059268   6.080622   4.630178   5.158308   2.164322
    18  H    2.370505   3.630196   2.742817   2.320415   2.585364
                   11         12         13         14         15
    11  C    0.000000
    12  O    1.400944   0.000000
    13  H    2.182993   3.391308   0.000000
    14  H    2.174900   2.759028   1.785188   0.000000
    15  H    2.172491   2.705313   1.792067   1.791878   0.000000
    16  H    1.111592   2.079502   2.507569   2.514075   3.087001
    17  H    1.103793   2.014662   2.509354   3.087485   2.525781
    18  H    1.951968   0.977084   3.611813   2.487262   2.909707
                   16         17         18
    16  H    0.000000
    17  H    1.775304   0.000000
    18  H    2.397759   2.837988   0.000000
 Framework group  C1[X(C4H12O2)]
 Deg. of freedom    48
                         Standard orientation:                         
 ---------------------------------------------------------------------
 Center     Atomic      Atomic             Coordinates (Angstroms)
 Number     Number       Type             X           Y           Z
 ---------------------------------------------------------------------
      1          6           0        2.091670    0.634578   -0.854271
      2          6           0        1.818860   -0.656364   -0.102049
      3          8           0        1.173638   -0.442172    1.143671
      4          1           0        2.557660    0.423819   -1.833115
      5          1           0        2.784291    1.286720   -0.288889
      6          1           0        1.146475    1.180739   -1.014836
      7          1           0        2.752684   -1.232338    0.052549
      8          1           0        1.133119   -1.298588   -0.676568
      9          1           0        1.727499    0.136938    1.686855
     10          6           0       -2.005978   -0.967614   -0.554323
     11          6           0       -2.193199    0.383519    0.124169
     12          8           0       -0.999127    1.103686    0.259063
     13          1           0       -2.972979   -1.483991   -0.694250
     14          1           0       -1.359709   -1.624215    0.057145
     15          1           0       -1.532928   -0.840421   -1.544882
     16          1           0       -2.686054    0.234374    1.109301
     17          1           0       -2.873237    1.013755   -0.474755
     18          1           0       -0.341034    0.546380    0.718427
 ---------------------------------------------------------------------
 Rotational constants (GHZ):           4.7539507           1.4858363           1.4360973
   108 basis functions,   198 primitive gaussians,   114 cartesian basis functions
    26 alpha electrons       26 beta electrons
       nuclear repulsion energy       260.4985776831 Hartrees.
 NAtoms=   18 NActive=   18 NUniq=   18 SFac= 1.00D+00 NAtFMM=   60 NAOKFM=F Big=F
 Nuclear repulsion after empirical dispersion term =      260.4894907732 Hartrees.
   1 Symmetry operations used in ECPInt.
 ECPInt:  NShTT=    1830 NPrTT=    7374 LenC2=    1822 LenP2D=    5916.
 LDataN:  DoStor=T MaxTD1= 4 Len=   56
 Initial guess from the checkpoint file:  "8.chk"
 B after Tr=     0.000000   -0.000000    0.000000
         Rot=    0.998824   -0.048179   -0.001500    0.005259 Ang=  -5.56 deg.
 ExpMin= 1.22D-01 ExpMax= 2.27D+03 ExpMxC= 3.41D+02 IAcc=3 IRadAn=         5 AccDes= 0.00D+00
 Harris functional with IExCor= 4639 and IRadAn=       5 diagonalized for initial guess.
 HarFok:  IExCor= 4639 AccDes= 0.00D+00 IRadAn=         5 IDoV= 1 UseB2=F ITyADJ=14
 ICtDFT=  3500011 ScaDFX=  1.000000  1.000000  1.000000  1.000000
 FoFCou: FMM=F IPFlag=           0 FMFlag=      100000 FMFlg1=           0
         NFxFlg=           0 DoJE=T BraDBF=F KetDBF=T FulRan=T
         wScrn=  0.000000 ICntrl=       500 IOpCl=  0 I1Cent=   200000004 NGrid=           0
         NMat0=    1 NMatS0=      1 NMatT0=    0 NMatD0=    1 NMtDS0=    0 NMtDT0=    0
 Petite list used in FoFCou.
     Minimum is close to point  4 DX=  9.00D-02 DF= -6.62D-06 DXR=  6.98D-02 DFR=  4.89D-03 which will be used.
     Accept linear search using points  2 and  3.
     Accept linear search using points  1 and  2.
     Accept linear search using points  1 and  2.
     Minimum is close to point  2 DX=  3.17D-05 DF=  0.00D+00 DXR=  3.17D-05 DFR=  0.00D+00 which will be used.
 SCF Done:  E(RwB97XD) =  -309.729748495     a.u. after    7 cycles
            Convg  =    0.9727D-09                    32 Fock formations.
              S**2 =  0.0000                  -V/T =  2.0090
   1 Symmetry operations used in ECPInt.
 ECPInt:  NShTT=    1830 NPrTT=    7374 LenC2=    1822 LenP2D=    5916.
 LDataN:  DoStor=T MaxTD1= 5 Len=  102
 Calling FoFJK, ICntrl=      2127 FMM=F ISym2X=0 I1Cent= 0 IOpClX= 0 NMat=1 NMatS=1 NMatT=0.

 GradGradGradGradGradGradGradGradGradGradGradGradGradGradGradGradGradGrad
 Using GEDIIS/GDIIS optimizer.
 FormGI is forming the generalized inverse of G from B-inverse, IUseBI=4.
 Internal  Forces:  Max     0.002002657 RMS     0.000425656
 Step number   4 out of a maximum of   86
 All quantities printed in internal units (Hartrees-Bohrs-Radians)
 Mixed Optimization -- En-DIIS/RFO-DIIS
 Swapping is turned off.
 Trust test=-7.60D-01 RLast= 8.31D-02 DXMaxT set to 2.52D-01
 ITU= -1  1  1  0
     Eigenvalues ---    0.00271   0.00456   0.00489   0.01460   0.01497
     Eigenvalues ---    0.01565   0.02374   0.02650   0.04386   0.04789
     Eigenvalues ---    0.05118   0.05510   0.05573   0.05643   0.05687
     Eigenvalues ---    0.05768   0.06098   0.09880   0.11026   0.12135
     Eigenvalues ---    0.13003   0.14090   0.15464   0.16000   0.16000
     Eigenvalues ---    0.16000   0.16000   0.16023   0.16054   0.18292
     Eigenvalues ---    0.22474   0.25639   0.29072   0.30009   0.33412
     Eigenvalues ---    0.33838   0.34338   0.34610   0.34801   0.34966
     Eigenvalues ---    0.35102   0.35157   0.35231   0.35610   0.42997
     Eigenvalues ---    0.44033   0.52400   0.54552
 En-DIIS/RFO-DIIS/Sim-DIIS IScMMF=       -3 using points:     4    3    2
 RFO step:  Lambda=-1.19103867D-04.
 EnCoef did     2 forward-backward iterations
 DidBck=T Rises=T En-DIIS coefs:    0.45270    0.29436    0.25294
 Iteration  1 RMS(Cart)=  0.06832264 RMS(Int)=  0.00105654
 Iteration  2 RMS(Cart)=  0.00232713 RMS(Int)=  0.00001718
 Iteration  3 RMS(Cart)=  0.00000157 RMS(Int)=  0.00001715
 Iteration  4 RMS(Cart)=  0.00000000 RMS(Int)=  0.00001715
 Variable       Old X    -DE/DX   Delta X   Delta X   Delta X     New X
                                 (Linear)    (Quad)   (Total)
    R1        2.87014   0.00035   0.00284  -0.00636  -0.00353   2.86662
    R2        2.08701  -0.00056  -0.00073   0.00134   0.00061   2.08763
    R3        2.09126  -0.00054  -0.00094   0.00179   0.00085   2.09211
    R4        2.08510  -0.00047  -0.00015   0.00004  -0.00011   2.08500
    R5        2.68182   0.00019  -0.00011   0.00106   0.00095   2.68277
    R6        2.09382  -0.00025  -0.00053   0.00119   0.00066   2.09448
    R7        2.08107   0.00002  -0.00004   0.00036   0.00032   2.08139
    R8        1.82941  -0.00016  -0.00034   0.00079   0.00045   1.82986
    R9        3.51118  -0.00054   0.01309  -0.04030  -0.02721   3.48397
   R10        2.87894   0.00017   0.00199  -0.00480  -0.00282   2.87613
   R11        2.08840  -0.00053  -0.00065   0.00118   0.00052   2.08892
   R12        2.08956  -0.00032  -0.00072   0.00170   0.00098   2.09054
   R13        2.08826  -0.00060  -0.00099   0.00186   0.00087   2.08913
   R14        2.64740  -0.00037   0.00352  -0.00933  -0.00581   2.64159
   R15        2.10060  -0.00018  -0.00088   0.00218   0.00129   2.10190
   R16        2.08587  -0.00024  -0.00066   0.00153   0.00086   2.08673
   R17        1.84642  -0.00046  -0.00204   0.00455   0.00252   1.84894
    A1        1.93109  -0.00008  -0.00079   0.00203   0.00124   1.93233
    A2        1.93935  -0.00016  -0.00082   0.00114   0.00032   1.93968
    A3        1.91657  -0.00000  -0.00035   0.00104   0.00069   1.91726
    A4        1.87674   0.00016   0.00266  -0.00595  -0.00329   1.87345
    A5        1.90385   0.00002  -0.00180   0.00490   0.00310   1.90695
    A6        1.89525   0.00007   0.00114  -0.00328  -0.00214   1.89312
    A7        1.96939   0.00013  -0.00024   0.00016  -0.00008   1.96931
    A8        1.93859  -0.00008  -0.00121   0.00315   0.00193   1.94053
    A9        1.92746  -0.00007  -0.00180   0.00350   0.00170   1.92916
   A10        1.91682  -0.00001   0.00084  -0.00104  -0.00019   1.91663
   A11        1.83677  -0.00009  -0.00025   0.00044   0.00019   1.83696
   A12        1.86967   0.00012   0.00287  -0.00674  -0.00386   1.86580
   A13        1.89937   0.00054   0.00444  -0.00639  -0.00203   1.89733
   A14        1.82351  -0.00031  -0.00302   0.00802   0.00497   1.82848
   A15        1.85099   0.00035  -0.00824   0.02496   0.01669   1.86768
   A16        1.94256  -0.00024  -0.00076   0.00128   0.00052   1.94308
   A17        1.93070  -0.00002  -0.00267   0.00671   0.00404   1.93474
   A18        1.92809  -0.00010  -0.00216   0.00486   0.00270   1.93079
   A19        1.87965   0.00027   0.00326  -0.00683  -0.00357   1.87609
   A20        1.89110   0.00017   0.00192  -0.00425  -0.00234   1.88877
   A21        1.89004  -0.00006   0.00064  -0.00235  -0.00172   1.88832
   A22        1.97583  -0.00143  -0.00426   0.00653   0.00228   1.97811
   A23        1.90730   0.00028   0.00070  -0.00222  -0.00151   1.90579
   A24        1.91818   0.00021   0.00026  -0.00034  -0.00009   1.91810
   A25        1.94072   0.00044  -0.00020   0.00149   0.00129   1.94201
   A26        1.85860   0.00059   0.00032   0.00152   0.00184   1.86044
   A27        1.85910  -0.00001   0.00363  -0.00780  -0.00417   1.85493
   A28        1.90300  -0.00200  -0.00627   0.00885   0.00258   1.90558
   A29        2.86456   0.00100   0.01914  -0.01187   0.00726   2.87182
   A30        3.08178  -0.00101  -0.01804   0.00217  -0.01587   3.06591
    D1       -3.10324   0.00006   0.00557  -0.01008  -0.00451  -3.10775
    D2        1.01879   0.00003   0.00556  -0.01124  -0.00567   1.01312
    D3       -1.05301  -0.00002   0.00391  -0.00709  -0.00318  -1.05619
    D4        1.09646   0.00002   0.00328  -0.00469  -0.00140   1.09506
    D5       -1.06470  -0.00001   0.00328  -0.00585  -0.00257  -1.06727
    D6       -3.13650  -0.00007   0.00162  -0.00170  -0.00008  -3.13658
    D7       -1.00067   0.00004   0.00261  -0.00201   0.00060  -1.00007
    D8        3.12136   0.00001   0.00260  -0.00317  -0.00056   3.12079
    D9        1.04955  -0.00004   0.00095   0.00098   0.00193   1.05148
   D10       -1.01726  -0.00021   0.00404  -0.01252  -0.00848  -1.02574
   D11        0.95395   0.00027  -0.00493   0.01703   0.01210   0.96605
   D12        1.15586  -0.00023   0.00293  -0.00909  -0.00616   1.14970
   D13        3.12707   0.00025  -0.00604   0.02046   0.01442   3.14148
   D14       -3.12020  -0.00014   0.00653  -0.01717  -0.01064  -3.13084
   D15       -1.14899   0.00034  -0.00244   0.01238   0.00994  -1.13905
   D16        1.75029  -0.00092  -0.00573  -0.08786  -0.09367   1.65661
   D17       -2.56141  -0.00017  -0.00126  -0.08602  -0.08719  -2.64860
   D18       -3.08736  -0.00007  -0.00842   0.01274   0.00432  -3.08304
   D19        1.02251   0.00017  -0.00564   0.00778   0.00214   1.02465
   D20       -1.01170  -0.00011  -0.01059   0.01867   0.00808  -1.00362
   D21        1.10685  -0.00024  -0.01026   0.01604   0.00578   1.11263
   D22       -1.06646  -0.00000  -0.00748   0.01108   0.00360  -1.06287
   D23       -3.10068  -0.00028  -0.01243   0.02197   0.00954  -3.09113
   D24       -0.98571  -0.00009  -0.00795   0.01148   0.00353  -0.98217
   D25        3.12417   0.00015  -0.00517   0.00652   0.00135   3.12552
   D26        1.08995  -0.00013  -0.01012   0.01742   0.00730   1.09725
   D27       -0.94665  -0.00002   0.00315  -0.00865  -0.00550  -0.95214
   D28        1.20840  -0.00037   0.00076  -0.00554  -0.00478   1.20362
   D29       -3.05637   0.00018   0.00516  -0.01318  -0.00802  -3.06439
         Item               Value     Threshold  Converged?
 Maximum Force            0.002003     0.000015     NO 
 RMS     Force            0.000426     0.000010     NO 
 Maximum Displacement     0.189476     0.000060     NO 
 RMS     Displacement     0.069555     0.000040     NO 
 GradGradGradGradGradGradGradGradGradGradGradGradGradGradGradGradGradGrad

                    Distance matrix (angstroms):
                    1          2          3          4          5
     1  C    0.000000
     2  C    1.516948   0.000000
     3  O    2.447025   1.419661   0.000000
     4  H    1.104725   2.169574   3.395118   0.000000
     5  H    1.107099   2.176670   2.761687   1.781892   0.000000
     6  H    1.103333   2.157584   2.699564   1.800519   1.793565
     7  H    2.178235   1.108354   2.076209   2.516614   2.543888
     8  H    2.164788   1.101424   2.012746   2.518923   3.092196
     9  H    2.616017   1.958312   0.968320   3.627859   2.518677
    10  C    4.276981   3.736288   3.591321   4.776957   5.192677
    11  C    4.351891   4.080920   3.576340   5.074202   5.049379
    12  O    3.333567   3.336008   2.797037   4.198728   3.849305
    13  H    5.349190   4.758193   4.600227   5.775296   6.288671
    14  H    4.082195   3.177971   2.945334   4.633429   4.959969
    15  H    3.813141   3.531914   3.790185   4.099276   4.829081
    16  H    5.146323   4.675905   3.880252   5.961977   5.744654
    17  H    4.959460   4.940755   4.565859   5.583043   5.655044
    18  H    2.905149   2.597779   1.843638   3.872390   3.374835
                    6          7          8          9         10
     6  H    0.000000
     7  H    3.089237   0.000000
     8  H    2.503469   1.775232   0.000000
     9  H    2.957543   2.362571   2.828384   0.000000
    10  C    3.730751   4.669014   2.997886   4.460163   0.000000
    11  C    3.580448   5.130424   3.713215   4.222583   1.521980
    12  O    2.519598   4.418129   3.330032   3.232238   2.440507
    13  H    4.800254   5.622969   3.927543   5.483998   1.105410
    14  H    3.800691   3.970628   2.423498   3.877063   1.106266
    15  H    3.252732   4.462539   2.714251   4.647288   1.105522
    16  H    4.466197   5.650958   4.366428   4.463031   2.160251
    17  H    4.035991   6.023405   4.550658   5.157659   2.163293
    18  H    2.384979   3.621408   2.733298   2.319734   2.588807
                   11         12         13         14         15
    11  C    0.000000
    12  O    1.397871   0.000000
    13  H    2.182266   3.389093   0.000000
    14  H    2.176904   2.764216   1.783501   0.000000
    15  H    2.173485   2.705615   1.791153   1.791558   0.000000
    16  H    1.112277   2.078274   2.506594   2.514124   3.087482
    17  H    1.104250   2.013741   2.505819   3.089085   2.529887
    18  H    1.951947   0.978415   3.615592   2.497876   2.914573
                   16         17         18
    16  H    0.000000
    17  H    1.773452   0.000000
    18  H    2.397289   2.839720   0.000000
 Framework group  C1[X(C4H12O2)]
 Deg. of freedom    48
                         Standard orientation:                         
 ---------------------------------------------------------------------
 Center     Atomic      Atomic             Coordinates (Angstroms)
 Number     Number       Type             X           Y           Z
 ---------------------------------------------------------------------
      1          6           0        2.049438    0.379854   -1.005725
      2          6           0        1.776429   -0.652311    0.071880
      3          8           0        1.165156   -0.095469    1.225877
      4          1           0        2.492422   -0.095693   -1.899054
      5          1           0        2.764574    1.147177   -0.651517
      6          1           0        1.109323    0.882800   -1.289580
      7          1           0        2.704085   -1.186654    0.358898
      8          1           0        1.068286   -1.413170   -0.292486
      9          1           0        1.745815    0.591740    1.583958
     10          6           0       -1.911631   -1.088559   -0.337692
     11          6           0       -2.175993    0.363050    0.035627
     12          8           0       -1.025710    1.157181    0.019896
     13          1           0       -2.849897   -1.671952   -0.372919
     14          1           0       -1.247619   -1.571224    0.403893
     15          1           0       -1.426762   -1.153614   -1.329079
     16          1           0       -2.678219    0.399935    1.027377
     17          1           0       -2.880555    0.814155   -0.685111
     18          1           0       -0.346481    0.750597    0.594904
 ---------------------------------------------------------------------
 Rotational constants (GHZ):           4.6812741           1.5231981           1.4861759
   108 basis functions,   198 primitive gaussians,   114 cartesian basis functions
    26 alpha electrons       26 beta electrons
       nuclear repulsion energy       261.7296329350 Hartrees.
 NAtoms=   18 NActive=   18 NUniq=   18 SFac= 1.00D+00 NAtFMM=   60 NAOKFM=F Big=F
 Nuclear repulsion after empirical dispersion term =      261.7202703832 Hartrees.
   1 Symmetry operations used in ECPInt.
 ECPInt:  NShTT=    1830 NPrTT=    7374 LenC2=    1822 LenP2D=    5930.
 LDataN:  DoStor=T MaxTD1= 4 Len=   56
 Initial guess from the checkpoint file:  "8.chk"
 B after Tr=     0.000000   -0.000000    0.000000
         Rot=    0.992148    0.124944    0.000371   -0.005512 Ang=  14.37 deg.
 ExpMin= 1.22D-01 ExpMax= 2.27D+03 ExpMxC= 3.41D+02 IAcc=3 IRadAn=         5 AccDes= 0.00D+00
 Harris functional with IExCor= 4639 and IRadAn=       5 diagonalized for initial guess.
 HarFok:  IExCor= 4639 AccDes= 0.00D+00 IRadAn=         5 IDoV= 1 UseB2=F ITyADJ=14
 ICtDFT=  3500011 ScaDFX=  1.000000  1.000000  1.000000  1.000000
 FoFCou: FMM=F IPFlag=           0 FMFlag=      100000 FMFlg1=           0
         NFxFlg=           0 DoJE=T BraDBF=F KetDBF=T FulRan=T
         wScrn=  0.000000 ICntrl=       500 IOpCl=  0 I1Cent=   200000004 NGrid=           0
         NMat0=    1 NMatS0=      1 NMatT0=    0 NMatD0=    1 NMtDS0=    0 NMtDT0=    0
 Petite list used in FoFCou.
     Minimum is close to point  4 DX=  7.17D-02 DF= -8.69D-06 DXR=  5.64D-02 DFR=  3.19D-03 which will be used.
     Accept linear search using points  1 and  2.
     Accept linear search using points  1 and  2.
     Accept linear search using points  1 and  2.
     Minimum is close to point  2 DX= -8.28D-07 DF=  0.00D+00 DXR=  8.28D-07 DFR=  0.00D+00 which will be used.
 SCF Done:  E(RwB97XD) =  -309.729764574     a.u. after    8 cycles
            Convg  =    0.9860D-09                    35 Fock formations.
              S**2 =  0.0000                  -V/T =  2.0090
   1 Symmetry operations used in ECPInt.
 ECPInt:  NShTT=    1830 NPrTT=    7374 LenC2=    1822 LenP2D=    5930.
 LDataN:  DoStor=T MaxTD1= 5 Len=  102
 Calling FoFJK, ICntrl=      2127 FMM=F ISym2X=0 I1Cent= 0 IOpClX= 0 NMat=1 NMatS=1 NMatT=0.

 GradGradGradGradGradGradGradGradGradGradGradGradGradGradGradGradGradGrad
 Using GEDIIS/GDIIS optimizer.
 FormGI is forming the generalized inverse of G from B-inverse, IUseBI=4.
 Internal  Forces:  Max     0.001872693 RMS     0.000422797
 Step number   5 out of a maximum of   86
 All quantities printed in internal units (Hartrees-Bohrs-Radians)
 Mixed Optimization -- En-DIIS/RFO-DIIS
 Swapping is turned off.
[...]
 0972682,-0.0716679,-0.0197072,-0.0150792,-0.031974,-0.0115035,-0.00189
 83,-0.0844785,0.0591222,-0.0714073,-0.0124091,0.0256031,0.032973,0.025
 1558,-0.0367669,0.182313,-0.066938,0.0391551,-0.0684034,0.3084738,0.08
 83834,-0.0169378,0.0520993,0.3078009,0.0093855,0.0307287,-0.0091636,-0
 .0562025,-0.0816543,0.0840788,0.0150571,0.0886219,-0.030826,0.8419577,
 0.205215,-0.0040945,0.2867022,0.518319,-0.0718222,-0.1089031,-0.117558
 1,0.4472445,-1.1733476,-0.2040667,0.0552834,-0.1297346,-0.5992367,0.11
 82883,0.1145539,0.1786743,-0.5722945,-0.1103034,-0.1054228,0.0461864,-
 0.0729588,0.0083102,0.0438729,0.0201594,0.0355796,0.0586383,-0.0003771
 ,0.1059197,0.0317567,0.1044968,-0.020632,-0.0202561,0.0666397,-0.04015
 97,0.0016942,0.0385048,0.0023103,-0.0988565,-0.0261626,0.0176914,-0.04
 85492,-0.0908746,-0.013637,-0.0875695,-0.1031104,-0.0414928,-0.0834761
 ,-0.1048683,-0.0345297,-0.040203,-0.1323739,-0.0277254,-0.1880435,-0.0
 885996,0.0664425,0.0422532,0.0953503,-0.0826557,-0.0314176,0.0895864,-
 0.0467934,-0.001514,0.6593811,-0.1103949,-0.0077242,-0.2138918,0.24460
 57,-0.0206487,-0.0404643,-0.0427871,0.3269958\Polar=60.0752493,0.77795
 26,49.134602,0.4569171,-0.6641225,50.1532539\Quadrupole=3.6118184,-4.2
 74176,0.6623576,1.2955422,-1.8685856,-0.2756965\PG=C01 [X(C4H12O2)]\NI
 mag=0\\0.59391541,-0.02165081,0.51497793,0.00173126,-0.02800533,0.5824
 5397,-0.09281949,-0.02511763,0.00055873,0.61542977,-0.02092692,-0.2117
 3227,-0.02492810,-0.00683194,0.55213271,-0.00313881,-0.03498173,-0.089
 62382,-0.06793606,-0.04206306,0.53291061,-0.00466647,-0.00164075,-0.01
 975605,-0.12992462,-0.01270283,-0.03856854,0.36514602,-0.01892725,0.00
 479359,-0.03578837,-0.00256449,-0.07262710,0.01772099,0.13905086,0.161
 76275,-0.01414666,-0.00192256,-0.02961590,-0.08109224,-0.00300178,-0.2
 1341735,-0.08392587,-0.13453618,0.52678704,-0.09445870,0.00410467,-0.1
 0214552,-0.00404827,0.00308477,-0.00439040,0.00058757,-0.00219120,-0.0
 0165823,0.09529461,0.00543293,-0.05017791,0.01130403,-0.01138300,0.007
 68398,-0.02715949,-0.00367280,-0.00675636,-0.00569488,-0.00311676,0.04
 901029,-0.10212260,0.00833353,-0.27329777,-0.00247000,0.00448785,-0.00
 807504,-0.00110073,-0.00327707,-0.00050917,0.11159951,-0.00869659,0.29
 041483,-0.16263817,-0.07436250,0.10734591,-0.00410066,-0.00211293,0.00
 425218,0.00037375,0.00107044,-0.00087361,0.01012415,0.00714341,-0.0085
 7063,0.16818737,-0.07381653,-0.09953633,0.07027760,-0.02226684,-0.0145
 1932,0.02308686,0.00222820,0.00255557,0.00035427,0.00045789,-0.0006295
 3,-0.00057501,0.08416916,0.10721468,0.10657575,0.07218130,-0.15068410,
 -0.00942133,-0.00636416,0.00609905,0.00027633,0.00038005,0.00321534,0.
 02004704,0.01194538,-0.01448541,-0.11597268,-0.07668783,0.15629519,-0.
 24444901,0.12745977,0.01096415,0.00874511,-0.00578501,-0.00061193,0.00
 038261,0.00029502,0.00078867,-0.00695722,0.00428578,0.00221962,-0.0127
 7563,0.01001917,-0.00108357,0.25486136,0.12311626,-0.13000496,-0.00563
 428,0.02902814,-0.01961807,-0.00026864,-0.00110102,0.00374951,0.001124
 39,-0.00201313,0.00008620,-0.00001628,-0.01360337,0.00924879,-0.000415
 32,-0.13397273,0.14210939,0.00974072,-0.00379893,-0.05254766,0.0090954
 2,-0.00682212,-0.00101547,0.00059271,0.00131856,0.00082954,-0.02377146
 ,0.01663939,0.00430750,0.01610258,-0.01251991,-0.00036859,-0.01070662,
 0.00749116,0.05029618,0.00855561,-0.00638594,0.00004009,-0.22010069,0.
 11706672,0.01732182,-0.01289219,0.00728358,-0.01225102,0.00020909,0.00
 102288,0.00039125,0.00066517,0.00054098,-0.00001147,0.00055047,-0.0021
 7284,-0.00075265,0.23579698,0.02608545,-0.01735283,-0.00342838,0.11644
 445,-0.13801205,-0.00913162,-0.00126489,0.00500514,0.00378845,-0.00020
 425,0.00068015,-0.00033237,0.00002530,0.00129245,0.00100110,-0.0023480
 3,-0.00541761,-0.00221042,-0.12846662,0.14471821,0.00940601,-0.0053560
 7,0.00151180,0.02298483,-0.00956731,-0.05340031,-0.03895019,0.01959274
 ,-0.01325834,0.00012198,0.00045719,0.00025744,-0.00093183,0.00019248,0
 .00032573,-0.00130505,-0.00249309,0.00023279,-0.00593016,0.00968937,0.
 06170700,-0.00309193,-0.00217627,0.00326092,-0.17998316,-0.08031468,0.
 11833600,0.01358818,0.00850351,-0.01650654,-0.00006016,-0.00026406,-0.
 00013504,0.00112410,-0.00102542,-0.00105016,0.00077080,0.00016113,-0.0
 0060030,-0.01415968,-0.01129744,0.01457998,0.18285736,-0.02136736,-0.0
 1354631,0.01835263,-0.07590956,-0.10321624,0.07119455,0.00061871,0.001
 68094,0.00050703,0.00004805,0.00098406,-0.00022848,-0.00131397,-0.0054
 5951,-0.00237227,0.00022613,0.00106780,0.00073416,0.01235449,0.0095307
 2,-0.01194209,0.08534377,0.10826772,-0.00822691,-0.00558181,0.00900787
 ,0.10492775,0.06828615,-0.14385159,0.01761497,0.01522621,-0.03345570,0
 .00012183,0.00072065,0.00045408,-0.00051861,-0.00310304,-0.00000079,0.
 00028941,0.00048512,0.00013267,0.00125628,0.00010607,0.00133558,-0.112
 78256,-0.07611061,0.17216164,0.00078976,0.00118118,-0.00130805,0.01123
 363,0.00782493,-0.01855271,-0.22362768,-0.13630511,0.20468219,-0.00028
 612,-0.00019193,-0.00011149,-0.00046654,-0.00044149,0.00061633,-0.0001
 5245,0.00005643,0.00044812,0.00034489,0.00096111,-0.00103120,-0.000046
 82,0.00027732,-0.00333432,0.21365947,0.00223957,0.00198480,-0.00170403
 ,-0.00152963,-0.00047406,-0.00118853,-0.12897425,-0.09270568,0.1412677
 3,-0.00023704,-0.00059850,0.00039192,-0.00108536,-0.00008399,0.0003453
 9,0.00018837,-0.00035010,-0.00029574,-0.00077508,-0.00050021,-0.000004
 35,0.00113048,0.00064754,0.00016163,0.12799022,0.09128331,0.00124526,-
 0.00046724,0.00245880,0.02644750,0.01848789,-0.02994103,0.15956653,0.1
 2079110,-0.23506688,-0.00004571,0.00055800,0.00093924,-0.00061951,-0.0
 0125324,-0.00044260,0.00003201,-0.00012400,-0.00011942,0.00013740,0.00
 043372,0.00181988,-0.00472773,-0.00028389,-0.00531805,-0.18340344,-0.1
 3750245,0.26570292,0.00024036,-0.00004234,-0.00004313,-0.00021875,0.00
 012442,-0.00020933,-0.00018236,0.00069455,-0.00012177,-0.00006462,0.00
 004485,-0.00001484,0.00001021,-0.00001733,-0.00000403,0.00020648,0.000
 12012,0.00020664,-0.00017659,-0.00002489,0.00011492,-0.00068107,-0.000
 31728,0.00021399,0.00020316,-0.00015234,-0.00008513,0.59096408,-0.0000
 2087,-0.00002715,-0.00002359,0.00032793,-0.00000626,0.00093301,-0.0008
 5123,-0.00012810,-0.00002952,-0.00007669,-0.00005136,-0.00006490,0.000
 01634,-0.00005347,-0.00001754,0.00003571,0.00003938,0.00008820,-0.0001
 5446,0.00000982,-0.00003819,0.00025425,0.00006194,0.00030179,-0.000363
 54,-0.00005829,-0.00025043,0.01579631,0.52887684,-0.00012287,0.0000332
 1,0.00004290,0.00015591,0.00009490,0.00025264,-0.00004679,-0.00017436,
 -0.00026424,-0.00006533,-0.00002561,-0.00002163,0.00007033,-0.00009361
 ,-0.00006479,-0.00014059,-0.00028755,0.00009358,0.00004515,-0.00002812
 ,-0.00007439,-0.00002057,0.00039302,0.00036423,-0.00012092,0.00004871,
 -0.00005119,-0.00651723,0.04234301,0.55442726,-0.00006931,0.00041635,0
 .00073962,-0.00177989,0.00140570,-0.00250023,0.00384679,-0.00283885,0.
 00034803,0.00042644,-0.00011615,0.00020476,0.00016477,-0.00017570,-0.0
 0013264,-0.00148524,-0.00102158,-0.00113431,0.00057058,-0.00024943,0.0
 0026493,0.00005509,0.00040299,0.00006699,-0.00001574,0.00034842,0.0007
 2843,-0.09182107,0.02503387,-0.01777932,0.57859327,0.00017075,0.000355
 40,0.00063535,-0.00106609,0.00137754,-0.00239577,0.00440257,-0.0048322
 9,0.00040321,0.00029853,-0.00006324,0.00011003,0.00000234,-0.00014774,
 -0.00005428,-0.00054955,-0.00070796,-0.00052185,0.00022413,-0.00022552
 ,0.00043881,0.00005673,-0.00011867,0.00026738,-0.00047339,0.00041212,0
 .00032231,0.03274253,-0.16070687,0.05654970,-0.04323691,0.54755513,-0.
 00033030,-0.00036877,-0.00095377,0.00008465,-0.00093282,0.00110939,-0.
 00070604,0.00035314,-0.00061861,-0.00029688,0.00011838,-0.00005305,-0.
 00000962,0.00011238,0.00003136,0.00065162,0.00064339,0.00112031,0.0000
 2470,0.00014951,-0.00019626,-0.00005124,0.00010637,-0.00034897,0.00015
 015,-0.00000225,0.00006655,-0.02189826,0.05623188,-0.13220632,-0.00979
 267,0.06294894,0.57290825,-0.00075593,-0.00099636,-0.00216671,0.002385
 04,-0.00207916,0.00509483,-0.01121124,0.01049981,0.00173392,-0.0011153
 1,0.00041963,-0.00027512,-0.00038501,0.00036378,0.00026345,-0.00067937
 ,0.00114865,0.00112906,-0.00088367,0.00044705,-0.00087026,0.00001940,-
 0.00018432,-0.00045538,0.00010818,0.00013429,-0.00148037,-0.00659634,-
 0.00967806,0.00615874,-0.21827191,-0.09454894,0.02986353,0.51677552,0.
 00017085,-0.00045629,-0.00057068,-0.00098613,-0.00128170,-0.00191087,0
 .00593222,0.00179105,-0.00150684,-0.00024180,0.00039361,0.00005200,0.0
 0014163,0.00008561,-0.00000018,0.00020782,0.00005937,0.00039476,0.0004
 1780,0.00026982,0.00048433,-0.00003355,0.00032524,-0.00010236,0.001595
 58,-0.00188620,0.00048927,-0.03893173,-0.02168132,0.01022601,-0.055812
 23,-0.14519124,-0.00146732,-0.05717119,0.38171660,-0.00010881,-0.00054
 661,0.00122930,0.00047267,-0.00052740,-0.00392723,0.00447037,-0.003208
 77,0.00475550,-0.00001247,0.00014592,0.00013224,-0.00073396,0.00019613
 ,0.00007583,-0.00028132,0.00056912,-0.00169673,0.00030580,0.00001899,0
 .00098504,0.00006441,-0.00056716,0.00049366,-0.00096515,0.00045778,-0.
 00008394,0.02596740,0.01661564,-0.00134961,0.03468714,0.01103895,-0.08
 132411,-0.16586219,0.08801432,0.13911172,-0.00002098,-0.00000514,0.000
 06162,0.00024412,0.00019891,-0.00012952,-0.00012673,-0.00006104,0.0001
 1189,-0.00000419,-0.00000333,-0.00002314,-0.00003757,-0.00004510,0.000
 01340,0.00003311,0.00005514,-0.00000690,-0.00014208,-0.00003651,0.0000
 8118,0.00004276,-0.00016015,0.00019622,-0.00007377,-0.00001571,-0.0000
 9396,-0.24887950,-0.10927850,0.04372136,0.00566512,0.00397646,-0.00166
 423,0.00154783,0.00097496,-0.00020673,0.26290590,0.00004080,-0.0000592
 0,-0.00009898,0.00007900,-0.00021144,0.00016210,-0.00022415,0.00041149
 ,-0.00010666,-0.00002251,0.00002150,-0.00000269,-0.00000655,0.00004918
 ,0.00001478,0.00008539,0.00007185,0.00008694,0.00001583,0.00004317,-0.
 00004870,-0.00009267,0.00001976,-0.00014481,0.00013112,-0.00004907,0.0
 0000899,-0.10690550,-0.10781601,0.02458814,-0.02482720,-0.00705665,-0.
 00071659,-0.00103374,-0.00632308,0.00591033,0.11832997,0.11286296,0.00
 004316,0.00002543,0.00008533,-0.00017564,0.00014171,-0.00039385,0.0002
 7258,-0.00011814,0.00011810,0.00004467,0.00000235,0.00001610,-0.000034
 13,0.00000061,0.00001430,-0.00002873,0.00001989,-0.00009764,-0.0000073
 4,-0.00002543,0.00008436,0.00002076,-0.00014030,-0.00003479,0.00004086
 ,0.00003247,0.00006077,0.04213821,0.02411247,-0.05894316,0.01896388,0.
 00422497,-0.00186975,0.00053167,0.00535210,-0.00220249,-0.04743271,-0.
 02803668,0.05687938,0.00004045,-0.00001753,-0.00002703,-0.00090416,-0.
 00038464,0.00009066,-0.00053176,-0.00023525,-0.00004949,0.00001799,0.0
 0002736,0.00002479,0.00000994,0.00000535,-0.00000868,-0.00001162,-0.00
 002488,-0.00001378,0.00013060,0.00004367,-0.00003292,-0.00047055,-0.00
 002590,-0.00030568,-0.00001681,0.00012790,0.00008374,-0.15135639,0.105
 73168,0.07280901,-0.00453780,0.00242753,0.00334360,0.00180074,-0.00068
 678,-0.00103595,-0.01376440,0.01840627,0.01108579,0.15899459,0.0000740
 5,-0.00003890,-0.00005245,-0.00051504,-0.00024211,-0.00032360,-0.00006
 831,0.00031631,0.00005102,0.00002374,0.00004886,0.00004550,0.00002275,
 0.00007090,-0.00000177,-0.00000388,-0.00002928,-0.00001602,0.00021118,
 0.00006082,-0.00004893,-0.00026403,0.00007959,-0.00025865,0.00030899,0
 .00004636,0.00018515,0.10438279,-0.15904261,-0.07763686,0.01858168,-0.
 01786688,-0.01346731,-0.00105935,0.00302741,-0.00043050,-0.00976505,0.
 01181400,0.00800896,-0.11634387,0.17081533,0.00006248,0.00000879,-0.00
 023790,0.00000518,-0.00024419,0.00074446,0.00015878,0.00012015,-0.0004
 4789,0.00000003,-0.00003401,-0.00000515,0.00002451,0.00011001,0.000021
 12,0.00002275,0.00001089,0.00002396,0.00004895,0.00005908,-0.00015041,
 -0.00040824,-0.00011443,-0.00021214,0.00003931,-0.00005614,-0.00007549
 ,0.07465094,-0.07907732,-0.10454261,-0.01463274,0.01580051,0.01026395,
 -0.00123270,-0.00230595,0.00096494,0.00181039,-0.00316000,-0.00283267,
 -0.07900523,0.08126248,0.10702846,0.00001587,0.00006843,-0.00004316,-0
 .00019496,-0.00004063,0.00029117,0.00002113,-0.00011171,-0.00014453,-0
 .00000220,-0.00001514,0.00000313,0.00003879,0.00002788,-0.00001107,-0.
 00005024,-0.00013327,-0.00000973,0.00008231,0.00002086,-0.00008392,-0.
 00022774,0.00017580,0.00006532,-0.00004081,-0.00001014,0.00000712,-0.0
 9371006,-0.03051134,-0.09325995,-0.00379548,-0.00308515,-0.00525540,0.
 00132586,0.00062485,0.00128456,-0.00826973,-0.00589031,-0.02384009,0.0
 0976861,0.00512809,0.01819903,0.09459000,-0.00004390,0.00007704,0.0000
 7455,-0.00005342,0.00021639,-0.00040033,0.00018200,-0.00004267,0.00017
 268,0.00001372,0.00001957,0.00000657,0.00000524,-0.00006128,-0.0000035
 7,-0.00008428,-0.00009154,0.00001068,-0.00003920,-0.00005228,0.0000696
 3,0.00005495,-0.00007359,-0.00004332,0.00004427,0.00001236,0.00004007,
 -0.03239498,-0.07205423,-0.07071971,0.01242175,0.00843683,0.02648587,0
 .00082138,0.00220253,-0.00295040,-0.00360619,-0.00423137,-0.01255679,-
 0.00983920,-0.00513073,-0.01563611,0.03240550,0.07359163,0.00005299,-0
 .00001055,0.00014166,0.00003771,0.00018485,-0.00067021,0.00024511,-0.0
 0000550,0.00044018,0.00003676,0.00001760,0.00000261,-0.00008494,-0.000
 03362,0.00002921,0.00011254,0.00018022,-0.00010331,-0.00012440,-0.0000
 4230,0.00017650,0.00011703,-0.00026726,-0.00005444,0.00000224,0.000000
 42,-0.00001994,-0.09270250,-0.06850278,-0.25040732,-0.00981718,-0.0073
 0331,-0.01754245,0.00184859,-0.00090368,0.00286806,0.00350267,0.002670
 04,0.00820561,-0.00597298,-0.00210076,-0.00989183,0.10341007,0.0718203
 7,0.26753100,-0.00002527,-0.00022629,-0.00021881,0.00024809,-0.0003532
 7,0.00000938,-0.00044256,0.00068807,0.00041450,-0.00012161,0.00007853,
 -0.00002004,-0.00007612,0.00003461,0.00003419,0.00037011,0.00035654,0.
 00037543,-0.00004835,0.00006717,0.00002706,0.00003191,-0.00005713,0.00
 000533,-0.00001210,-0.00010477,-0.00017561,0.00018415,-0.00033549,-0.0
 0649579,-0.08690649,-0.01916139,-0.07674360,-0.02792905,-0.02072835,-0
 .02173773,0.00030794,0.00054724,-0.00028620,-0.00020993,-0.00077330,-0
 .00014344,0.00080269,0.00048757,-0.00061205,0.10200725,-0.00002276,-0.
 00016001,-0.00023047,0.00020174,-0.00034589,0.00040321,-0.00058658,0.0
 0057896,-0.00008145,-0.00010336,0.00003605,-0.00002710,-0.00003863,0.0
 0004133,0.00001815,0.00030548,0.00026147,0.00031710,-0.00004825,0.0000
 6354,-0.00005439,-0.00001431,0.00001361,0.00000007,0.00002554,-0.00007
 684,-0.00012417,0.01137483,0.00738473,0.02555888,-0.02193121,-0.072045
 66,-0.06106303,-0.02030483,-0.00796688,-0.01237888,-0.00053079,0.00092
 147,-0.00080986,-0.00006799,0.00122694,-0.00074849,0.00134189,-0.00421
 143,0.00412608,0.03601969,0.07888039,0.00004035,-0.00000241,0.00004912
 ,0.00013227,0.00001694,-0.00018265,-0.00013678,0.00022293,0.00024314,0
 .00001892,0.00001054,-0.00000044,-0.00003812,-0.00000653,0.00002118,0.
 00003654,0.00005391,-0.00001079,-0.00005788,-0.00000482,0.00003986,0.0
 0004442,-0.00008456,0.00003203,-0.00002138,-0.00005385,-0.00008717,-0.
 00700795,-0.00605172,-0.01721304,-0.07853301,-0.06045493,-0.24038897,0
 .00079184,0.00254541,0.01610071,0.00038226,0.00021411,-0.00017447,-0.0
 0016865,0.00008670,0.00129364,-0.00062871,0.00400145,-0.00125106,0.090
 47882,0.06297574,0.25190317,-0.00000734,-0.00006685,-0.00015982,0.0003
 7721,-0.00011725,0.00069101,-0.00135402,0.00117080,-0.00011509,-0.0000
 7510,0.00001025,-0.00004036,0.00000769,-0.00000453,0.00001593,0.000095
 07,0.00013217,0.00015660,-0.00011276,0.00001945,-0.00011730,0.00002793
 ,-0.00002124,-0.00002269,0.00004852,-0.00007362,-0.00012394,-0.0016049
 5,0.00359673,0.00171644,-0.14598117,0.10129165,0.06616121,-0.03347878,
 0.01471556,0.01759631,0.00042850,0.00022519,-0.00030702,0.00098044,0.0
 0056687,-0.00040409,-0.00025384,-0.00001742,0.00027722,0.01005167,-0.0
 0756881,-0.00516005,0.17294944,0.00003411,-0.00001099,-0.00008425,-0.0
 0003865,-0.00015849,0.00026874,-0.00057990,0.00075473,-0.00002387,-0.0
 0001008,0.00000076,0.00000316,0.00001795,0.00003357,0.00000385,0.00000
 815,0.00002802,0.00004186,0.00000039,0.00002580,-0.00006598,-0.0000437
 0,0.00000357,-0.00009711,0.00006532,-0.00004706,-0.00000365,0.01574194
 ,-0.01680593,-0.01177873,0.11119695,-0.16582952,-0.08026812,-0.0193882
 0,0.01490806,0.01163293,-0.00045236,0.00026983,-0.00024591,0.00063810,
 -0.00349835,0.00415937,-0.00023411,0.00138438,0.00016773,0.00505916,-0
 .00386232,-0.00291350,-0.10880443,0.17412856,-0.00001532,0.00002762,0.
 00007411,-0.00010371,0.00010482,-0.00033051,0.00042404,-0.00037453,0.0
 0016596,0.00002739,-0.00000144,0.00001617,0.00000747,-0.00002490,-0.00
 001727,-0.00008785,-0.00004794,-0.00003084,0.00004979,-0.00002172,0.00
 004931,0.00003171,0.00003451,0.00005615,-0.00007645,0.00001660,0.00002
 320,-0.01391324,0.01519446,0.00974453,0.07147089,-0.07796784,-0.106807
 42,0.00798397,-0.00098014,-0.00058768,0.00035385,-0.00093626,0.0006763
 4,-0.00109779,0.00412909,-0.00190900,-0.00014384,-0.00055005,0.0011303
 1,0.01666133,-0.01836272,-0.01086942,-0.08102749,0.07811053,0.10779739
 ,-0.00055487,-0.00054200,0.00116599,-0.00458829,0.00194382,-0.01004952
 ,0.00101361,-0.00602174,0.00280585,0.00053367,0.00029757,0.00044092,-0
 .00022625,-0.00005409,-0.00014680,0.00054567,-0.00013176,-0.00085153,0
 .00161031,-0.00022245,0.00167195,0.00020358,-0.00009035,0.00088808,-0.
 00164876,0.00079868,0.00250739,0.00348325,0.00047735,-0.00010757,-0.03
 465796,0.01652818,0.01646878,-0.22265595,0.14981048,0.10609565,0.00014
 368,0.00114185,-0.00102972,0.00006006,-0.00050732,0.00080409,-0.000100
 19,-0.00035777,-0.00032890,0.00176767,0.00194836,-0.00017289,-0.002098
 52,-0.00321061,-0.00054477,0.25716928,-0.00058835,0.00091436,-0.000095
 25,0.00218117,0.00103440,0.00605416,-0.00074784,-0.00630783,-0.0007650
 4,0.00018546,-0.00068813,-0.00021007,-0.00009123,-0.00010091,0.0000269
 1,-0.00037333,-0.00050225,-0.00093784,-0.00109559,-0.00013914,-0.00130
 545,0.00002128,-0.00026817,-0.00011338,-0.00268656,0.00244350,-0.00130
 743,-0.00223595,0.00205890,0.00090898,-0.01959843,0.01665520,0.0111363
 5,0.19260957,-0.21999258,-0.11399039,0.00042444,-0.00073841,0.00001217
 ,0.00021819,-0.00165765,-0.00015464,0.00023850,0.00000839,0.00000246,-
 0.00159860,-0.00073945,-0.00055540,-0.00505453,-0.00132463,0.00164992,
 -0.16180821,0.20934439,-0.00068571,0.00043212,-0.00009393,-0.00370366,
 0.00264582,0.00371291,-0.00043043,0.00175703,-0.00990073,0.00036788,-0
 .00030739,-0.00009256,0.00058467,-0.00003266,-0.00006477,-0.00087166,-
 0.00129099,-0.00104607,-0.00048628,-0.00002111,-0.00144559,-0.00017283
 ,0.00078878,-0.00076143,0.00294591,-0.00191531,0.00013435,-0.00077468,
 -0.00176447,0.00021317,0.00684743,-0.00404219,-0.00319012,0.11694311,-
 0.09781016,-0.07554521,-0.00067765,-0.00040406,0.00040854,0.00028058,0
 .00056795,-0.00003544,0.00016000,0.00017839,-0.00058457,-0.00157278,0.
 00048134,0.00049516,0.00086313,0.00109295,0.00081867,-0.11961702,0.099
 64394,0.08697762\\-0.00000015,0.00000002,-0.00000047,0.00000009,-0.000
 00004,0.00000009,-0.00000063,-0.00000011,0.00000002,0.00000007,0.00000
 046,-0.00000038,0.00000017,-0.00000005,-0.00000059,0.00000008,0.000000
 21,-0.00000073,0.00000014,0.00000026,-0.00000036,0.00000034,-0.0000000
 8,0.00000021,-0.00000005,-0.00000069,-0.00000021,0.00000009,0.00000012
 ,0.00000038,0.00000031,-0.00000002,0.00000036,-0.00000047,-0.00000017,
 -0.00000060,0.00000007,0.00000018,0.00000076,0.,-0.00000005,0.00000051
 ,0.00000025,0.00000035,0.00000037,-0.00000023,-0.00000027,0.00000029,-
 0.00000003,0.,0.00000018,-0.00000005,-0.00000011,0.00000017\\\@


 A successful marriage requires falling in love
 many times, always with the same person.
                           -- Mignon McLaughlin
 Job cpu time:       0 days  0 hours  4 minutes 23.7 seconds.
 Elapsed time:       0 days  0 hours  1 minutes 12.1 seconds.
 File lengths (MBytes):  RWF=     31 Int=      0 D2E=      0 Chk=      2 Scr=      1
 Normal termination of Gaussian 16 at Fri Feb  3 10:59:15 2023.
real 564.37
user 2025.07
sys 20.01
