 Entering Gaussian System, Link 0=g16
 Input=gaussian_test.inp
 Output=gaussian_test.log
 Initial command:
 /sw/restricted/lms/sw/Gaussian/g16_B01/g16/l1.exe "/scratch/user/peterchao1/peterchao1/6097802_1659647585000000600324111/Gau-212030.inp" -scrdir="/scratch/user/peterchao1/peterchao1/6097802_1659647585000000600324111/"
 Entering Link 1 = /sw/restricted/lms/sw/Gaussian/g16_B01/g16/l1.exe PID=    212031.
  
 Copyright (c) 1988-2017, Gaussian, Inc.  All Rights Reserved.
  
 This is part of the Gaussian(R) 16 program.  It is based on
 the Gaussian(R) 09 system (copyright 2009, Gaussian, Inc.),
 the Gaussian(R) 03 system (copyright 2003, Gaussian, Inc.),
 the Gaussian(R) 98 system (copyright 1998, Gaussian, Inc.),
 the Gaussian(R) 94 system (copyright 1995, Gaussian, Inc.),
 the Gaussian 92(TM) system (copyright 1992, Gaussian, Inc.),
 the Gaussian 90(TM) system (copyright 1990, Gaussian, Inc.),
 the Gaussian 88(TM) system (copyright 1988, Gaussian, Inc.),
 the Gaussian 86(TM) system (copyright 1986, Carnegie Mellon
 University), and the Gaussian 82(TM) system (copyright 1983,
 Carnegie Mellon University). Gaussian is a federally registered
 trademark of Gaussian, Inc.
  
 This software contains proprietary and confidential information,
 including trade secrets, belonging to Gaussian, Inc.
  
 This software is provided under written license and may be
 used, copied, transmitted, or stored only in accord with that
 written license.
  
 The following legend is applicable only to US Government
 contracts under FAR:
  
                    RESTRICTED RIGHTS LEGEND
  
 Use, reproduction and disclosure by the US Government is
 subject to restrictions as set forth in subparagraphs (a)
 and (c) of the Commercial Computer Software - Restricted
 Rights clause in FAR 52.227-19.
  
 Gaussian, Inc.
 340 Quinnipiac St., Bldg. 40, Wallingford CT 06492
  
  
 ---------------------------------------------------------------
 Warning -- This program may not be used in any manner that
 competes with the business of Gaussian, Inc. or will provide
 assistance to any competitor of Gaussian, Inc.  The licensee
 of this program is prohibited from giving any competitor of
 Gaussian, Inc. access to this program.  By using this program,
 the user acknowledges that Gaussian, Inc. is engaged in the
 business of creating and licensing software in the field of
 computational chemistry and represents and warrants to the
 licensee that it is not a competitor of Gaussian, Inc. and that
 it will not use this program in any manner prohibited above.
 ---------------------------------------------------------------
  

 Cite this work as:
 Gaussian 16, Revision B.01,
 M. J. Frisch, G. W. Trucks, H. B. Schlegel, G. E. Scuseria, 
 M. A. Robb, J. R. Cheeseman, G. Scalmani, V. Barone, 
 G. A. Petersson, H. Nakatsuji, X. Li, M. Caricato, A. V. Marenich, 
 J. Bloino, B. G. Janesko, R. Gomperts, B. Mennucci, H. P. Hratchian, 
 J. V. Ortiz, A. F. Izmaylov, J. L. Sonnenberg, D. Williams-Young, 
 F. Ding, F. Lipparini, F. Egidi, J. Goings, B. Peng, A. Petrone, 
 T. Henderson, D. Ranasinghe, V. G. Zakrzewski, J. Gao, N. Rega, 
 G. Zheng, W. Liang, M. Hada, M. Ehara, K. Toyota, R. Fukuda, 
 J. Hasegawa, M. Ishida, T. Nakajima, Y. Honda, O. Kitao, H. Nakai, 
 T. Vreven, K. Throssell, J. A. Montgomery, Jr., J. E. Peralta, 
 F. Ogliaro, M. J. Bearpark, J. J. Heyd, E. N. Brothers, K. N. Kudin, 
 V. N. Staroverov, T. A. Keith, R. Kobayashi, J. Normand, 
 K. Raghavachari, A. P. Rendell, J. C. Burant, S. S. Iyengar, 
 J. Tomasi, M. Cossi, J. M. Millam, M. Klene, C. Adamo, R. Cammi, 
 J. W. Ochterski, R. L. Martin, K. Morokuma, O. Farkas, 
 J. B. Foresman, and D. J. Fox, Gaussian, Inc., Wallingford CT, 2016.
 
 ******************************************
 Gaussian 16:  ES64L-G16RevB.01 20-Dec-2017
                 4-Aug-2022 
 ******************************************
 %nprocshared=4
 Will use up to    4 processors via shared memory.
 %mem=8000mb
 ----------------------------------------------------------------------
 #T wB97XD/def2svpp opt=tight freq int(grid=ultrafine) scf=(verytight,q
 c)
 ----------------------------------------------------------------------
 --------------
 Comment gs min
 --------------
 Symbolic Z-matrix:
 Charge =  0 Multiplicity = 1
 N                     1.00683   0.02389  -0.26369 
 C                     2.49413   0.07871  -0.10841 
 C                     2.99779   1.49581  -0.50101 
 O                     2.51062   1.94401  -1.76261 
 C                     2.91724  -0.19854   1.35212 
 O                     2.41932  -1.45604   1.80392 
 C                     3.08537  -1.01043  -1.038 
 O                     2.60664  -0.8551   -2.3767 
 H                     0.58392   0.77044   0.28586 
 H                     0.67548  -0.85726   0.13294 
 H                     4.09268   1.5216   -0.53108 
 H                     2.67075   2.23653   0.23769 
 H                     2.06722   1.17594  -2.17496 
 H                     2.55233   0.57945   2.0329 
 H                     4.00936  -0.22552   1.43413 
 H                     1.54922  -1.29771   2.20749 
 H                     2.8041   -2.01817  -0.71051 
 H                     4.17932  -0.96011  -1.05829 
 H                     1.6333   -0.93354  -2.30352 
 

 GradGradGradGradGradGradGradGradGradGradGradGradGradGradGradGradGradGrad
 Initialization pass.
                           ----------------------------
                           !    Initial Parameters    !
                           ! (Angstroms and Degrees)  !
 --------------------------                            --------------------------
 ! Name  Definition              Value          Derivative Info.                !
 --------------------------------------------------------------------------------
 ! R1    R(1,2)                  1.4964         estimate D2E/DX2                !
 ! R2    R(1,9)                  1.0189         estimate D2E/DX2                !
 ! R3    R(1,10)                 1.0215         estimate D2E/DX2                !
 ! R4    R(2,3)                  1.5543         estimate D2E/DX2                !
 ! R5    R(2,5)                  1.5457         estimate D2E/DX2                !
 ! R6    R(2,7)                  1.5492         estimate D2E/DX2                !
 ! R7    R(3,4)                  1.4247         estimate D2E/DX2                !
 ! R8    R(3,11)                 1.0956         estimate D2E/DX2                !
 ! R9    R(3,12)                 1.096          estimate D2E/DX2                !
 ! R10   R(4,13)                 0.978          estimate D2E/DX2                !
 ! R11   R(5,6)                  1.426          estimate D2E/DX2                !
 ! R12   R(5,14)                 1.0963         estimate D2E/DX2                !
 ! R13   R(5,15)                 1.0955         estimate D2E/DX2                !
 ! R14   R(6,16)                 0.9721         estimate D2E/DX2                !
 ! R15   R(7,8)                  1.4302         estimate D2E/DX2                !
 ! R16   R(7,17)                 1.0963         estimate D2E/DX2                !
 ! R17   R(7,18)                 1.0953         estimate D2E/DX2                !
 ! R18   R(8,19)                 0.9792         estimate D2E/DX2                !
 ! A1    A(2,1,9)              109.2522         estimate D2E/DX2                !
 ! A2    A(2,1,10)             108.2826         estimate D2E/DX2                !
 ! A3    A(9,1,10)             106.7357         estimate D2E/DX2                !
 ! A4    A(1,2,3)              109.2236         estimate D2E/DX2                !
 ! A5    A(1,2,5)              111.3192         estimate D2E/DX2                !
 ! A6    A(1,2,7)              106.9363         estimate D2E/DX2                !
 ! A7    A(3,2,5)              108.2707         estimate D2E/DX2                !
 ! A8    A(3,2,7)              111.4531         estimate D2E/DX2                !
 ! A9    A(5,2,7)              109.6594         estimate D2E/DX2                !
 ! A10   A(2,3,4)              113.5577         estimate D2E/DX2                !
 ! A11   A(2,3,11)             110.6229         estimate D2E/DX2                !
 ! A12   A(2,3,12)             110.4398         estimate D2E/DX2                !
 ! A13   A(4,3,11)             108.0596         estimate D2E/DX2                !
 ! A14   A(4,3,12)             106.3899         estimate D2E/DX2                !
 ! A15   A(11,3,12)            107.5044         estimate D2E/DX2                !
 ! A16   A(3,4,13)             106.3381         estimate D2E/DX2                !
 ! A17   A(2,5,6)              111.2224         estimate D2E/DX2                !
 ! A18   A(2,5,14)             111.6151         estimate D2E/DX2                !
 ! A19   A(2,5,15)             110.3678         estimate D2E/DX2                !
 ! A20   A(6,5,14)             108.2301         estimate D2E/DX2                !
 ! A21   A(6,5,15)             107.6175         estimate D2E/DX2                !
 ! A22   A(14,5,15)            107.6264         estimate D2E/DX2                !
 ! A23   A(5,6,16)             107.4842         estimate D2E/DX2                !
 ! A24   A(2,7,8)              110.9508         estimate D2E/DX2                !
 ! A25   A(2,7,17)             111.659          estimate D2E/DX2                !
 ! A26   A(2,7,18)             111.1            estimate D2E/DX2                !
 ! A27   A(8,7,17)             107.0716         estimate D2E/DX2                !
 ! A28   A(8,7,18)             108.1794         estimate D2E/DX2                !
 ! A29   A(17,7,18)            107.6985         estimate D2E/DX2                !
 ! A30   A(7,8,19)             104.7183         estimate D2E/DX2                !
 ! D1    D(9,1,2,3)            -55.428          estimate D2E/DX2                !
 ! D2    D(9,1,2,5)             64.0768         estimate D2E/DX2                !
 ! D3    D(9,1,2,7)           -176.1639         estimate D2E/DX2                !
 ! D4    D(10,1,2,3)          -171.3164         estimate D2E/DX2                !
 ! D5    D(10,1,2,5)           -51.8116         estimate D2E/DX2                !
 ! D6    D(10,1,2,7)            67.9477         estimate D2E/DX2                !
 ! D7    D(1,2,3,4)            -50.3914         estimate D2E/DX2                !
 ! D8    D(1,2,3,11)          -172.0887         estimate D2E/DX2                !
 ! D9    D(1,2,3,12)            69.0154         estimate D2E/DX2                !
 ! D10   D(5,2,3,4)           -171.7637         estimate D2E/DX2                !
 ! D11   D(5,2,3,11)            66.5389         estimate D2E/DX2                !
 ! D12   D(5,2,3,12)           -52.357          estimate D2E/DX2                !
 ! D13   D(7,2,3,4)             67.5457         estimate D2E/DX2                !
 ! D14   D(7,2,3,11)           -54.1516         estimate D2E/DX2                !
 ! D15   D(7,2,3,12)          -173.0475         estimate D2E/DX2                !
 ! D16   D(1,2,5,6)             56.595          estimate D2E/DX2                !
 ! D17   D(1,2,5,14)           -64.392          estimate D2E/DX2                !
 ! D18   D(1,2,5,15)           175.9685         estimate D2E/DX2                !
 ! D19   D(3,2,5,6)            176.6648         estimate D2E/DX2                !
 ! D20   D(3,2,5,14)            55.6778         estimate D2E/DX2                !
 ! D21   D(3,2,5,15)           -63.9617         estimate D2E/DX2                !
 ! D22   D(7,2,5,6)            -61.5359         estimate D2E/DX2                !
 ! D23   D(7,2,5,14)           177.4771         estimate D2E/DX2                !
 ! D24   D(7,2,5,15)            57.8376         estimate D2E/DX2                !
 ! D25   D(1,2,7,8)             53.6109         estimate D2E/DX2                !
 ! D26   D(1,2,7,17)           -65.7479         estimate D2E/DX2                !
 ! D27   D(1,2,7,18)           173.9973         estimate D2E/DX2                !
 ! D28   D(3,2,7,8)            -65.6947         estimate D2E/DX2                !
 ! D29   D(3,2,7,17)           174.9465         estimate D2E/DX2                !
 ! D30   D(3,2,7,18)            54.6917         estimate D2E/DX2                !
 ! D31   D(5,2,7,8)            174.432          estimate D2E/DX2                !
 ! D32   D(5,2,7,17)            55.0732         estimate D2E/DX2                !
 ! D33   D(5,2,7,18)           -65.1816         estimate D2E/DX2                !
 ! D34   D(2,3,4,13)            -8.9991         estimate D2E/DX2                !
 ! D35   D(11,3,4,13)          114.1158         estimate D2E/DX2                !
 ! D36   D(12,3,4,13)         -130.6912         estimate D2E/DX2                !
 ! D37   D(2,5,6,16)           -90.5991         estimate D2E/DX2                !
 ! D38   D(14,5,6,16)           32.354          estimate D2E/DX2                !
 ! D39   D(15,5,6,16)          148.4            estimate D2E/DX2                !
 ! D40   D(2,7,8,19)           -59.4784         estimate D2E/DX2                !
 ! D41   D(17,7,8,19)           62.5952         estimate D2E/DX2                !
 ! D42   D(18,7,8,19)          178.4171         estimate D2E/DX2                !
 --------------------------------------------------------------------------------
 Number of steps in this run=    100 maximum allowed number of steps=    114.
 GradGradGradGradGradGradGradGradGradGradGradGradGradGradGradGradGradGrad

                    Distance matrix (angstroms):
                    1          2          3          4          5
     1  N    0.000000
     2  C    1.496388   0.000000
     3  C    2.487326   1.554342   0.000000
     4  O    2.862692   2.493189   1.424729   0.000000
     5  C    2.511968   1.545651   2.512250   3.802289   0.000000
     6  O    2.908665   2.453173   3.789558   4.928368   1.425957
     7  C    2.447387   1.549170   2.564618   3.095822   2.529843
     8  O    2.792280   2.455565   3.032819   2.867288   3.798900
     9  H    1.018919   2.069503   2.640472   3.047240   2.742301
    10  H    1.021535   2.059558   3.366297   3.848112   2.635489
    11  H    3.440509   2.194526   1.095606   2.048905   2.808377
    12  H    2.813501   2.192525   1.096038   2.027908   2.689289
    13  H    2.470749   2.378402   1.941748   0.978043   3.879694
    14  H    2.823392   2.199849   2.731090   4.033567   1.096307
    15  H    3.458321   2.183554   2.780471   4.143939   1.095527
    16  H    2.854390   2.854957   4.151877   5.214857   1.952258
    17  H    2.756780   2.203523   3.525544   4.109978   2.752871
    18  H    3.415309   2.195742   2.781747   3.422651   2.825405
    19  H    2.338812   2.565967   3.318526   3.056561   3.943657
                    6          7          8          9         10
     6  O    0.000000
     7  C    2.952745   0.000000
     8  O    4.227742   1.430184   0.000000
     9  H    3.260431   3.343853   3.717930   0.000000
    10  H    2.488311   2.683679   3.166651   1.637429   0.000000
    11  H    4.137475   2.771790   3.356089   3.680085   4.216296
    12  H    4.018876   3.513125   4.049361   2.550804   3.682881
    13  H    4.783595   2.666369   2.111113   2.901766   3.375981
    14  H    2.052643   3.498897   4.637397   2.638800   3.032581
    15  H    2.044297   2.753410   4.109309   3.747546   3.634136
    16  H    0.972117   3.602151   4.725340   2.983573   2.293725
    17  H    2.605073   1.096313   2.041546   3.701121   2.567127
    18  H    3.396438   1.095295   2.054885   4.210516   3.702229
    19  H    4.214487   1.927683   0.979234   3.272558   2.619079
                   11         12         13         14         15
    11  H    0.000000
    12  H    1.767489   0.000000
    13  H    2.631408   2.703697   0.000000
    14  H    3.135972   2.445959   4.277525   0.000000
    15  H    2.630859   3.047136   4.331458   1.769022   0.000000
    16  H    4.681609   4.198666   5.058966   2.135519   2.792842
    17  H    3.771287   4.361117   3.590257   3.786465   3.043966
    18  H    2.538571   3.764818   3.204782   3.817433   2.603971
    19  H    3.901001   4.193256   2.157480   4.683833   4.485196
                   16         17         18         19
    16  H    0.000000
    17  H    3.257071   0.000000
    18  H    4.206747   1.769653   0.000000
    19  H    4.526467   2.254967   2.834347   0.000000
 Framework group  C1[X(C4H11NO3)]
 Deg. of freedom    51
                         Standard orientation:                         
 ---------------------------------------------------------------------
 Center     Atomic      Atomic             Coordinates (Angstroms)
 Number     Number       Type             X           Y           Z
 ---------------------------------------------------------------------
      1          7           0       -0.109545   -0.050790    1.462391
      2          6           0       -0.162707   -0.191899   -0.026380
      3          6           0        0.888641   -1.243618   -0.478633
      4          8           0        2.189599   -1.014114    0.054930
      5          6           0       -1.556446   -0.666874   -0.496410
      6          8           0       -2.581546    0.216581   -0.046932
      7          6           0        0.140454    1.205173   -0.623217
      8          8           0        1.366437    1.727851   -0.104370
      9          1           0       -0.241526   -0.965479    1.891484
     10          1           0       -0.897049    0.529030    1.757655
     11          1           0        0.968415   -1.264392   -1.571134
     12          1           0        0.592339   -2.246562   -0.150597
     13          1           0        2.158948   -0.137304    0.487171
     14          1           0       -1.785475   -1.673672   -0.127909
     15          1           0       -1.600277   -0.696186   -1.590667
     16          1           0       -2.889226   -0.108128    0.816149
     17          1           0       -0.646464    1.928626   -0.379745
     18          1           0        0.223600    1.158227   -1.714341
     19          1           0        1.227958    1.772138    0.864010
 ---------------------------------------------------------------------
 Rotational constants (GHZ):           2.7562940           1.5196032           1.2580840
   134 basis functions,   244 primitive gaussians,   142 cartesian basis functions
    33 alpha electrons       33 beta electrons
       nuclear repulsion energy       433.6796983680 Hartrees.
 NAtoms=   19 NActive=   19 NUniq=   19 SFac= 1.00D+00 NAtFMM=   60 NAOKFM=F Big=F
 Nuclear repulsion after empirical dispersion term =      433.6670884607 Hartrees.
   1 Symmetry operations used in ECPInt.
 ECPInt:  NShTT=    2485 NPrTT=   10007 LenC2=    2464 LenP2D=    7948.
 LDataN:  DoStor=T MaxTD1= 4 Len=   56
 ExpMin= 1.22D-01 ExpMax= 2.27D+03 ExpMxC= 3.41D+02 IAcc=3 IRadAn=         5 AccDes= 0.00D+00
 Harris functional with IExCor= 4639 and IRadAn=       5 diagonalized for initial guess.
 HarFok:  IExCor= 4639 AccDes= 0.00D+00 IRadAn=         5 IDoV= 1 UseB2=F ITyADJ=14
 ICtDFT=  3500011 ScaDFX=  1.000000  1.000000  1.000000  1.000000
 FoFCou: FMM=F IPFlag=           0 FMFlag=      100000 FMFlg1=           0
         NFxFlg=           0 DoJE=T BraDBF=F KetDBF=T FulRan=T
         wScrn=  0.000000 ICntrl=       500 IOpCl=  0 I1Cent=   200000004 NGrid=           0
         NMat0=    1 NMatS0=      1 NMatT0=    0 NMatD0=    1 NMtDS0=    0 NMtDT0=    0
 Petite list used in FoFCou.
     Minimum is close to point  3 DX=  3.01D-02 DF= -1.31D-04 DXR=  4.78D-02 DFR=  2.27D-03 which will be used.
     Accept linear search using points  2 and  3.
     Accept linear search using points  1 and  2.
     Accept linear search using points  2 and  3.
     Accept linear search using points  1 and  2.
     Minimum is close to point  2 DX= -3.51D-05 DF=  0.00D+00 DXR=  3.51D-05 DFR=  0.00D+00 which will be used.
 SCF Done:  E(RwB97XD) =  -438.934876633     a.u. after    8 cycles
            Convg  =    0.3822D-09                    35 Fock formations.
              S**2 =  0.0000                  -V/T =  2.0084

 **********************************************************************

            Population analysis using the SCF Density.

 **********************************************************************

 Orbital symmetries:
       Occupied  (A) (A) (A) (A) (A) (A) (A) (A) (A) (A) (A) (A)
                 (A) (A) (A) (A) (A) (A) (A) (A) (A) (A) (A) (A)
                 (A) (A) (A) (A) (A) (A) (A) (A) (A)
       Virtual   (A) (A) (A) (A) (A) (A) (A) (A) (A) (A) (A) (A)
                 (A) (A) (A) (A) (A) (A) (A) (A) (A) (A) (A) (A)
                 (A) (A) (A) (A) (A) (A) (A) (A) (A) (A) (A) (A)
                 (A) (A) (A) (A) (A) (A) (A) (A) (A) (A) (A) (A)
                 (A) (A) (A) (A) (A) (A) (A) (A) (A) (A) (A) (A)
                 (A) (A) (A) (A) (A) (A) (A) (A) (A) (A) (A) (A)
                 (A) (A) (A) (A) (A) (A) (A) (A) (A) (A) (A) (A)
                 (A) (A) (A) (A) (A) (A) (A) (A) (A) (A) (A) (A)
                 (A) (A) (A) (A) (A)
 The electronic state is 1-A.
 Alpha  occ. eigenvalues --  -19.27134 -19.25275 -19.22547 -14.44490 -10.35386
 Alpha  occ. eigenvalues --  -10.34590 -10.34104 -10.33659  -1.13034  -1.11325
 Alpha  occ. eigenvalues --   -1.08378  -0.99229  -0.86105  -0.77315  -0.76052
 Alpha  occ. eigenvalues --   -0.67906  -0.63122  -0.60741  -0.58710  -0.57368
 Alpha  occ. eigenvalues --   -0.55935  -0.53299  -0.52523  -0.50420  -0.48463
 Alpha  occ. eigenvalues --   -0.47869  -0.43915  -0.42500  -0.41613  -0.38215
 Alpha  occ. eigenvalues --   -0.35743  -0.34489  -0.33257
 Alpha virt. eigenvalues --    0.09673   0.13938   0.14167   0.16632   0.18627
 Alpha virt. eigenvalues --    0.19735   0.20026   0.21100   0.22395   0.23771
 Alpha virt. eigenvalues --    0.24710   0.25756   0.27392   0.30283   0.31391
 Alpha virt. eigenvalues --    0.33319   0.34083   0.36727   0.52856   0.52896
 Alpha virt. eigenvalues --    0.55748   0.57448   0.58131   0.62816   0.63946
 Alpha virt. eigenvalues --    0.66406   0.67545   0.69171   0.69855   0.72169
 Alpha virt. eigenvalues --    0.74045   0.74996   0.76618   0.77284   0.77795
 Alpha virt. eigenvalues --    0.78565   0.80013   0.80932   0.81215   0.84631
 Alpha virt. eigenvalues --    0.84952   0.87953   0.90948   0.98628   1.04736
 Alpha virt. eigenvalues --    1.05994   1.08082   1.10891   1.12935   1.15182
 Alpha virt. eigenvalues --    1.19057   1.20996   1.22544   1.31929   1.33926
 Alpha virt. eigenvalues --    1.35309   1.35841   1.39973   1.50239   1.55303
 Alpha virt. eigenvalues --    1.59807   1.69716   1.73875   1.82011   1.83154
 Alpha virt. eigenvalues --    1.86682   1.89816   1.90786   1.92609   2.01971
 Alpha virt. eigenvalues --    2.03773   2.09023   2.13465   2.15791   2.19539
 Alpha virt. eigenvalues --    2.21735   2.30055   2.32944   2.37391   2.39449
 Alpha virt. eigenvalues --    2.53979   2.61348   2.68024   2.70200   2.70616
 Alpha virt. eigenvalues --    2.73987   2.75361   2.78046   2.88017   2.91569
 Alpha virt. eigenvalues --    2.97692   2.99627   3.01531   3.05272   3.06507
 Alpha virt. eigenvalues --    3.07604   3.13495   3.13697   3.43052   3.46096
 Alpha virt. eigenvalues --    3.48430
          Condensed to atoms (all electrons):
 Mulliken charges:
               1
     1  N   -0.518419
     2  C   -0.266506
     3  C    0.132458
     4  O   -0.510693
     5  C    0.052072
     6  O   -0.488742
     7  C    0.088579
     8  O   -0.503596
     9  H    0.228570
    10  H    0.215826
    11  H    0.093912
    12  H    0.082215
    13  H    0.320854
    14  H    0.096835
    15  H    0.111203
    16  H    0.316201
    17  H    0.111540
    18  H    0.112498
    19  H    0.325196
 Sum of Mulliken charges =   0.00000
 Mulliken charges with hydrogens summed into heavy atoms:
               1
     1  N   -0.074024
     2  C   -0.266506
     3  C    0.308584
     4  O   -0.189839
     5  C    0.260110
     6  O   -0.172541
     7  C    0.312617
     8  O   -0.178401
 Electronic spatial extent (au):  <R**2>=           1036.8763
 Charge=              0.0000 electrons
 Dipole moment (field-independent basis, Debye):
    X=             -3.8850    Y=             -1.0032    Z=              1.8589  Tot=              4.4221
   1 Symmetry operations used in ECPInt.
 ECPInt:  NShTT=    2485 NPrTT=   10007 LenC2=    2464 LenP2D=    7948.
 LDataN:  DoStor=T MaxTD1= 5 Len=  102
 Calling FoFJK, ICntrl=      2127 FMM=F ISym2X=0 I1Cent= 0 IOpClX= 0 NMat=1 NMatS=1 NMatT=0.

 GradGradGradGradGradGradGradGradGradGradGradGradGradGradGradGradGradGrad
 FormGI is forming the generalized inverse of G from B-inverse, IUseBI=4.
 Internal  Forces:  Max     0.018068890 RMS     0.004622003
 Step number   1 out of a maximum of  100
 All quantities printed in internal units (Hartrees-Bohrs-Radians)
 Mixed Optimization -- RFO/linear search
 Second derivative matrix not updated -- first step.
 ITU=  0
     Eigenvalues ---    0.00230   0.00230   0.00230   0.00417   0.01292
     Eigenvalues ---    0.01348   0.01365   0.04314   0.04604   0.04611
     Eigenvalues ---    0.04835   0.04859   0.05222   0.05439   0.05483
     Eigenvalues ---    0.05556   0.05567   0.11650   0.11650   0.11883
     Eigenvalues ---    0.13858   0.13884   0.14047   0.14645   0.15440
     Eigenvalues ---    0.16000   0.16000   0.16000   0.16000   0.16000
     Eigenvalues ---    0.21994   0.22004   0.22042   0.27285   0.27722
     Eigenvalues ---    0.28024   0.32759   0.34093   0.34094   0.34124
     Eigenvalues ---    0.34173   0.34182   0.34208   0.40963   0.41576
     Eigenvalues ---    0.41756   0.44094   0.44511   0.51534   0.51767
     Eigenvalues ---    0.52947
 Linear search not attempted -- first point.
 Iteration  1 RMS(Cart)=  0.07773754 RMS(Int)=  0.00387827
 Iteration  2 RMS(Cart)=  0.00423667 RMS(Int)=  0.00038470
 Iteration  3 RMS(Cart)=  0.00001164 RMS(Int)=  0.00038458
 Iteration  4 RMS(Cart)=  0.00000000 RMS(Int)=  0.00038458
 Variable       Old X    -DE/DX   Delta X   Delta X   Delta X     New X
                                 (Linear)    (Quad)   (Total)
    R1        2.82776  -0.01807   0.00000  -0.05342  -0.05342   2.77434
    R2        1.92548   0.00245   0.00000   0.00537   0.00537   1.93085
    R3        1.93042   0.00066   0.00000   0.00145   0.00145   1.93187
    R4        2.93728  -0.01078   0.00000  -0.03802  -0.03802   2.89926
    R5        2.92086  -0.00414   0.00000  -0.01422  -0.01422   2.90663
    R6        2.92751  -0.01003   0.00000  -0.03484  -0.03484   2.89267
    R7        2.69235  -0.01351   0.00000  -0.03155  -0.03155   2.66079
    R8        2.07040   0.00757   0.00000   0.02149   0.02149   2.09189
    R9        2.07121   0.00811   0.00000   0.02305   0.02305   2.09426
   R10        1.84823  -0.00988   0.00000  -0.01871  -0.01871   1.82953
   R11        2.69467  -0.00565   0.00000  -0.01325  -0.01325   2.68141
   R12        2.07172   0.00702   0.00000   0.01998   0.01998   2.09170
   R13        2.07025   0.00531   0.00000   0.01507   0.01507   2.08531
   R14        1.83703  -0.00730   0.00000  -0.01351  -0.01351   1.82353
   R15        2.70266  -0.01004   0.00000  -0.02388  -0.02388   2.67877
   R16        2.07173   0.00661   0.00000   0.01879   0.01879   2.09052
   R17        2.06981   0.00367   0.00000   0.01041   0.01041   2.08021
   R18        1.85048  -0.00781   0.00000  -0.01485  -0.01485   1.83563
    A1        1.90681   0.00393   0.00000   0.03229   0.03193   1.93874
    A2        1.88989  -0.00035   0.00000   0.00742   0.00704   1.89693
    A3        1.86289   0.00068   0.00000   0.02452   0.02378   1.88667
    A4        1.90631  -0.00070   0.00000  -0.00990  -0.00994   1.89637
    A5        1.94289   0.00343   0.00000   0.02703   0.02710   1.96999
    A6        1.86639  -0.00350   0.00000  -0.03166  -0.03166   1.83473
    A7        1.88968  -0.00196   0.00000  -0.00277  -0.00281   1.88687
    A8        1.94522   0.00262   0.00000   0.01221   0.01200   1.95723
    A9        1.91392   0.00021   0.00000   0.00555   0.00568   1.91959
   A10        1.98196   0.00476   0.00000   0.02635   0.02664   2.00860
   A11        1.93073  -0.00455   0.00000  -0.03461  -0.03538   1.89536
   A12        1.92754  -0.00629   0.00000  -0.04544  -0.04623   1.88131
   A13        1.88600   0.00143   0.00000   0.02401   0.02427   1.91026
   A14        1.85685   0.00296   0.00000   0.03591   0.03630   1.89315
   A15        1.87630   0.00201   0.00000  -0.00399  -0.00602   1.87029
   A16        1.85595   0.00393   0.00000   0.02301   0.02301   1.87896
   A17        1.94120   0.00473   0.00000   0.02467   0.02471   1.96591
   A18        1.94805  -0.00632   0.00000  -0.03632  -0.03697   1.91108
   A19        1.92628  -0.00035   0.00000  -0.01087  -0.01109   1.91519
   A20        1.88897   0.00392   0.00000   0.04795   0.04825   1.93722
   A21        1.87828  -0.00313   0.00000  -0.02032  -0.02010   1.85818
   A22        1.87844   0.00121   0.00000  -0.00459  -0.00510   1.87334
   A23        1.87595   0.00450   0.00000   0.02636   0.02636   1.90232
   A24        1.93646   0.00050   0.00000   0.00460   0.00472   1.94117
   A25        1.94882  -0.00705   0.00000  -0.04538  -0.04572   1.90310
   A26        1.93906   0.00001   0.00000  -0.01158  -0.01191   1.92715
   A27        1.86875   0.00641   0.00000   0.06082   0.06109   1.92984
   A28        1.88809  -0.00137   0.00000  -0.01169  -0.01172   1.87637
   A29        1.87969   0.00189   0.00000   0.00651   0.00572   1.88542
   A30        1.82768   0.00260   0.00000   0.01525   0.01525   1.84293
    D1       -0.96740   0.00263   0.00000   0.07301   0.07339  -0.89401
    D2        1.11835   0.00188   0.00000   0.07998   0.08027   1.19862
    D3       -3.07464   0.00193   0.00000   0.08250   0.08244  -2.99220
    D4       -2.99003  -0.00009   0.00000   0.02249   0.02247  -2.96756
    D5       -0.90428  -0.00083   0.00000   0.02947   0.02935  -0.87493
    D6        1.18591  -0.00079   0.00000   0.03199   0.03152   1.21743
    D7       -0.87950   0.00083   0.00000  -0.04738  -0.04730  -0.92679
    D8       -3.00351  -0.00102   0.00000  -0.07162  -0.07095  -3.07446
    D9        1.20455   0.00336   0.00000  -0.01587  -0.01653   1.18801
   D10       -2.99784  -0.00174   0.00000  -0.07265  -0.07257  -3.07041
   D11        1.16132  -0.00359   0.00000  -0.09690  -0.09622   1.06510
   D12       -0.91380   0.00080   0.00000  -0.04114  -0.04181  -0.95561
   D13        1.17889  -0.00234   0.00000  -0.08525  -0.08526   1.09363
   D14       -0.94512  -0.00419   0.00000  -0.10950  -0.10891  -1.05404
   D15       -3.02025   0.00019   0.00000  -0.05374  -0.05450  -3.07475
   D16        0.98777   0.00078   0.00000  -0.00012  -0.00023   0.98754
   D17       -1.12385  -0.00315   0.00000  -0.05349  -0.05313  -1.17698
   D18        3.07123  -0.00032   0.00000  -0.01676  -0.01696   3.05427
   D19        3.08338   0.00075   0.00000   0.00231   0.00225   3.08563
   D20        0.97176  -0.00318   0.00000  -0.05105  -0.05065   0.92111
   D21       -1.11634  -0.00035   0.00000  -0.01433  -0.01448  -1.13082
   D22       -1.07400   0.00287   0.00000   0.01892   0.01872  -1.05529
   D23        3.09756  -0.00107   0.00000  -0.03444  -0.03418   3.06338
   D24        1.00946   0.00177   0.00000   0.00228   0.00199   1.01144
   D25        0.93569  -0.00060   0.00000  -0.07498  -0.07512   0.86057
   D26       -1.14752  -0.00437   0.00000  -0.12485  -0.12457  -1.27209
   D27        3.03683  -0.00199   0.00000  -0.09442  -0.09464   2.94218
   D28       -1.14659   0.00093   0.00000  -0.05022  -0.05029  -1.19688
   D29        3.05339  -0.00284   0.00000  -0.10010  -0.09974   2.95366
   D30        0.95455  -0.00047   0.00000  -0.06967  -0.06981   0.88474
   D31        3.04441   0.00156   0.00000  -0.05821  -0.05835   2.98607
   D32        0.96121  -0.00220   0.00000  -0.10808  -0.10780   0.85341
   D33       -1.13763   0.00017   0.00000  -0.07765  -0.07787  -1.21550
   D34       -0.15706  -0.00331   0.00000  -0.12065  -0.12057  -0.27763
   D35        1.99170  -0.00490   0.00000  -0.12966  -0.12962   1.86207
   D36       -2.28099  -0.00042   0.00000  -0.10487  -0.10499  -2.38598
   D37       -1.58125   0.00065   0.00000  -0.01420  -0.01474  -1.59600
   D38        0.56468  -0.00157   0.00000  -0.01132  -0.01067   0.55401
   D39        2.59007   0.00024   0.00000  -0.00263  -0.00273   2.58733
   D40       -1.03809   0.00139   0.00000   0.00538   0.00520  -1.03289
   D41        1.09249  -0.00284   0.00000  -0.00841  -0.00830   1.08419
   D42        3.11397   0.00196   0.00000   0.02456   0.02464   3.13860
         Item               Value     Threshold  Converged?
 Maximum Force            0.018069     0.000015     NO 
 RMS     Force            0.004622     0.000010     NO 
 Maximum Displacement     0.379361     0.000060     NO 
 RMS     Displacement     0.077959     0.000040     NO 
 GradGradGradGradGradGradGradGradGradGradGradGradGradGradGradGradGradGrad

                    Distance matrix (angstroms):
                    1          2          3          4          5
     1  N    0.000000
     2  C    1.468120   0.000000
     3  C    2.439287   1.534225   0.000000
     4  O    2.862675   2.483557   1.408031   0.000000
     5  C    2.505309   1.538125   2.487310   3.780328   0.000000
     6  O    2.939747   2.461577   3.770229   4.927328   1.418943
     7  C    2.381405   1.530734   2.543072   3.051130   2.513629
     8  O    2.683696   2.433810   3.044510   2.872565   3.769910
     9  H    1.021760   2.068458   2.588067   3.016301   2.802946
    10  H    1.022303   2.040144   3.324348   3.851492   2.629716
    11  H    3.391532   2.159267   1.106979   2.060575   2.710502
    12  H    2.727433   2.149667   1.108234   2.049250   2.645208
    13  H    2.593809   2.418405   1.935661   0.968143   3.904791
    14  H    2.824294   2.174271   2.657036   3.978261   1.106880
    15  H    3.444559   2.174781   2.759651   4.096008   1.103500
    16  H    2.930107   2.884272   4.156848   5.258384   1.958543
    17  H    2.721001   2.161431   3.483250   4.096127   2.653087
    18  H    3.349480   2.174992   2.727875   3.291942   2.841129
    19  H    2.245001   2.555097   3.340624   3.121481   3.908675
                    6          7          8          9         10
     6  O    0.000000
     7  C    2.953949   0.000000
     8  O    4.199810   1.417546   0.000000
     9  H    3.359745   3.297580   3.600779   0.000000
    10  H    2.527230   2.636106   3.059579   1.654711   0.000000
    11  H    4.048699   2.777261   3.449459   3.628714   4.165361
    12  H    3.964621   3.480059   4.037089   2.450153   3.590348
    13  H    4.847197   2.594882   2.054228   3.005146   3.495506
    14  H    2.089019   3.472655   4.593213   2.708433   3.047025
    15  H    2.029470   2.736093   4.092146   3.801828   3.627903
    16  H    0.964969   3.608163   4.700319   3.136581   2.367899
    17  H    2.517602   1.106255   2.082136   3.680965   2.538785
    18  H    3.440089   1.100802   2.039627   4.166143   3.674473
    19  H    4.179197   1.921776   0.971376   3.156212   2.505551
                   11         12         13         14         15
    11  H    0.000000
    12  H    1.782547   0.000000
    13  H    2.603796   2.753450   0.000000
    14  H    2.974277   2.333046   4.301842   0.000000
    15  H    2.517093   3.039852   4.290313   1.780661   0.000000
    16  H    4.612795   4.157684   5.193999   2.198154   2.789220
    17  H    3.720921   4.286516   3.599683   3.703584   2.927771
    18  H    2.506323   3.732039   2.997691   3.809081   2.617301
    19  H    3.987465   4.172366   2.257430   4.639013   4.461777
                   16         17         18         19
    16  H    0.000000
    17  H    3.184479   0.000000
    18  H    4.247942   1.785849   0.000000
    19  H    4.495397   2.305592   2.825109   0.000000
 Framework group  C1[X(C4H11NO3)]
 Deg. of freedom    51
                         Standard orientation:                         
 ---------------------------------------------------------------------
 Center     Atomic      Atomic             Coordinates (Angstroms)
 Number     Number       Type             X           Y           Z
 ---------------------------------------------------------------------
      1          7           0       -0.066228    0.050407    1.436912
      2          6           0       -0.157822   -0.196594   -0.007380
      3          6           0        0.871241   -1.268950   -0.388073
      4          8           0        2.190588   -1.003993    0.026262
      5          6           0       -1.547587   -0.691850   -0.442237
      6          8           0       -2.586513    0.199657   -0.069076
      7          6           0        0.145559    1.152794   -0.663322
      8          8           0        1.323959    1.730410   -0.127440
      9          1           0       -0.114677   -0.824087    1.963130
     10          1           0       -0.855400    0.635437    1.719843
     11          1           0        0.850025   -1.404399   -1.486530
     12          1           0        0.546297   -2.226356    0.065762
     13          1           0        2.242214   -0.065877    0.259874
     14          1           0       -1.725359   -1.703185   -0.028980
     15          1           0       -1.586362   -0.774555   -1.541950
     16          1           0       -2.923827   -0.056463    0.797981
     17          1           0       -0.718999    1.827403   -0.517576
     18          1           0        0.301002    1.027264   -1.745840
     19          1           0        1.156066    1.830966    0.824018
 ---------------------------------------------------------------------
 Rotational constants (GHZ):           2.8009006           1.5403504           1.2674080
   134 basis functions,   244 primitive gaussians,   142 cartesian basis functions
    33 alpha electrons       33 beta electrons
       nuclear repulsion energy       436.6192508451 Hartrees.
 NAtoms=   19 NActive=   19 NUniq=   19 SFac= 1.00D+00 NAtFMM=   60 NAOKFM=F Big=F
 Nuclear repulsion after empirical dispersion term =      436.6065817779 Hartrees.
   1 Symmetry operations used in ECPInt.
 ECPInt:  NShTT=    2485 NPrTT=   10007 LenC2=    2464 LenP2D=    7960.
 LDataN:  DoStor=T MaxTD1= 4 Len=   56
 Initial guess from the checkpoint file:  "/scratch/user/peterchao1/peterchao1/6097802_1659647585000000600324111/Gau-212031.chk"
 B after Tr=    -0.000000   -0.000000    0.000000
         Rot=    0.999709    0.023593   -0.004318   -0.002737 Ang=   2.77 deg.
 ExpMin= 1.22D-01 ExpMax= 2.27D+03 ExpMxC= 3.41D+02 IAcc=3 IRadAn=         5 AccDes= 0.00D+00
 Harris functional with IExCor= 4639 and IRadAn=       5 diagonalized for initial guess.
 HarFok:  IExCor= 4639 AccDes= 0.00D+00 IRadAn=         5 IDoV= 1 UseB2=F ITyADJ=14
 ICtDFT=  3500011 ScaDFX=  1.000000  1.000000  1.000000  1.000000
 FoFCou: FMM=F IPFlag=           0 FMFlag=      100000 FMFlg1=           0
         NFxFlg=           0 DoJE=T BraDBF=F KetDBF=T FulRan=T
         wScrn=  0.000000 ICntrl=       500 IOpCl=  0 I1Cent=   200000004 NGrid=           0
         NMat0=    1 NMatS0=      1 NMatT0=    0 NMatD0=    1 NMtDS0=    0 NMtDT0=    0
 Petite list used in FoFCou.
     Minimum is close to point  4 DX=  8.17D-02 DF= -3.82D-05 DXR=  6.37D-02 DFR=  4.07D-03 which will be used.
     Accept linear search using points  2 and  3.
     Accept linear search using points  1 and  2.
     Minimum is close to point  2 DX= -6.19D-02 DF= -3.53D-06 DXR=  5.96D-02 DFR=  4.17D-03 which will be used.
     Accept linear search using points  1 and  2.
     Accept linear search using points  1 and  2.
     Minimum is close to point  2 DX=  2.54D-04 DF= -6.76D-12 DXR=  2.53D-04 DFR=  6.44D-08 which will be used.
 SCF Done:  E(RwB97XD) =  -438.941304473     a.u. after    9 cycles
            Convg  =    0.3735D-08                    38 Fock formations.
              S**2 =  0.0000                  -V/T =  2.0081
   1 Symmetry operations used in ECPInt.
 ECPInt:  NShTT=    2485 NPrTT=   10007 LenC2=    2464 LenP2D=    7960.
 LDataN:  DoStor=T MaxTD1= 5 Len=  102
 Calling FoFJK, ICntrl=      2127 FMM=F ISym2X=0 I1Cent= 0 IOpClX= 0 NMat=1 NMatS=1 NMatT=0.

 GradGradGradGradGradGradGradGradGradGradGradGradGradGradGradGradGradGrad
 Using GEDIIS/GDIIS optimizer.
 FormGI is forming the generalized inverse of G from B-inverse, IUseBI=4.
 Internal  Forces:  Max     0.009310127 RMS     0.001969446
 Step number   2 out of a maximum of  100
 All quantities printed in internal units (Hartrees-Bohrs-Radians)
 Mixed Optimization -- RFO/linear search
 Trust test= 9.94D-01 RLast= 4.68D-01 DXMaxT set to 5.05D-01
 ITU=  1  0
 Use linear search instead of GDIIS.
     Eigenvalues ---    0.00209   0.00230   0.00292   0.00410   0.01160
     Eigenvalues ---    0.01346   0.01363   0.03915   0.04482   0.04528
     Eigenvalues ---    0.04780   0.04803   0.05114   0.05655   0.05746
     Eigenvalues ---    0.05766   0.05894   0.11331   0.11569   0.11719
     Eigenvalues ---    0.13284   0.13972   0.14148   0.15146   0.15744
     Eigenvalues ---    0.15815   0.16000   0.16000   0.16000   0.16643
     Eigenvalues ---    0.21913   0.22040   0.23110   0.27002   0.27983
     Eigenvalues ---    0.29170   0.31960   0.33632   0.34095   0.34110
     Eigenvalues ---    0.34165   0.34204   0.34232   0.40034   0.41422
     Eigenvalues ---    0.41687   0.44093   0.44602   0.51457   0.52635
     Eigenvalues ---    0.53385
 Quartic linear search produced a step of  0.15552.
 Iteration  1 RMS(Cart)=  0.11641168 RMS(Int)=  0.00771937
 Iteration  2 RMS(Cart)=  0.00956735 RMS(Int)=  0.00022403
 Iteration  3 RMS(Cart)=  0.00007548 RMS(Int)=  0.00021780
 Iteration  4 RMS(Cart)=  0.00000002 RMS(Int)=  0.00021780
 Variable       Old X    -DE/DX   Delta X   Delta X   Delta X     New X
                                 (Linear)    (Quad)   (Total)
    R1        2.77434   0.00053  -0.00831  -0.01700  -0.02531   2.74904
    R2        1.93085  -0.00081   0.00084  -0.00004   0.00080   1.93164
    R3        1.93187   0.00025   0.00023   0.00112   0.00135   1.93322
    R4        2.89926  -0.00027  -0.00591  -0.01425  -0.02016   2.87910
    R5        2.90663   0.00009  -0.00221  -0.00460  -0.00681   2.89983
    R6        2.89267   0.00438  -0.00542   0.00455  -0.00087   2.89180
    R7        2.66079  -0.00931  -0.00491  -0.03481  -0.03972   2.62107
    R8        2.09189   0.00187   0.00334   0.01332   0.01666   2.10855
    R9        2.09426   0.00076   0.00358   0.01044   0.01403   2.10828
   R10        1.82953   0.00310  -0.00291  -0.00026  -0.00317   1.82635
   R11        2.68141  -0.00576  -0.00206  -0.01939  -0.02145   2.65996
   R12        2.09170   0.00061   0.00311   0.00890   0.01201   2.10371
   R13        2.08531   0.00039   0.00234   0.00648   0.00882   2.09414
   R14        1.82353  -0.00023  -0.00210  -0.00526  -0.00736   1.81617
   R15        2.67877  -0.00525  -0.00371  -0.02203  -0.02575   2.65303
   R16        2.09052   0.00089   0.00292   0.00936   0.01228   2.10280
   R17        2.08021   0.00067   0.00162   0.00572   0.00734   2.08755
   R18        1.83563  -0.00065  -0.00231  -0.00662  -0.00893   1.82671
    A1        1.93874   0.00244   0.00497   0.03059   0.03490   1.97365
    A2        1.89693   0.00201   0.00110   0.01958   0.01998   1.91691
    A3        1.88667  -0.00132   0.00370   0.00773   0.01020   1.89687
    A4        1.89637   0.00135  -0.00155   0.00953   0.00792   1.90429
    A5        1.96999  -0.00237   0.00421  -0.00446  -0.00027   1.96971
    A6        1.83473   0.00151  -0.00492   0.00331  -0.00161   1.83313
    A7        1.88687   0.00139  -0.00044   0.00525   0.00482   1.89169
    A8        1.95723  -0.00329   0.00187  -0.02278  -0.02093   1.93630
    A9        1.91959   0.00124   0.00088   0.00830   0.00921   1.92880
   A10        2.00860  -0.00505   0.00414  -0.01511  -0.01088   1.99772
   A11        1.89536   0.00068  -0.00550  -0.01136  -0.01700   1.87835
   A12        1.88131   0.00217  -0.00719  -0.00269  -0.01001   1.87130
   A13        1.91026   0.00224   0.00377   0.01863   0.02233   1.93259
   A14        1.89315   0.00119   0.00565   0.01673   0.02236   1.91552
   A15        1.87029  -0.00104  -0.00094  -0.00609  -0.00774   1.86255
   A16        1.87896  -0.00126   0.00358  -0.00040   0.00317   1.88214
   A17        1.96591  -0.00034   0.00384   0.00656   0.01043   1.97633
   A18        1.91108  -0.00020  -0.00575  -0.01808  -0.02398   1.88710
   A19        1.91519   0.00018  -0.00172   0.00111  -0.00072   1.91448
   A20        1.93722  -0.00017   0.00750   0.00892   0.01654   1.95376
   A21        1.85818   0.00060  -0.00313   0.00284  -0.00026   1.85792
   A22        1.87334  -0.00004  -0.00079  -0.00102  -0.00203   1.87131
   A23        1.90232   0.00092   0.00410   0.01487   0.01897   1.92129
   A24        1.94117  -0.00140   0.00073  -0.00536  -0.00468   1.93649
   A25        1.90310  -0.00060  -0.00711  -0.01565  -0.02288   1.88022
   A26        1.92715   0.00195  -0.00185   0.00572   0.00365   1.93080
   A27        1.92984   0.00206   0.00950   0.04006   0.04973   1.97957
   A28        1.87637  -0.00153  -0.00182  -0.02457  -0.02640   1.84996
   A29        1.88542  -0.00043   0.00089   0.00033   0.00118   1.88659
   A30        1.84293   0.00110   0.00237   0.01228   0.01465   1.85758
    D1       -0.89401   0.00026   0.01141   0.10321   0.11495  -0.77906
    D2        1.19862   0.00143   0.01248   0.11347   0.12630   1.32492
    D3       -2.99220   0.00260   0.01282   0.12324   0.13635  -2.85586
    D4       -2.96756  -0.00083   0.00349   0.06317   0.06636  -2.90120
    D5       -0.87493   0.00033   0.00457   0.07344   0.07770  -0.79722
    D6        1.21743   0.00150   0.00490   0.08320   0.08775   1.30518
    D7       -0.92679  -0.00180  -0.00736  -0.14556  -0.15286  -1.07965
    D8       -3.07446  -0.00171  -0.01103  -0.15048  -0.16134   3.04738
    D9        1.18801  -0.00198  -0.00257  -0.13599  -0.13869   1.04932
   D10       -3.07041  -0.00059  -0.01129  -0.14913  -0.16040   3.05237
   D11        1.06510  -0.00050  -0.01496  -0.15405  -0.16888   0.89622
   D12       -0.95561  -0.00077  -0.00650  -0.13956  -0.14623  -1.10184
   D13        1.09363  -0.00100  -0.01326  -0.14867  -0.16193   0.93170
   D14       -1.05404  -0.00091  -0.01694  -0.15359  -0.17041  -1.22445
   D15       -3.07475  -0.00119  -0.00848  -0.13910  -0.14777   3.06067
   D16        0.98754  -0.00069  -0.00004  -0.04033  -0.04040   0.94715
   D17       -1.17698  -0.00008  -0.00826  -0.04311  -0.05123  -1.22821
   D18        3.05427  -0.00002  -0.00264  -0.03186  -0.03455   3.01972
   D19        3.08563   0.00047   0.00035  -0.02762  -0.02732   3.05831
   D20        0.92111   0.00108  -0.00788  -0.03040  -0.03816   0.88295
   D21       -1.13082   0.00113  -0.00225  -0.01915  -0.02148  -1.15230
   D22       -1.05529  -0.00192   0.00291  -0.04716  -0.04431  -1.09960
   D23        3.06338  -0.00131  -0.00532  -0.04994  -0.05515   3.00823
   D24        1.01144  -0.00126   0.00031  -0.03870  -0.03847   0.97297
   D25        0.86057   0.00222  -0.01168   0.11645   0.10474   0.96530
   D26       -1.27209   0.00095  -0.01937   0.08023   0.06097  -1.21111
   D27        2.94218   0.00068  -0.01472   0.08598   0.07125   3.01343
   D28       -1.19688   0.00140  -0.00782   0.11489   0.10699  -1.08989
   D29        2.95366   0.00013  -0.01551   0.07867   0.06322   3.01688
   D30        0.88474  -0.00014  -0.01086   0.08443   0.07350   0.95824
   D31        2.98607   0.00097  -0.00907   0.11760   0.10848   3.09454
   D32        0.85341  -0.00030  -0.01676   0.08138   0.06471   0.91813
   D33       -1.21550  -0.00058  -0.01211   0.08713   0.07499  -1.14052
   D34       -0.27763  -0.00201  -0.01875  -0.14988  -0.16859  -0.44622
   D35        1.86207  -0.00299  -0.02016  -0.16114  -0.18154   1.68054
   D36       -2.38598  -0.00232  -0.01633  -0.14876  -0.16489  -2.55087
   D37       -1.59600   0.00039  -0.00229   0.00713   0.00471  -1.59128
   D38        0.55401  -0.00025  -0.00166  -0.00503  -0.00655   0.54747
   D39        2.58733  -0.00003  -0.00043   0.00005  -0.00039   2.58694
   D40       -1.03289   0.00206   0.00081   0.09809   0.09891  -0.93399
   D41        1.08419   0.00176  -0.00129   0.10198   0.10090   1.18509
   D42        3.13860   0.00149   0.00383   0.11007   0.11368  -3.03090
         Item               Value     Threshold  Converged?
 Maximum Force            0.009310     0.000015     NO 
 RMS     Force            0.001969     0.000010     NO 
 Maximum Displacement     0.559704     0.000060     NO 
 RMS     Displacement     0.115750     0.000040     NO 
 GradGradGradGradGradGradGradGradGradGradGradGradGradGradGradGradGradGrad

                    Distance matrix (angstroms):
                    1          2          3          4          5
     1  N    0.000000
     2  C    1.454729   0.000000
     3  C    2.426620   1.523555   0.000000
     4  O    2.910722   2.448477   1.387012   0.000000
     5  C    2.491014   1.534523   2.480086   3.747388   0.000000
     6  O    2.914303   2.457712   3.754621   4.891059   1.407590
     7  C    2.369091   1.530275   2.515867   2.911897   2.518372
     8  O    2.720675   2.418526   2.942437   2.640936   3.762196
     9  H    1.022181   2.080149   2.563670   3.056134   2.871643
    10  H    1.023016   2.042678   3.313926   3.898057   2.602614
    11  H    3.375658   2.143711   1.115797   2.065039   2.611076
    12  H    2.644712   2.138263   1.115656   2.052887   2.705321
    13  H    2.804302   2.412893   1.918108   0.966465   3.864307
    14  H    2.818802   2.157960   2.615989   3.958785   1.113234
    15  H    3.431863   2.174578   2.767252   4.029383   1.108170
    16  H    2.921725   2.888723   4.144718   5.261337   1.958055
    17  H    2.663689   2.148723   3.459304   3.967413   2.670506
    18  H    3.346467   2.180160   2.733698   3.160965   2.816458
    19  H    2.251011   2.504977   3.148717   2.803938   3.915317
                    6          7          8          9         10
     6  O    0.000000
     7  C    2.990027   0.000000
     8  O    4.260805   1.403922   0.000000
     9  H    3.419946   3.287595   3.574514   0.000000
    10  H    2.489935   2.682843   3.199466   1.661730   0.000000
    11  H    3.965790   2.818066   3.440757   3.588017   4.142798
    12  H    3.983478   3.460907   3.912409   2.343474   3.507096
    13  H    4.824730   2.378578   1.763748   3.225009   3.696117
    14  H    2.095632   3.467195   4.565714   2.793756   3.022841
    15  H    2.023074   2.726411   4.047930   3.867555   3.607322
    16  H    0.961075   3.649982   4.783461   3.220285   2.333086
    17  H    2.571674   1.112754   2.109773   3.655621   2.536628
    18  H    3.434193   1.104686   2.011477   4.171022   3.705564
    19  H    4.297252   1.916552   0.966652   3.064277   2.689876
                   11         12         13         14         15
    11  H    0.000000
    12  H    1.790477   0.000000
    13  H    2.542415   2.792410   0.000000
    14  H    2.791650   2.363840   4.311399   0.000000
    15  H    2.429086   3.159113   4.146022   1.788206   0.000000
    16  H    4.519135   4.158567   5.256146   2.219733   2.789919
    17  H    3.755424   4.270860   3.416296   3.721706   2.945489
    18  H    2.587631   3.770378   2.709323   3.774034   2.568558
    19  H    3.894835   3.929963   2.006597   4.613066   4.437935
                   16         17         18         19
    16  H    0.000000
    17  H    3.232080   0.000000
    18  H    4.248896   1.795019   0.000000
    19  H    4.638416   2.383877   2.805672   0.000000
 Framework group  C1[X(C4H11NO3)]
 Deg. of freedom    51
                         Standard orientation:                         
 ---------------------------------------------------------------------
 Center     Atomic      Atomic             Coordinates (Angstroms)
 Number     Number       Type             X           Y           Z
 ---------------------------------------------------------------------
      1          7           0       -0.153221    0.058812    1.454964
      2          6           0       -0.181745   -0.186873    0.021415
      3          6           0        0.818294   -1.285554   -0.316286
      4          8           0        2.136184   -0.974831   -0.015585
      5          6           0       -1.565170   -0.620283   -0.481626
      6          8           0       -2.590822    0.276315   -0.127424
      7          6           0        0.229006    1.141748   -0.617171
      8          8           0        1.466356    1.577722   -0.117282
      9          1           0       -0.146716   -0.800344    2.008736
     10          1           0       -0.965278    0.618169    1.727439
     11          1           0        0.706023   -1.522821   -1.400769
     12          1           0        0.508472   -2.198215    0.245628
     13          1           0        2.224280   -0.012505   -0.030471
     14          1           0       -1.763726   -1.649069   -0.105505
     15          1           0       -1.560983   -0.670852   -1.588633
     16          1           0       -2.978910    0.018380    0.713125
     17          1           0       -0.596852    1.868267   -0.448796
     18          1           0        0.365443    1.023948   -1.707052
     19          1           0        1.384740    1.585493    0.845887
 ---------------------------------------------------------------------
 Rotational constants (GHZ):           2.9730907           1.5227188           1.2876667
   134 basis functions,   244 primitive gaussians,   142 cartesian basis functions
    33 alpha electrons       33 beta electrons
       nuclear repulsion energy       440.0840727439 Hartrees.
 NAtoms=   19 NActive=   19 NUniq=   19 SFac= 1.00D+00 NAtFMM=   60 NAOKFM=F Big=F
 Nuclear repulsion after empirical dispersion term =      440.0715056882 Hartrees.
   1 Symmetry operations used in ECPInt.
 ECPInt:  NShTT=    2485 NPrTT=   10007 LenC2=    2464 LenP2D=    7968.
 LDataN:  DoStor=T MaxTD1= 4 Len=   56
 Initial guess from the checkpoint file:  "/scratch/user/peterchao1/peterchao1/6097802_1659647585000000600324111/Gau-212031.chk"
 B after Tr=    -0.000000   -0.000000   -0.000000
         Rot=    0.999778   -0.000705    0.007012    0.019833 Ang=  -2.41 deg.
 ExpMin= 1.22D-01 ExpMax= 2.27D+03 ExpMxC= 3.41D+02 IAcc=3 IRadAn=         5 AccDes= 0.00D+00
 Harris functional with IExCor= 4639 and IRadAn=       5 diagonalized for initial guess.
 HarFok:  IExCor= 4639 AccDes= 0.00D+00 IRadAn=         5 IDoV= 1 UseB2=F ITyADJ=14
 ICtDFT=  3500011 ScaDFX=  1.000000  1.000000  1.000000  1.000000
 FoFCou: FMM=F IPFlag=           0 FMFlag=      100000 FMFlg1=           0
         NFxFlg=           0 DoJE=T BraDBF=F KetDBF=T FulRan=T
         wScrn=  0.000000 ICntrl=       500 IOpCl=  0 I1Cent=   200000004 NGrid=           0
         NMat0=    1 NMatS0=      1 NMatT0=    0 NMatD0=    1 NMtDS0=    0 NMtDT0=    0
 Petite list used in FoFCou.
     Minimum is close to point  4 DX=  6.10D-02 DF= -4.59D-05 DXR=  4.84D-02 DFR=  2.35D-03 which will be used.
     Accept linear search using points  2 and  3.
     Accept linear search using points  1 and  2.
     Minimum is close to point  2 DX= -7.20D-02 DF= -1.02D-05 DXR=  7.01D-02 DFR=  5.76D-03 which will be used.
     Accept linear search using points  1 and  2.
     Accept linear search using points  1 and  2.
     Accept linear search using points  1 and  2.
     Accept linear search using points  1 and  2.
     Minimum is close to point  2 DX= -1.02D-04 DF= -5.68D-13 DXR=  1.02D-04 DFR=  1.01D-08 which will be used.
 SCF Done:  E(RwB97XD) =  -438.943462601     a.u. after   11 cycles
            Convg  =    0.2985D-08                    42 Fock formations.
              S**2 =  0.0000                  -V/T =  2.0079
   1 Symmetry operations used in ECPInt.
 ECPInt:  NShTT=    2485 NPrTT=   10007 LenC2=    2464 LenP2D=    7968.
 LDataN:  DoStor=T MaxTD1= 5 Len=  102
 Calling FoFJK, ICntrl=      2127 FMM=F ISym2X=0 I1Cent= 0 IOpClX= 0 NMat=1 NMatS=1 NMatT=0.

 GradGradGradGradGradGradGradGradGradGradGradGradGradGradGradGradGradGrad
 Using GEDIIS/GDIIS optimizer.
 FormGI is forming the generalized inverse of G from B-inverse, IUseBI=4.
 Internal  Forces:  Max     0.015007916 RMS     0.003745769
 Step number   3 out of a maximum of  100
 All quantities printed in internal units (Hartrees-Bohrs-Radians)
 Mixed Optimization -- RFO/linear search
 Trust test= 4.86D-01 RLast= 7.07D-01 DXMaxT set to 5.05D-01
 ITU=  0  1  0
 Use linear search instead of GDIIS.
     Eigenvalues ---    0.00194   0.00231   0.00370   0.00620   0.00884
     Eigenvalues ---    0.01348   0.01443   0.03474   0.04541   0.04580
     Eigenvalues ---    0.04721   0.05016   0.05246   0.05825   0.05858
     Eigenvalues ---    0.05978   0.06379   0.11441   0.11638   0.11977
     Eigenvalues ---    0.13745   0.13991   0.14367   0.14963   0.15674
     Eigenvalues ---    0.15897   0.16000   0.16000   0.16165   0.16995
     Eigenvalues ---    0.22027   0.22092   0.26056   0.27716   0.28161
     Eigenvalues ---    0.30892   0.33401   0.34043   0.34104   0.34110
     Eigenvalues ---    0.34167   0.34205   0.36655   0.39220   0.41182
     Eigenvalues ---    0.41722   0.44166   0.44643   0.51798   0.52727
     Eigenvalues ---    0.54318
 Quartic linear search produced a step of -0.24105.
 Iteration  1 RMS(Cart)=  0.09481223 RMS(Int)=  0.00542956
 Iteration  2 RMS(Cart)=  0.00606357 RMS(Int)=  0.00009111
 Iteration  3 RMS(Cart)=  0.00002225 RMS(Int)=  0.00008923
 Iteration  4 RMS(Cart)=  0.00000000 RMS(Int)=  0.00008923
 Variable       Old X    -DE/DX   Delta X   Delta X   Delta X     New X
                                 (Linear)    (Quad)   (Total)
    R1        2.74904   0.00753   0.00610   0.00611   0.01221   2.76125
    R2        1.93164  -0.00233  -0.00019  -0.00402  -0.00421   1.92743
    R3        1.93322  -0.00156  -0.00032  -0.00111  -0.00143   1.93179
    R4        2.87910   0.01501   0.00486   0.02327   0.02813   2.90723
    R5        2.89983   0.00227   0.00164   0.00262   0.00426   2.90409
    R6        2.89180   0.00898   0.00021   0.02934   0.02955   2.92135
    R7        2.62107   0.00307   0.00957  -0.02499  -0.01542   2.60565
    R8        2.10855  -0.00141  -0.00402   0.00694   0.00292   2.11147
    R9        2.10828  -0.00361  -0.00338   0.00015  -0.00323   2.10506
   R10        1.82635   0.00705   0.00076   0.01110   0.01186   1.83822
   R11        2.65996  -0.00015   0.00517  -0.01726  -0.01209   2.64787
   R12        2.10371  -0.00254  -0.00289   0.00092  -0.00197   2.10173
   R13        2.09414  -0.00257  -0.00213  -0.00059  -0.00271   2.09142
   R14        1.81617   0.00342   0.00177   0.00097   0.00275   1.81891
   R15        2.65303   0.00288   0.00621  -0.01372  -0.00751   2.64551
   R16        2.10280  -0.00292  -0.00296   0.00102  -0.00194   2.10086
   R17        2.08755  -0.00130  -0.00177   0.00164  -0.00013   2.08742
   R18        1.82671   0.00805   0.00215   0.00493   0.00708   1.83379
    A1        1.97365  -0.00100  -0.00841   0.02349   0.01493   1.98858
    A2        1.91691   0.00211  -0.00482   0.02783   0.02287   1.93978
    A3        1.89687  -0.00004  -0.00246   0.00658   0.00386   1.90073
    A4        1.90429   0.00121  -0.00191   0.02410   0.02203   1.92632
    A5        1.96971   0.00156   0.00007  -0.01468  -0.01452   1.95520
    A6        1.83313  -0.00208   0.00039   0.00584   0.00590   1.83902
    A7        1.89169  -0.00406  -0.00116  -0.01146  -0.01250   1.87919
    A8        1.93630   0.00586   0.00504   0.00576   0.01055   1.94685
    A9        1.92880  -0.00211  -0.00222  -0.00832  -0.01051   1.91830
   A10        1.99772   0.01359   0.00262   0.01600   0.01851   2.01623
   A11        1.87835  -0.00254   0.00410  -0.00276   0.00117   1.87952
   A12        1.87130  -0.00095   0.00241   0.00445   0.00695   1.87825
   A13        1.93259  -0.00354  -0.00538   0.01427   0.00871   1.94130
   A14        1.91552  -0.00726  -0.00539  -0.01748  -0.02286   1.89265
   A15        1.86255   0.00002   0.00186  -0.01685  -0.01489   1.84766
   A16        1.88214   0.00134  -0.00077  -0.00029  -0.00105   1.88109
   A17        1.97633  -0.00199  -0.00251  -0.00348  -0.00603   1.97030
   A18        1.88710   0.00253   0.00578  -0.00279   0.00294   1.89003
   A19        1.91448   0.00013   0.00017   0.00493   0.00511   1.91959
   A20        1.95376  -0.00142  -0.00399  -0.00910  -0.01313   1.94063
   A21        1.85792   0.00136   0.00006   0.01184   0.01193   1.86984
   A22        1.87131  -0.00060   0.00049  -0.00082  -0.00029   1.87102
   A23        1.92129  -0.00115  -0.00457   0.00604   0.00147   1.92276
   A24        1.93649   0.00410   0.00113   0.00444   0.00541   1.94190
   A25        1.88022   0.00285   0.00552  -0.00461   0.00086   1.88108
   A26        1.93080  -0.00128  -0.00088   0.01706   0.01604   1.94683
   A27        1.97957  -0.00815  -0.01199  -0.01830  -0.03032   1.94926
   A28        1.84996   0.00297   0.00636   0.00774   0.01388   1.86385
   A29        1.88659  -0.00069  -0.00028  -0.00549  -0.00578   1.88082
   A30        1.85758  -0.00421  -0.00353  -0.00476  -0.00829   1.84928
    D1       -0.77906   0.00391  -0.02771   0.12313   0.09557  -0.68349
    D2        1.32492   0.00062  -0.03044   0.11578   0.08536   1.41029
    D3       -2.85586  -0.00242  -0.03287   0.10118   0.06833  -2.78753
    D4       -2.90120   0.00312  -0.01600   0.07848   0.06251  -2.83870
    D5       -0.79722  -0.00016  -0.01873   0.07113   0.05230  -0.74492
    D6        1.30518  -0.00320  -0.02115   0.05654   0.03526   1.34045
    D7       -1.07965   0.00068   0.03685  -0.11863  -0.08187  -1.16153
    D8        3.04738  -0.00211   0.03889  -0.14593  -0.10719   2.94020
    D9        1.04932  -0.00044   0.03343  -0.12730  -0.09393   0.95539
   D10        3.05237   0.00057   0.03867  -0.10839  -0.06970   2.98267
   D11        0.89622  -0.00221   0.04071  -0.13569  -0.09501   0.80121
   D12       -1.10184  -0.00055   0.03525  -0.11706  -0.08176  -1.18360
   D13        0.93170   0.00217   0.03903  -0.09419  -0.05506   0.87665
   D14       -1.22445  -0.00062   0.04108  -0.12148  -0.08037  -1.30482
   D15        3.06067   0.00105   0.03562  -0.10285  -0.06711   2.99356
   D16        0.94715  -0.00177   0.00974  -0.06140  -0.05168   0.89547
   D17       -1.22821  -0.00045   0.01235  -0.04515  -0.03283  -1.26105
   D18        3.01972  -0.00124   0.00833  -0.04529  -0.03697   2.98275
   D19        3.05831  -0.00206   0.00659  -0.04836  -0.04175   3.01656
   D20        0.88295  -0.00074   0.00920  -0.03211  -0.02291   0.86005
   D21       -1.15230  -0.00152   0.00518  -0.03224  -0.02705  -1.17935
   D22       -1.09960   0.00126   0.01068  -0.05383  -0.04314  -1.14274
   D23        3.00823   0.00258   0.01329  -0.03758  -0.02430   2.98393
   D24        0.97297   0.00179   0.00927  -0.03772  -0.02844   0.94454
   D25        0.96530  -0.00438  -0.02525  -0.08879  -0.11410   0.85120
   D26       -1.21111   0.00120  -0.01470  -0.06556  -0.08027  -1.29138
   D27        3.01343   0.00104  -0.01717  -0.06577  -0.08289   2.93054
   D28       -1.08989  -0.00757  -0.02579  -0.12358  -0.14942  -1.23931
   D29        3.01688  -0.00199  -0.01524  -0.10035  -0.11559   2.90129
   D30        0.95824  -0.00215  -0.01772  -0.10055  -0.11821   0.84002
   D31        3.09454  -0.00493  -0.02615  -0.10746  -0.13365   2.96089
   D32        0.91813   0.00065  -0.01560  -0.08422  -0.09982   0.81831
   D33       -1.14052   0.00049  -0.01808  -0.08443  -0.10245  -1.24296
   D34       -0.44622  -0.00283   0.04064  -0.20423  -0.16375  -0.60997
   D35        1.68054   0.00100   0.04376  -0.18521  -0.14134   1.53920
   D36       -2.55087  -0.00555   0.03975  -0.20803  -0.16824  -2.71910
   D37       -1.59128  -0.00034  -0.00114   0.00814   0.00697  -1.58431
   D38        0.54747   0.00043   0.00158  -0.00514  -0.00350   0.54397
   D39        2.58694  -0.00023   0.00010  -0.00388  -0.00381   2.58313
   D40       -0.93399   0.00049  -0.02384   0.10288   0.07903  -0.85495
   D41        1.18509   0.00144  -0.02432   0.08711   0.06282   1.24791
   D42       -3.03090  -0.00204  -0.02740   0.07513   0.04769  -2.98320
         Item               Value     Threshold  Converged?
 Maximum Force            0.015008     0.000015     NO 
 RMS     Force            0.003746     0.000010     NO 
 Maximum Displacement     0.508150     0.000060     NO 
 RMS     Displacement     0.094653     0.000040     NO 
 GradGradGradGradGradGradGradGradGradGradGradGradGradGradGradGradGradGrad

                    Distance matrix (angstroms):
                    1          2          3          4          5
     1  N    0.000000
     2  C    1.461188   0.000000
     3  C    2.463090   1.538439   0.000000
     4  O    3.007275   2.468992   1.378853   0.000000
     5  C    2.486144   1.536776   2.482678   3.747685   0.000000
     6  O    2.868878   2.449520   3.750471   4.896753   1.401193
     7  C    2.392114   1.545912   2.550197   2.935642   2.523810
     8  O    2.687365   2.432975   3.064567   2.810465   3.760234
     9  H    1.019953   2.093976   2.583551   3.119032   2.912565
    10  H    1.022257   2.063380   3.348008   3.996613   2.594459
    11  H    3.400389   2.158668   1.117344   2.065285   2.569861
    12  H    2.647398   2.155212   1.113948   2.028266   2.753594
    13  H    3.035223   2.479272   1.914818   0.972742   3.879593
    14  H    2.828640   2.161361   2.603789   3.956436   1.112190
    15  H    3.430026   2.179238   2.782256   4.014036   1.106734
    16  H    2.872611   2.878850   4.126717   5.268843   1.954404
    17  H    2.729070   2.162241   3.480683   4.011798   2.630484
    18  H    3.367747   2.205502   2.733814   3.077201   2.883154
    19  H    2.170793   2.478474   3.247502   3.020746   3.852163
                    6          7          8          9         10
     6  O    0.000000
     7  C    3.004039   0.000000
     8  O    4.207599   1.399946   0.000000
     9  H    3.419966   3.304209   3.530299   0.000000
    10  H    2.438220   2.738210   3.161427   1.661601   0.000000
    11  H    3.937029   2.894369   3.647798   3.590495   4.160587
    12  H    3.999720   3.490599   3.983046   2.334987   3.504897
    13  H    4.875501   2.401756   1.999935   3.420973   3.936133
    14  H    2.080121   3.475438   4.579659   2.860289   3.017501
    15  H    2.025324   2.717187   4.067253   3.909687   3.599678
    16  H    0.962528   3.672306   4.722766   3.214035   2.273557
    17  H    2.556822   1.111730   2.084685   3.721608   2.648919
    18  H    3.540329   1.104616   2.018279   4.184178   3.775727
    19  H    4.165047   1.910089   0.970401   2.973312   2.587123
                   11         12         13         14         15
    11  H    0.000000
    12  H    1.780386   0.000000
    13  H    2.492000   2.806072   0.000000
    14  H    2.695860   2.412307   4.336819   0.000000
    15  H    2.412516   3.238340   4.087523   1.786021   0.000000
    16  H    4.463936   4.148666   5.342333   2.201507   2.792038
    17  H    3.773608   4.298106   3.492468   3.697320   2.849334
    18  H    2.663075   3.792873   2.520445   3.822160   2.636937
    19  H    4.050114   3.961226   2.391981   4.568440   4.399123
                   16         17         18         19
    16  H    0.000000
    17  H    3.259760   0.000000
    18  H    4.347176   1.790366   0.000000
    19  H    4.494720   2.375287   2.807304   0.000000
 Framework group  C1[X(C4H11NO3)]
 Deg. of freedom    51
                         Standard orientation:                         
 ---------------------------------------------------------------------
 Center     Atomic      Atomic             Coordinates (Angstroms)
 Number     Number       Type             X           Y           Z
 ---------------------------------------------------------------------
      1          7           0       -0.195507    0.149313    1.451137
      2          6           0       -0.163525   -0.191695    0.030658
      3          6           0        0.846560   -1.323405   -0.225768
      4          8           0        2.169202   -0.999618   -0.008935
      5          6           0       -1.533751   -0.665006   -0.479381
      6          8           0       -2.571042    0.219687   -0.155830
      7          6           0        0.246877    1.110618   -0.694183
      8          8           0        1.369574    1.693340   -0.094320
      9          1           0       -0.128855   -0.657199    2.071941
     10          1           0       -1.038697    0.678080    1.684472
     11          1           0        0.685940   -1.692068   -1.268240
     12          1           0        0.577660   -2.173099    0.442509
     13          1           0        2.294426   -0.071124   -0.270554
     14          1           0       -1.727875   -1.679846   -0.067820
     15          1           0       -1.515718   -0.756973   -1.582140
     16          1           0       -2.960445   -0.020993    0.690869
     17          1           0       -0.628069    1.796366   -0.681451
     18          1           0        0.511304    0.921269   -1.749835
     19          1           0        1.180046    1.720052    0.857018
 ---------------------------------------------------------------------
 Rotational constants (GHZ):           2.8228525           1.5390044           1.2750733
   134 basis functions,   244 primitive gaussians,   142 cartesian basis functions
    33 alpha electrons       33 beta electrons
       nuclear repulsion energy       437.6172208513 Hartrees.
 NAtoms=   19 NActive=   19 NUniq=   19 SFac= 1.00D+00 NAtFMM=   60 NAOKFM=F Big=F
 Nuclear repulsion after empirical dispersion term =      437.6046172336 Hartrees.
   1 Symmetry operations used in ECPInt.
 ECPInt:  NShTT=    2485 NPrTT=   10007 LenC2=    2464 LenP2D=    7956.
 LDataN:  DoStor=T MaxTD1= 4 Len=   56
 Initial guess from the checkpoint file:  "/scratch/user/peterchao1/peterchao1/6097802_1659647585000000600324111/Gau-212031.chk"
 B after Tr=     0.000000   -0.000000   -0.000000
         Rot=    0.999688    0.021886    0.005957   -0.010500 Ang=   2.86 deg.
 ExpMin= 1.22D-01 ExpMax= 2.27D+03 ExpMxC= 3.41D+02 IAcc=3 IRadAn=         5 AccDes= 0.00D+00
 Harris functional with IExCor= 4639 and IRadAn=       5 diagonalized for initial guess.
 HarFok:  IExCor= 4639 AccDes= 0.00D+00 IRadAn=         5 IDoV= 1 UseB2=F ITyADJ=14
 ICtDFT=  3500011 ScaDFX=  1.000000  1.000000  1.000000  1.000000
 FoFCou: FMM=F IPFlag=           0 FMFlag=      100000 FMFlg1=           0
         NFxFlg=           0 DoJE=T BraDBF=F KetDBF=T FulRan=T
         wScrn=  0.000000 ICntrl=       500 IOpCl=  0 I1Cent=   200000004 NGrid=           0
         NMat0=    1 NMatS0=      1 NMatT0=    0 NMatD0=    1 NMtDS0=    0 NMtDT0=    0
 Petite list used in FoFCou.
     Minimum is close to point  4 DX=  5.13D-02 DF= -2.58D-05 DXR=  4.10D-02 DFR=  1.69D-03 which will be used.
     Accept linear search using points  2 and  3.
     Accept linear search using points  1 and  2.
     Minimum is close to point  2 DX= -5.64D-02 DF= -4.78D-06 DXR=  5.40D-02 DFR=  3.43D-03 which will be used.
     Accept linear search using points  1 and  2.
     Accept linear search using points  1 and  2.
     Minimum is close to point  2 DX=  7.81D-05 DF= -4.55D-13 DXR=  7.81D-05 DFR=  6.37D-09 which will be used.
 SCF Done:  E(RwB97XD) =  -438.943899168     a.u. after   10 cycles
            Convg  =    0.2906D-08                    41 Fock formations.
              S**2 =  0.0000                  -V/T =  2.0081
   1 Symmetry operations used in ECPInt.
 ECPInt:  NShTT=    2485 NPrTT=   10007 LenC2=    2464 LenP2D=    7956.
 LDataN:  DoStor=T MaxTD1= 5 Len=  102
 Calling FoFJK, ICntrl=      2127 FMM=F ISym2X=0 I1Cent= 0 IOpClX= 0 NMat=1 NMatS=1 NMatT=0.

 GradGradGradGradGradGradGradGradGradGradGradGradGradGradGradGradGradGrad
 Using GEDIIS/GDIIS optimizer.
 FormGI is forming the generalized inverse of G from B-inverse, IUseBI=4.
 Internal  Forces:  Max     0.011406740 RMS     0.002461901
 Step number   4 out of a maximum of  100
 All quantities printed in internal units (Hartrees-Bohrs-Radians)
 Mixed Optimization -- RFO/linear search
 Trust test= 1.07D-01 RLast= 5.58D-01 DXMaxT set to 5.05D-01
 ITU=  0  0  1  0
 Use linear search instead of GDIIS.
     Eigenvalues ---    0.00224   0.00307   0.00436   0.00711   0.00939
     Eigenvalues ---    0.01350   0.01792   0.03212   0.04337   0.04628
     Eigenvalues ---    0.04764   0.05056   0.05204   0.05766   0.05809
     Eigenvalues ---    0.05891   0.06832   0.11448   0.11586   0.11734
     Eigenvalues ---    0.13361   0.13959   0.13994   0.14919   0.15748
     Eigenvalues ---    0.15832   0.15996   0.16000   0.16387   0.17071
     Eigenvalues ---    0.21942   0.22121   0.26340   0.27692   0.27974
     Eigenvalues ---    0.30517   0.32967   0.33958   0.34093   0.34119
     Eigenvalues ---    0.34173   0.34198   0.34733   0.38678   0.41536
     Eigenvalues ---    0.42189   0.44101   0.44481   0.50960   0.51884
     Eigenvalues ---    0.52905
 Quartic linear search produced a step of -0.48919.
 Iteration  1 RMS(Cart)=  0.11686194 RMS(Int)=  0.00776401
 Iteration  2 RMS(Cart)=  0.01065657 RMS(Int)=  0.00009795
 Iteration  3 RMS(Cart)=  0.00007015 RMS(Int)=  0.00007365
 Iteration  4 RMS(Cart)=  0.00000001 RMS(Int)=  0.00007365
 Variable       Old X    -DE/DX   Delta X   Delta X   Delta X     New X
                                 (Linear)    (Quad)   (Total)
    R1        2.76125   0.00007  -0.00597   0.02075   0.01478   2.77602
    R2        1.92743  -0.00133   0.00206  -0.00617  -0.00411   1.92332
    R3        1.93179  -0.00185   0.00070  -0.00512  -0.00442   1.92737
    R4        2.90723  -0.00262  -0.01376   0.03955   0.02579   2.93302
    R5        2.90409   0.00265  -0.00208   0.01208   0.01000   2.91408
    R6        2.92135  -0.00249  -0.01446   0.02305   0.00859   2.92994
    R7        2.60565   0.01141   0.00754   0.02060   0.02814   2.63380
    R8        2.11147  -0.00177  -0.00143  -0.00667  -0.00810   2.10337
    R9        2.10506  -0.00339   0.00158  -0.01462  -0.01304   2.09201
   R10        1.83822   0.00086  -0.00580   0.01313   0.00732   1.84554
   R11        2.64787   0.00449   0.00591   0.00524   0.01116   2.65903
   R12        2.10173  -0.00162   0.00097  -0.00925  -0.00829   2.09345
   R13        2.09142  -0.00159   0.00133  -0.00908  -0.00775   2.08368
   R14        1.81891   0.00166  -0.00134   0.00749   0.00615   1.82506
   R15        2.64551   0.00180   0.00368   0.00820   0.01187   2.65739
   R16        2.10086  -0.00163   0.00095  -0.01002  -0.00907   2.09179
   R17        2.08742  -0.00064   0.00007  -0.00435  -0.00428   2.08314
   R18        1.83379   0.00380  -0.00347   0.01711   0.01365   1.84744
    A1        1.98858  -0.00203  -0.00730  -0.00768  -0.01484   1.97374
    A2        1.93978  -0.00116  -0.01119   0.01108   0.00004   1.93982
    A3        1.90073   0.00179  -0.00189   0.01090   0.00925   1.90999
    A4        1.92632  -0.00130  -0.01078   0.01171   0.00098   1.92731
    A5        1.95520  -0.00032   0.00710   0.00034   0.00735   1.96255
    A6        1.83902   0.00225  -0.00288   0.00073  -0.00202   1.83700
    A7        1.87919   0.00330   0.00612  -0.01043  -0.00431   1.87488
    A8        1.94685  -0.00331  -0.00516   0.02122   0.01614   1.96299
    A9        1.91830  -0.00081   0.00514  -0.02295  -0.01778   1.90051
   A10        2.01623  -0.00522  -0.00905   0.03482   0.02568   2.04191
   A11        1.87952  -0.00125  -0.00057  -0.00054  -0.00133   1.87819
   A12        1.87825   0.00469  -0.00340   0.01314   0.00990   1.88815
   A13        1.94130   0.00443  -0.00426   0.01507   0.01058   1.95189
   A14        1.89265  -0.00195   0.01118  -0.05481  -0.04356   1.84910
   A15        1.84766  -0.00027   0.00728  -0.01125  -0.00398   1.84368
   A16        1.88109   0.00501   0.00051   0.02205   0.02257   1.90365
   A17        1.97030   0.00073   0.00295  -0.00662  -0.00366   1.96665
   A18        1.89003   0.00122  -0.00144   0.02006   0.01867   1.90870
   A19        1.91959  -0.00077  -0.00250  -0.00136  -0.00387   1.91571
   A20        1.94063  -0.00078   0.00642  -0.01422  -0.00779   1.93284
   A21        1.86984  -0.00025  -0.00583   0.00472  -0.00115   1.86870
   A22        1.87102  -0.00024   0.00014  -0.00281  -0.00269   1.86833
   A23        1.92276  -0.00125  -0.00072  -0.01024  -0.01096   1.91180
   A24        1.94190  -0.00408  -0.00265   0.00426   0.00163   1.94353
   A25        1.88108   0.00148  -0.00042   0.01446   0.01401   1.89509
   A26        1.94683  -0.00009  -0.00784   0.00478  -0.00309   1.94374
   A27        1.94926   0.00277   0.01483  -0.04957  -0.03467   1.91459
   A28        1.86385   0.00061  -0.00679   0.03273   0.02605   1.88989
   A29        1.88082  -0.00058   0.00283  -0.00799  -0.00507   1.87575
   A30        1.84928  -0.00223   0.00406  -0.02773  -0.02367   1.82561
    D1       -0.68349  -0.00188  -0.04675   0.04333  -0.00356  -0.68705
    D2        1.41029   0.00120  -0.04176   0.03833  -0.00345   1.40683
    D3       -2.78753   0.00144  -0.03342   0.01124  -0.02221  -2.80974
    D4       -2.83870  -0.00180  -0.03058   0.02591  -0.00468  -2.84338
    D5       -0.74492   0.00128  -0.02559   0.02090  -0.00458  -0.74950
    D6        1.34045   0.00152  -0.01725  -0.00619  -0.02334   1.31711
    D7       -1.16153   0.00305   0.04005   0.16878   0.20888  -0.95265
    D8        2.94020   0.00197   0.05243   0.12408   0.17650   3.11670
    D9        0.95539   0.00060   0.04595   0.13095   0.17693   1.13232
   D10        2.98267   0.00212   0.03410   0.16788   0.20200  -3.09852
   D11        0.80121   0.00103   0.04648   0.12318   0.16962   0.97083
   D12       -1.18360  -0.00033   0.03999   0.13005   0.17005  -1.01355
   D13        0.87665   0.00298   0.02693   0.19011   0.21706   1.09370
   D14       -1.30482   0.00190   0.03932   0.14542   0.18468  -1.12014
   D15        2.99356   0.00053   0.03283   0.15229   0.18511  -3.10452
   D16        0.89547   0.00055   0.02528  -0.03459  -0.00932   0.88615
   D17       -1.26105   0.00016   0.01606  -0.02649  -0.01043  -1.27148
   D18        2.98275   0.00018   0.01809  -0.03390  -0.01581   2.96693
   D19        3.01656   0.00094   0.02042  -0.02680  -0.00642   3.01014
   D20        0.86005   0.00056   0.01121  -0.01869  -0.00753   0.85252
   D21       -1.17935   0.00057   0.01323  -0.02610  -0.01291  -1.19226
   D22       -1.14274  -0.00153   0.02110  -0.02111   0.00003  -1.14271
   D23        2.98393  -0.00191   0.01189  -0.01301  -0.00108   2.98285
   D24        0.94454  -0.00190   0.01391  -0.02042  -0.00646   0.93808
   D25        0.85120   0.00240   0.05582   0.01951   0.07532   0.92652
   D26       -1.29138   0.00054   0.03927   0.06887   0.10813  -1.18325
   D27        2.93054   0.00038   0.04055   0.06692   0.10742   3.03796
   D28       -1.23931   0.00438   0.07309  -0.00655   0.06652  -1.17280
   D29        2.90129   0.00252   0.05655   0.04280   0.09933   3.00062
   D30        0.84002   0.00236   0.05783   0.04086   0.09862   0.93864
   D31        2.96089   0.00290   0.06538   0.00802   0.07347   3.03436
   D32        0.81831   0.00104   0.04883   0.05738   0.10628   0.92459
   D33       -1.24296   0.00088   0.05012   0.05543   0.10557  -1.13739
   D34       -0.60997   0.00320   0.08010  -0.02218   0.05771  -0.55227
   D35        1.53920   0.00111   0.06914   0.01650   0.08572   1.62492
   D36       -2.71910   0.00211   0.08230  -0.02128   0.06115  -2.65795
   D37       -1.58431  -0.00098  -0.00341  -0.01554  -0.01892  -1.60323
   D38        0.54397   0.00056   0.00171  -0.00468  -0.00302   0.54095
   D39        2.58313  -0.00030   0.00186  -0.01297  -0.01109   2.57204
   D40       -0.85495   0.00193  -0.03866   0.09102   0.05238  -0.80257
   D41        1.24791   0.00290  -0.03073   0.07842   0.04782   1.29573
   D42       -2.98320   0.00409  -0.02333   0.06144   0.03796  -2.94524
         Item               Value     Threshold  Converged?
[...]
 013141,0.00138421,0.00044559,0.01202192,-0.00839989,0.04063924,0.01864
 616,-0.11220396,0.02062373,-0.07724805,0.43622867,-0.00063718,-0.00010
 724,0.00394098,-0.00577723,0.01339304,-0.02782513,-0.05328280,0.062269
 97,-0.25199591,0.05460033,0.12902498,0.51573347,-0.02925182,0.00497526
 ,-0.03838271,-0.08401291,0.00218376,-0.01550676,0.00638508,0.00162285,
 0.01157580,-0.00130248,-0.00378395,0.00174983,0.59575123,0.00043676,-0
 .00064042,-0.00090043,0.01030682,-0.08204375,0.01433529,0.00718837,-0.
 00705764,0.03143192,-0.00181440,-0.00583537,0.00190786,-0.02044444,0.5
 5057042,-0.00944774,0.00069490,-0.00369432,-0.03174314,0.00261975,-0.1
 8257877,0.00283296,0.01105182,-0.01026449,-0.00012198,-0.00308805,0.00
 395545,-0.01257721,0.03597691,0.53285841,0.00136789,0.00170031,-0.0020
 3632,0.00109463,0.00485020,-0.00051141,-0.00129071,0.00056338,-0.00210
 386,0.00110589,0.00029513,0.00037688,-0.11377132,-0.07248194,0.0000793
 4,0.15454291,-0.00088356,0.00114266,0.00167170,-0.00659701,-0.01608875
 ,0.01186390,0.00163110,0.00201910,0.00041516,-0.00024835,-0.00101288,0
 .00291344,-0.08379708,-0.21347382,0.01664134,0.11501784,0.31955652,0.0
 0043195,0.00175581,0.00126357,0.01814325,0.04252100,-0.01652518,-0.003
 72432,-0.00329832,-0.00652918,0.00069991,0.00369913,-0.00268805,0.0215
 8338,0.05468672,-0.10463293,0.08984198,-0.15245087,0.58813213,-0.03876
 365,0.02869517,0.01045313,-0.08621328,0.01991074,0.01634050,0.00624152
 ,-0.00389325,-0.00431024,-0.00146575,-0.00226916,-0.00198045,0.0063525
 6,-0.00744766,-0.00357833,-0.00016435,0.00082359,0.00106728,0.64773605
 ,0.00680852,0.00185800,-0.00170767,0.02665568,-0.13516058,-0.02760734,
 0.01217254,-0.03397337,-0.02451387,-0.00092553,0.00447048,-0.00144542,
 -0.00485040,0.01117187,0.00053484,-0.00006912,-0.00343996,-0.00086925,
 0.03470694,0.56113748,0.00823647,-0.00126053,-0.00661116,0.02825824,-0
 .03324128,-0.10000286,-0.00419380,-0.00124818,0.01488952,-0.00043701,-
 0.00596268,-0.00794250,0.00803880,-0.02110375,-0.02869569,-0.00063616,
 -0.00053152,0.00157418,0.00630298,-0.06079876,0.48600829,-0.00499461,0
 .00623967,0.01716475,-0.00236551,-0.00197830,0.00105981,-0.00078291,0.
 00054146,-0.00103235,0.00471646,-0.00086435,0.00127833,0.00041660,0.00
 067401,0.00183972,0.00121430,-0.00004168,-0.00070612,-0.12285823,0.008
 70169,-0.07871467,0.53783220,0.00243534,0.00499173,-0.00529037,-0.0080
 3643,0.00772204,-0.02448827,0.00092137,-0.00098414,0.01123044,-0.00223
 719,-0.01817770,-0.00989844,0.00261713,-0.00589818,-0.00184743,-0.0002
 9330,0.00253998,0.00035710,0.00951372,-0.07593286,0.02346012,-0.077012
 64,0.09505440,-0.00027146,-0.00228362,-0.00324016,-0.01163008,-0.00067
 317,-0.04704593,-0.00037833,0.00475841,-0.00389658,0.00012934,-0.00056
 510,0.00850968,0.00451376,-0.00702559,-0.00120790,0.00078235,0.0003967
 2,-0.00095826,-0.03181387,0.02064724,-0.23038185,0.00220278,-0.0090092
 3,0.38454113,-0.13102889,0.14097844,0.02411046,-0.01651245,0.03336855,
 0.00697286,-0.00019703,0.00180610,0.00038615,0.00083384,-0.00061287,-0
 .00016056,-0.00153819,0.00037406,0.00043984,0.00043821,-0.00051510,0.0
 0069785,-0.00657383,-0.00153311,-0.00240476,0.00119900,-0.00051336,-0.
 00038143,0.14413234,0.15396668,-0.35810250,-0.01824280,-0.00360635,0.0
 0494720,-0.00353651,-0.00308987,0.00190690,0.00156234,0.00009982,-0.00
 054408,-0.00075280,-0.00130009,-0.00037985,0.00026500,0.00014596,0.000
 00280,0.00060607,-0.00055013,0.00057572,0.00029434,0.00014597,-0.00001
 004,0.00031834,-0.15810714,0.36949888,0.04318301,-0.05305005,-0.021272
 89,-0.00618411,0.00463214,-0.00508649,0.00278884,-0.00011942,0.0043240
 0,-0.00308374,-0.00011445,-0.00113971,-0.00226245,0.00179148,0.0000404
 0,-0.00006902,-0.00042022,-0.00064574,0.00278425,-0.00066861,-0.000516
 82,0.00250392,0.00089962,-0.00103807,-0.02579855,0.02878239,0.02359789
 ,-0.11625010,-0.08565321,0.09333236,-0.01607252,-0.02733177,0.02399311
 ,-0.00700466,0.00178798,-0.00172692,0.00135696,0.00084819,-0.00018822,
 -0.00119398,-0.00342665,0.00070216,0.00006480,0.00043581,0.00033409,-0
 .00034281,-0.00076887,0.00027516,-0.00009715,-0.00010308,-0.00062440,0
 .00933010,0.01175679,-0.01372692,0.12906748,-0.08326599,-0.21103480,0.
 15369011,-0.00575918,-0.00062343,-0.00075591,-0.00125860,0.00044553,0.
 00006906,0.00026748,0.00043108,-0.00031841,0.00151847,0.00154456,0.001
 33375,0.00144808,-0.00151913,0.00073141,0.00002146,0.00111039,-0.00066
 459,0.00122326,-0.00165610,-0.00062671,-0.01540256,-0.01777589,0.02188
 289,0.10183794,0.22952919,0.11693309,0.19433505,-0.18465242,-0.0068963
 8,-0.00859804,0.00357770,-0.00335953,-0.00039662,-0.00106074,0.0008043
 6,0.00056587,0.00008909,-0.00210172,-0.00149089,0.00077310,-0.00071141
 ,0.00029073,-0.00251225,0.00079313,0.00075776,-0.00066267,0.00071342,-
 0.00192748,-0.00096696,-0.00413176,-0.00886394,0.00184369,-0.10331106,
 -0.17694242,0.18353701,-0.00008987,-0.00345390,0.00142506,-0.01318975,
 0.00236412,-0.00005662,-0.28613779,-0.00910948,-0.01362177,-0.00151969
 ,0.00313351,-0.01707114,-0.00127680,0.00015257,-0.00059407,0.00098843,
 0.00007151,0.00019047,-0.00043661,0.00162692,-0.00021250,0.00076084,-0
 .00105826,0.00023388,0.00078103,-0.00001144,-0.00015855,-0.00059798,-0
 .00006026,-0.00067446,0.31024338,-0.00207726,-0.00593805,0.00232855,-0
 .03003738,-0.00096877,-0.00268133,-0.00456328,-0.05511377,-0.00398458,
 0.01120303,0.00388202,0.00832063,-0.00092414,0.00031782,-0.00040635,0.
 00039182,0.00017276,-0.00024275,-0.00160178,0.00140757,0.00046590,0.00
 037220,0.00005878,-0.00051270,0.00022595,-0.00026918,0.00010550,-0.001
 75840,-0.00017452,-0.00063925,0.00628360,0.05566711,0.00121412,0.00216
 126,0.00059861,0.00612845,-0.00223458,0.00252969,-0.01254066,-0.004063
 04,-0.05279797,-0.04017230,0.00523090,-0.01965943,0.00033176,0.0000919
 5,-0.00014141,-0.00008493,-0.00023012,0.00014157,-0.00121087,-0.000058
 57,-0.00056081,0.00018845,-0.00110343,0.00048850,-0.00056492,0.0002300
 3,-0.00059179,0.00041522,0.00034311,0.00032563,0.02921049,-0.00420854,
 0.06507076,0.00210656,-0.00085434,-0.00060389,0.00297515,-0.00931050,-
 0.00661126,-0.10041022,0.07407232,0.06649747,0.00830732,-0.00881235,-0
 .00956929,-0.00003383,0.00066410,-0.00024899,0.00001075,-0.00022259,-0
 .00032647,-0.00068414,-0.00136175,0.00068129,-0.00002056,0.00024963,0.
 00031038,-0.00035208,0.00026173,0.00002581,0.00020806,0.00016092,0.000
 07120,-0.01109695,0.02186857,0.01814460,0.09696366,0.00144112,0.001971
 44,0.00079801,0.01416317,-0.02151457,-0.01836917,0.07080357,-0.1715001
 3,-0.10787709,-0.00489131,0.01148168,0.00860975,0.00012088,-0.00077563
 ,-0.00232881,-0.00023843,0.00096101,0.00041577,-0.00247983,-0.00506981
 ,0.00434632,-0.00072385,0.00105352,-0.00061078,-0.00141927,-0.00001736
 ,-0.00039556,0.00002423,0.00019567,0.00016781,-0.00128420,0.00254242,0
 .00137252,-0.07640729,0.18122729,-0.00074426,0.00006438,0.00069348,-0.
 00231719,0.00444075,0.00443380,0.06126660,-0.10077175,-0.13604101,0.00
 582554,-0.02278985,-0.03748668,-0.00044386,0.00129120,0.00033812,-0.00
 013041,0.00010280,0.00013220,0.00017051,0.00155566,-0.00037025,-0.0003
 3627,-0.00150450,0.00055907,-0.00043855,-0.00074126,-0.00035079,-0.000
 14701,0.00006934,-0.00005334,0.00021799,0.00080319,0.00386280,-0.06478
 158,0.11100541,0.16906816,-0.00071103,0.00101179,-0.00124124,0.0026351
 1,0.00148659,-0.00004049,0.00017061,-0.00810126,-0.00839931,-0.0207424
 5,0.05616842,0.02888564,0.00017556,0.00004862,0.00039558,-0.00020862,0
 .00006515,-0.00019077,0.00233876,0.00147969,0.00025547,-0.00669442,0.0
 0199738,-0.00108352,-0.00003627,0.00016454,0.00102513,-0.00018838,-0.0
 0033482,-0.00039731,-0.00053018,-0.00046613,-0.00151672,0.00035988,0.0
 0024802,0.00126326,0.02647115,0.00024631,-0.00161402,-0.00167172,-0.00
 051366,0.00230566,0.00356158,-0.00201507,0.01349269,0.00640166,0.04958
 961,-0.31188867,-0.21602055,0.00013924,-0.00060982,-0.00047076,0.00000
 424,-0.00077093,0.00005249,0.00554071,-0.00308931,0.01194801,-0.000415
 01,0.00660929,-0.00647899,0.00052737,0.00033707,-0.00062004,-0.0001043
 7,-0.00010640,0.00003805,0.00175130,-0.00088017,0.00190060,-0.00012065
 ,0.00038898,0.00530159,-0.04818747,0.29777150,-0.00003425,-0.00075788,
 -0.00021598,0.00161812,-0.00010370,0.00160587,0.00445235,-0.03196275,-
 0.03798079,0.01669012,-0.16951491,-0.18409957,-0.00078422,-0.00072904,
 -0.00096464,-0.00002791,-0.00063309,0.00095409,0.00081634,0.00492875,0
 .00057660,-0.00125759,-0.00265458,-0.00635643,0.00028981,0.00012465,-0
 .00049301,0.00001231,0.00022146,0.00027837,0.00052665,-0.00040909,0.00
 113216,-0.00292300,0.00240974,-0.00472159,-0.01898029,0.19823143,0.229
 29832,0.00160115,-0.00063712,0.00081473,0.00244070,-0.00584829,-0.0065
 1990,0.00025346,0.00010523,0.00055165,-0.00017758,-0.00034117,-0.00002
 365,-0.08577662,0.06306986,0.05099747,0.00787823,-0.02072247,-0.010042
 77,-0.00041119,0.00046195,-0.00061536,0.00029429,-0.00027360,-0.000470
 32,0.00016916,0.00026944,-0.00013656,-0.00002278,-0.00025975,-0.000064
 04,-0.00002939,0.00018194,-0.00006490,0.00027693,-0.00017294,0.0001782
 8,-0.00001147,0.00006019,-0.00004479,0.08099191,-0.00083798,0.00060443
 ,-0.00007535,-0.00100243,0.00470834,0.00308573,-0.00009187,0.00024458,
 0.00146551,-0.00020104,0.00033977,0.00009295,0.06132522,-0.17759293,-0
 .10428583,-0.00212644,-0.03810451,-0.00928353,0.00044750,-0.00036391,0
 .00149811,-0.00026362,0.00041549,0.00034465,-0.00018120,-0.00002783,-0
 .00045507,0.00033049,-0.00049101,0.00006234,-0.00019762,0.00001212,-0.
 00019666,0.00017328,0.00017155,0.00053732,-0.00006091,-0.00012840,0.00
 012462,-0.05919923,0.20890495,0.00043250,0.00138515,0.00330283,0.01427
 422,-0.02353256,-0.02099646,0.00017163,-0.00284926,-0.00057363,-0.0000
 9147,0.00087466,0.00084931,0.04742059,-0.10666971,-0.13925296,-0.00248
 971,0.01258528,0.01091963,-0.00343920,0.00419241,-0.00270285,-0.000420
 57,-0.00130142,-0.00317446,-0.00053565,0.00009582,-0.00034815,-0.00039
 405,-0.00037664,-0.00031924,0.00001196,0.00021116,0.00008259,-0.000352
 95,0.00153218,-0.00004893,-0.00010664,-0.00075404,0.00019267,-0.052699
 84,0.11182494,0.14686655,-0.00015970,-0.00010235,-0.00297928,-0.008255
 94,0.00161287,0.00085671,-0.00119210,-0.00056111,-0.00005335,0.0008669
 6,0.00016451,0.00012342,-0.29061535,0.02892181,-0.02046054,-0.01315446
 ,-0.01283278,0.00352738,-0.00040382,0.00009846,0.00075352,0.00077034,-
 0.00006143,-0.00022871,0.00011709,-0.00018557,-0.00000209,0.00065210,0
 .00007633,0.00074744,0.00090413,0.00028554,0.00007811,0.00011485,-0.00
 013661,-0.00010035,-0.00021236,-0.00010219,0.00004745,-0.00818210,0.00
 239114,-0.00196732,0.31848283,0.00103696,0.00104430,0.00316675,0.00522
 657,0.00037891,-0.00289479,0.00094173,-0.00013133,0.00003464,-0.000286
 70,-0.00006625,-0.00014560,0.03292637,-0.05667034,0.00165774,-0.041666
 93,-0.00804644,0.00207033,-0.00067899,0.00010760,-0.00042224,-0.000062
 39,-0.00004989,0.00023041,-0.00019816,0.00008353,-0.00031393,0.0000276
 6,-0.00078902,0.00028519,-0.00030648,-0.00035222,0.00078342,-0.0000631
 5,0.00010003,0.00009831,0.00002786,0.00009910,-0.00001790,0.02231283,0
 .00052673,0.00252437,-0.01922820,0.06251490,-0.00343406,0.00126481,-0.
 00709901,-0.03020209,0.00288542,0.00214336,-0.00099359,-0.00062225,0.0
 0037221,0.00064058,0.00000908,0.00004277,-0.01954086,-0.00095654,-0.05
 828813,0.01255476,0.00592588,0.00262070,-0.00093585,-0.00015184,0.0003
 3251,0.00103715,-0.00004460,0.00071463,-0.00046055,-0.00035379,-0.0006
 7504,0.00055097,0.00050717,0.00038009,0.00045113,0.00064039,-0.0002732
 0,0.00009228,0.00014785,-0.00009013,-0.00019457,-0.00000623,0.00004058
 ,0.01915299,-0.00329498,0.00343440,0.02022117,-0.00553291,0.05577071,-
 0.00006272,0.00108282,-0.00055362,-0.00312518,-0.00312154,0.00003412,0
 .00055560,0.00006064,0.00066117,0.00003265,-0.00021118,0.00013848,0.00
 214215,-0.00675357,0.02229833,-0.03969123,0.00746657,-0.12261726,0.000
 24620,-0.00031005,0.00011533,-0.00006720,0.00013787,-0.00011758,0.0001
 1385,0.00018715,-0.00036272,0.00150157,-0.00032932,0.00030085,-0.00008
 717,0.00006403,0.00000881,-0.00003670,0.00006690,-0.00001544,-0.000005
 24,-0.00008657,-0.00003682,0.00027223,-0.00046415,-0.00083445,0.000023
 25,-0.00005028,0.00119480,0.03827731,-0.00088137,0.00013617,-0.0009330
 5,-0.00328152,-0.00648606,0.00074794,0.00062446,0.00059089,0.00161984,
 -0.00016486,-0.00055409,0.00021550,0.00772536,-0.01069192,0.03994927,-
 0.00765502,-0.04479394,0.05741318,-0.00000473,-0.00018107,-0.00026763,
 0.00008368,0.00005587,-0.00047867,0.00009494,0.00000493,0.00010658,0.0
 0055102,-0.00019012,0.00014144,-0.00005536,0.00003186,-0.00005846,0.00
 010859,-0.00008853,-0.00003178,-0.00001907,-0.00010841,-0.00007587,0.0
 0114378,0.00052899,0.00026814,-0.00038640,0.00113376,-0.00043578,0.002
 26356,0.05986799,0.00083051,-0.00005063,0.00076748,0.00093017,0.002169
 24,0.00057718,-0.00046495,-0.00031292,-0.00061938,0.00014551,0.0000900
 1,0.00012662,-0.00429488,-0.00259299,-0.00979870,-0.09545759,0.1020799
 0,-0.46945295,0.00007783,0.00005431,0.00027174,0.00001695,0.00004487,0
 .00023300,-0.00000337,0.00000748,-0.00003910,-0.00011871,-0.00018453,-
 0.00033063,0.00011617,0.00002978,0.00000507,0.00000758,0.00005320,0.00
 002614,-0.00001555,0.00003082,0.00000808,-0.00066273,-0.00157332,0.001
 48993,-0.00067893,-0.00149943,0.00062040,0.09964313,-0.09853452,0.4763
 6071,0.00131012,-0.00055462,-0.00032138,0.00327467,0.01395273,-0.00286
 089,-0.00135988,0.00061822,0.00190717,0.00007468,0.00002154,-0.0001912
 6,0.00058109,-0.00040055,-0.00058253,-0.00036128,0.00026357,0.00050323
 ,-0.06920995,-0.04988570,0.01927713,0.00513797,0.01643205,-0.01358648,
 0.00007534,-0.00017592,-0.00018030,-0.00017315,0.00030193,0.00039647,0
 .00048609,0.00023613,0.00013012,0.00068505,0.00061240,0.00006250,-0.00
 052817,-0.00036532,-0.00024619,-0.00010345,0.00004401,-0.00002349,-0.0
 0006121,-0.00010022,0.00016361,-0.00000793,-0.00021779,-0.00014430,0.0
 6277175,-0.00036314,0.00208667,-0.00052659,-0.00716797,-0.02142802,0.0
 0555424,0.00289745,-0.00118717,-0.00403735,-0.00000703,0.00034121,0.00
 055489,-0.00020652,-0.00233271,0.00141048,-0.00011798,0.00167749,0.001
 15485,-0.04693001,-0.26860230,0.07419886,0.00554596,0.00607716,0.00744
 999,0.00001888,0.00004740,0.00015919,0.00070432,-0.00063502,-0.0003364
 8,-0.00003131,0.00023674,-0.00003925,-0.00024190,-0.00142469,0.0002226
 4,0.00000690,0.00038849,-0.00025737,-0.00000446,0.00025080,-0.00005610
 ,0.00002355,0.00002822,-0.00025648,0.00006108,0.00052163,0.00016087,0.
 04678885,0.28556352,-0.00079884,0.00138088,0.00079160,-0.00489976,-0.0
 2002612,0.00772514,0.00223090,-0.00205515,-0.00388095,0.00031691,0.001
 15057,0.00138662,-0.00055061,-0.00086225,0.00099221,0.00059365,-0.0001
 2321,-0.00181321,0.01739713,0.07375387,-0.07395452,-0.00358725,0.03327
 072,-0.02669650,-0.00007712,0.00001314,0.00001146,0.00024214,0.0000353
 3,0.00019316,0.00011462,0.00012676,0.00002040,-0.00022409,-0.00141904,
 0.00029672,-0.00052643,-0.00221585,-0.00092521,-0.00003424,0.00020204,
 0.00024012,-0.00009333,0.00025748,-0.00002397,0.00000001,0.00028340,-0
 .00005156,-0.01327245,-0.08633690,0.09519327,-0.00061318,0.00228448,0.
 00123248,-0.01004529,-0.00293857,-0.00039974,-0.00039941,-0.00184814,-
 0.00059494,0.00053259,0.00068267,-0.00005611,-0.00073902,0.00005538,-0
 .00009511,0.00038033,0.00018534,0.00015293,-0.30505107,-0.03559994,0.0
 2676239,-0.01298389,0.00238597,-0.00521196,-0.00046578,-0.00014545,0.0
 0036057,-0.00005725,-0.00001527,-0.00011991,0.00085808,0.00056884,0.00
 004156,0.00054440,-0.00013942,0.00007977,-0.00095740,-0.00066286,-0.00
 020263,0.00031066,-0.00003337,0.00023400,0.00050541,-0.00000100,0.0004
 3275,-0.00005894,0.00011684,0.00006681,-0.00351847,-0.00022934,0.00138
 050,0.33144748,0.00313830,-0.00270796,-0.00127353,0.02043118,0.0031691
 1,-0.00144873,0.00201767,0.00075514,0.00043861,-0.00062047,-0.00009550
 ,-0.00008689,-0.00013437,-0.00023075,0.00058321,0.00011444,0.00002354,
 0.00052510,-0.04140445,-0.05938620,0.00561946,0.00526306,0.00279518,-0
 .00153588,0.00116881,0.00025822,-0.00043782,0.00042603,-0.00036389,-0.
 00027187,-0.00042023,-0.00065356,-0.00029003,-0.00021225,0.00032115,0.
 00003466,0.00055528,-0.00007297,0.00012880,-0.00013649,0.00007246,0.00
 007550,-0.00018793,0.00021913,-0.00005325,-0.00005803,0.00017227,0.000
 08581,-0.02863606,-0.00124829,0.00256674,0.03639068,0.05716973,0.00319
 210,-0.00424396,0.00017809,0.01641226,0.00560386,0.00105834,0.00046625
 ,0.00097183,0.00068371,0.00000115,-0.00005091,0.00027729,0.00078366,0.
 00028657,0.00047548,-0.00044184,0.00001096,-0.00019661,0.03699808,0.00
 548834,-0.05361350,-0.04265320,-0.00087468,-0.00390480,0.00105054,0.00
 006538,-0.00076690,-0.00001240,0.00015136,0.00005185,-0.00045779,-0.00
 037542,0.00004078,-0.00016999,0.00024557,-0.00002467,-0.00032308,-0.00
 070314,-0.00015899,-0.00028052,-0.00003098,0.00010241,-0.00032759,-0.0
 0008207,-0.00067938,0.00006155,-0.00012317,-0.00012484,0.00937749,-0.0
 0006318,0.00130944,-0.02146277,-0.00492138,0.06232417,-0.00234418,-0.0
 0204509,-0.00244877,0.00279549,-0.00015611,0.00218180,-0.00090998,0.00
 014321,-0.00198640,-0.00000674,0.00202963,0.00178499,-0.00229194,0.000
 87684,-0.00013577,-0.00044441,-0.00009987,0.00043400,-0.03033642,0.002
 59208,-0.01174250,-0.40147752,0.05289883,0.05762564,-0.00048545,0.0001
 7387,-0.00070652,-0.00018031,-0.00017013,0.00100760,-0.00002981,-0.000
 25329,0.00026360,0.00008186,0.00041288,0.00039047,-0.00132508,-0.00528
 580,0.00008453,0.00022585,-0.00005177,0.00081043,-0.00019992,0.0001425
 4,-0.00073063,-0.00002249,-0.00004611,0.00000635,0.00092671,-0.0007473
 4,0.00178824,0.00031076,0.00230483,-0.00221391,0.43571359,-0.00149393,
 -0.00683458,0.00310425,-0.00279268,0.00042652,-0.00201787,-0.00123182,
 -0.00034849,-0.00269030,0.00256214,0.00021926,0.00147234,0.00028645,0.
 00062847,-0.00029179,0.00011775,-0.00084549,0.00015575,0.00760015,0.00
 336028,0.00367004,0.05257087,-0.02466454,-0.00434531,-0.00008033,-0.00
 053591,-0.00176463,0.00041589,0.00210292,0.00282274,0.00060499,0.00002
 104,0.00036888,0.00004765,-0.00002402,0.00031187,-0.00609058,-0.002123
 67,0.00094673,-0.00000970,-0.00007164,-0.00002986,0.00021036,-0.000130
 72,0.00032807,-0.00000593,0.00004976,-0.00005792,0.00106475,-0.0003611
 4,-0.00000242,-0.00105685,-0.00019681,-0.00135497,-0.05271919,0.029328
 77,-0.00228303,0.00417824,0.00242222,-0.00741422,-0.00257042,-0.004795
 12,0.00002623,-0.00134312,0.00122600,-0.00010061,-0.00026777,-0.002074
 32,0.00044771,0.00053129,0.00008676,0.00047162,-0.00050879,0.00021628,
 -0.04593236,0.00590817,0.00236265,0.10070274,-0.00931845,-0.06617813,0
 .00100968,0.00012612,0.00314704,0.00039214,0.00083421,-0.00049145,0.00
 034851,0.00042814,-0.00027396,-0.00001912,-0.00010371,-0.00022312,0.00
 119084,0.00147509,0.00182945,-0.00003552,-0.00004249,-0.00006377,0.000
 53629,-0.00019975,0.00065650,0.00008130,0.00019363,-0.00006920,-0.0004
 0844,0.00104369,-0.00081421,-0.00260058,0.00026149,-0.00703187,-0.0464
 1318,-0.00062559,0.07006825\\0.00000022,-0.00000115,-0.00000212,0.,0.0
 0000018,-0.00000020,-0.00000051,-0.00000018,-0.00000046,0.00000100,-0.
 00000116,-0.00000135,-0.00000196,0.00000151,0.00000066,-0.00000184,0.0
 0000123,0.00000079,0.00000183,-0.00000040,0.00000162,0.00000363,-0.000
 00170,0.00000055,-0.00000041,-0.00000133,-0.00000347,-0.00000022,-0.00
 000085,-0.00000217,-0.00000074,0.00000091,0.00000103,-0.00000198,0.000
 00038,-0.00000179,0.00000238,-0.00000156,-0.00000044,-0.00000347,0.000
 00167,-0.00000046,-0.00000210,0.00000222,0.00000224,-0.00000294,0.0000
 0218,0.00000118,0.00000201,-0.00000012,0.00000213,0.00000191,0.0000003
 5,0.00000304,0.00000318,-0.00000219,-0.00000077\\\@


 THERE'S SMALL CHOICE IN A BOWL OF ROTTEN APPLES.
                     SHAKESPEARE
 Job cpu time:       0 days  0 hours  6 minutes 42.8 seconds.
 Elapsed time:       0 days  0 hours  1 minutes 41.5 seconds.
 File lengths (MBytes):  RWF=     48 Int=      0 D2E=      0 Chk=      3 Scr=      1
 Normal termination of Gaussian 16 at Thu Aug  4 16:31:53 2022.
real 1127.30
user 4285.54
sys 23.27
