You are running Q-Chem version: 5.3.2

#
# job setting
#
local host:  c377.cluster
current dir: /scratch/user/peterchao1/peterchao1/10002830_1712087366000000996936825
input file:  qchem_test.inp
output file: 
nprocs     : 0
nthreads   : 8
#
# qchem installation setting
#
QC:          /sw/restricted/qchem/sw/5.3.2
QCAUX:       /sw/restricted/qchem/sw/5.3.2/qcaux
QCPROG:      /sw/restricted/qchem/sw/5.3.2/exe/qcprog.exe_s
QCPROG_S:    /sw/restricted/qchem/sw/5.3.2/exe/qcprog.exe_s
PARALLEL:    -DSERIAL
QCMPI:       seq
#
# qchem directory setting
#
qcrun:       qchem52756
QCSCRATCH:   /scratch/user/peterchao1/peterchao1/10002830_1712087366000000996936825
QCLOCALSCR:  
QCTMPDIR:    /scratch/user/peterchao1/peterchao1/10002830_1712087366000000996936825
QCFILEPREF:  /scratch/user/peterchao1/peterchao1/10002830_1712087366000000996936825/qchem52756
QCSAVEDIR:   
workdirs:    /scratch/user/peterchao1/peterchao1/10002830_1712087366000000996936825/qchem52756
workdir0:    /scratch/user/peterchao1/peterchao1/10002830_1712087366000000996936825/qchem52756
partmpdirs =  
#
# parallel setting
#
QCRSH:           ssh
QCMPI:           seq
QCMPIRUN:        
QCMACHINEFILE:   /scratch/user/peterchao1/peterchao1/10002830_1712087366000000996936825/qchem52756/hostfile

#
# env setting
#
exported envs:   QC QCAUX QCSCRATCH QCRUNNAME QCFILEPREF QCPROG QCPROG_S GUIFILE

Running Job 1 of 1 qchem_test.inp
qchem qchem_test.inp_52756.0 /scratch/user/peterchao1/peterchao1/10002830_1712087366000000996936825/qchem52756/ 0
/sw/restricted/qchem/sw/5.3.2/exe/qcprog.exe_s qchem_test.inp_52756.0 /scratch/user/peterchao1/peterchao1/10002830_1712087366000000996936825/qchem52756/
                  Welcome to Q-Chem
     A Quantum Leap Into The Future Of Chemistry


 Q-Chem 5.3, Q-Chem, Inc., Pleasanton, CA (2020)

 License issued to: MRG Daniel Tabor and Mike Hall, Texas A&M University

 Yihan Shao,  Zhengting Gan,  E. Epifanovsky,  A. T. B. Gilbert,  M. Wormit,  
 J. Kussmann,  A. W. Lange,  A. Behn,  Jia Deng,  Xintian Feng,  D. Ghosh,  
 M. Goldey,  P. R. Horn,  L. D. Jacobson,  I. Kaliman,  T. Kus,  A. Landau,  
 Jie Liu,  E. I. Proynov,  R. M. Richard,  R. P. Steele,  E. J. Sundstrom,  
 H. L. Woodcock III,  P. M. Zimmerman,  D. Zuev,  B. Alam,  B. Albrecht,  
 A. Aldossary,  E. Alguire,  S. A. Baeppler,  D. Barton,  Z. Benda,  
 Y. A. Bernard,  E. J. Berquist,  K. B. Bravaya,  H. Burton,  K. Carter-Fenk,  
 D. Casanova,  Chun-Min Chang,  Yunqing Chen,  A. Chien,  K. D. Closser,  
 M. P. Coons,  S. Coriani,  S. Dasgupta,  A. L. Dempwolff,  M. Diedenhofen,  
 Hainam Do,  R. G. Edgar,  Po-Tung Fang,  S. Faraji,  S. Fatehi,  
 Qingguo Feng,  J. Fosso-Tande,  J. Gayvert,  Qinghui Ge,  A. Ghysels,  
 G. Gidofalvi,  J. Gomes,  J. Gonthier,  S. Gulania,  A. Gunina,  D. Hait,  
 M. W. D. Hanson-Heine,  S. Hammes-Schiffer,  P. H. P. Harbach,  
 A. W. Hauser,  M. F. Herbst,  J. E. Herr,  E. G. Hohenstein,  Z. C. Holden,  
 S. Houck,  Kerwin Hui,  B. C. Huynh,  M. Ivanov,  T.-C. Jagau,  Hyunjun Ji,  
 B. Kaduk,  K. Khistyaev,  Jaehoon Kim,  P. Klunzinger,  K. Koh,  
 D. Kosenkov,  L. Koulias,  T. Kowalczyk,  C. M. Krauter,  A. Kunitsa,  
 Ka Un Lao,  A. Laurent,  K. V. Lawler,  Joonho Lee,  D. Lefrancois,  
 S. Lehtola,  D. S. Levine,  Yi-Pei Li,  You-Sheng Lin,  Fenglai Liu,  
 Kuan-Yu Liu,  E. Livshits,  M. Loipersberger,  A. Luenser,  A. Manjanath,  
 P. Manohar,  E. Mansoor,  S. F. Manzer,  Shan-Ping Mao,  Yuezhi Mao,  
 N. Mardirossian,  A. V. Marenich,  T. Markovich,  L. A. Martinez-Martinez,  
 S. A. Maurer,  N. J. Mayhall,  S. C. McKenzie,  J.-M. Mewes,  P. Morgante,  
 A. F. Morrison,  J. W. Mullinax,  K. Nanda,  T. S. Nguyen-Beck,  
 R. Olivares-Amaya,  K. J. Oosterbaan,  J. A. Parkhill,  S. K. Paul,  
 F. Pavosevic,  Zheng Pei,  T. M. Perrine,  F. Plasser,  P. Pokhilko,  
 S. Prager,  A. Prociuk,  E. Ramos,  B. Rana,  D. R. Rehn,  F. Rob,  
 E. Rossomme,  M. Scheurer,  M. Schneider,  N. Sergueev,  S. M. Sharada,  
 S. Sharma,  W. Skomorowski,  D. W. Small,  T. Stauch,  C. J. Stein,  
 T. Stein,  Yu-Chuan Su,  S. P. Veccham,  Zhen Tao,  A. J. W. Thom,  
 A. Tkatchenko,  T. Tsuchimochi,  N. M. Tubman,  L. Vogt,  M. L. Vidal,  
 O. Vydrov,  M. A. Watson,  J. Wenzel,  M. de Wergifosse,  T. A. Wesolowski,  
 A. White,  J. Witte,  A. Yamada,  Jun Yang,  K. Yao,  S. Yeganeh,  
 S. R. Yost,  Zhi-Qiang You,  A. Zech,  Igor Ying Zhang,  Xing Zhang,  
 Yan Zhao,  Ying Zhu,  B. R. Brooks,  G. K. L. Chan,  C. J. Cramer,  
 M. S. Gordon,  W. J. Hehre,  A. Klamt,  M. W. Schmidt,  C. D. Sherrill,  
 D. G. Truhlar,  A. Aspuru-Guzik,  R. Baer,  A. T. Bell,  N. A. Besley,  
 Jeng-Da Chai,  A. E. DePrince, III,  R. A. DiStasio Jr.,  A. Dreuw,  
 B. D. Dunietz,  T. R. Furlani,  Chao-Ping Hsu,  Yousung Jung,  Jing Kong,  
 D. S. Lambrecht,  WanZhen Liang,  C. Ochsenfeld,  V. A. Rassolov,  
 L. V. Slipchenko,  J. E. Subotnik,  T. Van Voorhis,  J. M. Herbert,  
 A. I. Krylov,  P. M. W. Gill,  M. Head-Gordon

 Contributors to earlier versions of Q-Chem not listed above: 
 R. D. Adamson,  B. Austin,  J. Baker,  G. J. O. Beran,  K. Brandhorst,  
 S. T. Brown,  E. F. C. Byrd,  A. K. Chakraborty,  C.-L. Cheng,  
 Siu Hung Chien,  D. M. Chipman,  D. L. Crittenden,  H. Dachsel,  
 R. J. Doerksen,  A. D. Dutoi,  L. Fusti-Molnar,  W. A. Goddard III,  
 A. Golubeva-Zadorozhnaya,  S. R. Gwaltney,  G. Hawkins,  A. Heyden,  
 S. Hirata,  G. Kedziora,  F. J. Keil,  C. Kelley,  Jihan Kim,  R. A. King,  
 R. Z. Khaliullin,  P. P. Korambath,  W. Kurlancheek,  A. M. Lee,  M. S. Lee,  
 S. V. Levchenko,  Ching Yeh Lin,  D. Liotard,  R. C. Lochan,  I. Lotan,  
 P. E. Maslen,  N. Nair,  D. P. O'Neill,  D. Neuhauser,  E. Neuscamman,  
 C. M. Oana,  R. Olson,  B. Peters,  R. Peverati,  P. A. Pieniazek,  
 Y. M. Rhee,  J. Ritchie,  M. A. Rohrdanz,  E. Rosta,  N. J. Russ,  
 H. F. Schaefer III,  N. E. Schultz,  N. Shenvi,  A. C. Simmonett,  A. Sodt,  
 D. Stuck,  K. S. Thanthiriwatte,  V. Vanovschi,  Tao Wang,  A. Warshel,  
 C. F. Williams,  Q. Wu,  X. Xu,  W. Zhang

 Please cite Q-Chem as follows:
 Y. Shao et al., Mol. Phys. 113, 184-215 (2015)
 DOI: 10.1080/00268976.2014.952696

 Q-Chem 5.3.2 for Intel X86 EM64T Linux

 Parts of Q-Chem use Armadillo 9.800.1 (Horizon Scraper).
 http://arma.sourceforge.net/

 Q-Chem begins on Tue Apr  2 14:49:41 2024  

Host: 
0

     Scratch files written to /scratch/user/peterchao1/peterchao1/10002830_1712087366000000996936825/qchem52756//
 Dec820 |scratch|qcdevops|jenkins|workspace|build_RNUM -1
Processing $rem in /sw/restricted/qchem/sw/5.3.2/config/preferences:
Processing $rem in /home/peterchao1/.qchemrc:

 Q-Chem warning in module libgen/rem_setup.C, line 2945:

 Neither GIA nor STOLL is specified by user. Use STOLL as the default


Checking the input file for inconsistencies... 	...done.

--------------------------------------------------------------
User input:
--------------------------------------------------------------
$molecule
0 1
--
0 1
C        2.544360   -0.564880   -1.673628
C        2.463649   -0.362682   -0.174527
C        2.072954   -1.604823    0.596608
Cl        4.030252    0.281747    0.447203
N        1.456500    0.770223    0.119780
O        1.411675    1.689363   -0.657707
O        0.784831    0.672672    1.122324
H        1.560454   -0.892066   -2.047664
H        3.290252   -1.347221   -1.883624
H        2.838378    0.363911   -2.181279
H        2.050317   -1.411808    1.677638
H        2.812839   -2.392563    0.384420
H        1.076699   -1.947703    0.272671
--
0 1
C       -2.072984    1.605106   -0.595794
C       -2.463689    0.362592    0.174736
C       -2.544544    0.564099    1.673922
Cl       -4.030205   -0.281642   -0.447416
N       -1.456454   -0.770119   -0.120022
O       -0.784970   -0.672234   -1.122652
O       -1.411393   -1.689457    0.657226
H       -2.050250    1.412596   -1.676910
H       -1.076765    1.947850   -0.271602
H       -2.812910    2.392724   -0.383295
H       -1.560688    0.891140    2.048216
H       -2.838592   -0.364927    2.181125
H       -3.290474    1.346327    1.884202
$end

$rem
JOBTYPE           eda
EDA2              2
METHOD            wB97x-D
BASIS             def2-SV(P)
SCF_CONVERGENCE   8
THRESH            14
SYMMETRY          false
DISP_FREE_X       wB97X-D
DISP_FREE_C       none
EDA_BSSE          true
$end
--------------------------------------------------------------
 ----------------------------------------------------------------
             Standard Nuclear Orientation (Angstroms)
    I     Atom           X                Y                Z
 ----------------------------------------------------------------
    1      C      -2.5443600069    -0.5648792255     1.6736283328
    2      C      -2.4636490007    -0.3626818480     0.1745272491
    3      C      -2.0729540282    -1.6048231762    -0.5966072362
    4      Cl     -4.0302519853     0.2817469303    -0.4472030194
    5      N      -1.4564999745     0.7702230071    -0.1197802189
    6      O      -1.4116749543     1.6893633280     0.6577064006
    7      O      -0.7848309756     0.6726715767    -1.1223241778
    8      H      -1.5604540147    -0.8920650931     2.0476644693
    9      H      -3.2902520249    -1.3472201215     1.8836246559
   10      H      -2.8383779862     0.3639119914     2.1812789479
   11      H      -2.0503170227    -1.4118086244    -1.6776373161
   12      H      -2.8128390464    -2.3925630715    -0.3844189108
   13      H      -1.0766990364    -1.9477030649    -0.2726700931
   14      C       2.0729840438     1.6051062228     0.5957934392
   15      C       2.4636890163     0.3625918948    -0.1747360460
   16      C       2.5445440225     0.5640982722    -1.6739221293
   17      Cl      4.0302050009    -0.2816418833     0.4474162224
   18      N       1.4564539901    -0.7701189601     0.1200224220
   19      O       0.7849699913    -0.6722335297     1.1226523807
   20      O       1.4113929699    -1.6894572809    -0.6572251974
   21      H       2.0502500383     1.4125966709     1.6769095188
   22      H       1.0767650520     1.9478501113     0.2716012962
   23      H       2.8129100621     2.3927241179     0.3832941138
   24      H       1.5606880303     0.8911391397    -2.0482162658
   25      H       2.8385920018    -0.3649279445    -2.1811247443
   26      H       3.2904740406     1.3463261681    -1.8842024524
 ----------------------------------------------------------------
 Molecular Point Group                 C1    NOp =  1
 Largest Abelian Subgroup              C1    NOp =  1
 Nuclear Repulsion Energy =        1249.60142524 hartrees
 There are       64 alpha and       64 beta electrons
 Requested basis set is def2-SV(P)
 There are 112 shells and 228 basis functions

 Total QAlloc Memory Limit   7500 MB
 Mega-Array Size       188 MB
 MEM_STATIC part       192 MB
 A cutoff of  1.0D-14 yielded   5543 shell pairs
 There are     22791 function pairs (     25547 Cartesian)
 Smallest overlap matrix eigenvalue = 1.58E-03

 Scale SEOQF with 1.000000e-01/1.000000e-01/1.000000e-01

 Standard Electronic Orientation quadrupole field applied
 Nucleus-field energy     =     0.0000000301 hartrees

 -----------------------------------------------------------------------
  General SCF calculation program by
  Eric Jon Sundstrom, Paul Horn, Yuezhi Mao, Dmitri Zuev, Alec White,
  David Stuck, Shaama M.S., Shane Yost, Joonho Lee, David Small,
  Daniel Levine, Susi Lehtola, Hugh Burton, Evgeny Epifanovsky,
  Bang C. Huynh
 -----------------------------------------------------------------------
================================================================
                 ALMO-EDA with the EDA2 driver                  
================================================================
 The second-generation ALMO-EDA (for DFT):                      
 P. R. Horn, Y. Mao and M. Head-Gordon, PCCP, 18, 23067 (2016)  
 Decomposition of the frozen energy:                            
 P. R. Horn, Y. Mao and M. Head-Gordon, JCP, 144, 114107 (2016) 
Using eda2 option set 2
Option set summary: Frozen orbital wavefunction, initial wavefunction decomposition, and traditional AO-based POL.
--------------------------------
Printing EDA Options
--------------------------------
eda_child_super_basis      0
fragmo_guess_mode          0
child_mp                   0
child_mp_orders            0
cls_elec                   1
cls_disp                   0
scfmi_mode                 1
scfmi_occs                 0
scfmi_virts                0
frz_relax                  0
frz_relax_method           0
dc_pen_start               0
dc_pen_conv                0
dc_pen_increment           0
dc_pen_steps               0
dc_pen_thresh_factor       0
dc_pen_pre_newton_thresh   0
frz_ortho_decomp           1
frz_ortho_decomp_conv      6
plot_mo_ortho_frz          0
frgm_method                2
scfmi_freeze_ss            0
separate_rehyb             0
plot_diff_den              0
eda_nocv                   0
eda_vct_relax              1
disp_free_x                -110
disp_free_c                0
eda_bsse                   1
eda_pct_a                  0
eda_covp                   0
--------------------------------
Attempting to make child job directory: /scratch/user/peterchao1/peterchao1/10002830_1712087366000000996936825/qchem52756//Frg1/
Attempting to make child job directory: /scratch/user/peterchao1/peterchao1/10002830_1712087366000000996936825/qchem52756//Frg2/
Creating input file /scratch/user/peterchao1/peterchao1/10002830_1712087366000000996936825/qchem52756/Frg1.input
using default PutDataFrgm: nothing
calling putenv with: QCSCRATCH=/scratch/user/peterchao1/peterchao1/10002830_1712087366000000996936825/qchem52756/ 
Spawning Job For Fragment 0
Done Job For Fragment 0
calling putenv with: QCSCRATCH=/scratch/user/peterchao1/peterchao1/10002830_1712087366000000996936825 
calling putenv with: QCTHREADS=8 
Creating input file /scratch/user/peterchao1/peterchao1/10002830_1712087366000000996936825/qchem52756/Frg2.input
using default PutDataFrgm: nothing
calling putenv with: QCSCRATCH=/scratch/user/peterchao1/peterchao1/10002830_1712087366000000996936825/qchem52756/ 
Spawning Job For Fragment 1
Done Job For Fragment 1
calling putenv with: QCSCRATCH=/scratch/user/peterchao1/peterchao1/10002830_1712087366000000996936825 
calling putenv with: QCTHREADS=8 
Doing General SCFMI
 Exchange:     0.2220 Hartree-Fock + 1.0000 wB97X-D + LR-HF
 Correlation:  1.0000 wB97X-D
 Using SG-2 standard quadrature grid
 Dispersion:   Grimme D
performing fock build before subrot guess so that all methods have access
Printing subrot_rss_gen Method Specification:
Occupied Subspace Method is 0
Virtual Subspace Method is 0
Energy of the unrelaxed supersystem initial determinant -1565.449389335864
write pseudocanon occs and virts to disk
write pseudocanon orbital energies to disk
Tolerance of ortho_decomp_scf: 1.00e-06
GDM subspace size: 20
Beginning the Orthogonal Decomposition of the Initial Supersystem Wavefunction
    1   -1565.4104267342      3.23e-02     ortho_decomp Preconditoned Steepest Descent
    2   -1565.4140623914      4.75e-04     ortho_decomp BFGS Step
    3   -1565.4140679320      3.85e-05     ortho_decomp BFGS Step
    4   -1565.4140679465      1.23e-06     ortho_decomp BFGS Step
    5   -1565.4140679466      3.21e-08     ortho_decomp 00000 Convergence criterion met
 Exchange:     0.2220 Hartree-Fock + 1.0000 wB97X-D + LR-HF
 Correlation:  1.0000 wB97X-D
 Using SG-2 standard quadrature grid
 Dispersion:   Grimme D
 Long-range K will be added via erf
 Coulomb attenuation parameter = 0.2 bohr**(-1)
 Exchange:     0.2220 Hartree-Fock + 1.0000 wB97X-D + LR-HF
 Correlation:  1.0000 wB97X-D
 Using SG-2 standard quadrature grid
 Dispersion:   Grimme D
 Long-range K will be added via erf
 Coulomb attenuation parameter = 0.2 bohr**(-1)
 Exchange:     0.2220 Hartree-Fock + 1.0000 wB97X-D + LR-HF
 Correlation:  1.0000 wB97X-D
 Using SG-2 standard quadrature grid
 Dispersion:   Grimme D
 Long-range K will be added via erf
 Coulomb attenuation parameter = 0.2 bohr**(-1)
Doing General SCFMI
 Exchange:     0.2220 Hartree-Fock + 1.0000 wB97X-D + LR-HF
 Correlation:  1.0000 wB97X-D
 Using SG-2 standard quadrature grid
 Dispersion:   Grimme D
performing fock build at end of subrot_r(subrot) constructor so that all methods have access
<S^2> of initial wavefunction before polarization iterations 0.0000000000
Beginning iterations for the determination of the polarized wavefunction
Energy prior to optimization (guess energy) = -1565.449389335865
Begin Timing: Total SCF Calculation
begin iterations for algorithm: DIIS         
the SCF tolerance is set to 1.00e-08
    1   -1565.4493893359      2.30e-04     00000 
    2   -1565.4506520554      1.49e-04     00000 
    3   -1565.4507787841      1.08e-04     00000 
    4   -1565.4509051173      2.94e-05     00000 
    5   -1565.4509139346      1.42e-05     00000 
    6   -1565.4509163192      3.22e-06     00000 
    7   -1565.4509164863      1.25e-06     00000 
    8   -1565.4509165141      3.75e-07     00000 
    9   -1565.4509165183      1.60e-07     00000 
   10   -1565.4509165196      5.16e-08     00000 
   11   -1565.4509165199      2.49e-08     00000 
   12   -1565.4509165199      1.74e-08     00000 
   13   -1565.4509165199      5.63e-09     00000 Convergence criterion met
write pseudocanon occs and virts to disk
write pseudocanon orbital energies to disk
Timing for Total SCF: 23.00s (wall), 183.94s (cpu)
<S^2> of polarized wavefunction after polarization iterations 0.0000000000
relaxing scfmi constraint to allow all rotations in the entire AO span
Doing General SCFMI
 Exchange:     0.2220 Hartree-Fock + 1.0000 wB97X-D + LR-HF
 Correlation:  1.0000 wB97X-D
 Using SG-2 standard quadrature grid
 Dispersion:   Grimme D
performing fock build at end of subrot_r(subrot) constructor so that all methods have access
<S^2> of polarized wavefunction before ct-allowed iterations 0.0000000000
Beginning iterations for the determination of the CT-Allowed wavefunction
Energy prior to optimization (guess energy) = -1565.450916519894
Begin Timing: Total SCF Calculation
begin iterations for algorithm: DIIS         
the SCF tolerance is set to 1.00e-08
    1   -1565.4509165199      5.10e-04     00000 
    2   -1565.4612738085      8.99e-05     00000 
    3   -1565.4618600803      3.82e-05     00000 
    4   -1565.4618924024      2.69e-05     00000 
    5   -1565.4619078354      8.75e-06     00000 
    6   -1565.4619094942      2.82e-06     00000 
    7   -1565.4619096739      1.21e-06     00000 
    8   -1565.4619097264      2.57e-07     00000 
    9   -1565.4619097327      1.03e-07     00000 
   10   -1565.4619097348      3.31e-08     00000 
   11   -1565.4619097350      1.65e-08     00000 
   12   -1565.4619097350      6.78e-09     00000 Convergence criterion met
write pseudocanon occs and virts to disk
write pseudocanon orbital energies to disk
Timing for Total SCF: 22.00s (wall), 172.27s (cpu)
<S^2> of ct_allowed wavefunction after ct-allowed iterations 0.0000000000
Attempting to make child job directory: /scratch/user/peterchao1/peterchao1/10002830_1712087366000000996936825/qchem52756//FrgBSSE1/
Attempting to make child job directory: /scratch/user/peterchao1/peterchao1/10002830_1712087366000000996936825/qchem52756//FrgBSSE2/
Creating input file /scratch/user/peterchao1/peterchao1/10002830_1712087366000000996936825/qchem52756/FrgBSSE1.input
calling putenv with: QCSCRATCH=/scratch/user/peterchao1/peterchao1/10002830_1712087366000000996936825/qchem52756/ 
Spawning Job For Fragment 0
Done Job For Fragment 0
calling putenv with: QCSCRATCH=/scratch/user/peterchao1/peterchao1/10002830_1712087366000000996936825 
calling putenv with: QCTHREADS=8 
Creating input file /scratch/user/peterchao1/peterchao1/10002830_1712087366000000996936825/qchem52756/FrgBSSE2.input
calling putenv with: QCSCRATCH=/scratch/user/peterchao1/peterchao1/10002830_1712087366000000996936825/qchem52756/ 
Spawning Job For Fragment 1
Done Job For Fragment 1
calling putenv with: QCSCRATCH=/scratch/user/peterchao1/peterchao1/10002830_1712087366000000996936825 
calling putenv with: QCTHREADS=8 
====================================================================
   Evaluating the BSSE with fragment SCF in the supersystem basis
   Fragment contributions (kJ/mol) 
   Frgm 1: 10.1650
   Frgm 2: 10.1648
   BSSE (kJ/mol) = 20.3297
====================================================================

================================
        Results of EDA2         
================================
Basic EDA Quantities
--------------------
Fragment Energies (Ha):
1 -782.7212695289
2 -782.7212693136
--------------------
  E_prp (kJ/mol) = 0.0000
  E_frz (kJ/mol) = -17.9862
  E_pol (kJ/mol) = -4.0097
  E_vct (kJ/mol) = -8.5333 (CP-corrected)
  E_int (kJ/mol) = -30.5292 (CP-corrected)
--------------------


Decomposition of frozen interaction energy
--------------------
  --------------------
  Orthogonal Frozen Decomposition:
  --------------------
     E_elec   (ELEC)   (kJ/mol) = -55.1153
     E_pauli  (PAULI)  (kJ/mol) = 54.0945
     E_disp   (DISP)   (kJ/mol) = -16.9654
  --------------------
  Classical Frozen Decomposition:
  --------------------
     E_cls_elec  (CLS ELEC)  (kJ/mol) = -28.6098
     E_mod_pauli (MOD PAULI) (kJ/mol) = 27.5891 (FRZ - CLS ELEC - DISP)
     E_disp      (DISP)      (kJ/mol) = -16.9654
  --------------------
--------------------

Simplified EDA Summary (kJ/mol)
--------------------
 PREPARATION      0.0000
 FROZEN           -17.9862 (ELEC + PAULI + DISP)
[ELEC + PAULI = -1.0208, DISP = -16.9654]
 POLARIZATION    -4.0097
 CHARGE TRANSFER -8.5333     (counterpoise-corrected)
 TOTAL           -30.5292     (PRP + FRZ + POL + CT)
--------------------
 
 --------------------------------------------------------------
 
                    Orbital Energies (a.u.)
 --------------------------------------------------------------
 
 Alpha MOs
 -- Occupied --
********-101.6799 -19.3096 -19.3096 -19.3087 -19.3087 -14.6984 -14.6984
-10.4278 -10.4277 -10.3113 -10.3113 -10.3088 -10.3088  -9.5948  -9.5948
 -7.3495  -7.3495  -7.3395  -7.3395  -7.3390  -7.3390  -1.3591  -1.3563
 -1.1795  -1.1792  -1.0075  -1.0064  -0.8909  -0.8887  -0.8122  -0.8119
 -0.8110  -0.8068  -0.6780  -0.6750  -0.6703  -0.6467  -0.6300  -0.6251
 -0.6243  -0.6217  -0.5596  -0.5591  -0.5426  -0.5413  -0.5157  -0.5124
 -0.5023  -0.5019  -0.4758  -0.4685  -0.4675  -0.4662  -0.4324  -0.4213
 -0.4186  -0.4181  -0.4024  -0.4005  -0.3978  -0.3969  -0.3932  -0.3918
 -- Virtual --
 -0.0203  -0.0063   0.0996   0.1000   0.1443   0.1457   0.1512   0.1713
  0.1878   0.2004   0.2082   0.2152   0.2234   0.2263   0.2274   0.2317
  0.2394   0.2420   0.2655   0.2731   0.2796   0.2831   0.3511   0.3807
  0.4338   0.4439   0.4444   0.4586   0.4933   0.5023   0.5106   0.5241
  0.5362   0.5398   0.5492   0.5626   0.5700   0.5906   0.6305   0.6317
  0.6520   0.6584   0.6984   0.6989   0.7203   0.7207   0.7237   0.7260
  0.7347   0.7431   0.7512   0.7528   0.7570   0.7746   0.7775   0.7843
  0.7924   0.7944   0.8004   0.8085   0.8126   0.8236   0.8430   0.8507
  0.8648   0.8658   0.8756   0.8791   0.8946   0.8964   0.9034   0.9201
  0.9217   0.9469   0.9830   0.9894   1.0122   1.0206   1.0292   1.0414
  1.0568   1.0638   1.0933   1.1009   1.1140   1.1470   1.1559   1.1691
  1.1846   1.2021   1.2325   1.2543   1.2660   1.2795   1.2886   1.3046
  1.3475   1.3495   1.3638   1.4064   1.4568   1.4661   1.5341   1.5427
  1.6171   1.6840   1.6884   1.7061   1.8120   1.8205   1.8497   1.8521
  1.8669   1.8674   1.9807   1.9852   1.9866   2.0014   2.0742   2.0847
  2.0939   2.0972   2.1330   2.1342   2.1994   2.2063   2.2149   2.2238
  2.2464   2.2519   2.3497   2.3501   2.4309   2.4338   2.4924   2.4935
  2.5089   2.5206   2.5324   2.5442   2.6487   2.6534   2.6832   2.6894
  2.7032   2.7096   2.7205   2.7241   2.7353   2.7408   2.8403   2.8496
  3.1204   3.1514   3.2140   3.2220   3.3817   3.3819   3.5127   3.5162
  3.7994   3.8270   3.8655   3.8741
 --------------------------------------------------------------
 
          Ground-State Mulliken Net Atomic Charges

     Atom                 Charge (a.u.)
  ----------------------------------------
      1 C                    -0.246886
      2 C                    -0.162178
      3 C                    -0.237065
      4 Cl                   -0.076694
      5 N                     0.266644
      6 O                    -0.214199
      7 O                    -0.248922
      8 H                     0.166028
      9 H                     0.143321
     10 H                     0.161096
     11 H                     0.154683
     12 H                     0.141344
     13 H                     0.152816
     14 C                    -0.237063
     15 C                    -0.162172
     16 C                    -0.246869
     17 Cl                   -0.076692
     18 N                     0.266643
     19 O                    -0.248902
     20 O                    -0.214214
     21 H                     0.154696
     22 H                     0.152805
     23 H                     0.141343
     24 H                     0.166024
     25 H                     0.161091
     26 H                     0.143321
  ----------------------------------------
  Sum of atomic charges =     0.000000

 -----------------------------------------------------------------
                    Cartesian Multipole Moments
 -----------------------------------------------------------------
    Charge (ESU x 10^10)
                 0.0000
    Dipole Moment (Debye)
         X       0.0004      Y      -0.0006      Z      -0.0013
       Tot       0.0015
    Quadrupole Moments (Debye-Ang)
        XX     -94.5837     XY       9.7886     YY     -97.6848
        XZ      -4.0828     YZ      -2.0951     ZZ     -95.4599
    Octopole Moments (Debye-Ang^2)
       XXX       0.0053    XXY      -0.0023    XYY      -0.0004
       YYY       0.0025    XXZ      -0.0050    XYZ       0.0009
       YYZ       0.0004    XZZ       0.0017    YZZ      -0.0018
       ZZZ       0.0000
    Hexadecapole Moments (Debye-Ang^3)
      XXXX   -4178.1188   XXXY      -3.1633   XXYY    -765.4503
      XYYY       1.4621   YYYY    -662.2306   XXXZ     -11.7368
      XXYZ     -20.3707   XYYZ      11.0001   YYYZ      -9.3457
      XXZZ    -751.5182   XYZZ      -3.3597   YYZZ    -201.1270
      XZZZ      -0.0356   YZZZ       4.2930   ZZZZ    -541.6962
 -----------------------------------------------------------------
Archival summary:
1\1\c377.cluster\SP\ProcedureUnspecified\BasisUnspecified\l242612\petercha\TueApr214:52:392024TueApr214:52:392024\0\\#,ProcedureUnspecified,BasisUnspecified,\\0,1\Cl\C,1,1.80446\C,2,1.51334,1,109.981\H,3,1.09836,2,111.26,1,-54.5579,0\H,3,1.10136,2,108.389,1,65.5449,0\H,3,1.10228,2,109.809,1,-175.297,0\C,2,1.51483,1,110.022,3,126.518,0\H,7,1.09855,2,111.022,1,55.4063,0\H,7,1.10114,2,108.642,1,-64.8706,0\H,7,1.10228,2,109.14,1,176.14,0\N,2,1.54416,1,103.802,3,-117.272,0\O,11,1.20471,2,117.453,1,-81.4906,0\O,11,1.21068,2,117.423,1,97.6637,0\H,13,2.53081,11,144.064,2,134.495,0\C,14,1.10228,13,132.642,11,-44.0208,0\H,15,1.09855,14,109.454,13,-99.7856,0\H,15,1.10114,14,109.21,13,140.537,0\C,15,1.51483,14,109.139,13,21.9018,0\C,18,1.51334,15,114.108,14,59.6981,0\H,19,1.09836,18,111.26,15,178.741,0\H,19,1.10136,18,108.389,15,58.6389,0\H,19,1.10228,18,109.81,15,-60.5191,0\N,18,1.54416,15,108.741,14,-63.0771,0\O,23,1.2047,18,117.453,15,-35.6352,0\O,23,1.21068,18,117.423,15,145.21,0\Cl,18,1.80446,15,110.022,14,-176.142,0\\\@

 Total job time:  177.83s(wall), 680.79s(cpu) 
 Tue Apr  2 14:52:39 2024

        *************************************************************
        *                                                           *
        *  Thank you very much for using Q-Chem.  Have a nice day.  *
        *                                                           *
        *************************************************************


remove work dirs /scratch/user/peterchao1/peterchao1/10002830_1712087366000000996936825/qchem52756.0 -- /scratch/user/peterchao1/peterchao1/10002830_1712087366000000996936825/qchem52756.-1
rm -rf /scratch/user/peterchao1/peterchao1/10002830_1712087366000000996936825/qchem52756
real 192.33
user 1108.91
sys 34.81
