You are running Q-Chem version: 5.3.2

#
# job setting
#
local host:  c203.cluster
current dir: /scratch/user/peterchao1/peterchao1/6959666_1675470087000000999991606
input file:  qchem_test.inp
output file: 
nprocs     : 0
nthreads   : 8
#
# qchem installation setting
#
QC:          /sw/restricted/qchem/sw/5.3.2
QCAUX:       /sw/restricted/qchem/sw/5.3.2/qcaux
QCPROG:      /sw/restricted/qchem/sw/5.3.2/exe/qcprog.exe_s
QCPROG_S:    /sw/restricted/qchem/sw/5.3.2/exe/qcprog.exe_s
PARALLEL:    -DSERIAL
QCMPI:       seq
#
# qchem directory setting
#
qcrun:       qchem6462
QCSCRATCH:   /scratch/user/peterchao1/peterchao1/6959666_1675470087000000999991606
QCLOCALSCR:  
QCTMPDIR:    /scratch/user/peterchao1/peterchao1/6959666_1675470087000000999991606
QCFILEPREF:  /scratch/user/peterchao1/peterchao1/6959666_1675470087000000999991606/qchem6462
QCSAVEDIR:   
workdirs:    /scratch/user/peterchao1/peterchao1/6959666_1675470087000000999991606/qchem6462
workdir0:    /scratch/user/peterchao1/peterchao1/6959666_1675470087000000999991606/qchem6462
partmpdirs =  
#
# parallel setting
#
QCRSH:           ssh
QCMPI:           seq
QCMPIRUN:        
QCMACHINEFILE:   /scratch/user/peterchao1/peterchao1/6959666_1675470087000000999991606/qchem6462/hostfile

#
# env setting
#
exported envs:   QC QCAUX QCSCRATCH QCRUNNAME QCFILEPREF QCPROG QCPROG_S GUIFILE

Running Job 1 of 1 qchem_test.inp
qchem qchem_test.inp_6462.0 /scratch/user/peterchao1/peterchao1/6959666_1675470087000000999991606/qchem6462/ 0
/sw/restricted/qchem/sw/5.3.2/exe/qcprog.exe_s qchem_test.inp_6462.0 /scratch/user/peterchao1/peterchao1/6959666_1675470087000000999991606/qchem6462/
                  Welcome to Q-Chem
     A Quantum Leap Into The Future Of Chemistry


 Q-Chem 5.3, Q-Chem, Inc., Pleasanton, CA (2020)

 License issued to: MRG Daniel Tabor and Mike Hall, Texas A&M University

 Yihan Shao,  Zhengting Gan,  E. Epifanovsky,  A. T. B. Gilbert,  M. Wormit,  
 J. Kussmann,  A. W. Lange,  A. Behn,  Jia Deng,  Xintian Feng,  D. Ghosh,  
 M. Goldey,  P. R. Horn,  L. D. Jacobson,  I. Kaliman,  T. Kus,  A. Landau,  
 Jie Liu,  E. I. Proynov,  R. M. Richard,  R. P. Steele,  E. J. Sundstrom,  
 H. L. Woodcock III,  P. M. Zimmerman,  D. Zuev,  B. Alam,  B. Albrecht,  
 A. Aldossary,  E. Alguire,  S. A. Baeppler,  D. Barton,  Z. Benda,  
 Y. A. Bernard,  E. J. Berquist,  K. B. Bravaya,  H. Burton,  K. Carter-Fenk,  
 D. Casanova,  Chun-Min Chang,  Yunqing Chen,  A. Chien,  K. D. Closser,  
 M. P. Coons,  S. Coriani,  S. Dasgupta,  A. L. Dempwolff,  M. Diedenhofen,  
 Hainam Do,  R. G. Edgar,  Po-Tung Fang,  S. Faraji,  S. Fatehi,  
 Qingguo Feng,  J. Fosso-Tande,  J. Gayvert,  Qinghui Ge,  A. Ghysels,  
 G. Gidofalvi,  J. Gomes,  J. Gonthier,  S. Gulania,  A. Gunina,  D. Hait,  
 M. W. D. Hanson-Heine,  S. Hammes-Schiffer,  P. H. P. Harbach,  
 A. W. Hauser,  M. F. Herbst,  J. E. Herr,  E. G. Hohenstein,  Z. C. Holden,  
 S. Houck,  Kerwin Hui,  B. C. Huynh,  M. Ivanov,  T.-C. Jagau,  Hyunjun Ji,  
 B. Kaduk,  K. Khistyaev,  Jaehoon Kim,  P. Klunzinger,  K. Koh,  
 D. Kosenkov,  L. Koulias,  T. Kowalczyk,  C. M. Krauter,  A. Kunitsa,  
 Ka Un Lao,  A. Laurent,  K. V. Lawler,  Joonho Lee,  D. Lefrancois,  
 S. Lehtola,  D. S. Levine,  Yi-Pei Li,  You-Sheng Lin,  Fenglai Liu,  
 Kuan-Yu Liu,  E. Livshits,  M. Loipersberger,  A. Luenser,  A. Manjanath,  
 P. Manohar,  E. Mansoor,  S. F. Manzer,  Shan-Ping Mao,  Yuezhi Mao,  
 N. Mardirossian,  A. V. Marenich,  T. Markovich,  L. A. Martinez-Martinez,  
 S. A. Maurer,  N. J. Mayhall,  S. C. McKenzie,  J.-M. Mewes,  P. Morgante,  
 A. F. Morrison,  J. W. Mullinax,  K. Nanda,  T. S. Nguyen-Beck,  
 R. Olivares-Amaya,  K. J. Oosterbaan,  J. A. Parkhill,  S. K. Paul,  
 F. Pavosevic,  Zheng Pei,  T. M. Perrine,  F. Plasser,  P. Pokhilko,  
 S. Prager,  A. Prociuk,  E. Ramos,  B. Rana,  D. R. Rehn,  F. Rob,  
 E. Rossomme,  M. Scheurer,  M. Schneider,  N. Sergueev,  S. M. Sharada,  
 S. Sharma,  W. Skomorowski,  D. W. Small,  T. Stauch,  C. J. Stein,  
 T. Stein,  Yu-Chuan Su,  S. P. Veccham,  Zhen Tao,  A. J. W. Thom,  
 A. Tkatchenko,  T. Tsuchimochi,  N. M. Tubman,  L. Vogt,  M. L. Vidal,  
 O. Vydrov,  M. A. Watson,  J. Wenzel,  M. de Wergifosse,  T. A. Wesolowski,  
 A. White,  J. Witte,  A. Yamada,  Jun Yang,  K. Yao,  S. Yeganeh,  
 S. R. Yost,  Zhi-Qiang You,  A. Zech,  Igor Ying Zhang,  Xing Zhang,  
 Yan Zhao,  Ying Zhu,  B. R. Brooks,  G. K. L. Chan,  C. J. Cramer,  
 M. S. Gordon,  W. J. Hehre,  A. Klamt,  M. W. Schmidt,  C. D. Sherrill,  
 D. G. Truhlar,  A. Aspuru-Guzik,  R. Baer,  A. T. Bell,  N. A. Besley,  
 Jeng-Da Chai,  A. E. DePrince, III,  R. A. DiStasio Jr.,  A. Dreuw,  
 B. D. Dunietz,  T. R. Furlani,  Chao-Ping Hsu,  Yousung Jung,  Jing Kong,  
 D. S. Lambrecht,  WanZhen Liang,  C. Ochsenfeld,  V. A. Rassolov,  
 L. V. Slipchenko,  J. E. Subotnik,  T. Van Voorhis,  J. M. Herbert,  
 A. I. Krylov,  P. M. W. Gill,  M. Head-Gordon

 Contributors to earlier versions of Q-Chem not listed above: 
 R. D. Adamson,  B. Austin,  J. Baker,  G. J. O. Beran,  K. Brandhorst,  
 S. T. Brown,  E. F. C. Byrd,  A. K. Chakraborty,  C.-L. Cheng,  
 Siu Hung Chien,  D. M. Chipman,  D. L. Crittenden,  H. Dachsel,  
 R. J. Doerksen,  A. D. Dutoi,  L. Fusti-Molnar,  W. A. Goddard III,  
 A. Golubeva-Zadorozhnaya,  S. R. Gwaltney,  G. Hawkins,  A. Heyden,  
 S. Hirata,  G. Kedziora,  F. J. Keil,  C. Kelley,  Jihan Kim,  R. A. King,  
 R. Z. Khaliullin,  P. P. Korambath,  W. Kurlancheek,  A. M. Lee,  M. S. Lee,  
 S. V. Levchenko,  Ching Yeh Lin,  D. Liotard,  R. C. Lochan,  I. Lotan,  
 P. E. Maslen,  N. Nair,  D. P. O'Neill,  D. Neuhauser,  E. Neuscamman,  
 C. M. Oana,  R. Olson,  B. Peters,  R. Peverati,  P. A. Pieniazek,  
 Y. M. Rhee,  J. Ritchie,  M. A. Rohrdanz,  E. Rosta,  N. J. Russ,  
 H. F. Schaefer III,  N. E. Schultz,  N. Shenvi,  A. C. Simmonett,  A. Sodt,  
 D. Stuck,  K. S. Thanthiriwatte,  V. Vanovschi,  Tao Wang,  A. Warshel,  
 C. F. Williams,  Q. Wu,  X. Xu,  W. Zhang

 Please cite Q-Chem as follows:
 Y. Shao et al., Mol. Phys. 113, 184-215 (2015)
 DOI: 10.1080/00268976.2014.952696

 Q-Chem 5.3.2 for Intel X86 EM64T Linux

 Parts of Q-Chem use Armadillo 9.800.1 (Horizon Scraper).
 http://arma.sourceforge.net/

 Q-Chem begins on Fri Feb  3 18:21:28 2023  

Host: 
0

     Scratch files written to /scratch/user/peterchao1/peterchao1/6959666_1675470087000000999991606/qchem6462//
 Dec820 |scratch|qcdevops|jenkins|workspace|build_RNUM -1
Processing $rem in /sw/restricted/qchem/sw/5.3.2/config/preferences:
Processing $rem in /home/peterchao1/.qchemrc:

 Q-Chem warning in module libgen/rem_setup.C, line 2945:

 Neither GIA nor STOLL is specified by user. Use STOLL as the default


Checking the input file for inconsistencies... 	...done.

--------------------------------------------------------------
User input:
--------------------------------------------------------------
$molecule
0 1
--
0 1
C        3.721996   -0.723410   -0.509103
C        2.556982    0.134506   -0.009362
C        3.085429    1.310805    0.825018
N        1.779184    0.572859   -1.168462
C        1.603262   -0.709876    0.868013
N        0.907259   -1.776925    0.161661
H        4.324387   -1.106528    0.333285
H        4.392330   -0.134751   -1.161917
H        3.349443   -1.579663   -1.096601
H        3.641643    0.967736    1.716739
H        2.247355    1.945217    1.164818
H        3.763866    1.940474    0.221241
H        1.042607    1.235646   -0.887475
H        2.376047    1.033610   -1.855044
H        0.845981   -0.030421    1.300414
H        2.158254   -1.135571    1.722337
H        1.465239   -2.629031    0.131471
H        0.780056   -1.464601   -0.806212
--
0 1
C       -3.085323   -1.310846   -0.825044
C       -2.556969   -0.134516    0.009353
C       -3.722047    0.723347    0.509036
N       -1.779205   -0.572823    1.168488
C       -1.603256    0.709909   -0.867991
N       -0.907308    1.776974   -0.161602
H       -3.641504   -0.967811   -1.716799
H       -3.763765   -1.940539   -0.221297
H       -2.247202   -1.945225   -1.164792
H       -4.324430    1.106415   -0.333380
H       -3.349562    1.579632    1.096530
H       -4.392373    0.134665    1.161839
H       -2.376076   -1.033586    1.855053
H       -1.042579   -1.235577    0.887547
H       -2.158248    1.135595   -1.722319
H       -0.845940    0.030491   -1.300384
H       -0.780174    1.464655    0.806283
H       -1.465313    2.629066   -0.131450
$end

$rem
JOBTYPE           eda
EDA2              2
METHOD            wB97x-D
BASIS             def2-SV(P)
SCF_CONVERGENCE   8
THRESH            14
SYMMETRY          false
DISP_FREE_X       wB97X-D
DISP_FREE_C       none
EDA_BSSE          true
$end
--------------------------------------------------------------
 ----------------------------------------------------------------
             Standard Nuclear Orientation (Angstroms)
    I     Atom           X                Y                Z
 ----------------------------------------------------------------
    1      C       3.7219960275    -0.7234103310    -0.5091027405
    2      C       2.5569820433     0.1345058660    -0.0093620420
    3      C       3.0854290636     1.3108051363     0.8250175641
    4      N       1.7791840644     0.5728584916    -1.1684621978
    5      C       1.6032620151    -0.7098758139     0.8680132354
    6      N       0.9072589963    -1.7769250368     0.1616615907
    7      H       4.3243870106    -1.1065280598     0.3332853949
    8      H       4.3923300475    -0.1347515683    -1.1619169339
    9      H       3.3494430126    -1.5796635213    -1.0966004537
   10      H       3.6416430472     0.9677364254     1.7167386855
   11      H       2.2473550755     1.9452172714     1.1648173413
   12      H       3.7638660841     1.9404739155     0.2212403569
   13      H       1.0426070775     1.2356456044    -0.8874754293
   14      H       2.3760470817     1.0336092447    -1.8550443485
   15      H       0.8459810273    -0.0304206493     1.3004139981
   16      H       2.1582539971    -1.1355705374     1.7223373848
   17      H       1.4652389763    -2.6290310603     0.1314718847
   18      H       0.7800560126    -1.4646013618    -0.8062115163
   19      C      -3.0853229836    -1.3108462763    -0.8250436041
   20      C      -2.5569689633    -0.1345160061     0.0093530020
   21      C      -3.7220469475     0.7233471910     0.5090357005
   22      N      -1.7792049844    -0.5728226316     1.1684881578
   23      C      -1.6032559351     0.7099086739    -0.8679912754
   24      N      -0.9073079163     1.7769738968    -0.1616026307
   25      H      -3.6415039672    -0.9678115654    -1.7167987255
   26      H      -3.7637650041    -1.9405390556    -0.2212963969
   27      H      -2.2472019955    -1.9452254114    -1.1647913813
   28      H      -4.3244299306     1.1064149198    -0.3333804349
   29      H      -3.3495619326     1.5796323813     1.0965294137
   30      H      -4.3923729675     0.1346654283     1.1618388939
   31      H      -2.3760760017    -1.0335853847     1.8550533085
   32      H      -1.0425789975    -1.2355767444     0.8875473892
   33      H      -2.1582479171     1.1355943975    -1.7223194248
   34      H      -0.8459399473     0.0304905093    -1.3003840381
   35      H      -0.7801739326     1.4646552219     0.8062824763
   36      H      -1.4653128963     2.6290659203    -0.1314509247
 ----------------------------------------------------------------
 Molecular Point Group                 C1    NOp =  1
 Largest Abelian Subgroup              C1    NOp =  1
 Nuclear Repulsion Energy =         819.30572187 hartrees
 There are       50 alpha and       50 beta electrons
 Requested basis set is def2-SV(P)
 There are 120 shells and 216 basis functions

 Total QAlloc Memory Limit   7500 MB
 Mega-Array Size       188 MB
 MEM_STATIC part       192 MB
 A cutoff of  1.0D-14 yielded   6593 shell pairs
 There are     21013 function pairs (     23265 Cartesian)
 Smallest overlap matrix eigenvalue = 1.30E-03

 Scale SEOQF with 1.000000e-01/1.000000e-01/1.000000e-01

 Standard Electronic Orientation quadrupole field applied
 Nucleus-field energy     =     0.0000000244 hartrees

 -----------------------------------------------------------------------
  General SCF calculation program by
  Eric Jon Sundstrom, Paul Horn, Yuezhi Mao, Dmitri Zuev, Alec White,
  David Stuck, Shaama M.S., Shane Yost, Joonho Lee, David Small,
  Daniel Levine, Susi Lehtola, Hugh Burton, Evgeny Epifanovsky,
  Bang C. Huynh
 -----------------------------------------------------------------------
================================================================
                 ALMO-EDA with the EDA2 driver                  
================================================================
 The second-generation ALMO-EDA (for DFT):                      
 P. R. Horn, Y. Mao and M. Head-Gordon, PCCP, 18, 23067 (2016)  
 Decomposition of the frozen energy:                            
 P. R. Horn, Y. Mao and M. Head-Gordon, JCP, 144, 114107 (2016) 
Using eda2 option set 2
Option set summary: Frozen orbital wavefunction, initial wavefunction decomposition, and traditional AO-based POL.
--------------------------------
Printing EDA Options
--------------------------------
eda_child_super_basis      0
fragmo_guess_mode          0
child_mp                   0
child_mp_orders            0
cls_elec                   1
cls_disp                   0
scfmi_mode                 1
scfmi_occs                 0
scfmi_virts                0
frz_relax                  0
frz_relax_method           0
dc_pen_start               0
dc_pen_conv                0
dc_pen_increment           0
dc_pen_steps               0
dc_pen_thresh_factor       0
dc_pen_pre_newton_thresh   0
frz_ortho_decomp           1
frz_ortho_decomp_conv      6
plot_mo_ortho_frz          0
frgm_method                2
scfmi_freeze_ss            0
separate_rehyb             0
plot_diff_den              0
eda_nocv                   0
eda_vct_relax              1
disp_free_x                -110
disp_free_c                0
eda_bsse                   1
eda_pct_a                  0
eda_covp                   0
--------------------------------
Attempting to make child job directory: /scratch/user/peterchao1/peterchao1/6959666_1675470087000000999991606/qchem6462//Frg1/
Attempting to make child job directory: /scratch/user/peterchao1/peterchao1/6959666_1675470087000000999991606/qchem6462//Frg2/
Creating input file /scratch/user/peterchao1/peterchao1/6959666_1675470087000000999991606/qchem6462/Frg1.input
using default PutDataFrgm: nothing
calling putenv with: QCSCRATCH=/scratch/user/peterchao1/peterchao1/6959666_1675470087000000999991606/qchem6462/ 
Spawning Job For Fragment 0
Done Job For Fragment 0
calling putenv with: QCSCRATCH=/scratch/user/peterchao1/peterchao1/6959666_1675470087000000999991606 
calling putenv with: QCTHREADS=8 
Creating input file /scratch/user/peterchao1/peterchao1/6959666_1675470087000000999991606/qchem6462/Frg2.input
using default PutDataFrgm: nothing
calling putenv with: QCSCRATCH=/scratch/user/peterchao1/peterchao1/6959666_1675470087000000999991606/qchem6462/ 
Spawning Job For Fragment 1
Done Job For Fragment 1
calling putenv with: QCSCRATCH=/scratch/user/peterchao1/peterchao1/6959666_1675470087000000999991606 
calling putenv with: QCTHREADS=8 
Doing General SCFMI
 Exchange:     0.2220 Hartree-Fock + 1.0000 wB97X-D + LR-HF
 Correlation:  1.0000 wB97X-D
 Using SG-2 standard quadrature grid
 Dispersion:   Grimme D
performing fock build before subrot guess so that all methods have access
Printing subrot_rss_gen Method Specification:
Occupied Subspace Method is 0
Virtual Subspace Method is 0
Energy of the unrelaxed supersystem initial determinant -537.688220001836
write pseudocanon occs and virts to disk
write pseudocanon orbital energies to disk
Tolerance of ortho_decomp_scf: 1.00e-06
GDM subspace size: 20
Beginning the Orthogonal Decomposition of the Initial Supersystem Wavefunction
    1    -537.6195552958      4.76e-02     ortho_decomp Preconditoned Steepest Descent
    2    -537.6253830714      7.80e-04     ortho_decomp BFGS Step
    3    -537.6253919088      5.91e-05     ortho_decomp BFGS Step
    4    -537.6253919383      2.38e-06     ortho_decomp BFGS Step
    5    -537.6253919384      7.63e-08     ortho_decomp 00000 Convergence criterion met
 Exchange:     0.2220 Hartree-Fock + 1.0000 wB97X-D + LR-HF
 Correlation:  1.0000 wB97X-D
 Using SG-2 standard quadrature grid
 Dispersion:   Grimme D
 Long-range K will be added via erf
 Coulomb attenuation parameter = 0.2 bohr**(-1)
 Exchange:     0.2220 Hartree-Fock + 1.0000 wB97X-D + LR-HF
 Correlation:  1.0000 wB97X-D
 Using SG-2 standard quadrature grid
 Dispersion:   Grimme D
 Long-range K will be added via erf
 Coulomb attenuation parameter = 0.2 bohr**(-1)
 Exchange:     0.2220 Hartree-Fock + 1.0000 wB97X-D + LR-HF
 Correlation:  1.0000 wB97X-D
 Using SG-2 standard quadrature grid
 Dispersion:   Grimme D
 Long-range K will be added via erf
 Coulomb attenuation parameter = 0.2 bohr**(-1)
Doing General SCFMI
 Exchange:     0.2220 Hartree-Fock + 1.0000 wB97X-D + LR-HF
 Correlation:  1.0000 wB97X-D
 Using SG-2 standard quadrature grid
 Dispersion:   Grimme D
performing fock build at end of subrot_r(subrot) constructor so that all methods have access
<S^2> of initial wavefunction before polarization iterations 0.0000000000
Beginning iterations for the determination of the polarized wavefunction
Energy prior to optimization (guess energy) = -537.688220001836
Begin Timing: Total SCF Calculation
begin iterations for algorithm: DIIS         
the SCF tolerance is set to 1.00e-08
    1    -537.6882200018      3.39e-04     00000 
    2    -537.6910271002      9.94e-05     00000 
    3    -537.6912455534      5.32e-05     00000 
    4    -537.6912899652      1.85e-05     00000 
    5    -537.6912966523      6.14e-06     00000 
    6    -537.6912973430      1.88e-06     00000 
    7    -537.6912973983      6.10e-07     00000 
    8    -537.6912974046      1.40e-07     00000 
    9    -537.6912974052      3.84e-08     00000 
   10    -537.6912974052      1.79e-08     00000 
   11    -537.6912974052      3.83e-09     00000 Convergence criterion met
write pseudocanon occs and virts to disk
write pseudocanon orbital energies to disk
Timing for Total SCF: 30.00s (wall), 223.68s (cpu)
<S^2> of polarized wavefunction after polarization iterations 0.0000000000
relaxing scfmi constraint to allow all rotations in the entire AO span
Doing General SCFMI
 Exchange:     0.2220 Hartree-Fock + 1.0000 wB97X-D + LR-HF
 Correlation:  1.0000 wB97X-D
 Using SG-2 standard quadrature grid
 Dispersion:   Grimme D
performing fock build at end of subrot_r(subrot) constructor so that all methods have access
<S^2> of polarized wavefunction before ct-allowed iterations 0.0000000000
Beginning iterations for the determination of the CT-Allowed wavefunction
Energy prior to optimization (guess energy) = -537.691297405207
Begin Timing: Total SCF Calculation
begin iterations for algorithm: DIIS         
the SCF tolerance is set to 1.00e-08
    1    -537.6912974052      5.15e-04     00000 
    2    -537.7038362090      1.11e-04     00000 
    3    -537.7046999457      4.75e-05     00000 
    4    -537.7047664802      2.43e-05     00000 
    5    -537.7047840130      3.81e-06     00000 
    6    -537.7047845936      1.19e-06     00000 
    7    -537.7047846518      4.61e-07     00000 
    8    -537.7047846587      9.44e-08     00000 
    9    -537.7047846592      4.04e-08     00000 
   10    -537.7047846593      1.26e-08     00000 
   11    -537.7047846593      3.11e-09     00000 Convergence criterion met
write pseudocanon occs and virts to disk
write pseudocanon orbital energies to disk
Timing for Total SCF: 30.00s (wall), 226.66s (cpu)
<S^2> of ct_allowed wavefunction after ct-allowed iterations 0.0000000000
Attempting to make child job directory: /scratch/user/peterchao1/peterchao1/6959666_1675470087000000999991606/qchem6462//FrgBSSE1/
Attempting to make child job directory: /scratch/user/peterchao1/peterchao1/6959666_1675470087000000999991606/qchem6462//FrgBSSE2/
Creating input file /scratch/user/peterchao1/peterchao1/6959666_1675470087000000999991606/qchem6462/FrgBSSE1.input
calling putenv with: QCSCRATCH=/scratch/user/peterchao1/peterchao1/6959666_1675470087000000999991606/qchem6462/ 
Spawning Job For Fragment 0
Done Job For Fragment 0
calling putenv with: QCSCRATCH=/scratch/user/peterchao1/peterchao1/6959666_1675470087000000999991606 
calling putenv with: QCTHREADS=8 
Creating input file /scratch/user/peterchao1/peterchao1/6959666_1675470087000000999991606/qchem6462/FrgBSSE2.input
calling putenv with: QCSCRATCH=/scratch/user/peterchao1/peterchao1/6959666_1675470087000000999991606/qchem6462/ 
Spawning Job For Fragment 1
Done Job For Fragment 1
calling putenv with: QCSCRATCH=/scratch/user/peterchao1/peterchao1/6959666_1675470087000000999991606 
calling putenv with: QCTHREADS=8 
====================================================================
   Evaluating the BSSE with fragment SCF in the supersystem basis
   Fragment contributions (kJ/mol) 
   Frgm 1: 8.9524
   Frgm 2: 8.9518
   BSSE (kJ/mol) = 17.9042
====================================================================

================================
        Results of EDA2         
================================
Basic EDA Quantities
--------------------
Fragment Energies (Ha):
1 -268.8400928574
2 -268.8400924501
--------------------
  E_prp (kJ/mol) = -0.0000
  E_frz (kJ/mol) = -21.0953
  E_pol (kJ/mol) = -8.0798
  E_vct (kJ/mol) = -17.5070 (CP-corrected)
  E_int (kJ/mol) = -46.6822 (CP-corrected)
--------------------


Decomposition of frozen interaction energy
--------------------
  --------------------
  Orthogonal Frozen Decomposition:
  --------------------
     E_elec   (ELEC)   (kJ/mol) = -102.6208
     E_pauli  (PAULI)  (kJ/mol) = 103.3103
     E_disp   (DISP)   (kJ/mol) = -21.7849
  --------------------
  Classical Frozen Decomposition:
  --------------------
     E_cls_elec  (CLS ELEC)  (kJ/mol) = -54.6393
     E_mod_pauli (MOD PAULI) (kJ/mol) = 55.3289 (FRZ - CLS ELEC - DISP)
     E_disp      (DISP)      (kJ/mol) = -21.7849
  --------------------
--------------------

Simplified EDA Summary (kJ/mol)
--------------------
 PREPARATION      -0.0000
 FROZEN           -21.0953 (ELEC + PAULI + DISP)
[ELEC + PAULI = 0.6896, DISP = -21.7849]
 POLARIZATION    -8.0798
 CHARGE TRANSFER -17.5070     (counterpoise-corrected)
 TOTAL           -46.6822     (PRP + FRZ + POL + CT)
--------------------
 
 --------------------------------------------------------------
 
                    Orbital Energies (a.u.)
 --------------------------------------------------------------
 
 Alpha MOs
 -- Occupied --
-14.4086 -14.4086 -14.3949 -14.3949 -10.3179 -10.3179 -10.2994 -10.2994
-10.2761 -10.2761 -10.2724 -10.2724  -0.9908  -0.9843  -0.9449  -0.9387
 -0.8353  -0.8343  -0.7717  -0.7716  -0.7391  -0.7379  -0.6361  -0.6330
 -0.5936  -0.5732  -0.5698  -0.5523  -0.5336  -0.5282  -0.5265  -0.5208
 -0.5045  -0.5042  -0.4673  -0.4666  -0.4614  -0.4588  -0.4484  -0.4423
 -0.4364  -0.4344  -0.4194  -0.4177  -0.4101  -0.3998  -0.3230  -0.3136
 -0.3004  -0.2990
 -- Virtual --
  0.1221   0.1375   0.1522   0.1730   0.1769   0.1783   0.1887   0.1906
  0.1989   0.2069   0.2141   0.2161   0.2227   0.2285   0.2482   0.2505
  0.2567   0.2580   0.2604   0.2784   0.2868   0.2878   0.2928   0.2999
  0.3011   0.3085   0.3315   0.3350   0.3457   0.3459   0.3583   0.3632
  0.3737   0.3786   0.4887   0.5035   0.5231   0.5276   0.5315   0.5598
  0.5719   0.5723   0.5923   0.6022   0.6344   0.6416   0.6510   0.6687
  0.6692   0.6915   0.6972   0.7265   0.7314   0.7390   0.7391   0.7476
  0.7687   0.7697   0.7853   0.7877   0.7939   0.7975   0.8014   0.8034
  0.8123   0.8143   0.8159   0.8178   0.8191   0.8307   0.8361   0.8392
  0.8432   0.8456   0.8540   0.8558   0.8584   0.8771   0.8922   0.8980
  0.9058   0.9206   0.9352   0.9520   0.9936   0.9943   1.0105   1.0384
  1.0490   1.0653   1.0785   1.0880   1.1187   1.1340   1.1410   1.1841
  1.2118   1.2408   1.2600   1.2650   1.3137   1.3533   1.3670   1.4088
  1.4480   1.4626   1.5475   1.5698   1.5794   1.6017   1.7876   1.7935
  1.8353   1.8666   1.8990   1.9049   1.9223   1.9399   1.9448   1.9459
  1.9817   1.9992   2.0561   2.0575   2.1175   2.1219   2.1508   2.1575
  2.1768   2.1773   2.2309   2.2343   2.2375   2.2422   2.2437   2.2602
  2.3500   2.3513   2.3663   2.3812   2.3991   2.4147   2.4373   2.4559
  2.4590   2.4809   2.5261   2.5306   2.5909   2.5980   2.6076   2.6289
  2.7621   2.7679   2.7769   2.7820   2.8093   2.8126   2.8412   2.8707
  2.8864   2.8937   3.0855   3.0925   3.1329   3.1485
 --------------------------------------------------------------
 
          Ground-State Mulliken Net Atomic Charges

     Atom                 Charge (a.u.)
  ----------------------------------------
      1 C                    -0.269446
      2 C                    -0.152543
      3 C                    -0.254743
      4 N                    -0.532968
      5 C                    -0.050550
      6 N                    -0.529774
      7 H                     0.108036
      8 H                     0.108783
      9 H                     0.103534
     10 H                     0.104013
     11 H                     0.114473
     12 H                     0.104266
     13 H                     0.260106
     14 H                     0.211386
     15 H                     0.099529
     16 H                     0.094023
     17 H                     0.223062
     18 H                     0.258819
     19 C                    -0.254742
     20 C                    -0.152543
     21 C                    -0.269445
     22 N                    -0.532971
     23 C                    -0.050552
     24 N                    -0.529773
     25 H                     0.104012
     26 H                     0.104266
     27 H                     0.114470
     28 H                     0.108036
     29 H                     0.103533
     30 H                     0.108782
     31 H                     0.211386
     32 H                     0.260106
     33 H                     0.094021
     34 H                     0.099529
     35 H                     0.258815
     36 H                     0.223060
  ----------------------------------------
  Sum of atomic charges =     0.000000

 -----------------------------------------------------------------
                    Cartesian Multipole Moments
 -----------------------------------------------------------------
    Charge (ESU x 10^10)
                 0.0000
    Dipole Moment (Debye)
         X       0.0001      Y      -0.0001      Z      -0.0000
       Tot       0.0001
    Quadrupole Moments (Debye-Ang)
        XX     -73.4948     XY      -2.2481     YY     -75.7135
        XZ      -0.5096     YZ      -1.4190     ZZ     -79.7747
    Octopole Moments (Debye-Ang^2)
       XXX       0.0004    XXY       0.0004    XYY      -0.0002
       YYY       0.0001    XXZ      -0.0000    XYZ      -0.0001
       YYZ       0.0000    XZZ       0.0002    YZZ       0.0003
       ZZZ       0.0001
    Hexadecapole Moments (Debye-Ang^3)
      XXXX   -3218.3947   XXXY       8.8433   XXYY    -630.5735
      XYYY     -48.1970   YYYY    -648.0517   XXXZ     -28.6059
      XXYZ     -42.4758   XYYZ     -15.6155   YYYZ      -4.5317
      XXZZ    -580.7230   XYZZ       7.3213   YYZZ    -175.9386
      XZZZ     -18.4371   YZZZ     -20.0545   ZZZZ    -417.5812
 -----------------------------------------------------------------
Archival summary:
1\1\c203.cluster\SP\ProcedureUnspecified\BasisUnspecified\4824\petercha\FriFeb318:24:502023FriFeb318:24:502023\0\\#,ProcedureUnspecified,BasisUnspecified,\\0,1\N\H,1,1.01977\H,1,1.02995,2,108.15\C,1,1.46309,2,110.953,3,121.849,0\C,4,1.53069,1,108.294,2,53.7499,0\H,5,1.10323,4,110.6,1,57.3648,0\H,5,1.10421,4,111.138,1,178.243,0\H,5,1.10546,4,110.847,1,-61.9875,0\C,4,1.53595,1,112.57,2,-68.2969,0\H,9,1.10468,4,110.237,1,-57.5833,0\H,9,1.10513,4,110.535,1,61.5611,0\H,9,1.10555,4,111.939,1,-178.03,0\C,4,1.54672,1,106.568,2,172.522,0\H,13,1.10413,4,109.843,1,-175.604,0\H,13,1.10549,4,107.983,1,69.0177,0\N,13,1.45669,4,114.799,1,-51.7795,0\H,16,1.01899,13,111.424,4,-86.5316,0\H,16,1.02494,13,107.096,4,30.3404,0\N,3,2.14985,1,154.529,2,-152.708,0\H,19,1.01899,3,135.825,1,165.636,0\H,19,1.02494,3,97.4437,1,-70.2319,0\C,19,1.45669,3,94.8857,1,37.7511,0\H,22,1.10413,19,109.447,3,106.279,0\H,22,1.10549,19,108.215,3,-9.01631,0\C,22,1.54672,19,114.8,3,-129.686,0\N,25,1.46309,22,106.568,19,51.7813,0\H,26,1.01977,25,110.953,22,-172.523,0\H,26,1.02994,25,110.907,22,67.2548,0\C,25,1.53069,22,110.397,19,-65.6068,0\H,29,1.10323,25,110.6,22,58.9542,0\H,29,1.10421,25,111.138,22,-61.9237,0\H,29,1.10546,25,110.847,22,178.306,0\C,25,1.53594,22,108.789,19,173.395,0\H,33,1.10468,25,110.237,22,-60.2946,0\H,33,1.10513,25,110.535,22,-179.439,0\H,33,1.10555,25,111.938,22,60.1524,0\\\@

 Total job time:  202.58s(wall), 891.56s(cpu) 
 Fri Feb  3 18:24:50 2023

        *************************************************************
        *                                                           *
        *  Thank you very much for using Q-Chem.  Have a nice day.  *
        *                                                           *
        *************************************************************


remove work dirs /scratch/user/peterchao1/peterchao1/6959666_1675470087000000999991606/qchem6462.0 -- /scratch/user/peterchao1/peterchao1/6959666_1675470087000000999991606/qchem6462.-1
rm -rf /scratch/user/peterchao1/peterchao1/6959666_1675470087000000999991606/qchem6462
real 203.19
user 1294.38
sys 98.97
