 Entering Gaussian System, Link 0=g16
 Input=gaussian_test.inp
 Output=gaussian_test.log
 Initial command:
 /sw/restricted/lms/sw/Gaussian/g16_B01/g16/l1.exe "/scratch/user/peterchao1/peterchao1/6113307_1660079070000000329054443/Gau-46474.inp" -scrdir="/scratch/user/peterchao1/peterchao1/6113307_1660079070000000329054443/"
 Entering Link 1 = /sw/restricted/lms/sw/Gaussian/g16_B01/g16/l1.exe PID=     46479.
  
 Copyright (c) 1988-2017, Gaussian, Inc.  All Rights Reserved.
  
 This is part of the Gaussian(R) 16 program.  It is based on
 the Gaussian(R) 09 system (copyright 2009, Gaussian, Inc.),
 the Gaussian(R) 03 system (copyright 2003, Gaussian, Inc.),
 the Gaussian(R) 98 system (copyright 1998, Gaussian, Inc.),
 the Gaussian(R) 94 system (copyright 1995, Gaussian, Inc.),
 the Gaussian 92(TM) system (copyright 1992, Gaussian, Inc.),
 the Gaussian 90(TM) system (copyright 1990, Gaussian, Inc.),
 the Gaussian 88(TM) system (copyright 1988, Gaussian, Inc.),
 the Gaussian 86(TM) system (copyright 1986, Carnegie Mellon
 University), and the Gaussian 82(TM) system (copyright 1983,
 Carnegie Mellon University). Gaussian is a federally registered
 trademark of Gaussian, Inc.
  
 This software contains proprietary and confidential information,
 including trade secrets, belonging to Gaussian, Inc.
  
 This software is provided under written license and may be
 used, copied, transmitted, or stored only in accord with that
 written license.
  
 The following legend is applicable only to US Government
 contracts under FAR:
  
                    RESTRICTED RIGHTS LEGEND
  
 Use, reproduction and disclosure by the US Government is
 subject to restrictions as set forth in subparagraphs (a)
 and (c) of the Commercial Computer Software - Restricted
 Rights clause in FAR 52.227-19.
  
 Gaussian, Inc.
 340 Quinnipiac St., Bldg. 40, Wallingford CT 06492
  
  
 ---------------------------------------------------------------
 Warning -- This program may not be used in any manner that
 competes with the business of Gaussian, Inc. or will provide
 assistance to any competitor of Gaussian, Inc.  The licensee
 of this program is prohibited from giving any competitor of
 Gaussian, Inc. access to this program.  By using this program,
 the user acknowledges that Gaussian, Inc. is engaged in the
 business of creating and licensing software in the field of
 computational chemistry and represents and warrants to the
 licensee that it is not a competitor of Gaussian, Inc. and that
 it will not use this program in any manner prohibited above.
 ---------------------------------------------------------------
  

 Cite this work as:
 Gaussian 16, Revision B.01,
 M. J. Frisch, G. W. Trucks, H. B. Schlegel, G. E. Scuseria, 
 M. A. Robb, J. R. Cheeseman, G. Scalmani, V. Barone, 
 G. A. Petersson, H. Nakatsuji, X. Li, M. Caricato, A. V. Marenich, 
 J. Bloino, B. G. Janesko, R. Gomperts, B. Mennucci, H. P. Hratchian, 
 J. V. Ortiz, A. F. Izmaylov, J. L. Sonnenberg, D. Williams-Young, 
 F. Ding, F. Lipparini, F. Egidi, J. Goings, B. Peng, A. Petrone, 
 T. Henderson, D. Ranasinghe, V. G. Zakrzewski, J. Gao, N. Rega, 
 G. Zheng, W. Liang, M. Hada, M. Ehara, K. Toyota, R. Fukuda, 
 J. Hasegawa, M. Ishida, T. Nakajima, Y. Honda, O. Kitao, H. Nakai, 
 T. Vreven, K. Throssell, J. A. Montgomery, Jr., J. E. Peralta, 
 F. Ogliaro, M. J. Bearpark, J. J. Heyd, E. N. Brothers, K. N. Kudin, 
 V. N. Staroverov, T. A. Keith, R. Kobayashi, J. Normand, 
 K. Raghavachari, A. P. Rendell, J. C. Burant, S. S. Iyengar, 
 J. Tomasi, M. Cossi, J. M. Millam, M. Klene, C. Adamo, R. Cammi, 
 J. W. Ochterski, R. L. Martin, K. Morokuma, O. Farkas, 
 J. B. Foresman, and D. J. Fox, Gaussian, Inc., Wallingford CT, 2016.
 
 ******************************************
 Gaussian 16:  ES64L-G16RevB.01 20-Dec-2017
                 9-Aug-2022 
 ******************************************
 %nprocshared=4
 Will use up to    4 processors via shared memory.
 %mem=8000mb
 ----------------------------------------------------------------------
 #T wB97XD/def2svpp opt=tight freq int(grid=ultrafine) scf=(verytight,q
 c)
 ----------------------------------------------------------------------
 -----
 dimer
 -----
 Symbolic Z-matrix:
 Charge =  0 Multiplicity = 1
 O                    -0.85514  -1.3166   -0.80691 
 C                    -2.1091   -1.41096  -0.18191 
 C                    -2.70311  -0.03561   0.19 
 C                    -2.95074   0.80556  -1.08596 
 O                    -1.81612   0.94748  -1.90659 
 C                    -4.04048  -0.23895   0.91057 
 F                    -4.92465  -0.91946   0.1137 
 C                    -1.74481   0.69518   1.13563 
 F                    -2.29531   1.88292   1.55921 
 H                    -0.97388  -0.69343  -1.54937 
 H                    -1.96255  -2.01226   0.72073 
 H                    -2.82279  -1.93207  -0.8332 
 H                    -3.34624   1.78552  -0.79246 
 H                    -3.7001    0.29899  -1.70001 
 H                    -1.17333   1.53135  -1.47985 
 H                    -4.50406   0.72188   1.15349 
 H                    -3.91231  -0.83497   1.82002 
 H                    -0.80341   0.94179   0.63543 
 H                    -1.55145   0.10078   2.03439 
 O                     1.81661  -0.94174  -1.90942 
 C                     2.95083  -0.80299  -1.0877 
 C                     2.70311   0.03518   0.19021 
 C                     2.10993   1.41176  -0.17849 
 O                     0.85594   1.31972  -0.80376 
 C                     1.74405  -0.69744   1.13364 
 F                     2.29345  -1.88681   1.55406 
 C                     4.04026   0.23593   0.91191 
 F                     4.92546   0.91722   0.11688 
 H                     1.17312  -1.52622  -1.48456 
 H                     3.70108  -0.29559  -1.69996 
 H                     3.34518  -1.78407  -0.79642 
 H                     2.82404   1.93396  -0.82846 
 H                     1.96369   2.01097   0.72559 
 H                     0.97451   0.69897  -1.54825 
 H                     0.8026   -0.94188   0.63247 
 H                     1.55099  -0.10534   2.03398 
 H                     4.50284  -0.72577   1.15324 
 H                     3.91208   0.83032   1.82243 
 
 Add virtual bond connecting atoms O24        and H15        Dist= 4.06D+00.
 Add virtual bond connecting atoms O24        and H18        Dist= 4.21D+00.
 Add virtual bond connecting atoms H29        and O1         Dist= 4.06D+00.
 Add virtual bond connecting atoms H29        and H10        Dist= 4.35D+00.
 Add virtual bond connecting atoms H34        and H15        Dist= 4.35D+00.

 GradGradGradGradGradGradGradGradGradGradGradGradGradGradGradGradGradGrad
 Initialization pass.
                           ----------------------------
                           !    Initial Parameters    !
                           ! (Angstroms and Degrees)  !
 --------------------------                            --------------------------
 ! Name  Definition              Value          Derivative Info.                !
 --------------------------------------------------------------------------------
 ! R1    R(1,2)                  1.4043         estimate D2E/DX2                !
 ! R2    R(1,10)                 0.9766         estimate D2E/DX2                !
 ! R3    R(1,29)                 2.1487         estimate D2E/DX2                !
 ! R4    R(2,3)                  1.5436         estimate D2E/DX2                !
 ! R5    R(2,11)                 1.0944         estimate D2E/DX2                !
 ! R6    R(2,12)                 1.0978         estimate D2E/DX2                !
 ! R7    R(3,4)                  1.5482         estimate D2E/DX2                !
 ! R8    R(3,6)                  1.5327         estimate D2E/DX2                !
 ! R9    R(3,8)                  1.5319         estimate D2E/DX2                !
 ! R10   R(4,5)                  1.4075         estimate D2E/DX2                !
 ! R11   R(4,13)                 1.0968         estimate D2E/DX2                !
 ! R12   R(4,14)                 1.0933         estimate D2E/DX2                !
 ! R13   R(5,15)                 0.9676         estimate D2E/DX2                !
 ! R14   R(6,7)                  1.3711         estimate D2E/DX2                !
 ! R15   R(6,16)                 1.0941         estimate D2E/DX2                !
 ! R16   R(6,17)                 1.0949         estimate D2E/DX2                !
 ! R17   R(8,9)                  1.3759         estimate D2E/DX2                !
 ! R18   R(8,18)                 1.0942         estimate D2E/DX2                !
 ! R19   R(8,19)                 1.0947         estimate D2E/DX2                !
 ! R20   R(10,29)                2.3038         estimate D2E/DX2                !
 ! R21   R(15,24)                2.1494         estimate D2E/DX2                !
 ! R22   R(15,34)                2.3045         estimate D2E/DX2                !
 ! R23   R(18,24)                2.2288         estimate D2E/DX2                !
 ! R24   R(20,21)                1.4074         estimate D2E/DX2                !
 ! R25   R(20,29)                0.9676         estimate D2E/DX2                !
 ! R26   R(21,22)                1.5482         estimate D2E/DX2                !
 ! R27   R(21,30)                1.0933         estimate D2E/DX2                !
 ! R28   R(21,31)                1.0968         estimate D2E/DX2                !
 ! R29   R(22,23)                1.5436         estimate D2E/DX2                !
 ! R30   R(22,25)                1.5319         estimate D2E/DX2                !
 ! R31   R(22,27)                1.5327         estimate D2E/DX2                !
 ! R32   R(23,24)                1.4043         estimate D2E/DX2                !
 ! R33   R(23,32)                1.0978         estimate D2E/DX2                !
 ! R34   R(23,33)                1.0944         estimate D2E/DX2                !
 ! R35   R(24,34)                0.9765         estimate D2E/DX2                !
 ! R36   R(25,26)                1.3759         estimate D2E/DX2                !
 ! R37   R(25,35)                1.0942         estimate D2E/DX2                !
 ! R38   R(25,36)                1.0948         estimate D2E/DX2                !
 ! R39   R(27,28)                1.3711         estimate D2E/DX2                !
 ! R40   R(27,37)                1.0941         estimate D2E/DX2                !
 ! R41   R(27,38)                1.0949         estimate D2E/DX2                !
 ! A1    A(2,1,10)             105.8242         estimate D2E/DX2                !
 ! A2    A(1,2,3)              113.0163         estimate D2E/DX2                !
 ! A3    A(1,2,11)             106.5238         estimate D2E/DX2                !
 ! A4    A(1,2,12)             110.3886         estimate D2E/DX2                !
 ! A5    A(3,2,11)             110.0194         estimate D2E/DX2                !
 ! A6    A(3,2,12)             108.4046         estimate D2E/DX2                !
 ! A7    A(11,2,12)            108.3948         estimate D2E/DX2                !
 ! A8    A(2,3,4)              110.3084         estimate D2E/DX2                !
 ! A9    A(2,3,6)              109.32           estimate D2E/DX2                !
 ! A10   A(2,3,8)              109.4543         estimate D2E/DX2                !
 ! A11   A(4,3,6)              108.6617         estimate D2E/DX2                !
 ! A12   A(4,3,8)              110.464          estimate D2E/DX2                !
 ! A13   A(6,3,8)              108.5982         estimate D2E/DX2                !
 ! A14   A(3,4,5)              113.9772         estimate D2E/DX2                !
 ! A15   A(3,4,13)             108.8193         estimate D2E/DX2                !
 ! A16   A(3,4,14)             108.7103         estimate D2E/DX2                !
 ! A17   A(5,4,13)             110.8941         estimate D2E/DX2                !
 ! A18   A(5,4,14)             105.7711         estimate D2E/DX2                !
 ! A19   A(13,4,14)            108.4905         estimate D2E/DX2                !
 ! A20   A(4,5,15)             109.8301         estimate D2E/DX2                !
 ! A21   A(3,6,7)              110.8117         estimate D2E/DX2                !
 ! A22   A(3,6,16)             110.9517         estimate D2E/DX2                !
 ! A23   A(3,6,17)             111.1362         estimate D2E/DX2                !
 ! A24   A(7,6,16)             106.9582         estimate D2E/DX2                !
 ! A25   A(7,6,17)             106.742          estimate D2E/DX2                !
 ! A26   A(16,6,17)            110.0741         estimate D2E/DX2                !
 ! A27   A(3,8,9)              110.5827         estimate D2E/DX2                !
 ! A28   A(3,8,18)             111.318          estimate D2E/DX2                !
 ! A29   A(3,8,19)             110.9935         estimate D2E/DX2                !
 ! A30   A(9,8,18)             106.8819         estimate D2E/DX2                !
 ! A31   A(9,8,19)             106.6562         estimate D2E/DX2                !
 ! A32   A(18,8,19)            110.2253         estimate D2E/DX2                !
 ! A33   A(5,15,24)            134.9523         estimate D2E/DX2                !
 ! A34   A(5,15,34)            112.837          estimate D2E/DX2                !
 ! A35   A(21,20,29)           109.8242         estimate D2E/DX2                !
 ! A36   A(20,21,22)           113.9746         estimate D2E/DX2                !
 ! A37   A(20,21,30)           105.7727         estimate D2E/DX2                !
 ! A38   A(20,21,31)           110.8935         estimate D2E/DX2                !
 ! A39   A(22,21,30)           108.7109         estimate D2E/DX2                !
 ! A40   A(22,21,31)           108.8202         estimate D2E/DX2                !
 ! A41   A(30,21,31)           108.4908         estimate D2E/DX2                !
 ! A42   A(21,22,23)           110.3118         estimate D2E/DX2                !
 ! A43   A(21,22,25)           110.463          estimate D2E/DX2                !
 ! A44   A(21,22,27)           108.6619         estimate D2E/DX2                !
 ! A45   A(23,22,25)           109.4523         estimate D2E/DX2                !
 ! A46   A(23,22,27)           109.3244         estimate D2E/DX2                !
 ! A47   A(25,22,27)           108.5932         estimate D2E/DX2                !
 ! A48   A(22,23,24)           113.0201         estimate D2E/DX2                !
 ! A49   A(22,23,32)           108.4006         estimate D2E/DX2                !
 ! A50   A(22,23,33)           110.0164         estimate D2E/DX2                !
 ! A51   A(24,23,32)           110.3927         estimate D2E/DX2                !
 ! A52   A(24,23,33)           106.522          estimate D2E/DX2                !
 ! A53   A(32,23,33)           108.3957         estimate D2E/DX2                !
 ! A54   A(15,24,18)            61.1124         estimate D2E/DX2                !
 ! A55   A(18,24,23)           112.8572         estimate D2E/DX2                !
 ! A56   A(18,24,34)           118.3523         estimate D2E/DX2                !
 ! A57   A(23,24,34)           105.8248         estimate D2E/DX2                !
 ! A58   A(22,25,26)           110.5857         estimate D2E/DX2                !
 ! A59   A(22,25,35)           111.3115         estimate D2E/DX2                !
 ! A60   A(22,25,36)           110.9929         estimate D2E/DX2                !
 ! A61   A(26,25,35)           106.8819         estimate D2E/DX2                !
 ! A62   A(26,25,36)           106.6564         estimate D2E/DX2                !
 ! A63   A(35,25,36)           110.2296         estimate D2E/DX2                !
 ! A64   A(22,27,28)           110.8122         estimate D2E/DX2                !
 ! A65   A(22,27,37)           110.9521         estimate D2E/DX2                !
 ! A66   A(22,27,38)           111.1344         estimate D2E/DX2                !
 ! A67   A(28,27,37)           106.9595         estimate D2E/DX2                !
 ! A68   A(28,27,38)           106.741          estimate D2E/DX2                !
 ! A69   A(37,27,38)           110.0747         estimate D2E/DX2                !
 ! A70   A(1,29,20)            135.0177         estimate D2E/DX2                !
 ! A71   A(10,29,20)           112.8976         estimate D2E/DX2                !
 ! A72   L(2,1,29,5,-1)        192.2441         estimate D2E/DX2                !
 ! A73   L(8,18,24,1,-1)       171.2962         estimate D2E/DX2                !
 ! A74   L(15,24,23,18,-1)     173.9696         estimate D2E/DX2                !
 ! A75   L(2,1,29,5,-2)        178.0838         estimate D2E/DX2                !
 ! A76   L(8,18,24,1,-2)       170.1247         estimate D2E/DX2                !
 ! A77   L(15,24,23,18,-2)     192.0463         estimate D2E/DX2                !
 ! D1    D(10,1,2,3)           -52.5228         estimate D2E/DX2                !
 ! D2    D(10,1,2,11)         -173.4532         estimate D2E/DX2                !
 ! D3    D(10,1,2,12)           69.0681         estimate D2E/DX2                !
 ! D4    D(3,2,29,20)          -19.8542         estimate D2E/DX2                !
 ! D5    D(11,2,29,20)        -138.728          estimate D2E/DX2                !
 ! D6    D(12,2,29,20)         107.1056         estimate D2E/DX2                !
 ! D7    D(1,2,3,4)             62.678          estimate D2E/DX2                !
 ! D8    D(1,2,3,6)           -177.8963         estimate D2E/DX2                !
 ! D9    D(1,2,3,8)            -59.0632         estimate D2E/DX2                !
 ! D10   D(11,2,3,4)          -178.3967         estimate D2E/DX2                !
 ! D11   D(11,2,3,6)           -58.9711         estimate D2E/DX2                !
 ! D12   D(11,2,3,8)            59.8621         estimate D2E/DX2                !
 ! D13   D(12,2,3,4)           -60.0245         estimate D2E/DX2                !
 ! D14   D(12,2,3,6)            59.4012         estimate D2E/DX2                !
 ! D15   D(12,2,3,8)           178.2343         estimate D2E/DX2                !
 ! D16   D(2,3,4,5)            -54.1468         estimate D2E/DX2                !
 ! D17   D(2,3,4,13)          -178.4756         estimate D2E/DX2                !
 ! D18   D(2,3,4,14)            63.5434         estimate D2E/DX2                !
 ! D19   D(6,3,4,5)           -173.9708         estimate D2E/DX2                !
 ! D20   D(6,3,4,13)            61.7003         estimate D2E/DX2                !
 ! D21   D(6,3,4,14)           -56.2806         estimate D2E/DX2                !
 ! D22   D(8,3,4,5)             66.9947         estimate D2E/DX2                !
 ! D23   D(8,3,4,13)           -57.3341         estimate D2E/DX2                !
 ! D24   D(8,3,4,14)          -175.3151         estimate D2E/DX2                !
 ! D25   D(2,3,6,7)            -59.202          estimate D2E/DX2                !
 ! D26   D(2,3,6,16)          -177.8655         estimate D2E/DX2                !
 ! D27   D(2,3,6,17)            59.3099         estimate D2E/DX2                !
 ! D28   D(4,3,6,7)             61.2356         estimate D2E/DX2                !
 ! D29   D(4,3,6,16)           -57.4278         estimate D2E/DX2                !
 ! D30   D(4,3,6,17)           179.7475         estimate D2E/DX2                !
 ! D31   D(8,3,6,7)           -178.5656         estimate D2E/DX2                !
 ! D32   D(8,3,6,16)            62.7709         estimate D2E/DX2                !
 ! D33   D(8,3,6,17)           -60.0537         estimate D2E/DX2                !
 ! D34   D(2,3,8,9)           -175.6465         estimate D2E/DX2                !
 ! D35   D(2,3,8,18)            65.6985         estimate D2E/DX2                !
 ! D36   D(2,3,8,19)           -57.4794         estimate D2E/DX2                !
 ! D37   D(4,3,8,9)             62.7059         estimate D2E/DX2                !
 ! D38   D(4,3,8,18)           -55.9491         estimate D2E/DX2                !
 ! D39   D(4,3,8,19)          -179.1269         estimate D2E/DX2                !
 ! D40   D(6,3,8,9)            -56.3671         estimate D2E/DX2                !
 ! D41   D(6,3,8,18)          -175.0221         estimate D2E/DX2                !
 ! D42   D(6,3,8,19)            61.8001         estimate D2E/DX2                !
 ! D43   D(3,4,5,15)           -71.0067         estimate D2E/DX2                !
 ! D44   D(13,4,5,15)           52.2014         estimate D2E/DX2                !
 ! D45   D(14,4,5,15)          169.6249         estimate D2E/DX2                !
 ! D46   D(4,5,15,24)          119.5272         estimate D2E/DX2                !
 ! D47   D(4,5,15,34)          133.8465         estimate D2E/DX2                !
 ! D48   D(3,8,24,15)           41.0793         estimate D2E/DX2                !
 ! D49   D(3,8,24,23)         -151.6347         estimate D2E/DX2                !
 ! D50   D(3,8,24,34)          -26.4961         estimate D2E/DX2                !
 ! D51   D(9,8,24,15)          -76.4212         estimate D2E/DX2                !
 ! D52   D(9,8,24,23)           90.8647         estimate D2E/DX2                !
 ! D53   D(9,8,24,34)         -143.9967         estimate D2E/DX2                !
 ! D54   D(19,8,24,15)         162.5874         estimate D2E/DX2                !
 ! D55   D(19,8,24,23)         -30.1267         estimate D2E/DX2                !
 ! D56   D(19,8,24,34)          95.0119         estimate D2E/DX2                !
 ! D57   D(5,15,24,18)         -92.7004         estimate D2E/DX2                !
 ! D58   D(29,20,21,22)        -71.0161         estimate D2E/DX2                !
 ! D59   D(29,20,21,30)        169.6152         estimate D2E/DX2                !
 ! D60   D(29,20,21,31)         52.1908         estimate D2E/DX2                !
 ! D61   D(21,20,29,1)         119.4612         estimate D2E/DX2                !
 ! D62   D(21,20,29,10)        133.8043         estimate D2E/DX2                !
 ! D63   D(20,21,22,23)        -54.117          estimate D2E/DX2                !
 ! D64   D(20,21,22,25)         67.0235         estimate D2E/DX2                !
 ! D65   D(20,21,22,27)       -173.9486         estimate D2E/DX2                !
 ! D66   D(30,21,22,23)         63.574          estimate D2E/DX2                !
 ! D67   D(30,21,22,25)       -175.2855         estimate D2E/DX2                !
 ! D68   D(30,21,22,27)        -56.2576         estimate D2E/DX2                !
 ! D69   D(31,21,22,23)       -178.4438         estimate D2E/DX2                !
 ! D70   D(31,21,22,25)        -57.3033         estimate D2E/DX2                !
 ! D71   D(31,21,22,27)         61.7246         estimate D2E/DX2                !
 ! D72   D(21,22,23,24)         62.7            estimate D2E/DX2                !
 ! D73   D(21,22,23,32)        -60.0073         estimate D2E/DX2                !
 ! D74   D(21,22,23,33)       -178.3766         estimate D2E/DX2                !
 ! D75   D(25,22,23,24)        -59.0408         estimate D2E/DX2                !
 ! D76   D(25,22,23,32)        178.2518         estimate D2E/DX2                !
 ! D77   D(25,22,23,33)         59.8825         estimate D2E/DX2                !
 ! D78   D(27,22,23,24)       -177.8692         estimate D2E/DX2                !
 ! D79   D(27,22,23,32)         59.4234         estimate D2E/DX2                !
 ! D80   D(27,22,23,33)        -58.9459         estimate D2E/DX2                !
 ! D81   D(21,22,25,26)         62.6776         estimate D2E/DX2                !
 ! D82   D(21,22,25,35)        -55.9751         estimate D2E/DX2                !
 ! D83   D(21,22,25,36)       -179.1535         estimate D2E/DX2                !
 ! D84   D(23,22,25,26)       -175.6725         estimate D2E/DX2                !
 ! D85   D(23,22,25,35)         65.6747         estimate D2E/DX2                !
 ! D86   D(23,22,25,36)        -57.5037         estimate D2E/DX2                !
 ! D87   D(27,22,25,26)        -56.392          estimate D2E/DX2                !
 ! D88   D(27,22,25,35)       -175.0447         estimate D2E/DX2                !
 ! D89   D(27,22,25,36)         61.7769         estimate D2E/DX2                !
 ! D90   D(21,22,27,28)         61.2026         estimate D2E/DX2                !
 ! D91   D(21,22,27,37)        -57.463          estimate D2E/DX2                !
 ! D92   D(21,22,27,38)        179.7124         estimate D2E/DX2                !
 ! D93   D(23,22,27,28)        -59.2419         estimate D2E/DX2                !
 ! D94   D(23,22,27,37)       -177.9076         estimate D2E/DX2                !
 ! D95   D(23,22,27,38)         59.2679         estimate D2E/DX2                !
 ! D96   D(25,22,27,28)       -178.6026         estimate D2E/DX2                !
 ! D97   D(25,22,27,37)         62.7318         estimate D2E/DX2                !
 ! D98   D(25,22,27,38)        -60.0928         estimate D2E/DX2                !
 ! D99   D(22,23,24,18)         78.3503         estimate D2E/DX2                !
 ! D100  D(22,23,24,34)        -52.5802         estimate D2E/DX2                !
 ! D101  D(32,23,24,18)       -160.0584         estimate D2E/DX2                !
 ! D102  D(32,23,24,34)         69.0111         estimate D2E/DX2                !
 ! D103  D(33,23,24,18)        -42.5776         estimate D2E/DX2                !
 ! D104  D(33,23,24,34)       -173.508          estimate D2E/DX2                !
 --------------------------------------------------------------------------------
 Number of steps in this run=    228 maximum allowed number of steps=    228.
 GradGradGradGradGradGradGradGradGradGradGradGradGradGradGradGradGradGrad

                    Distance matrix (angstroms):
                    1          2          3          4          5
     1  O    0.000000
     2  C    1.404257   0.000000
     3  C    2.459624   1.543617   0.000000
     4  C    2.995490   2.537441   1.548211   0.000000
     5  O    2.694220   2.936422   2.479702   1.407462   0.000000
     6  C    3.775905   2.509454   1.532688   2.502932   3.780452
     7  F    4.191197   2.873373   2.392122   2.882916   4.150906
     8  C    2.934662   2.510868   1.531865   2.530200   3.053503
     9  F    4.231963   3.730389   2.392024   2.930394   3.621669
    10  H    0.976568   1.916643   2.539369   2.523831   1.878712
    11  H    2.010961   1.094443   2.176522   3.490093   3.960341
    12  H    2.061824   1.097761   2.158203   2.752254   3.233784
    13  H    3.978552   3.481481   2.166871   1.096754   2.069994
    14  H    3.391391   2.785643   2.162886   1.093257   2.003146
    15  H    2.943625   3.349253   2.753903   1.959872   0.967574
    16  H    4.616614   3.473915   2.178418   2.726707   4.079220
    17  H    4.059432   2.755187   2.181311   3.472850   4.632366
    18  H    2.680176   2.812173   2.182335   2.755497   2.736328
    19  H    3.250657   2.740130   2.178690   3.491604   4.039591
    20  O    2.914502   4.314589   5.065228   5.143811   4.094615
    21  C    3.850722   5.176194   5.847088   6.116858   5.143782
    22  C    3.934806   5.038567   5.406682   5.847057   5.064805
    23  C    4.078054   5.076219   5.039447   5.177000   4.314594
    24  O    3.142925   4.078572   3.935899   3.851595   2.914565
    25  C    3.302252   4.133590   4.594096   5.406169   4.962210
    26  F    3.976552   4.756315   5.500296   6.459111   6.074362
    27  C    5.415683   6.459359   6.787334   7.293146   6.538148
    28  F    6.265677   7.415847   7.688195   7.968301   7.038766
    29  H    2.148723   3.533154   4.477862   4.754188   3.902924
    30  H    4.753861   6.107926   6.682307   6.770247   5.659274
    31  H    4.226272   5.501461   6.372756   6.813858   5.944143
    32  H    4.909480   5.995197   5.955321   5.889622   4.864829
    33  H    4.622458   5.396370   5.123902   5.374600   4.727194
    34  H    2.821302   3.978359   4.133522   3.953814   2.824492
    35  H    2.227179   3.059619   3.647894   4.482645   4.107820
    36  H    3.915007   4.473377   4.637081   5.552419   5.289044
    37  H    5.735789   6.780115   7.302736   7.931891   7.217451
    38  H    5.852276   6.730185   6.868438   7.453700   6.836052
                    6          7          8          9         10
     6  C    0.000000
     7  F    1.371075   0.000000
     8  C    2.488645   3.709821   0.000000
     9  F    2.822884   4.105635   1.375929   0.000000
    10  H    3.957517   4.292495   3.119588   4.248181   0.000000
    11  H    2.738336   3.215082   2.747685   3.998269   2.805375
    12  H    2.718492   2.517905   3.455546   4.533874   2.337861
    13  H    2.735094   3.260276   2.733300   2.577652   3.513715
    14  H    2.687074   2.504735   3.467128   3.886486   2.905148
    15  H    4.131418   4.755866   2.804730   3.258574   2.234791
    16  H    1.094116   1.987970   2.759433   2.528083   4.665912
    17  H    1.094886   1.985821   2.740040   3.173273   4.472943
    18  H    3.456660   4.552041   1.094195   1.991195   2.734294
    19  H    2.752028   4.013526   1.094745   1.988754   3.715870
    20  O    6.538488   7.038333   4.963427   6.076018   2.824556
    21  C    7.293126   7.967440   5.407106   6.460822   3.953283
    22  C    6.787495   7.687645   4.594935   5.502043   4.132458
    23  C    6.460533   7.416555   4.135149   4.758964   3.977562
    24  O    5.416946   6.266646   3.303815   3.978843   2.820802
    25  C    5.806963   6.749899   3.756538   4.812048   3.819116
    26  F    6.576342   7.423706   4.811377   5.938653   4.661638
    27  C    8.094682   9.074229   5.807581   6.578067   5.662432
    28  F    9.074957  10.019885   6.751276   7.426468   6.338198
    29  H    5.880085   6.332885   4.507145   5.737312   2.303765
    30  H    8.170062   8.836393   6.219323   7.164132   4.694272
    31  H    7.736233   8.364570   5.982273   7.128182   4.517819
    32  H    7.407254   8.310947   5.125099   5.649008   4.674084
    33  H    6.414548   7.510729   3.956314   4.341701   4.595493
    34  H    5.663535   6.338886   3.820725   4.663661   2.394786
    35  H    4.901728   5.750743   3.069606   4.293647   2.824536
    36  H    5.704778   6.803248   3.508588   4.355757   4.422806
    37  H    8.560628   9.486613   6.407234   7.292803   6.107339
    38  H    8.075773   9.168932   5.700035   6.301502   6.128903
                   11         12         13         14         15
    11  H    0.000000
    12  H    1.777961   0.000000
    13  H    4.315949   3.754481   0.000000
    14  H    3.771066   2.549251   1.777251   0.000000
    15  H    4.245301   3.890267   2.293167   2.819882   0.000000
    16  H    3.757930   3.717129   2.501720   2.994602   4.322436
    17  H    2.529033   3.070873   3.743322   3.704257   4.898024
    18  H    3.174473   3.807079   3.035903   3.776013   2.226840
    19  H    2.521826   3.737892   3.748422   4.312969   3.813053
    20  O    4.727128   4.864465   5.944791   5.658388   3.903908
    21  C    5.373455   5.888482   6.814732   6.769351   4.755171
    22  C    5.122674   5.954238   6.373686   6.681584   4.478214
    23  C    5.396072   5.995128   5.503307   6.108165   3.533782
    24  O    4.622768   4.909991   4.227928   4.754220   2.149377
    25  C    3.954505   5.123354   5.982135   6.217811   4.506542
    26  F    4.338630   5.645969   7.127287   7.161658   5.736465
    27  C    6.412843   7.405876   7.737337   8.169406   5.880487
    28  F    7.509403   8.310021   8.366709   8.836490   6.334190
    29  H    3.864191   4.068940   5.645457   5.208270   3.854167
    30  H    6.394012   6.781608   7.404002   7.425024   5.210189
    31  H    5.525019   6.169854   7.584000   7.402134   5.645891
    32  H    6.394063   6.843455   6.172165   6.782114   4.070057
    33  H    5.621542   6.394356   5.527260   6.394756   3.864568
    34  H    4.596231   4.674735   4.518919   4.694141   2.304507
    35  H    2.966402   4.033868   5.165460   5.220585   3.805663
    36  H    4.207837   5.539639   5.962127   6.456014   4.737901
    37  H    6.606315   7.685438   8.467608   8.745252   6.651821
    38  H    6.618554   7.748655   7.773881   8.404474   6.103926
                   16         17         18         19         20
    16  H    0.000000
    17  H    1.793936   0.000000
    18  H    3.743202   3.771662   0.000000
    19  H    3.143189   2.548578   1.795540   0.000000
    20  O    7.218027   6.836716   4.109557   5.290021   0.000000
    21  C    7.932434   7.453762   4.484167   5.552907   1.407450
    22  C    7.303610   6.868569   3.649086   4.637520   2.479653
    23  C    6.781959   6.731218   3.061190   4.474512   2.936174
    24  O    5.737405   5.853472   2.228795   3.916176   2.694359
    25  C    6.407319   5.699518   3.069991   3.508398   3.053704
    26  F    7.291903   6.299889   4.293649   4.354825   3.621632
    27  C    8.561533   8.075572   4.902630   5.704861   3.780396
    28  F    9.488339   9.169358   5.752344   6.803958   4.150488
    29  H    6.651586   6.104073   3.806848   4.738502   0.967571
    30  H    8.746527   8.405056   5.222603   6.456901   2.003151
    31  H    8.467144   7.772889   5.166367   5.961811   2.069976
    32  H    7.687541   7.749831   4.035560   5.540883   3.233118
    33  H    6.608829   6.620013   2.967845   4.209276   3.960234
    34  H    6.108569   6.130191   2.826375   4.424206   1.879237
    35  H    5.585714   4.863346   2.475380   2.931569   2.736675
    36  H    6.174398   5.515961   2.931833   3.109282   4.039867
    37  H    9.122500   8.442239   5.586164   6.173664   4.079503
    38  H    8.443379   7.999647   4.863871   5.516099   4.632269
                   21         22         23         24         25
    21  C    0.000000
    22  C    1.548209   0.000000
    23  C    2.537502   1.543628   0.000000
    24  O    2.995844   2.459683   1.404250   0.000000
    25  C    2.530174   1.531853   2.510835   2.934477   0.000000
    26  F    2.930140   2.392062   3.730420   4.231734   1.375936
    27  C    2.502930   1.532685   2.509530   3.775976   2.488554
    28  F    2.882588   2.392118   2.873856   4.191729   3.709756
    29  H    1.959792   2.753843   3.348901   2.943370   2.804952
    30  H    1.093251   2.162889   2.785978   3.392230   3.467087
    31  H    1.096756   2.166882   3.481530   3.978679   2.733040
    32  H    2.752128   2.158166   1.097768   2.061874   3.455497
    33  H    3.490115   2.176499   1.094449   2.010936   2.747772
    34  H    2.524648   2.539863   1.916630   0.976547   3.120040
    35  H    2.755566   2.182239   2.811835   2.679630   1.094189
    36  H    3.491587   2.178676   2.740273   3.250643   1.094751
    37  H    2.726999   2.178423   3.473993   4.616686   2.759008
    38  H    3.472839   2.181290   2.754913   4.059113   2.740229
                   26         27         28         29         30
    26  F    0.000000
    27  C    2.823068   0.000000
    28  F    4.105551   1.371065   0.000000
    29  H    3.258585   4.131425   4.755525   0.000000
    30  H    3.886137   2.686896   2.504177   2.819826   0.000000
    31  H    2.577107   2.735313   3.260118   2.293003   1.777251
    32  H    4.533898   2.718711   2.518613   3.889579   2.549434
    33  H    3.998479   2.738182   3.215423   4.245172   3.771217
    34  H    4.248554   3.957979   4.293053   2.234944   2.906264
    35  H    1.991196   3.456551   4.551930   2.227223   3.776121
    36  H    1.988766   2.751721   4.013476   3.813370   4.312935
    37  H    2.527862   1.094120   1.987981   4.322698   2.994764
    38  H    3.174081   1.094891   1.985803   4.898097   3.703977
                   31         32         33         34         35
    31  H    0.000000
    32  H    3.754516   0.000000
    33  H    4.315952   1.777981   0.000000
    34  H    3.514377   2.337531   2.805383   0.000000
    35  H    3.035741   3.806704   3.174297   2.734497   0.000000
    36  H    3.748127   3.738048   2.522105   3.716401   1.795587
    37  H    2.502270   3.717487   3.757658   4.666592   3.742954
    38  H    3.743640   3.070682   2.528485   4.473038   3.771683
                   36         37         38
    36  H    0.000000
    37  H    3.142306   0.000000
    38  H    2.548524   1.793951   0.000000
 Framework group  C1[X(C10H20F4O4)]
 Deg. of freedom   108
                         Standard orientation:                         
 ---------------------------------------------------------------------
 Center     Atomic      Atomic             Coordinates (Angstroms)
 Number     Number       Type             X           Y           Z
 ---------------------------------------------------------------------
      1          8           0       -0.855270    1.312444    0.802364
      2          6           0       -2.109237    1.409898    0.177860
      3          6           0       -2.703117    0.036423   -0.201120
      4          6           0       -2.950670   -0.811318    1.070497
      5          8           0       -1.816036   -0.957343    1.890395
      6          6           0       -4.040507    0.243339   -0.920639
      7          9           0       -4.924739    0.919662   -0.120285
      8          6           0       -1.744749   -0.689407   -1.150495
      9          9           0       -2.295135   -1.875001   -1.580174
     10          1           0       -0.973947    0.685458    1.541612
     11          1           0       -1.962736    2.015842   -0.721682
     12          1           0       -2.822970    1.927591    0.831815
     13          1           0       -3.346076   -1.789787    0.771963
     14          1           0       -3.700077   -0.307980    1.687143
     15          1           0       -1.173196   -1.538960    1.460653
     16          1           0       -4.503993   -0.716264   -1.168495
     17          1           0       -3.912390    0.844046   -1.827011
     18          1           0       -0.803324   -0.938498   -0.651563
     19          1           0       -1.551442   -0.090372   -2.046183
     20          8           0        1.816518    0.932171    1.902940
     21          6           0        2.950748    0.797753    1.080524
     22          6           0        2.703108   -0.033862   -0.201677
     23          6           0        2.110056   -1.412379    0.159943
     24          8           0        0.856056   -1.323663    0.785668
     25          6           0        1.743986    0.703509   -1.141327
     26          9           0        2.293277    1.895075   -1.555635
     27          6           0        4.040278   -0.230775   -0.924398
     28          9           0        4.925544   -0.916061   -0.132877
     29          1           0        1.172975    1.518762    1.481089
     30          1           0        3.701048    0.287278    1.690167
     31          1           0        3.345012    1.780352    0.794295
     32          1           0        2.824212   -1.937845    0.807216
     33          1           0        1.963872   -2.006948   -0.747215
     34          1           0        0.974567   -0.706744    1.533338
     35          1           0        0.802513    0.945285   -0.638912
     36          1           0        1.550982    0.116032   -2.044709
     37          1           0        4.502777    0.732198   -1.160778
     38          1           0        3.912158   -0.820492   -1.837966
 ---------------------------------------------------------------------
 Rotational constants (GHZ):           0.7141341           0.1864117           0.1856022
   292 basis functions,   530 primitive gaussians,   310 cartesian basis functions
    74 alpha electrons       74 beta electrons
       nuclear repulsion energy      1605.7878070108 Hartrees.
 NAtoms=   38 NActive=   38 NUniq=   38 SFac= 1.00D+00 NAtFMM=   60 NAOKFM=F Big=F
 Nuclear repulsion after empirical dispersion term =     1605.7525942248 Hartrees.
   1 Symmetry operations used in ECPInt.
 ECPInt:  NShTT=   11026 NPrTT=   44250 LenC2=   10155 LenP2D=   28384.
 LDataN:  DoStor=T MaxTD1= 4 Len=   56
 ExpMin= 1.22D-01 ExpMax= 2.89D+03 ExpMxC= 4.35D+02 IAcc=3 IRadAn=         5 AccDes= 0.00D+00
 Harris functional with IExCor= 4639 and IRadAn=       5 diagonalized for initial guess.
 HarFok:  IExCor= 4639 AccDes= 0.00D+00 IRadAn=         5 IDoV= 1 UseB2=F ITyADJ=14
 ICtDFT=  3500011 ScaDFX=  1.000000  1.000000  1.000000  1.000000
 FoFCou: FMM=F IPFlag=           0 FMFlag=      100000 FMFlg1=           0
         NFxFlg=           0 DoJE=T BraDBF=F KetDBF=T FulRan=T
         wScrn=  0.000000 ICntrl=       500 IOpCl=  0 I1Cent=   200000004 NGrid=           0
         NMat0=    1 NMatS0=      1 NMatT0=    0 NMatD0=    1 NMtDS0=    0 NMtDT0=    0
 Petite list used in FoFCou.
     Minimum is close to point  3 DX=  1.49D-02 DF= -2.87D-04 DXR=  2.90D-02 DFR=  8.23D-04 which will be used.
     Minimum is close to point  3 DX=  6.05D-02 DF= -1.07D-04 DXR=  7.03D-02 DFR=  4.97D-03 which will be used.
     Accept linear search using points  1 and  2.
     Accept linear search using points  1 and  2.
     Accept linear search using points  1 and  2.
     Minimum is close to point  2 DX= -6.74D-05 DF=  0.00D+00 DXR=  6.74D-05 DFR=  0.00D+00 which will be used.
 SCF Done:  E(RwB97XD) =  -1092.15420264     a.u. after    8 cycles
            Convg  =    0.5560D-09                    33 Fock formations.
              S**2 =  0.0000                  -V/T =  2.0073

 **********************************************************************

            Population analysis using the SCF Density.

 **********************************************************************

 Orbital symmetries:
       Occupied  (A) (A) (A) (A) (A) (A) (A) (A) (A) (A) (A) (A)
                 (A) (A) (A) (A) (A) (A) (A) (A) (A) (A) (A) (A)
                 (A) (A) (A) (A) (A) (A) (A) (A) (A) (A) (A) (A)
                 (A) (A) (A) (A) (A) (A) (A) (A) (A) (A) (A) (A)
                 (A) (A) (A) (A) (A) (A) (A) (A) (A) (A) (A) (A)
                 (A) (A) (A) (A) (A) (A) (A) (A) (A) (A) (A) (A)
                 (A) (A)
       Virtual   (A) (A) (A) (A) (A) (A) (A) (A) (A) (A) (A) (A)
                 (A) (A) (A) (A) (A) (A) (A) (A) (A) (A) (A) (A)
                 (A) (A) (A) (A) (A) (A) (A) (A) (A) (A) (A) (A)
                 (A) (A) (A) (A) (A) (A) (A) (A) (A) (A) (A) (A)
                 (A) (A) (A) (A) (A) (A) (A) (A) (A) (A) (A) (A)
                 (A) (A) (A) (A) (A) (A) (A) (A) (A) (A) (A) (A)
                 (A) (A) (A) (A) (A) (A) (A) (A) (A) (A) (A) (A)
                 (A) (A) (A) (A) (A) (A) (A) (A) (A) (A) (A) (A)
                 (A) (A) (A) (A) (A) (A) (A) (A) (A) (A) (A) (A)
                 (A) (A) (A) (A) (A) (A) (A) (A) (A) (A) (A) (A)
                 (A) (A) (A) (A) (A) (A) (A) (A) (A) (A) (A) (A)
                 (A) (A) (A) (A) (A) (A) (A) (A) (A) (A) (A) (A)
                 (A) (A) (A) (A) (A) (A) (A) (A) (A) (A) (A) (A)
                 (A) (A) (A) (A) (A) (A) (A) (A) (A) (A) (A) (A)
                 (A) (A) (A) (A) (A) (A) (A) (A) (A) (A) (A) (A)
                 (A) (A) (A) (A) (A) (A) (A) (A) (A) (A) (A) (A)
                 (A) (A) (A) (A) (A) (A) (A) (A) (A) (A) (A) (A)
                 (A) (A) (A) (A) (A) (A) (A) (A) (A) (A) (A) (A)
                 (A) (A)
 The electronic state is 1-A.
 Alpha  occ. eigenvalues --  -24.80538 -24.80535 -24.80413 -24.80408 -19.27557
 Alpha  occ. eigenvalues --  -19.27549 -19.26529 -19.26525 -10.37683 -10.37679
 Alpha  occ. eigenvalues --  -10.37146 -10.37139 -10.35374 -10.35372 -10.35207
 Alpha  occ. eigenvalues --  -10.35201 -10.32630 -10.32625  -1.28996  -1.28993
 Alpha  occ. eigenvalues --   -1.28659  -1.28654  -1.14951  -1.14254  -1.12484
 Alpha  occ. eigenvalues --   -1.12059  -0.92809  -0.92669  -0.79675  -0.79412
 Alpha  occ. eigenvalues --   -0.78799  -0.78542  -0.78076  -0.78004  -0.68758
 Alpha  occ. eigenvalues --   -0.67890  -0.64622  -0.64496  -0.62568  -0.62071
 Alpha  occ. eigenvalues --   -0.61559  -0.61072  -0.59786  -0.58978  -0.58873
 Alpha  occ. eigenvalues --   -0.58836  -0.57737  -0.57491  -0.55896  -0.55438
 Alpha  occ. eigenvalues --   -0.54911  -0.54647  -0.52862  -0.52649  -0.52183
 Alpha  occ. eigenvalues --   -0.51982  -0.50510  -0.49940  -0.47632  -0.47454
 Alpha  occ. eigenvalues --   -0.46650  -0.45563  -0.44961  -0.44202  -0.43557
 Alpha  occ. eigenvalues --   -0.43440  -0.42124  -0.41995  -0.41017  -0.40305
 Alpha  occ. eigenvalues --   -0.37775  -0.36866  -0.36221  -0.36203
 Alpha virt. eigenvalues --    0.11755   0.13336   0.13402   0.13977   0.15918
 Alpha virt. eigenvalues --    0.15946   0.16261   0.16964   0.18066   0.18653
 Alpha virt. eigenvalues --    0.19548   0.19578   0.21017   0.21580   0.21855
 Alpha virt. eigenvalues --    0.22454   0.22770   0.24005   0.24212   0.24612
 Alpha virt. eigenvalues --    0.25639   0.25664   0.26256   0.27075   0.28218
 Alpha virt. eigenvalues --    0.30026   0.30288   0.30838   0.31414   0.31590
 Alpha virt. eigenvalues --    0.32346   0.33429   0.34109   0.34546   0.34717
 Alpha virt. eigenvalues --    0.37078   0.51157   0.51674   0.52132   0.53548
 Alpha virt. eigenvalues --    0.56372   0.56545   0.56734   0.57190   0.57348
 Alpha virt. eigenvalues --    0.59420   0.60264   0.60363   0.60499   0.61445
 Alpha virt. eigenvalues --    0.62567   0.63903   0.64516   0.65316   0.66773
 Alpha virt. eigenvalues --    0.67558   0.69753   0.70275   0.71522   0.72270
 Alpha virt. eigenvalues --    0.72689   0.73114   0.73402   0.73584   0.74009
 Alpha virt. eigenvalues --    0.74319   0.74649   0.76783   0.76789   0.77446
 Alpha virt. eigenvalues --    0.77651   0.78322   0.79338   0.80008   0.80696
 Alpha virt. eigenvalues --    0.81790   0.82332   0.82589   0.82892   0.83092
 Alpha virt. eigenvalues --    0.83638   0.85003   0.86065   0.86188   0.92456
 Alpha virt. eigenvalues --    0.93715   0.97668   0.98234   1.00520   1.05643
 Alpha virt. eigenvalues --    1.08437   1.10173   1.11458   1.13712   1.15046
 Alpha virt. eigenvalues --    1.16659   1.18368   1.19738   1.21089   1.24112
 Alpha virt. eigenvalues --    1.27517   1.27820   1.29293   1.29732   1.30354
 Alpha virt. eigenvalues --    1.30966   1.32604   1.33352   1.36142   1.36516
 Alpha virt. eigenvalues --    1.38576   1.39761   1.40876   1.42398   1.43787
 Alpha virt. eigenvalues --    1.44094   1.47340   1.48449   1.49902   1.50455
 Alpha virt. eigenvalues --    1.53817   1.54828   1.58038   1.58315   1.63365
 Alpha virt. eigenvalues --    1.63856   1.66748   1.67612   1.74229   1.74719
 Alpha virt. eigenvalues --    1.78202   1.78320   1.79964   1.82683   1.84794
 Alpha virt. eigenvalues --    1.84874   1.86195   1.88602   1.88972   1.90997
 Alpha virt. eigenvalues --    1.97345   1.97643   1.98853   2.00196   2.03466
 Alpha virt. eigenvalues --    2.04237   2.05261   2.05351   2.05691   2.06326
 Alpha virt. eigenvalues --    2.07300   2.08148   2.11920   2.13398   2.15688
 Alpha virt. eigenvalues --    2.16078   2.16326   2.16847   2.19869   2.20941
 Alpha virt. eigenvalues --    2.21042   2.22281   2.23673   2.24252   2.25483
 Alpha virt. eigenvalues --    2.25493   2.27717   2.30669   2.50785   2.51381
 Alpha virt. eigenvalues --    2.53196   2.53588   2.65438   2.65521   2.66775
 Alpha virt. eigenvalues --    2.67137   2.69309   2.69835   2.74431   2.75175
 Alpha virt. eigenvalues --    2.76069   2.76399   2.88524   2.89073   2.92744
 Alpha virt. eigenvalues --    2.92811   3.01600   3.02331   3.06677   3.06978
 Alpha virt. eigenvalues --    3.07844   3.09016   3.09956   3.12395   3.18896
 Alpha virt. eigenvalues --    3.18998   3.19357   3.19415   3.20432   3.20544
 Alpha virt. eigenvalues --    3.20579   3.20858   3.37988   3.38066   3.38163
 Alpha virt. eigenvalues --    3.38388   3.41287   3.41341   3.44801   3.45066
 Alpha virt. eigenvalues --    3.45839   3.46290   3.48584   3.49318   3.85701
 Alpha virt. eigenvalues --    3.86468   3.88065   3.89536
          Condensed to atoms (all electrons):
 Mulliken charges:
               1
     1  O   -0.525489
     2  C    0.086952
     3  C   -0.438663
     4  C    0.049974
     5  O   -0.517110
     6  C    0.162607
     7  F   -0.275629
     8  C    0.093513
     9  F   -0.283748
    10  H    0.339275
    11  H    0.106494
    12  H    0.118955
    13  H    0.119028
    14  H    0.127630
    15  H    0.354565
    16  H    0.121747
    17  H    0.104406
    18  H    0.154542
    19  H    0.101062
    20  O   -0.517145
    21  C    0.049995
    22  C   -0.438567
    23  C    0.086846
    24  O   -0.525431
    25  C    0.093376
    26  F   -0.283764
    27  C    0.162595
    28  F   -0.275632
    29  H    0.354543
    30  H    0.127606
    31  H    0.119011
    32  H    0.118941
    33  H    0.106466
    34  H    0.339268
    35  H    0.154657
    36  H    0.101008
    37  H    0.121740
    38  H    0.104376
 Sum of Mulliken charges =   0.00000
 Mulliken charges with hydrogens summed into heavy atoms:
               1
     1  O   -0.186213
     2  C    0.312401
     3  C   -0.438663
     4  C    0.296631
     5  O   -0.162545
     6  C    0.388759
     7  F   -0.275629
     8  C    0.349117
     9  F   -0.283748
    20  O   -0.162602
    21  C    0.296613
    22  C   -0.438567
    23  C    0.312253
    24  O   -0.186163
    25  C    0.349041
    26  F   -0.283764
    27  C    0.388711
    28  F   -0.275632
 Electronic spatial extent (au):  <R**2>=           6000.7629
 Charge=              0.0000 electrons
 Dipole moment (field-independent basis, Debye):
    X=             -0.0040    Y=              0.0099    Z=             -1.8827  Tot=              1.8827
   1 Symmetry operations used in ECPInt.
 ECPInt:  NShTT=   11026 NPrTT=   44250 LenC2=   10155 LenP2D=   28384.
 LDataN:  DoStor=T MaxTD1= 5 Len=  102
 Calling FoFJK, ICntrl=      2127 FMM=F ISym2X=0 I1Cent= 0 IOpClX= 0 NMat=1 NMatS=1 NMatT=0.

 GradGradGradGradGradGradGradGradGradGradGradGradGradGradGradGradGradGrad
 FormGI is forming the generalized inverse of G from B-inverse, IUseBI=4.
 Internal  Forces:  Max     0.007406273 RMS     0.002298470
 Step number   1 out of a maximum of  228
 All quantities printed in internal units (Hartrees-Bohrs-Radians)
 Mixed Optimization -- RFO/linear search
 Second derivative matrix not updated -- first step.
 ITU=  0
     Eigenvalues ---    0.00329   0.00334   0.00334   0.00345   0.00376
     Eigenvalues ---    0.00464   0.00485   0.00755   0.00958   0.01346
     Eigenvalues ---    0.01360   0.01704   0.02014   0.02363   0.02562
     Eigenvalues ---    0.02710   0.02785   0.03035   0.03471   0.03686
     Eigenvalues ---    0.03982   0.04177   0.04508   0.04690   0.04829
     Eigenvalues ---    0.04866   0.04960   0.05138   0.05218   0.05340
     Eigenvalues ---    0.05582   0.05602   0.05602   0.05625   0.05671
     Eigenvalues ---    0.05680   0.05680   0.05855   0.06093   0.06558
     Eigenvalues ---    0.07128   0.07688   0.08398   0.08465   0.08858
     Eigenvalues ---    0.09537   0.09772   0.09824   0.10101   0.10765
     Eigenvalues ---    0.11602   0.11761   0.11812   0.11913   0.12756
     Eigenvalues ---    0.13668   0.13974   0.14080   0.14982   0.15264
     Eigenvalues ---    0.16000   0.16000   0.16000   0.16000   0.16000
     Eigenvalues ---    0.16000   0.16882   0.18104   0.19676   0.22335
     Eigenvalues ---    0.22335   0.22335   0.27124   0.27426   0.27815
     Eigenvalues ---    0.28109   0.28167   0.29177   0.29177   0.29253
     Eigenvalues ---    0.32151   0.33930   0.33931   0.34043   0.34044
     Eigenvalues ---    0.34254   0.34254   0.34269   0.34270   0.34304
     Eigenvalues ---    0.34304   0.34333   0.34341   0.34341   0.34439
     Eigenvalues ---    0.34440   0.40042   0.43105   0.44205   0.44765
     Eigenvalues ---    0.48972   0.49853   0.49854   0.49881   0.50727
     Eigenvalues ---    0.50771   0.50773   0.52754
 Linear search not attempted -- first point.
 Iteration  1 RMS(Cart)=  0.05735621 RMS(Int)=  0.00115645
 Iteration  2 RMS(Cart)=  0.00235597 RMS(Int)=  0.00028119
 Iteration  3 RMS(Cart)=  0.00000220 RMS(Int)=  0.00028119
 Iteration  4 RMS(Cart)=  0.00000000 RMS(Int)=  0.00028119
 Variable       Old X    -DE/DX   Delta X   Delta X   Delta X     New X
                                 (Linear)    (Quad)   (Total)
    R1        2.65366   0.00303   0.00000   0.00731   0.00734   2.66100
    R2        1.84545   0.00095   0.00000   0.00088   0.00141   1.84685
    R3        4.06050  -0.00261   0.00000  -0.06180  -0.06103   3.99947
    R4        2.91701  -0.00048   0.00000  -0.00093  -0.00100   2.91601
    R5        2.06820   0.00637   0.00000   0.01823   0.01823   2.08643
    R6        2.07447   0.00546   0.00000   0.01581   0.01581   2.09028
    R7        2.92569  -0.00135   0.00000  -0.00565  -0.00571   2.91999
    R8        2.89636  -0.00255   0.00000  -0.00857  -0.00857   2.88779
    R9        2.89481  -0.00140   0.00000  -0.00734  -0.00722   2.88759
   R10        2.65972   0.00509   0.00000   0.01152   0.01147   2.67119
   R11        2.07257   0.00611   0.00000   0.01764   0.01764   2.09020
   R12        2.06596   0.00496   0.00000   0.01414   0.01414   2.08010
   R13        1.82845   0.00364   0.00000   0.00784   0.00766   1.83611
   R14        2.59096   0.00712   0.00000   0.01385   0.01385   2.60481
   R15        2.06758   0.00562   0.00000   0.01609   0.01609   2.08367
   R16        2.06903   0.00697   0.00000   0.01999   0.01999   2.08902
   R17        2.60013   0.00665   0.00000   0.01317   0.01317   2.61330
   R18        2.06773   0.00602   0.00000   0.01572   0.01575   2.08348
   R19        2.06877   0.00741   0.00000   0.02123   0.02123   2.09000
   R20        4.35348   0.00056   0.00000   0.03858   0.03768   4.39117
   R21        4.06173  -0.00192   0.00000  -0.05231  -0.05250   4.00924
   R22        4.35489  -0.00002   0.00000   0.03068   0.03078   4.38567
   R23        4.21181   0.00069   0.00000   0.01056   0.01058   4.22239
   R24        2.65969   0.00515   0.00000   0.01189   0.01188   2.67157
   R25        1.82845   0.00396   0.00000   0.00763   0.00770   1.83614
   R26        2.92569  -0.00095   0.00000  -0.00378  -0.00378   2.92192
   R27        2.06595   0.00496   0.00000   0.01414   0.01414   2.08009
   R28        2.07257   0.00611   0.00000   0.01764   0.01764   2.09021
   R29        2.91703  -0.00134   0.00000  -0.00516  -0.00509   2.91195
   R30        2.89478  -0.00257   0.00000  -0.00861  -0.00861   2.88618
   R31        2.89635  -0.00255   0.00000  -0.00856  -0.00856   2.88779
   R32        2.65365   0.00358   0.00000   0.00734   0.00735   2.66100
   R33        2.07448   0.00546   0.00000   0.01581   0.01581   2.09029
   R34        2.06821   0.00636   0.00000   0.01822   0.01822   2.08642
   R35        1.84541   0.00109   0.00000   0.00141   0.00145   1.84685
   R36        2.60014   0.00665   0.00000   0.01317   0.01317   2.61331
   R37        2.06772   0.00510   0.00000   0.01460   0.01460   2.08231
   R38        2.06878   0.00741   0.00000   0.02123   0.02123   2.09001
   R39        2.59094   0.00713   0.00000   0.01388   0.01388   2.60481
   R40        2.06759   0.00562   0.00000   0.01608   0.01608   2.08367
   R41        2.06904   0.00697   0.00000   0.01999   0.01999   2.08903
    A1        1.84698   0.00093   0.00000   0.00774   0.00637   1.85335
    A2        1.97251  -0.00124   0.00000  -0.00210  -0.00323   1.96928
    A3        1.85919   0.00066   0.00000   0.01089   0.01126   1.87045
    A4        1.92665   0.00147   0.00000   0.00812   0.00857   1.93521
    A5        1.92020   0.00075   0.00000   0.00371   0.00380   1.92400
    A6        1.89202  -0.00061   0.00000  -0.00625  -0.00617   1.88584
    A7        1.89185  -0.00100   0.00000  -0.01476  -0.01465   1.87720
    A8        1.92524  -0.00015   0.00000   0.00119   0.00097   1.92621
    A9        1.90799  -0.00068   0.00000  -0.00447  -0.00417   1.90382
   A10        1.91034   0.00122   0.00000   0.01166   0.01145   1.92179
   A11        1.89651   0.00049   0.00000   0.00213   0.00206   1.89857
   A12        1.92796  -0.00050   0.00000  -0.00656  -0.00634   1.92162
   A13        1.89540  -0.00040   0.00000  -0.00414  -0.00416   1.89123
   A14        1.98928  -0.00085   0.00000  -0.00671  -0.00697   1.98230
   A15        1.89926   0.00119   0.00000   0.00729   0.00737   1.90662
   A16        1.89735  -0.00016   0.00000   0.00023   0.00029   1.89764
   A17        1.93547  -0.00029   0.00000  -0.00152  -0.00132   1.93415
   A18        1.84605   0.00099   0.00000   0.01024   0.01022   1.85628
   A19        1.89352  -0.00095   0.00000  -0.00997  -0.00999   1.88353
   A20        1.91690   0.00097   0.00000   0.01316   0.01319   1.93009
   A21        1.93403  -0.00204   0.00000  -0.00190  -0.00186   1.93217
   A22        1.93647  -0.00110   0.00000  -0.01103  -0.01132   1.92516
   A23        1.93969  -0.00228   0.00000  -0.01937  -0.01965   1.92005
   A24        1.86677   0.00288   0.00000   0.02765   0.02768   1.89446
   A25        1.86300   0.00318   0.00000   0.02695   0.02700   1.89000
   A26        1.92115  -0.00029   0.00000  -0.01931  -0.01990   1.90126
   A27        1.93003  -0.00222   0.00000  -0.01271  -0.01262   1.91742
   A28        1.94287   0.00022   0.00000  -0.01234  -0.01271   1.93015
   A29        1.93720  -0.00008   0.00000  -0.00575  -0.00571   1.93150
   A30        1.86544   0.00180   0.00000   0.02006   0.02013   1.88557
   A31        1.86150   0.00177   0.00000   0.02658   0.02651   1.88801
   A32        1.92379  -0.00138   0.00000  -0.01343  -0.01367   1.91013
   A33        2.35536   0.00073   0.00000   0.00215   0.00184   2.35720
   A34        1.96938   0.00027   0.00000  -0.00233  -0.00198   1.96740
   A35        1.91679   0.00151   0.00000   0.02540   0.02491   1.94171
   A36        1.98923  -0.00041   0.00000   0.00276   0.00220   1.99144
   A37        1.84608   0.00104   0.00000   0.00458   0.00477   1.85085
   A38        1.93546  -0.00061   0.00000  -0.00021  -0.00008   1.93538
   A39        1.89736  -0.00052   0.00000  -0.00544  -0.00514   1.89222
   A40        1.89927   0.00133   0.00000   0.00857   0.00853   1.90780
   A41        1.89352  -0.00091   0.00000  -0.01155  -0.01158   1.88194
   A42        1.92530   0.00060   0.00000   0.00666   0.00683   1.93213
   A43        1.92794   0.00059   0.00000   0.00683   0.00667   1.93461
   A44        1.89651  -0.00036   0.00000   0.00091   0.00100   1.89750
   A45        1.91030  -0.00090   0.00000  -0.01122  -0.01127   1.89903
   A46        1.90807   0.00008   0.00000   0.00036   0.00024   1.90831
   A47        1.89531  -0.00002   0.00000  -0.00365  -0.00363   1.89168
   A48        1.97257  -0.00161   0.00000  -0.01251  -0.01256   1.96001
   A49        1.89195   0.00081   0.00000   0.00969   0.00992   1.90186
   A50        1.92015  -0.00037   0.00000  -0.00771  -0.00787   1.91227
   A51        1.92672   0.00099   0.00000   0.01578   0.01562   1.94234
   A52        1.85916   0.00132   0.00000   0.00772   0.00782   1.86698
   A53        1.89186  -0.00116   0.00000  -0.01354  -0.01357   1.87829
   A54        1.06661  -0.00099   0.00000  -0.00016  -0.00014   1.06647
   A55        1.96973  -0.00011   0.00000  -0.02255  -0.02240   1.94733
   A56        2.06564  -0.00180   0.00000  -0.02326  -0.02410   2.04154
   A57        1.84699   0.00093   0.00000   0.00130   0.00101   1.84801
   A58        1.93008  -0.00306   0.00000  -0.00607  -0.00602   1.92406
   A59        1.94275  -0.00184   0.00000  -0.01653  -0.01684   1.92592
   A60        1.93719  -0.00153   0.00000  -0.01466  -0.01496   1.92223
   A61        1.86544   0.00364   0.00000   0.03064   0.03069   1.89613
   A62        1.86151   0.00347   0.00000   0.02981   0.02985   1.89135
   A63        1.92387  -0.00029   0.00000  -0.01972  -0.02034   1.90353
   A64        1.93404  -0.00203   0.00000  -0.00185  -0.00181   1.93222
   A65        1.93648  -0.00111   0.00000  -0.01108  -0.01136   1.92512
   A66        1.93966  -0.00228   0.00000  -0.01936  -0.01964   1.92002
   A67        1.86680   0.00288   0.00000   0.02766   0.02769   1.89448
   A68        1.86298   0.00317   0.00000   0.02694   0.02699   1.88997
   A69        1.92117  -0.00029   0.00000  -0.01931  -0.01990   1.90127
   A70        2.35650   0.00070   0.00000   0.00496   0.00390   2.36040
   A71        1.97044   0.00010   0.00000  -0.00944  -0.00904   1.96139
   A72        3.35529   0.00185   0.00000   0.03821   0.03837   3.39366
   A73        2.98968   0.00113   0.00000   0.03537   0.03468   3.02436
   A74        3.03634  -0.00110   0.00000  -0.02271  -0.02254   3.01381
   A75        3.10815  -0.00204   0.00000  -0.08321  -0.08432   3.02383
   A76        2.96924   0.00003   0.00000  -0.01630  -0.01617   2.95306
   A77        3.35184   0.00140   0.00000   0.04229   0.04264   3.39448
    D1       -0.91670   0.00177   0.00000   0.06247   0.06238  -0.85432
    D2       -3.02733   0.00113   0.00000   0.05180   0.05197  -2.97536
    D3        1.20547   0.00118   0.00000   0.05884   0.05836   1.26383
    D4       -0.34652  -0.00015   0.00000  -0.03359  -0.03336  -0.37988
    D5       -2.42126   0.00002   0.00000  -0.01193  -0.01230  -2.43356
    D6        1.86935   0.00060   0.00000   0.00011   0.00094   1.87028
    D7        1.09394   0.00018   0.00000  -0.01447  -0.01438   1.07956
    D8       -3.10488   0.00027   0.00000  -0.01391  -0.01385  -3.11873
    D9       -1.03085   0.00010   0.00000  -0.01468  -0.01462  -1.04547
   D10       -3.11361   0.00072   0.00000   0.00050   0.00042  -3.11319
   D11       -1.02924   0.00081   0.00000   0.00106   0.00095  -1.02829
   D12        1.04479   0.00064   0.00000   0.00029   0.00018   1.04497
   D13       -1.04762  -0.00042   0.00000  -0.01894  -0.01872  -1.06635
   D14        1.03675  -0.00033   0.00000  -0.01838  -0.01820   1.01855
   D15        3.11078  -0.00050   0.00000  -0.01915  -0.01896   3.09181
   D16       -0.94504  -0.00081   0.00000  -0.01035  -0.01003  -0.95507
   D17       -3.11499  -0.00074   0.00000  -0.00917  -0.00896  -3.12395
   D18        1.10904  -0.00019   0.00000  -0.00147  -0.00130   1.10774
   D19       -3.03636  -0.00019   0.00000  -0.00692  -0.00678  -3.04315
   D20        1.07687  -0.00012   0.00000  -0.00574  -0.00571   1.07116
   D21       -0.98228   0.00043   0.00000   0.00196   0.00194  -0.98034
   D22        1.16928   0.00030   0.00000   0.00073   0.00078   1.17006
   D23       -1.00067   0.00036   0.00000   0.00190   0.00185  -0.99882
   D24       -3.05983   0.00091   0.00000   0.00961   0.00950  -3.05032
   D25       -1.03327   0.00050   0.00000   0.00429   0.00431  -1.02896
   D26       -3.10434  -0.00107   0.00000  -0.02193  -0.02175  -3.12609
   D27        1.03515   0.00169   0.00000   0.02430   0.02415   1.05930
   D28        1.06876   0.00021   0.00000   0.00435   0.00423   1.07300
   D29       -1.00231  -0.00137   0.00000  -0.02187  -0.02182  -1.02413
   D30        3.13719   0.00139   0.00000   0.02437   0.02407  -3.12192
   D31       -3.11656  -0.00034   0.00000  -0.00475  -0.00464  -3.12120
   D32        1.09556  -0.00192   0.00000  -0.03097  -0.03070   1.06486
   D33       -1.04813   0.00084   0.00000   0.01526   0.01520  -1.03294
   D34       -3.06561   0.00025   0.00000  -0.00543  -0.00562  -3.07123
   D35        1.14665  -0.00069   0.00000  -0.01434  -0.01453   1.13213
   D36       -1.00320   0.00100   0.00000   0.01590   0.01567  -0.98754
   D37        1.09442  -0.00004   0.00000  -0.01032  -0.01022   1.08420
   D38       -0.97650  -0.00098   0.00000  -0.01923  -0.01913  -0.99563
   D39       -3.12635   0.00071   0.00000   0.01101   0.01106  -3.11529
   D40       -0.98379  -0.00009   0.00000  -0.00649  -0.00648  -0.99027
   D41       -3.05471  -0.00104   0.00000  -0.01540  -0.01539  -3.07010
   D42        1.07861   0.00065   0.00000   0.01484   0.01480   1.09342
   D43       -1.23930  -0.00060   0.00000  -0.01544  -0.01547  -1.25477
   D44        0.91109   0.00012   0.00000  -0.01199  -0.01195   0.89913
   D45        2.96051  -0.00058   0.00000  -0.01872  -0.01863   2.94188
   D46        2.08614   0.00060   0.00000   0.00993   0.00987   2.09602
   D47        2.33606   0.00042   0.00000  -0.00459  -0.00479   2.33128
   D48        0.71697   0.00017   0.00000  -0.00199  -0.00170   0.71527
   D49       -2.64653  -0.00129   0.00000  -0.04481  -0.04443  -2.69096
   D50       -0.46244  -0.00137   0.00000  -0.07127  -0.07104  -0.53349
   D51       -1.33380   0.00191   0.00000   0.01653   0.01656  -1.31724
   D52        1.58589   0.00045   0.00000  -0.02629  -0.02617   1.55972
   D53       -2.51322   0.00037   0.00000  -0.05274  -0.05278  -2.56600
   D54        2.83768   0.00002   0.00000  -0.00930  -0.00938   2.82830
   D55       -0.52581  -0.00144   0.00000  -0.05212  -0.05211  -0.57792
   D56        1.65827  -0.00152   0.00000  -0.07858  -0.07872   1.57955
   D57       -1.61793   0.00137   0.00000   0.02761   0.02744  -1.59049
   D58       -1.23947  -0.00122   0.00000  -0.03673  -0.03631  -1.27578
   D59        2.96034  -0.00104   0.00000  -0.03466  -0.03442   2.92592
   D60        0.91090  -0.00025   0.00000  -0.02347  -0.02336   0.88754
   D61        2.08499   0.00028   0.00000   0.03119   0.03186   2.11685
   D62        2.33533  -0.00044   0.00000  -0.00835  -0.00934   2.32598
   D63       -0.94452  -0.00021   0.00000   0.01635   0.01628  -0.92824
   D64        1.16978  -0.00056   0.00000   0.01117   0.01106   1.18084
   D65       -3.03598  -0.00045   0.00000   0.01133   0.01121  -3.02476
   D66        1.10958   0.00049   0.00000   0.02010   0.02012   1.12969
   D67       -3.05931   0.00015   0.00000   0.01493   0.01490  -3.04441
   D68       -0.98188   0.00025   0.00000   0.01509   0.01506  -0.96682
   D69       -3.11443  -0.00014   0.00000   0.00803   0.00812  -3.10631
   D70       -1.00013  -0.00049   0.00000   0.00286   0.00291  -0.99722
   D71        1.07730  -0.00038   0.00000   0.00301   0.00306   1.08036
   D72        1.09432   0.00004   0.00000  -0.01345  -0.01380   1.08053
   D73       -1.04733  -0.00073   0.00000  -0.03218  -0.03240  -1.07973
   D74       -3.11326   0.00041   0.00000  -0.01711  -0.01731  -3.13057
   D75       -1.03046  -0.00049   0.00000  -0.01892  -0.01908  -1.04954
   D76        3.11108  -0.00126   0.00000  -0.03765  -0.03769   3.07339
   D77        1.04515  -0.00013   0.00000  -0.02259  -0.02259   1.02255
   D78       -3.10440   0.00001   0.00000  -0.00803  -0.00821  -3.11261
   D79        1.03713  -0.00075   0.00000  -0.02676  -0.02681   1.01032
   D80       -1.02880   0.00038   0.00000  -0.01170  -0.01172  -1.04052
   D81        1.09393  -0.00055   0.00000  -0.03464  -0.03464   1.05929
   D82       -0.97695  -0.00192   0.00000  -0.05841  -0.05824  -1.03519
   D83       -3.12682   0.00086   0.00000  -0.01069  -0.01087  -3.13769
   D84       -3.06606  -0.00001   0.00000  -0.02928  -0.02927  -3.09533
   D85        1.14624  -0.00139   0.00000  -0.05306  -0.05286   1.09338
   D86       -1.00363   0.00140   0.00000  -0.00534  -0.00550  -1.00913
   D87       -0.98423  -0.00044   0.00000  -0.03756  -0.03757  -1.02180
   D88       -3.05511  -0.00182   0.00000  -0.06133  -0.06117  -3.11627
   D89        1.07821   0.00096   0.00000  -0.01361  -0.01380   1.06441
   D90        1.06819   0.00015   0.00000   0.00225   0.00237   1.07056
   D91       -1.00292  -0.00143   0.00000  -0.02397  -0.02369  -1.02661
   D92        3.13657   0.00133   0.00000   0.02229   0.02223  -3.12438
   D93       -1.03397  -0.00041   0.00000  -0.00662  -0.00671  -1.04067
   D94       -3.10507  -0.00199   0.00000  -0.03285  -0.03277  -3.13784
   D95        1.03442   0.00077   0.00000   0.01341   0.01315   1.04757
   D96       -3.11720   0.00064   0.00000   0.00889   0.00887  -3.10833
   D97        1.09488  -0.00094   0.00000  -0.01733  -0.01719   1.07768
   D98       -1.04882   0.00182   0.00000   0.02893   0.02873  -1.02009
   D99        1.36747  -0.00162   0.00000  -0.05463  -0.05487   1.31260
   D100      -0.91770   0.00008   0.00000  -0.00841  -0.00871  -0.92640
   D101      -2.79355  -0.00098   0.00000  -0.03937  -0.03953  -2.83308
   D102       1.20447   0.00072   0.00000   0.00685   0.00663   1.21111
   D103      -0.74312  -0.00108   0.00000  -0.04274  -0.04283  -0.78595
   D104      -3.02829   0.00062   0.00000   0.00348   0.00334  -3.02495
         Item               Value     Threshold  Converged?
 Maximum Force            0.007406     0.000015     NO 
 RMS     Force            0.002298     0.000010     NO 
 Maximum Displacement     0.259158     0.000060     NO 
 RMS     Displacement     0.058069     0.000040     NO 
 GradGradGradGradGradGradGradGradGradGradGradGradGradGradGradGradGradGrad

                    Distance matrix (angstroms):
                    1          2          3          4          5
     1  O    0.000000
     2  C    1.408139   0.000000
     3  C    2.459720   1.543088   0.000000
     4  C    2.985155   2.535382   1.545191   0.000000
     5  O    2.675623   2.935281   2.476488   1.413533   0.000000
     6  C    3.771038   2.501622   1.528155   2.498644   3.778295
     7  F    4.180275   2.863548   2.392644   2.883785   4.156811
     8  C    2.951766   2.517436   1.528047   2.519016   3.038787
     9  F    4.247264   3.734188   2.383925   2.903008   3.597031
    10  H    0.977312   1.924940   2.519095   2.496261   1.839936
    11  H    2.029716   1.104091   2.186047   3.498097   3.967130
    12  H    2.077651   1.106128   2.159263   2.757782   3.254378
    13  H    3.983228   3.491493   2.176585   1.106089   2.081553
    14  H    3.381580   2.786431   2.165964   1.100741   2.021403
    15  H    2.951345   3.368343   2.768484   1.976858   0.971629
    16  H    4.612402   3.470595   2.172648   2.726925   4.078897
    17  H    4.051289   2.745001   2.171048   3.469343   4.624367
    18  H    2.679904   2.806958   2.176105   2.743785   2.709681
    19  H    3.265092   2.741555   2.179682   3.489731   4.030028
    20  O    2.888558   4.284617   5.023982   5.140214   4.103038
    21  C    3.862353   5.161475   5.803569   6.104868   5.144690
    22  C    4.004357   5.066764   5.380063   5.824475   5.046725
    23  C    4.148207   5.121621   5.044827   5.166405   4.294498
    24  O    3.184449   4.111425   3.948653   3.848222   2.891959
    25  C    3.414149   4.179852   4.547829   5.361903   4.930498
    26  F    4.038838   4.753175   5.415347   6.393226   6.029316
    27  C    5.485466   6.488300   6.758220   7.263800   6.513660
    28  F    6.320043   7.442957   7.675113   7.955577   7.025276
    29  H    2.116426   3.492153   4.425247   4.738153   3.901478
    30  H    4.768372   6.107401   6.666206   6.786523   5.685070
    31  H    4.234479   5.474365   6.314266   6.797243   5.948235
    32  H    4.982792   6.051831   5.981955   5.906420   4.872924
    33  H    4.710978   5.454737   5.130923   5.349876   4.693589
    34  H    2.843354   4.002548   4.150725   3.978978   2.841175
    35  H    2.343607   3.089603   3.552565   4.392181   4.033596
    36  H    4.075081   4.577552   4.631628   5.520875   5.262215
    37  H    5.786705   6.780103   7.241404   7.887067   7.189596
    38  H    5.925976   6.757439   6.826422   7.400076   6.788635
                    6          7          8          9         10
     6  C    0.000000
     7  F    1.378405   0.000000
     8  C    2.478144   3.706604   0.000000
     9  F    2.805774   4.091515   1.382900   0.000000
    10  H    3.939157   4.284001   3.094249   4.214688   0.000000
    11  H    2.737255   3.211078   2.764831   4.018236   2.823607
    12  H    2.699684   2.486420   3.463133   4.530553   2.380717
    13  H    2.739347   3.268537   2.730545   2.546580   3.492440
    14  H    2.686138   2.501898   3.464069   3.863124   2.895662
    15  H    4.142424   4.774269   2.806311   3.248932   2.209287
    16  H    1.102631   2.020533   2.727818   2.475399   4.642492
    17  H    1.105463   2.019504   2.709250   3.146049   4.453210
    18  H    3.449809   4.548285   1.102531   2.017938   2.687376
    19  H    2.748435   4.015535   1.105981   2.022313   3.694761
    20  O    6.490085   7.015662   4.893576   6.016559   2.839539
    21  C    7.236642   7.941105   5.328627   6.386437   3.980599
    22  C    6.746620   7.675614   4.533042   5.426721   4.170918
    23  C    6.455433   7.425258   4.130084   4.737802   3.999429
    24  O    5.423344   6.278159   3.318936   3.986806   2.815738
    25  C    5.742623   6.729063   3.646329   4.676177   3.879377
    26  F    6.468718   7.363625   4.667059   5.778624   4.698531
    27  C    8.048519   9.057350   5.746191   6.498330   5.697246
    28  F    9.048422  10.015066   6.718428   7.384718   6.364475
    29  H    5.819450   6.296351   4.431172   5.672438   2.323705
    30  H    8.141992   8.833217   6.175773   7.128328   4.726786
    31  H    7.659719   8.324194   5.882393   7.033076   4.554546
    32  H    7.423751   8.339914   5.142981   5.655297   4.709959
    33  H    6.408079   7.516248   3.958824   4.313475   4.618220
    34  H    5.675539   6.360390   3.828916   4.674909   2.403524
    35  H    4.798302   5.702677   2.885325   4.091398   2.871331
    36  H    5.680045   6.820127   3.439181   4.229315   4.504029
    37  H    8.475496   9.438906   6.303067   7.172547   6.139534
    38  H    8.013716   9.135286   5.627987   6.199637   6.151722
                   11         12         13         14         15
    11  H    0.000000
    12  H    1.783054   0.000000
    13  H    4.335893   3.765846   0.000000
    14  H    3.781544   2.550973   1.784438   0.000000
    15  H    4.271470   3.927644   2.311051   2.844464   0.000000
    16  H    3.758281   3.711617   2.502095   3.007359   4.326082
    17  H    2.515853   3.060181   3.747192   3.714463   4.897872
    18  H    3.179975   3.810947   3.040177   3.771656   2.216377
    19  H    2.526644   3.740097   3.758983   4.317650   3.819331
    20  O    4.674592   4.887532   5.944617   5.681956   3.901744
    21  C    5.336918   5.923701   6.798653   6.786610   4.742452
    22  C    5.150088   6.018462   6.334857   6.687191   4.443196
    23  C    5.453783   6.060984   5.479980   6.114422   3.500798
    24  O    4.667938   4.958658   4.223733   4.760489   2.121596
    25  C    4.006391   5.208155   5.908094   6.211974   4.451783
    26  F    4.323769   5.691407   7.036767   7.134619   5.673946
    27  C    6.443728   7.469034   7.688008   8.167808   5.838960
    28  F    7.537578   8.368949   8.342011   8.845660   6.307330
    29  H    3.799658   4.082041   5.633461   5.217807   3.848718
    30  H    6.371852   6.826503   7.421407   7.465923   5.224674
    31  H    5.463900   6.199072   7.561610   7.418764   5.635861
    32  H    6.458751   6.922937   6.179172   6.813129   4.066804
    33  H    5.702431   6.464446   5.479814   6.385827   3.817404
    34  H    4.619475   4.726547   4.549402   4.730798   2.320797
    35  H    3.010840   4.113287   5.040426   5.180448   3.700074
    36  H    4.341724   5.667476   5.887095   6.462463   4.683309
    37  H    6.594488   7.728457   8.402011   8.733042   6.606820
    38  H    6.657648   7.803118   7.692751   8.377441   6.039647
                   16         17         18         19         20
    16  H    0.000000
    17  H    1.796907   0.000000
    18  H    3.723556   3.743878   0.000000
    19  H    3.121516   2.512144   1.802920   0.000000
    20  O    7.164351   6.755633   4.018222   5.189751   0.000000
    21  C    7.858637   7.360433   4.389179   5.441694   1.413735
    22  C    7.226960   6.800416   3.571894   4.562178   2.484883
    23  C    6.743975   6.709457   3.047820   4.475874   2.938258
    24  O    5.724338   5.846520   2.234393   3.936589   2.672973
    25  C    6.292003   5.608219   2.942853   3.378828   3.068387
    26  F    7.139991   6.154572   4.145648   4.169047   3.609937
    27  C    8.472738   8.001164   4.834466   5.631591   3.781904
    28  F    9.428106   9.115268   5.712708   6.760933   4.149828
    29  H    6.587142   6.013241   3.712509   4.631904   0.971646
    30  H    8.706096   8.339154   5.165087   6.380996   2.017554
    31  H    8.373042   7.652115   5.055293   5.816606   2.082594
    32  H    7.676025   7.747115   4.047779   5.559618   3.265151
    33  H    6.556839   6.602709   2.973866   4.233691   3.967030
    34  H    6.111969   6.121434   2.815753   4.422134   1.855642
    35  H    5.429447   4.741617   2.254217   2.736489   2.762128
    36  H    6.078377   5.476381   2.850943   3.048203   4.062224
    37  H    8.995310   8.318650   5.480491   6.039985   4.085476
    38  H    8.327942   7.914199   4.792522   5.443620   4.630697
                   21         22         23         24         25
    21  C    0.000000
    22  C    1.546211   0.000000
    23  C    2.539663   1.540937   0.000000
    24  O    2.981459   2.450324   1.408139   0.000000
    25  C    2.530627   1.527298   2.494899   2.916227   0.000000
    26  F    2.910135   2.388825   3.722220   4.207240   1.382906
    27  C    2.498525   1.528154   2.503855   3.767661   2.477939
    28  F    2.881807   2.392689   2.874119   4.188767   3.706054
    29  H    1.984576   2.795711   3.380551   2.942219   2.863242
    30  H    1.100734   2.162812   2.798276   3.396117   3.469332
    31  H    1.106090   2.178358   3.494325   3.972235   2.745741
    32  H    2.783456   2.169358   1.106135   2.082636   3.453679
    33  H    3.495974   2.175541   1.104088   2.027173   2.716483
    34  H    2.508638   2.532821   1.921262   0.977312   3.117773
    35  H    2.772427   2.171907   2.757677   2.606481   1.101912
    36  H    3.494299   2.172281   2.715791   3.242527   1.105985
    37  H    2.727495   2.172618   3.471594   4.604853   2.734005
    38  H    3.469584   2.171033   2.743010   4.045974   2.703169
                   26         27         28         29         30
    26  F    0.000000
    27  C    2.830456   0.000000
    28  F    4.116104   1.378407   0.000000
    29  H    3.278820   4.168353   4.786042   0.000000
    30  H    3.869973   2.674670   2.487854   2.845392   0.000000
    31  H    2.558821   2.744561   3.273416   2.318035   1.783403
    32  H    4.540497   2.713143   2.510643   3.944362   2.588012
    33  H    3.985782   2.735793   3.228895   4.280145   3.790494
    34  H    4.228089   3.946408   4.280007   2.231295   2.904503
    35  H    2.025030   3.448126   4.545018   2.304104   3.792775
    36  H    2.024721   2.726287   3.992635   3.885507   4.310894
    37  H    2.509947   1.102629   2.020552   4.355055   2.995103
    38  H    3.168634   1.105467   2.019488   4.929471   3.703908
                   31         32         33         34         35
    31  H    0.000000
    32  H    3.794341   0.000000
    33  H    4.329529   1.783768   0.000000
    34  H    3.506484   2.361899   2.821706   0.000000
    35  H    3.082287   3.779035   3.096576   2.701405   0.000000
    36  H    3.765198   3.713459   2.467615   3.726059   1.798201
    37  H    2.508673   3.729494   3.750993   4.654844   3.739232
    38  H    3.752184   3.059442   2.509653   4.460323   3.727545
                   36         37         38
    36  H    0.000000
    37  H    3.104607   0.000000
    38  H    2.481092   1.796915   0.000000
 Framework group  C1[X(C10H20F4O4)]
 Deg. of freedom   108
                         Standard orientation:                         
 ---------------------------------------------------------------------
 Center     Atomic      Atomic             Coordinates (Angstroms)
 Number     Number       Type             X           Y           Z
 ---------------------------------------------------------------------
      1          8           0       -0.903819    1.080466   -1.187234
      2          6           0       -2.139909    0.430711   -1.368219
      3          6           0       -2.684683   -0.193167   -0.066252
      4          6           0       -2.936826    0.904601    0.991551
      5          8           0       -1.804176    1.708949    1.252709
      6          6           0       -4.005792   -0.900395   -0.365845
      7          9           0       -4.926652   -0.014379   -0.882558
      8          6           0       -1.697363   -1.226529    0.474386
      9          9           0       -2.230182   -1.846841    1.589613
[...]
 -0.00162898,0.00169541,-0.02975679,-0.03085025,-0.06029706,0.06683416,
 0.04512544,0.00066737,0.00008318,-0.00009070,-0.00038436,0.00025236,0.
 00008397,-0.00024677,-0.00013654,0.00024617,-0.00004561,0.00012918,0.0
 0021659,0.00472088,-0.00267032,-0.00004505,-0.00030195,0.00019384,0.00
 026856,0.00023063,-0.00030642,0.00050434,-0.00098031,-0.00092116,-0.00
 027940,-0.00522913,-0.00047441,-0.00297354,0.07539649,0.00317596,-0.00
 093117,-0.00194488,-0.00167980,0.00007651,0.00159539,-0.00001613,0.000
 27953,0.00011901,0.00064212,0.00026920,-0.00092901,-0.00160554,-0.0019
 7778,0.00057683,0.00016633,-0.00016172,-0.00003007,-0.00014364,-0.0001
 8472,-0.00006975,0.00041662,0.00011996,0.00031149,-0.00014550,-0.00035
 157,-0.00003196,-0.00355499,0.00114346,-0.00030424,0.00015011,0.000000
 69,-0.00013923,0.00043840,0.00000717,-0.00017496,0.00000925,-0.0000682
 5,0.00012327,-0.00022559,-0.00003477,0.00008341,0.00412099,0.00054116,
 -0.00050523,0.00015181,-0.00000903,-0.00005049,-0.00005910,-0.00002427
 ,0.00005380,0.00055261,0.00058811,-0.00095332,-0.00022705,-0.00011248,
 0.00021466,-0.01178886,0.00253814,-0.00228841,0.01360308,0.00337278,0.
 00809813,-0.00026960,0.00200134,0.00146174,-0.00728942,0.00137760,-0.0
 0675048,0.03806293,-0.24422427,-0.20495644,0.00025130,0.00049836,0.000
 12681,0.00012568,-0.00093843,-0.00015393,0.00088033,-0.00098594,-0.000
 67924,-0.00012299,-0.00070103,0.00020536,-0.00249318,-0.00624241,0.000
 56081,-0.00102252,-0.00026761,-0.00025221,-0.00212304,-0.00029082,-0.0
 0216223,0.00182019,-0.00022151,0.00011247,0.00202420,0.00112980,0.0033
 1551,-0.03340233,0.24402704,-0.00045289,-0.00108693,-0.00109748,0.0003
 6859,0.00006986,-0.00038114,0.00008958,0.00005121,0.00010524,0.0000054
 3,-0.00031580,0.00008321,-0.00012439,0.00024727,-0.00151840,0.00021704
 ,0.00008946,-0.00004495,-0.00026440,-0.00010476,-0.00011531,0.00072354
 ,-0.00001644,-0.00024404,-0.00043801,0.00026365,0.00020368,0.00006601,
 0.00029984,0.00242843,0.00001871,0.00002695,-0.00000043,-0.00018772,-0
 .00006011,0.00002564,0.00011847,0.00002183,-0.00003744,-0.00006479,-0.
 00000574,-0.00002367,0.00136287,-0.00020267,0.00236304,-0.00000431,0.0
 0000464,0.00001182,0.00001467,0.00000944,-0.00001264,0.00031862,-0.000
 22437,-0.00060447,-0.00011947,-0.00003328,0.00003514,-0.00094177,-0.00
 134843,-0.00850237,0.00054842,0.00474745,0.00307748,0.00136171,0.00007
 531,0.00098349,-0.00575766,-0.01872112,-0.02127505,0.01691907,-0.19107
 155,-0.19359362,-0.00041818,0.00111791,-0.00145183,0.00057505,-0.00114
 747,0.00061130,-0.00063624,-0.00165316,0.00022753,0.00059456,0.0002182
 1,-0.00046999,-0.00197880,0.00242060,0.00110913,0.00014868,-0.00025462
 ,-0.00023578,-0.00090180,-0.00038916,-0.00107549,0.00145981,0.00061847
 ,0.00112035,-0.00362237,0.00004033,-0.00058482,-0.00983094,0.20555367,
 0.21880706,-0.00159943,-0.00029776,-0.00012470,-0.00167550,-0.00028500
 ,-0.00027464,-0.00002515,0.00003362,-0.00001153,0.00003455,0.00008062,
 -0.00010175,-0.00006771,-0.00030612,0.00008913,-0.00004001,-0.00009886
 ,0.00004391,0.00006441,0.00000834,-0.00000054,-0.00153206,0.00154093,0
 .00035096,-0.00024770,-0.00014924,-0.00008244,0.00012559,0.00055329,-0
 .00031696,0.00004965,-0.00014681,0.00007544,0.00018387,-0.00003026,0.0
 0007704,0.00001209,-0.00003672,0.00001695,-0.00000347,-0.00000223,0.00
 001613,0.00022119,0.00011847,-0.00000100,0.00004838,-0.00000587,-0.000
 02356,-0.00000216,0.00001375,-0.00000332,-0.00104061,0.00144438,0.0003
 0955,0.00001883,0.00012458,0.00013153,0.00076738,0.00008583,-0.0000464
 2,-0.00052038,-0.00029989,-0.00150647,-0.01709826,-0.00643907,-0.00813
 746,-0.00091456,0.00011479,-0.00022783,0.00070315,0.00118108,-0.000460
 89,-0.25445052,-0.05240069,-0.10524613,-0.00794428,0.00745219,-0.00777
 507,0.00028250,-0.00103111,0.00335624,-0.00142874,-0.00048013,-0.00011
 091,0.00124414,0.00061760,0.00112406,0.00008572,-0.00006351,-0.0002694
 2,-0.00002356,0.00009986,0.00010454,0.00005006,-0.00002002,0.00002935,
 -0.00001735,-0.00008081,0.00010500,0.00019872,-0.00029027,0.00023383,0
 .27575674,-0.00012142,-0.00119968,0.00007664,-0.00074363,0.00019800,0.
 00000668,-0.00009187,0.00010701,0.00029820,-0.00003633,-0.00011762,0.0
 0001409,0.00000737,-0.00017001,-0.00012696,0.00014207,-0.00001620,-0.0
 0008661,-0.00016901,-0.00009397,-0.00005964,0.00134109,-0.00002907,-0.
 00057560,-0.00049869,0.00036332,0.00024900,0.00043386,0.00058471,0.000
 22777,-0.00006806,-0.00000729,0.00005611,0.00007626,-0.00007418,-0.000
 05655,0.00001413,-0.00002076,0.00002273,-0.00002257,0.00001547,-0.0000
 4610,0.00008927,-0.00006107,0.00015664,0.00002994,0.00000371,0.0000032
 5,0.00000348,0.00000206,0.00001631,0.00144522,-0.00169471,-0.00015178,
 -0.00000300,0.00001526,-0.00005002,0.00047313,-0.00012143,0.00010952,0
 .00059858,0.00014904,-0.00052243,-0.01170378,-0.00057294,-0.00765861,-
 0.00088012,0.00030448,-0.00073235,0.00098784,-0.00018194,0.00050196,-0
 .06170033,-0.06766849,-0.03612094,0.03940081,-0.00610532,0.02393524,-0
 .00018427,-0.00092268,0.00260296,-0.00172704,-0.00034284,0.00026171,0.
 00051395,0.00031249,-0.00101367,-0.00004097,-0.00008709,-0.00012874,-0
 .00012668,0.00006700,0.00021922,0.00007371,0.00018272,-0.00003741,0.00
 005894,0.00003273,0.00009671,-0.00020145,0.00004812,0.00060909,0.04778
 981,0.07749176,0.00054028,-0.00038937,-0.00053531,-0.00143214,-0.00009
 213,0.00165124,0.00005033,0.00017498,-0.00015682,-0.00040724,-0.000072
 32,0.00016744,0.00039040,-0.00046269,-0.00008453,0.00010795,-0.0000983
 7,0.00000188,-0.00012983,-0.00010208,-0.00011403,0.00046601,-0.0003797
 5,0.00016699,-0.00057364,0.00044742,-0.00006932,-0.00009782,0.00095670
 ,-0.00060118,0.00024613,0.00014301,-0.00019846,0.00052020,0.00002880,-
 0.00027293,0.00005795,-0.00003640,-0.00001527,-0.00001378,0.00005153,-
 0.00007233,0.00001408,0.00012376,0.00006308,0.00008340,-0.00000320,-0.
 00002409,0.00000780,0.00002285,-0.00001714,-0.00030586,0.00014410,0.00
 117325,0.00040863,0.00016782,-0.00040705,-0.00118686,-0.00044501,-0.00
 058345,0.00104528,0.00005595,0.00140039,0.02108354,0.00493213,0.012662
 47,0.00010500,-0.00067885,0.00103745,-0.00059878,0.00048455,-0.0013649
 0,-0.10723661,-0.03066799,-0.11289181,-0.01079174,0.00549962,-0.002774
 03,-0.00014650,0.00141834,-0.00420081,0.00267756,0.00095632,0.00002356
 ,0.00109571,-0.00126987,-0.00306372,-0.00015750,0.00009076,0.00016875,
 -0.00005599,-0.00013270,-0.00018968,-0.00002401,-0.00009897,-0.0000243
 5,-0.00012243,0.00008879,-0.00010459,0.00016719,0.00081923,-0.00040773
 ,0.11463393,0.02458510,0.11771377,-0.00122559,-0.00007720,-0.00075648,
 0.00061428,-0.00000282,-0.00043694,0.00006553,-0.00014549,-0.00000900,
 0.00017620,0.00008159,-0.00004995,-0.00015646,0.00013480,0.00005082,-0
 .00008118,0.00002601,0.00001395,0.00009432,0.00005845,0.00005881,-0.00
 021361,0.00015136,-0.00023347,0.00020605,-0.00017597,0.00006321,-0.000
 02349,-0.00022735,0.00011883,0.00002206,-0.00002390,0.00004243,-0.0001
 2677,0.00000533,0.00007201,-0.00002452,0.00001668,-0.00000596,0.000002
 60,-0.00002428,0.00004172,0.00003722,-0.00003080,-0.00002122,-0.000031
 30,0.00000079,0.00000660,-0.00000386,-0.00001480,0.00000580,0.00001886
 ,-0.00000188,-0.00040861,-0.00019892,-0.00018709,0.00018580,0.00116631
 ,0.00017000,-0.00014058,-0.00357558,-0.00305102,0.00112331,-0.00260719
 ,0.01162054,0.01923008,0.00053331,0.00101214,-0.00052720,-0.00014019,0
 .00010125,0.00009130,-0.06130424,0.01729512,0.02675791,-0.00210835,0.0
 1637698,0.00911090,0.00029165,0.00138261,0.00191226,0.00055487,-0.0000
 2664,-0.00073067,-0.00016169,0.00016891,0.00071565,-0.00011585,0.00079
 568,0.00093810,0.00009009,-0.00001511,-0.00020454,-0.00004111,-0.00002
 819,-0.00031896,0.00031164,-0.00046382,-0.00024014,-0.00017112,-0.0000
 6224,0.00009370,0.00856203,-0.01532381,-0.02047386,0.06007887,-0.00044
 011,0.00004640,-0.00024709,0.00029588,-0.00002037,-0.00017317,0.000078
 64,-0.00013879,-0.00001721,0.00010976,0.00006639,-0.00004925,-0.000106
 98,0.00004545,0.00004811,-0.00006503,0.00000080,0.00000037,0.00007494,
 0.00004622,0.00005014,0.00007505,0.00023114,0.00000936,0.00010248,-0.0
 0013935,0.00004776,-0.00001102,-0.00011198,0.00003288,0.00001898,-0.00
 002106,0.00000226,-0.00004143,0.00001024,0.00003455,-0.00001483,0.0000
 0910,-0.00000442,0.00000298,-0.00001679,0.00003057,0.00004926,-0.00000
 620,-0.00002144,-0.00001667,0.00000186,0.00000148,-0.00000327,-0.00001
 309,0.00000389,0.00012499,0.00001557,-0.00016665,-0.00018660,-0.000094
 74,0.00010286,0.00009753,0.00006891,-0.00016159,-0.00248895,-0.0016165
 9,0.00177718,-0.00248473,0.00905570,0.01072779,-0.00019264,0.00145431,
 0.00073543,-0.00000438,-0.00004513,-0.00031015,0.01918016,-0.12849846,
 -0.11565920,0.01406273,-0.03490768,-0.01607878,-0.00014576,0.00020001,
 0.00057184,0.00029589,0.00016396,-0.00012700,0.00001598,-0.00011726,0.
 00014939,-0.00013966,0.00063966,0.00069620,-0.00018149,0.00009492,0.00
 008529,-0.00005611,0.00019296,-0.00008343,-0.00008543,-0.00039177,-0.0
 0003218,-0.00006582,0.00004356,0.00005016,0.00124656,-0.00054727,-0.00
 629225,-0.02891390,0.15435437,-0.00098387,0.00001190,-0.00010334,0.000
 49348,-0.00001753,-0.00041015,0.00013213,-0.00016955,-0.00008275,0.000
 17990,0.00008961,-0.00008361,-0.00018073,0.00010727,0.00010570,-0.0000
 9769,0.00001109,0.00004343,0.00012722,0.00007668,0.00006824,-0.0001429
 3,0.00012721,0.00009244,0.00020266,-0.00008670,0.00003321,0.00010698,-
 0.00021509,0.00003466,-0.00000230,-0.00002346,0.00003105,-0.00009910,0
 .00001564,0.00006599,-0.00003206,0.00001812,-0.00000323,0.00000388,-0.
 00002107,0.00004646,0.00005357,-0.00002984,-0.00007365,-0.00003369,0.0
 0000094,0.00000420,-0.00000725,-0.00001183,0.00000237,-0.00013114,0.00
 005116,-0.00040742,-0.00018634,-0.00010351,0.00013918,-0.00051314,0.00
 016639,0.00006494,0.00387762,0.00357636,-0.00117534,0.00253661,-0.0120
 6870,-0.01592583,0.00042213,-0.00177853,-0.00012074,-0.00030146,0.0008
 2737,0.00035685,0.03026258,-0.12245215,-0.22599832,-0.00377628,0.01387
 494,0.01717852,-0.00136443,-0.00049175,-0.00001639,-0.00024295,0.00029
 112,0.00044824,0.00027523,0.00029552,0.00047358,0.00008233,-0.00091152
 ,-0.00113409,-0.00014669,0.00001233,0.00017291,-0.00006500,0.00027516,
 0.00038510,-0.00014182,0.00120031,0.00010794,0.00024097,-0.00070128,0.
 00013134,0.00422501,-0.00684594,-0.00829184,-0.03556055,0.12445724,0.2
 3326866,0.00002409,-0.00013269,0.00006157,-0.00000078,0.00004509,-0.00
 002374,-0.00003064,0.00000345,0.00003349,0.00011813,0.00002601,-0.0001
 1585,-0.00026939,-0.00012212,0.00002218,0.00002929,0.00000801,-0.00001
 421,-0.00002480,-0.00001835,0.00000043,0.00005498,0.00003138,-0.000039
 38,-0.00001812,-0.00002205,0.00002453,0.00004345,0.00015178,0.00000473
 ,-0.00000749,-0.00001103,0.00001804,-0.00000304,-0.00000580,0.00000071
 ,-0.00000679,-0.00000136,0.00001826,-0.00002394,-0.00000812,0.00001158
 ,0.00038253,0.00002927,0.00004001,0.00000463,0.00000035,-0.00000126,-0
 .00000625,-0.00000715,0.00000844,0.00004840,0.00003017,-0.00008332,-0.
 00003131,-0.00001676,0.00003364,0.00048720,-0.00058293,0.00033790,0.00
 030478,0.00099713,0.00097530,-0.00988426,0.02529175,-0.00832997,-0.003
 49036,-0.00411878,-0.00152633,-0.00215190,0.00151573,-0.00181386,-0.00
 055554,0.00311223,-0.00121142,0.00071586,-0.00254990,0.00108736,-0.096
 14745,0.10013526,-0.03344690,0.00557523,-0.03203738,0.01730325,-0.0000
 8634,0.00013810,0.00000891,-0.00001051,-0.00015525,-0.00017063,0.00016
 549,-0.00083867,-0.00073030,0.00016123,0.00005740,-0.00004695,0.000070
 43,-0.00018494,0.00015966,-0.00000166,0.00054287,0.00055792,0.00018431
 ,-0.00015859,0.00003234,0.00002257,-0.00029682,0.00005619,0.10291494,0
 .00004230,0.00002270,-0.00000874,-0.00003135,-0.00001499,0.00002074,0.
 00000841,0.00000314,-0.00001485,-0.00002188,-0.00000461,0.00001373,0.0
 0003323,0.00000560,-0.00000658,-0.00001664,-0.00000905,0.00000735,0.00
 001524,0.00000755,0.00000136,-0.00002533,-0.00001062,0.00001517,0.0000
 1551,0.00000273,-0.00000653,-0.00001372,-0.00000916,-0.00000470,-0.000
 00107,-0.00000008,-0.00000511,0.00000634,0.00000210,0.00000051,0.00000
 034,-0.00000049,-0.00000328,0.00000244,0.00000171,0.00000074,-0.000024
 85,0.00000160,-0.00000776,0.00000034,-0.00000069,-0.00000009,0.0000002
 6,0.00000250,-0.00000162,-0.00000594,0.00000371,0.00000328,0.00000081,
 0.00000186,-0.00000095,0.00012729,0.00017521,0.00004917,-0.00066633,0.
 00072873,-0.00063810,-0.00106362,0.00625328,-0.00260192,-0.00106040,-0
 .00036195,-0.00062564,-0.00027858,0.00058437,-0.00008998,0.00108540,-0
 .00054982,0.00103934,-0.00276213,-0.00073055,-0.00002829,0.09427388,-0
 .25568396,0.06452687,-0.00536675,-0.01118687,0.01209014,-0.00001175,-0
 .00003980,0.00001852,0.00009194,-0.00009859,-0.00011304,-0.00002751,0.
 00004668,0.00016171,-0.00006650,0.00008557,-0.00020764,-0.00014216,0.0
 0017409,0.00003845,0.00004827,-0.00008608,0.00006684,0.00007432,0.0000
 7980,-0.00016676,0.00000897,-0.00003063,0.00008335,-0.09287226,0.27346
 372,0.00003430,-0.00004635,-0.00004349,-0.00000129,0.00000346,0.000015
 26,0.00000088,0.00000406,0.00000324,0.00002902,0.00000260,-0.00002905,
 -0.00007304,-0.00003532,0.00000017,0.00000872,-0.00000236,0.00000088,-
 0.00000675,-0.00000433,-0.00000234,0.00002589,-0.00001653,-0.00000803,
 -0.00001077,0.00001819,0.00001151,-0.00000303,0.00005044,0.00001194,0.
 00000039,0.00000096,0.00000154,0.00000052,0.00000012,-0.00000233,-0.00
 000208,0.00000011,0.00000411,-0.00000770,-0.00000120,0.00000325,0.0001
 1952,0.00000919,0.00001197,0.00000126,0.00000009,-0.00000091,-0.000001
 46,-0.00000057,0.00000106,0.00002355,-0.00000317,-0.00002409,-0.000006
 60,-0.00000149,0.00000419,0.00069289,-0.00041652,0.00041968,-0.0004912
 6,0.00181401,0.00006394,-0.00872832,0.01397345,-0.00325168,-0.00141209
 ,-0.00233646,-0.00053870,-0.00091143,0.00091963,-0.00055721,-0.0000424
 8,0.00062969,-0.00031399,0.00139859,0.00010409,-0.00006046,-0.03006177
 ,0.05900246,-0.07647678,0.00138817,0.02703797,-0.01236510,-0.00013237,
 0.00006651,0.00007683,0.00011897,0.00003323,0.00002608,-0.00017715,-0.
 00076580,-0.00038307,0.00014358,-0.00012732,0.00008580,-0.00021366,0.0
 0030789,0.00016474,0.00003031,0.00022685,0.00033282,-0.00007979,-0.000
 07224,0.00000948,-0.00013486,-0.00006910,-0.00000676,0.02896704,-0.078
 70171,0.08253280,-0.00013580,0.00003039,0.00015882,0.00004976,0.000009
 36,-0.00006802,-0.00000218,-0.00001674,-0.00000285,0.00000954,0.000003
 92,0.00000501,0.00001147,0.00003998,0.00001431,-0.00001258,0.00000313,
 0.00000294,0.00001402,0.00001034,0.00000797,-0.00003474,-0.00000886,-0
 .00001204,0.00002005,0.00001390,0.00001179,0.00006819,-0.00005905,-0.0
 0001483,-0.00000738,-0.00000540,0.00000579,-0.00001334,0.00000139,0.00
 000858,-0.00000525,0.00000312,-0.00000095,0.00000456,-0.00000103,0.000
 00243,-0.00005534,-0.00001724,-0.00001875,-0.00000625,0.00000026,0.000
 00146,0.00000061,-0.00000071,-0.00000035,-0.00000216,0.00000350,-0.000
 00779,-0.00000386,-0.00000329,0.00000724,-0.00088823,-0.00119962,-0.00
 258934,-0.00521416,0.00130937,0.00008680,0.00343838,-0.01820970,-0.023
 17385,0.00060536,-0.00134976,-0.00063519,0.00043061,0.00032348,0.00068
 444,0.00177820,-0.00012350,-0.00147500,0.00012176,0.00013905,0.0001952
 8,-0.05422256,0.01783911,0.01661616,-0.01111476,0.00797998,0.03060881,
 0.00037180,0.00016335,-0.00008934,0.00003708,0.00009620,-0.00017385,0.
 00002011,-0.00013641,0.00009078,-0.00006152,0.00030640,-0.00008305,-0.
 00040970,0.00059106,0.00021057,0.00028139,-0.00061298,-0.00005256,0.00
 003813,0.00032212,0.00002085,-0.00053743,0.00010982,0.00073095,0.00144
 301,0.00862347,0.00951431,0.06398318,-0.00016182,0.00000241,0.00012440
 ,0.00008449,0.00001610,-0.00007953,-0.00001209,-0.00001821,0.00001460,
 0.00005668,0.00001375,-0.00003501,-0.00008690,0.00000995,0.00002323,0.
 00000640,0.00000703,-0.00001218,-0.00000161,0.00000463,0.00001238,0.00
 000199,-0.00001232,-0.00005116,-0.00000314,0.00002778,0.00003504,0.000
 06344,-0.00002410,-0.00000946,-0.00000353,-0.00000667,0.00000840,-0.00
 001649,-0.00000008,0.00000720,-0.00000773,0.00000522,0.00000487,-0.000
 00289,-0.00000466,0.00000535,0.00006129,-0.00001088,0.00000028,-0.0000
 0713,0.00000249,0.00000058,-0.00000071,-0.00000579,0.00000255,0.000013
 74,0.00000217,-0.00002280,-0.00001479,-0.00001311,0.00001179,-0.000597
 18,-0.00003822,-0.00068678,-0.00096296,0.00053798,0.00025345,0.0014223
 5,-0.00160341,-0.00278544,0.00048423,0.00049454,0.00131297,-0.00028814
 ,0.00019492,0.00007064,0.00033667,-0.00007863,-0.00105503,-0.00030624,
 0.00006372,0.00053921,0.02187916,-0.16055395,-0.12879166,-0.00736054,0
 .01478461,0.02066704,0.00025185,0.00006800,-0.00008305,0.00005719,-0.0
 0003308,0.00003407,-0.00000310,0.00035085,0.00025898,-0.00015048,-0.00
 002451,-0.00005258,-0.00000251,0.00040762,-0.00012515,0.00015042,-0.00
 024868,0.00003343,-0.00011564,0.00007687,0.00019692,-0.00061087,-0.000
 02436,0.00035873,0.00202498,-0.01282871,-0.02160448,-0.01617840,0.1584
 5871,-0.00016966,0.00002314,0.00012873,0.00007548,0.00000741,-0.000073
 24,-0.00000330,-0.00001415,0.00000220,0.00002898,0.00000375,-0.0000121
 5,-0.00002784,0.00003593,0.00002453,-0.00000764,0.00000084,-0.00000320
 ,0.00001156,0.00001194,0.00001247,-0.00001895,-0.00004237,-0.00002951,
 0.00000815,0.00005094,0.00002980,0.00006382,-0.00005383,-0.00001280,-0
 .00000280,-0.00000298,0.00000649,-0.00001519,0.00000221,0.00000798,-0.
 00000839,0.00000563,0.00000082,0.00000205,-0.00000145,0.00000424,-0.00
 000945,-0.00002086,-0.00002179,-0.00000846,0.00000162,0.00000106,0.000
 00035,-0.00000257,0.00000019,0.00000336,-0.00001626,-0.00001725,-0.000
 00584,-0.00000393,0.00000240,-0.00076689,-0.00072882,-0.00118318,-0.00
 256827,0.00132661,0.00089729,0.00054905,-0.01167866,-0.01245366,0.0010
 0580,-0.00127943,-0.00025288,0.00011662,0.00059265,0.00070553,0.000717
 54,0.00041722,0.00027728,-0.00018746,-0.00016023,-0.00000052,0.0195290
 6,-0.12147454,-0.20240565,0.01483719,-0.00399094,-0.02320062,0.0002411
 8,0.00012135,-0.00009441,0.00012611,0.00012843,0.00028843,0.00008661,-
 0.00016121,-0.00000335,0.00008864,-0.00001297,0.00006569,-0.00070554,0
 .00076762,0.00007356,0.00031296,-0.00048106,0.00001994,-0.00012177,0.0
 0023663,0.00022561,-0.00038017,-0.00012183,0.00057845,-0.00220934,0.00
 509602,0.01028270,-0.03058753,0.13141817,0.22612884\\0.00000018,0.,-0.
 00000005,-0.00000003,-0.00000007,0.00000008,-0.00000004,-0.00000023,0.
 00000008,0.,-0.00000004,-0.00000013,-0.00000009,-0.00000016,0.00000017
 ,0.00000011,-0.00000012,-0.00000004,0.00000003,-0.00000021,-0.00000004
 ,-0.00000014,0.00000014,0.00000006,-0.00000002,-0.00000019,-0.00000004
 ,0.00000018,-0.00000010,-0.00000009,0.,-0.00000014,0.,0.00000003,-0.00
 000006,-0.00000007,-0.00000006,-0.00000007,0.00000002,-0.00000009,-0.0
 0000011,0.00000001,0.00000004,0.00000002,-0.00000009,-0.00000004,-0.00
 000011,-0.00000001,0.00000007,-0.00000013,0.00000005,-0.00000005,-0.00
 000014,-0.00000009,0.00000004,-0.00000012,0.00000003,0.00000007,0.0000
 0008,-0.00000019,-0.00000002,0.00000007,-0.00000009,-0.00000010,0.0000
 0011,0.00000013,0.00000010,0.00000004,-0.00000009,-0.00000023,0.,0.000
 00025,0.00000017,-0.00000011,-0.00000004,0.00000003,0.00000024,0.,0.,0
 .00000013,-0.00000002,-0.00000004,0.00000024,0.,0.00000001,0.00000015,
 0.00000029,0.00000008,0.00000014,0.00000004,0.00000005,0.00000006,0.,-
 0.00000003,0.,-0.00000010,0.00000003,0.00000020,-0.00000003,-0.0000001
 3,0.00000014,-0.00000004,0.00000002,-0.00000001,-0.00000001,-0.0000001
 0,0.00000014,0.00000002,0.00000005,0.00000011,-0.00000007,-0.00000007,
 0.00000009,0.00000008\\\@


 I WANT TO KNOW HOW GOD CREATED THE WORLD.  I AM NOT INTERESTED IN
 THIS OR THAT PHENOMENON, IN THE SPECTRUM OF THIS OR THAT ELEMENT.
 I WANT TO KNOW HIS THOUGHTS, THE REST ARE DETAILS.
     -- ALBERT EINSTEIN
 Job cpu time:       0 days  1 hours  6 minutes 17.4 seconds.
 Elapsed time:       0 days  0 hours 16 minutes 39.7 seconds.
 File lengths (MBytes):  RWF=    413 Int=      0 D2E=      0 Chk=      8 Scr=      1
 Normal termination of Gaussian 16 at Tue Aug  9 18:22:25 2022.
real 8275.02
user 32794.90
sys 36.19
