 Entering Gaussian System, Link 0=g16
 Input=gaussian_test.inp
 Output=gaussian_test.log
 Initial command:
 /sw/restricted/lms/sw/Gaussian/g16_B01/g16/l1.exe "/scratch/user/peterchao1/peterchao1/6950595_1675450428000000588475298/Gau-209559.inp" -scrdir="/scratch/user/peterchao1/peterchao1/6950595_1675450428000000588475298/"
 Entering Link 1 = /sw/restricted/lms/sw/Gaussian/g16_B01/g16/l1.exe PID=    209561.
  
 Copyright (c) 1988-2017, Gaussian, Inc.  All Rights Reserved.
  
 This is part of the Gaussian(R) 16 program.  It is based on
 the Gaussian(R) 09 system (copyright 2009, Gaussian, Inc.),
 the Gaussian(R) 03 system (copyright 2003, Gaussian, Inc.),
 the Gaussian(R) 98 system (copyright 1998, Gaussian, Inc.),
 the Gaussian(R) 94 system (copyright 1995, Gaussian, Inc.),
 the Gaussian 92(TM) system (copyright 1992, Gaussian, Inc.),
 the Gaussian 90(TM) system (copyright 1990, Gaussian, Inc.),
 the Gaussian 88(TM) system (copyright 1988, Gaussian, Inc.),
 the Gaussian 86(TM) system (copyright 1986, Carnegie Mellon
 University), and the Gaussian 82(TM) system (copyright 1983,
 Carnegie Mellon University). Gaussian is a federally registered
 trademark of Gaussian, Inc.
  
 This software contains proprietary and confidential information,
 including trade secrets, belonging to Gaussian, Inc.
  
 This software is provided under written license and may be
 used, copied, transmitted, or stored only in accord with that
 written license.
  
 The following legend is applicable only to US Government
 contracts under FAR:
  
                    RESTRICTED RIGHTS LEGEND
  
 Use, reproduction and disclosure by the US Government is
 subject to restrictions as set forth in subparagraphs (a)
 and (c) of the Commercial Computer Software - Restricted
 Rights clause in FAR 52.227-19.
  
 Gaussian, Inc.
 340 Quinnipiac St., Bldg. 40, Wallingford CT 06492
  
  
 ---------------------------------------------------------------
 Warning -- This program may not be used in any manner that
 competes with the business of Gaussian, Inc. or will provide
 assistance to any competitor of Gaussian, Inc.  The licensee
 of this program is prohibited from giving any competitor of
 Gaussian, Inc. access to this program.  By using this program,
 the user acknowledges that Gaussian, Inc. is engaged in the
 business of creating and licensing software in the field of
 computational chemistry and represents and warrants to the
 licensee that it is not a competitor of Gaussian, Inc. and that
 it will not use this program in any manner prohibited above.
 ---------------------------------------------------------------
  

 Cite this work as:
 Gaussian 16, Revision B.01,
 M. J. Frisch, G. W. Trucks, H. B. Schlegel, G. E. Scuseria, 
 M. A. Robb, J. R. Cheeseman, G. Scalmani, V. Barone, 
 G. A. Petersson, H. Nakatsuji, X. Li, M. Caricato, A. V. Marenich, 
 J. Bloino, B. G. Janesko, R. Gomperts, B. Mennucci, H. P. Hratchian, 
 J. V. Ortiz, A. F. Izmaylov, J. L. Sonnenberg, D. Williams-Young, 
 F. Ding, F. Lipparini, F. Egidi, J. Goings, B. Peng, A. Petrone, 
 T. Henderson, D. Ranasinghe, V. G. Zakrzewski, J. Gao, N. Rega, 
 G. Zheng, W. Liang, M. Hada, M. Ehara, K. Toyota, R. Fukuda, 
 J. Hasegawa, M. Ishida, T. Nakajima, Y. Honda, O. Kitao, H. Nakai, 
 T. Vreven, K. Throssell, J. A. Montgomery, Jr., J. E. Peralta, 
 F. Ogliaro, M. J. Bearpark, J. J. Heyd, E. N. Brothers, K. N. Kudin, 
 V. N. Staroverov, T. A. Keith, R. Kobayashi, J. Normand, 
 K. Raghavachari, A. P. Rendell, J. C. Burant, S. S. Iyengar, 
 J. Tomasi, M. Cossi, J. M. Millam, M. Klene, C. Adamo, R. Cammi, 
 J. W. Ochterski, R. L. Martin, K. Morokuma, O. Farkas, 
 J. B. Foresman, and D. J. Fox, Gaussian, Inc., Wallingford CT, 2016.
 
 ******************************************
 Gaussian 16:  ES64L-G16RevB.01 20-Dec-2017
                 3-Feb-2023 
 ******************************************
 %nprocshared=4
 Will use up to    4 processors via shared memory.
 %mem=8000mb
 %chk=34.chk
 %nprocshared=4
 Will use up to    4 processors via shared memory.
 %mem=8000mb
 ----------------------------------------------------------------------
 #T wB97XD/def2svpp opt=tight freq int(grid=ultrafine) scf=(verytight,q
 c) Volume=tight
 ----------------------------------------------------------------------
 -----
 Dimer
 -----
 Symbolic Z-matrix:
 Charge =  0 Multiplicity = 1
 C                     1.28326  -1.71566  -1.88583 
 C                     1.75815  -0.45426  -1.16786 
 C                     2.73539  -0.67783   0.00867 
 C                     1.94732  -1.25546   1.19272 
 C                     3.79402  -1.71339  -0.39362 
 C                     3.41592   0.67953   0.40731 
 C                     2.39848   1.82726   0.48384 
 C                     4.09357   0.58511   1.78224 
 C                     4.49472   1.08439  -0.60748 
 H                     2.0969   -2.20273  -2.41576 
 H                     0.52357  -1.44684  -2.61844 
 H                     0.84405  -2.43309  -1.19674 
 H                     0.87963   0.06942  -0.78992 
 H                     2.22804   0.18768  -1.91433 
 H                     1.34842  -2.10171   0.86589 
 H                     1.27421  -0.51863   1.62304 
 H                     2.61662  -1.60889   1.97165 
 H                     3.34389  -2.70114  -0.44977 
 H                     4.59394  -1.76046   0.34035 
 H                     4.22786  -1.47996  -1.36179 
 H                     1.55357   1.57259   1.11801 
 H                     2.02793   2.09755  -0.50089 
 H                     2.87752   2.70646   0.91059 
 H                     4.75663  -0.27323   1.84739 
 H                     3.35989   0.51889   2.58038 
 H                     4.69121   1.47858   1.95252 
 H                     4.11702   1.06705  -1.62632 
 H                     5.35828   0.42846  -0.54734 
 H                     4.83022   2.0978   -0.39548 
 C                    -1.4815    2.09735  -1.64098 
 C                    -2.23126   0.80258  -1.33548 
 C                    -2.83758   0.69374   0.08243 
 C                    -1.80708   1.16356   1.11751 
 C                    -4.0467    1.63509   0.16901 
 C                    -3.26747  -0.78848   0.37017 
 C                    -2.04987  -1.67836   0.65761 
 C                    -4.19841  -0.87728   1.5884 
 C                    -4.01986  -1.40421  -0.81856 
 H                    -2.11073   2.97144  -1.49409 
 H                    -1.16323   2.08841  -2.68201 
 H                    -0.5949    2.20308  -1.02236 
 H                    -1.53708  -0.02348  -1.49501 
 H                    -3.03666   0.70327  -2.06453 
 H                    -1.67675   2.24073   1.05189 
 H                    -0.84339   0.69093   0.95164 
 H                    -2.13389   0.93442   2.12832 
 H                    -3.76903   2.62915  -0.1721 
 H                    -4.39852   1.72638   1.19253 
 H                    -4.8682    1.2879   -0.45217 
 H                    -1.60303  -1.43875   1.61819 
 H                    -1.29093  -1.57909  -0.11272 
 H                    -2.36119  -2.72097   0.68605 
 H                    -5.17583  -0.45688   1.37001 
 H                    -3.78411  -0.36395   2.45195 
 H                    -4.33833  -1.92181   1.86037 
 H                    -3.35674  -1.58423  -1.65985 
 H                    -4.83622  -0.76764  -1.14915 
 H                    -4.44537  -2.36056  -0.52022 
 
 Add virtual bond connecting atoms H41        and H13        Dist= 4.92D+00.
 Add virtual bond connecting atoms H41        and H22        Dist= 5.06D+00.
 Add virtual bond connecting atoms H42        and H13        Dist= 4.76D+00.
 Add virtual bond connecting atoms H45        and H13        Dist= 4.78D+00.
 Add virtual bond connecting atoms H45        and H16        Dist= 4.78D+00.

 GradGradGradGradGradGradGradGradGradGradGradGradGradGradGradGradGradGrad
 Initialization pass.
                           ----------------------------
                           !    Initial Parameters    !
                           ! (Angstroms and Degrees)  !
 --------------------------                            --------------------------
 ! Name  Definition              Value          Derivative Info.                !
 --------------------------------------------------------------------------------
 ! R1    R(1,2)                  1.5271         estimate D2E/DX2                !
 ! R2    R(1,10)                 1.0863         estimate D2E/DX2                !
 ! R3    R(1,11)                 1.0891         estimate D2E/DX2                !
 ! R4    R(1,12)                 1.0874         estimate D2E/DX2                !
 ! R5    R(2,3)                  1.5457         estimate D2E/DX2                !
 ! R6    R(2,13)                 1.0904         estimate D2E/DX2                !
 ! R7    R(2,14)                 1.0909         estimate D2E/DX2                !
 ! R8    R(3,4)                  1.5351         estimate D2E/DX2                !
 ! R9    R(3,5)                  1.5346         estimate D2E/DX2                !
 ! R10   R(3,6)                  1.5699         estimate D2E/DX2                !
 ! R11   R(4,15)                 1.087          estimate D2E/DX2                !
 ! R12   R(4,16)                 1.0868         estimate D2E/DX2                !
 ! R13   R(4,17)                 1.0861         estimate D2E/DX2                !
 ! R14   R(5,18)                 1.0869         estimate D2E/DX2                !
 ! R15   R(5,19)                 1.0866         estimate D2E/DX2                !
 ! R16   R(5,20)                 1.0863         estimate D2E/DX2                !
 ! R17   R(6,7)                  1.5357         estimate D2E/DX2                !
 ! R18   R(6,8)                  1.5358         estimate D2E/DX2                !
 ! R19   R(6,9)                  1.5354         estimate D2E/DX2                !
 ! R20   R(7,21)                 1.0867         estimate D2E/DX2                !
 ! R21   R(7,22)                 1.0863         estimate D2E/DX2                !
 ! R22   R(7,23)                 1.0884         estimate D2E/DX2                !
 ! R23   R(8,24)                 1.0866         estimate D2E/DX2                !
 ! R24   R(8,25)                 1.0861         estimate D2E/DX2                !
 ! R25   R(8,26)                 1.0883         estimate D2E/DX2                !
 ! R26   R(9,27)                 1.0867         estimate D2E/DX2                !
 ! R27   R(9,28)                 1.0861         estimate D2E/DX2                !
 ! R28   R(9,29)                 1.0883         estimate D2E/DX2                !
 ! R29   R(13,41)                2.604          estimate D2E/DX2                !
 ! R30   R(13,42)                2.5192         estimate D2E/DX2                !
 ! R31   R(13,45)                2.5275         estimate D2E/DX2                !
 ! R32   R(16,45)                2.5294         estimate D2E/DX2                !
 ! R33   R(22,41)                2.6763         estimate D2E/DX2                !
 ! R34   R(30,31)                1.5271         estimate D2E/DX2                !
 ! R35   R(30,39)                1.087          estimate D2E/DX2                !
 ! R36   R(30,40)                1.0886         estimate D2E/DX2                !
 ! R37   R(30,41)                1.0862         estimate D2E/DX2                !
 ! R38   R(31,32)                1.5459         estimate D2E/DX2                !
 ! R39   R(31,42)                1.0907         estimate D2E/DX2                !
 ! R40   R(31,43)                1.0909         estimate D2E/DX2                !
 ! R41   R(32,33)                1.5343         estimate D2E/DX2                !
 ! R42   R(32,34)                1.5348         estimate D2E/DX2                !
 ! R43   R(32,35)                1.5699         estimate D2E/DX2                !
 ! R44   R(33,44)                1.087          estimate D2E/DX2                !
 ! R45   R(33,45)                1.0861         estimate D2E/DX2                !
 ! R46   R(33,46)                1.0868         estimate D2E/DX2                !
 ! R47   R(34,47)                1.087          estimate D2E/DX2                !
 ! R48   R(34,48)                1.0861         estimate D2E/DX2                !
 ! R49   R(34,49)                1.0869         estimate D2E/DX2                !
 ! R50   R(35,36)                1.5353         estimate D2E/DX2                !
 ! R51   R(35,37)                1.5358         estimate D2E/DX2                !
 ! R52   R(35,38)                1.5357         estimate D2E/DX2                !
 ! R53   R(36,50)                1.0862         estimate D2E/DX2                !
 ! R54   R(36,51)                1.0859         estimate D2E/DX2                !
 ! R55   R(36,52)                1.0885         estimate D2E/DX2                !
 ! R56   R(37,53)                1.0862         estimate D2E/DX2                !
 ! R57   R(37,54)                1.0867         estimate D2E/DX2                !
 ! R58   R(37,55)                1.0884         estimate D2E/DX2                !
 ! R59   R(38,56)                1.0862         estimate D2E/DX2                !
 ! R60   R(38,57)                1.0867         estimate D2E/DX2                !
 ! R61   R(38,58)                1.0884         estimate D2E/DX2                !
 ! A1    A(2,1,10)             111.5173         estimate D2E/DX2                !
 ! A2    A(2,1,11)             109.2258         estimate D2E/DX2                !
 ! A3    A(2,1,12)             111.8779         estimate D2E/DX2                !
 ! A4    A(10,1,11)            107.7574         estimate D2E/DX2                !
 ! A5    A(10,1,12)            108.4114         estimate D2E/DX2                !
 ! A6    A(11,1,12)            107.9015         estimate D2E/DX2                !
 ! A7    A(1,2,3)              115.7845         estimate D2E/DX2                !
 ! A8    A(1,2,13)             108.006          estimate D2E/DX2                !
 ! A9    A(1,2,14)             107.355          estimate D2E/DX2                !
 ! A10   A(3,2,13)             108.3624         estimate D2E/DX2                !
 ! A11   A(3,2,14)             109.4891         estimate D2E/DX2                !
 ! A12   A(13,2,14)            107.5543         estimate D2E/DX2                !
 ! A13   A(2,3,4)              108.4787         estimate D2E/DX2                !
 ! A14   A(2,3,5)              109.5242         estimate D2E/DX2                !
 ! A15   A(2,3,6)              110.0164         estimate D2E/DX2                !
 ! A16   A(4,3,5)              107.6031         estimate D2E/DX2                !
 ! A17   A(4,3,6)              110.6109         estimate D2E/DX2                !
 ! A18   A(5,3,6)              110.5479         estimate D2E/DX2                !
 ! A19   A(3,4,15)             110.1122         estimate D2E/DX2                !
 ! A20   A(3,4,16)             111.6065         estimate D2E/DX2                !
 ! A21   A(3,4,17)             111.0548         estimate D2E/DX2                !
 ! A22   A(15,4,16)            107.7953         estimate D2E/DX2                !
 ! A23   A(15,4,17)            107.5661         estimate D2E/DX2                !
 ! A24   A(16,4,17)            108.5612         estimate D2E/DX2                !
 ! A25   A(3,5,18)             109.9432         estimate D2E/DX2                !
 ! A26   A(3,5,19)             111.0992         estimate D2E/DX2                !
 ! A27   A(3,5,20)             111.3548         estimate D2E/DX2                !
 ! A28   A(18,5,19)            107.4805         estimate D2E/DX2                !
 ! A29   A(18,5,20)            108.3388         estimate D2E/DX2                !
 ! A30   A(19,5,20)            108.5005         estimate D2E/DX2                !
 ! A31   A(3,6,7)              111.8181         estimate D2E/DX2                !
 ! A32   A(3,6,8)              111.4359         estimate D2E/DX2                !
 ! A33   A(3,6,9)              111.392          estimate D2E/DX2                !
 ! A34   A(7,6,8)              107.0778         estimate D2E/DX2                !
 ! A35   A(7,6,9)              107.5397         estimate D2E/DX2                !
 ! A36   A(8,6,9)              107.3305         estimate D2E/DX2                !
 ! A37   A(6,7,21)             111.6573         estimate D2E/DX2                !
 ! A38   A(6,7,22)             111.5174         estimate D2E/DX2                !
 ! A39   A(6,7,23)             109.37           estimate D2E/DX2                !
 ! A40   A(21,7,22)            108.79           estimate D2E/DX2                !
 ! A41   A(21,7,23)            107.6201         estimate D2E/DX2                !
 ! A42   A(22,7,23)            107.7324         estimate D2E/DX2                !
 ! A43   A(6,8,24)             111.8085         estimate D2E/DX2                !
 ! A44   A(6,8,25)             111.3199         estimate D2E/DX2                !
 ! A45   A(6,8,26)             109.3849         estimate D2E/DX2                !
 ! A46   A(24,8,25)            108.662          estimate D2E/DX2                !
 ! A47   A(24,8,26)            107.7001         estimate D2E/DX2                !
 ! A48   A(25,8,26)            107.8193         estimate D2E/DX2                !
 ! A49   A(6,9,27)             111.7906         estimate D2E/DX2                !
 ! A50   A(6,9,28)             111.2727         estimate D2E/DX2                !
 ! A51   A(6,9,29)             109.4738         estimate D2E/DX2                !
 ! A52   A(27,9,28)            108.5791         estimate D2E/DX2                !
 ! A53   A(27,9,29)            107.7356         estimate D2E/DX2                !
 ! A54   A(28,9,29)            107.8463         estimate D2E/DX2                !
 ! A55   A(2,13,41)            144.9687         estimate D2E/DX2                !
 ! A56   A(2,13,42)            131.1642         estimate D2E/DX2                !
 ! A57   A(2,13,45)            154.9875         estimate D2E/DX2                !
 ! A58   A(41,13,42)            57.4529         estimate D2E/DX2                !
 ! A59   A(41,13,45)            58.2639         estimate D2E/DX2                !
 ! A60   A(42,13,45)            63.1238         estimate D2E/DX2                !
 ! A61   A(4,16,45)            137.5277         estimate D2E/DX2                !
 ! A62   A(7,22,41)            121.3824         estimate D2E/DX2                !
 ! A63   A(31,30,39)           111.7504         estimate D2E/DX2                !
 ! A64   A(31,30,40)           109.1408         estimate D2E/DX2                !
 ! A65   A(31,30,41)           111.6748         estimate D2E/DX2                !
 ! A66   A(39,30,40)           107.7624         estimate D2E/DX2                !
 ! A67   A(39,30,41)           108.4968         estimate D2E/DX2                !
 ! A68   A(40,30,41)           107.8651         estimate D2E/DX2                !
 ! A69   A(30,31,32)           115.8333         estimate D2E/DX2                !
 ! A70   A(30,31,42)           107.4818         estimate D2E/DX2                !
 ! A71   A(30,31,43)           107.8169         estimate D2E/DX2                !
 ! A72   A(32,31,42)           109.2951         estimate D2E/DX2                !
 ! A73   A(32,31,43)           108.4811         estimate D2E/DX2                !
 ! A74   A(42,31,43)           107.6484         estimate D2E/DX2                !
 ! A75   A(31,32,33)           109.4982         estimate D2E/DX2                !
 ! A76   A(31,32,34)           108.5139         estimate D2E/DX2                !
 ! A77   A(31,32,35)           109.9977         estimate D2E/DX2                !
 ! A78   A(33,32,34)           107.6533         estimate D2E/DX2                !
 ! A79   A(33,32,35)           110.4493         estimate D2E/DX2                !
 ! A80   A(34,32,35)           110.6719         estimate D2E/DX2                !
 ! A81   A(32,33,44)           110.0749         estimate D2E/DX2                !
 ! A82   A(32,33,45)           111.0802         estimate D2E/DX2                !
 ! A83   A(32,33,46)           111.1583         estimate D2E/DX2                !
 ! A84   A(44,33,45)           108.3984         estimate D2E/DX2                !
 ! A85   A(44,33,46)           107.5259         estimate D2E/DX2                !
 ! A86   A(45,33,46)           108.4886         estimate D2E/DX2                !
 ! A87   A(32,34,47)           109.9953         estimate D2E/DX2                !
 ! A88   A(32,34,48)           111.0936         estimate D2E/DX2                !
 ! A89   A(32,34,49)           111.5484         estimate D2E/DX2                !
 ! A90   A(47,34,48)           107.5534         estimate D2E/DX2                !
 ! A91   A(47,34,49)           107.8092         estimate D2E/DX2                !
 ! A92   A(48,34,49)           108.6995         estimate D2E/DX2                !
 ! A93   A(32,35,36)           111.3704         estimate D2E/DX2                !
 ! A94   A(32,35,37)           111.4673         estimate D2E/DX2                !
 ! A95   A(32,35,38)           111.7673         estimate D2E/DX2                !
 ! A96   A(36,35,37)           107.3805         estimate D2E/DX2                !
 ! A97   A(36,35,38)           107.5232         estimate D2E/DX2                !
 ! A98   A(37,35,38)           107.0889         estimate D2E/DX2                !
 ! A99   A(35,36,50)           111.3442         estimate D2E/DX2                !
 ! A100  A(35,36,51)           111.6216         estimate D2E/DX2                !
 ! A101  A(35,36,52)           109.4668         estimate D2E/DX2                !
 ! A102  A(50,36,51)           108.6428         estimate D2E/DX2                !
 ! A103  A(50,36,52)           107.8102         estimate D2E/DX2                !
 ! A104  A(51,36,52)           107.8175         estimate D2E/DX2                !
 ! A105  A(35,37,53)           111.3214         estimate D2E/DX2                !
 ! A106  A(35,37,54)           111.8353         estimate D2E/DX2                !
 ! A107  A(35,37,55)           109.3677         estimate D2E/DX2                !
 ! A108  A(53,37,54)           108.6645         estimate D2E/DX2                !
 ! A109  A(53,37,55)           107.8189         estimate D2E/DX2                !
 ! A110  A(54,37,55)           107.6856         estimate D2E/DX2                !
 ! A111  A(35,38,56)           111.5231         estimate D2E/DX2                !
 ! A112  A(35,38,57)           111.6333         estimate D2E/DX2                !
 ! A113  A(35,38,58)           109.3694         estimate D2E/DX2                !
 ! A114  A(56,38,57)           108.6671         estimate D2E/DX2                !
 ! A115  A(56,38,58)           107.7782         estimate D2E/DX2                !
 ! A116  A(57,38,58)           107.722          estimate D2E/DX2                !
 ! A117  A(13,41,22)            52.7958         estimate D2E/DX2                !
 ! A118  A(13,41,30)           115.6748         estimate D2E/DX2                !
 ! A119  A(22,41,30)           155.1001         estimate D2E/DX2                !
 ! A120  A(13,42,31)           122.7978         estimate D2E/DX2                !
 ! A121  A(13,45,16)            59.6412         estimate D2E/DX2                !
 ! A122  A(13,45,33)           144.7982         estimate D2E/DX2                !
 ! A123  A(16,45,33)           155.5599         estimate D2E/DX2                !
 ! D1    D(10,1,2,3)           -67.0512         estimate D2E/DX2                !
 ! D2    D(10,1,2,13)          171.2875         estimate D2E/DX2                !
 ! D3    D(10,1,2,14)           55.5755         estimate D2E/DX2                !
 ! D4    D(11,1,2,3)           173.9564         estimate D2E/DX2                !
 ! D5    D(11,1,2,13)           52.2951         estimate D2E/DX2                !
 ! D6    D(11,1,2,14)          -63.4169         estimate D2E/DX2                !
 ! D7    D(12,1,2,3)            54.5606         estimate D2E/DX2                !
 ! D8    D(12,1,2,13)          -67.1007         estimate D2E/DX2                !
 ! D9    D(12,1,2,14)          177.1873         estimate D2E/DX2                !
 ! D10   D(1,2,3,4)            -73.2807         estimate D2E/DX2                !
 ! D11   D(1,2,3,5)             43.901          estimate D2E/DX2                !
 ! D12   D(1,2,3,6)            165.6043         estimate D2E/DX2                !
 ! D13   D(13,2,3,4)            48.1901         estimate D2E/DX2                !
 ! D14   D(13,2,3,5)           165.3718         estimate D2E/DX2                !
 ! D15   D(13,2,3,6)           -72.9249         estimate D2E/DX2                !
 ! D16   D(14,2,3,4)           165.2276         estimate D2E/DX2                !
 ! D17   D(14,2,3,5)           -77.5907         estimate D2E/DX2                !
 ! D18   D(14,2,3,6)            44.1126         estimate D2E/DX2                !
 ! D19   D(1,2,13,41)         -112.1278         estimate D2E/DX2                !
 ! D20   D(1,2,13,42)          -21.9975         estimate D2E/DX2                !
 ! D21   D(1,2,13,45)           94.9855         estimate D2E/DX2                !
 ! D22   D(3,2,13,41)          121.7283         estimate D2E/DX2                !
 ! D23   D(3,2,13,42)         -148.1414         estimate D2E/DX2                !
 ! D24   D(3,2,13,45)          -31.1584         estimate D2E/DX2                !
 ! D25   D(14,2,13,41)           3.4538         estimate D2E/DX2                !
 ! D26   D(14,2,13,42)          93.584          estimate D2E/DX2                !
 ! D27   D(14,2,13,45)        -149.433          estimate D2E/DX2                !
 ! D28   D(2,3,4,15)            49.9085         estimate D2E/DX2                !
 ! D29   D(2,3,4,16)           -69.7674         estimate D2E/DX2                !
 ! D30   D(2,3,4,17)           168.9449         estimate D2E/DX2                !
 ! D31   D(5,3,4,15)           -68.4972         estimate D2E/DX2                !
 ! D32   D(5,3,4,16)           171.8269         estimate D2E/DX2                !
 ! D33   D(5,3,4,17)            50.5392         estimate D2E/DX2                !
 ! D34   D(6,3,4,15)           170.6562         estimate D2E/DX2                !
 ! D35   D(6,3,4,16)            50.9803         estimate D2E/DX2                !
 ! D36   D(6,3,4,17)           -70.3074         estimate D2E/DX2                !
 ! D37   D(2,3,5,18)           -71.3248         estimate D2E/DX2                !
 ! D38   D(2,3,5,19)           169.8257         estimate D2E/DX2                !
 ! D39   D(2,3,5,20)            48.758          estimate D2E/DX2                !
 ! D40   D(4,3,5,18)            46.4058         estimate D2E/DX2                !
 ! D41   D(4,3,5,19)           -72.4438         estimate D2E/DX2                !
 ! D42   D(4,3,5,20)           166.4886         estimate D2E/DX2                !
 ! D43   D(6,3,5,18)           167.292          estimate D2E/DX2                !
 ! D44   D(6,3,5,19)            48.4424         estimate D2E/DX2                !
 ! D45   D(6,3,5,20)           -72.6253         estimate D2E/DX2                !
 ! D46   D(2,3,6,7)             45.0513         estimate D2E/DX2                !
 ! D47   D(2,3,6,8)            164.8542         estimate D2E/DX2                !
 ! D48   D(2,3,6,9)            -75.3109         estimate D2E/DX2                !
 ! D49   D(4,3,6,7)            -74.7771         estimate D2E/DX2                !
 ! D50   D(4,3,6,8)             45.0258         estimate D2E/DX2                !
 ! D51   D(4,3,6,9)            164.8606         estimate D2E/DX2                !
 ! D52   D(5,3,6,7)            166.143          estimate D2E/DX2                !
 ! D53   D(5,3,6,8)            -74.0542         estimate D2E/DX2                !
 ! D54   D(5,3,6,9)             45.7807         estimate D2E/DX2                !
 ! D55   D(3,4,16,45)           68.8517         estimate D2E/DX2                !
 ! D56   D(15,4,16,45)         -52.183          estimate D2E/DX2                !
 ! D57   D(17,4,16,45)        -168.4235         estimate D2E/DX2                !
 ! D58   D(3,6,7,21)            52.2152         estimate D2E/DX2                !
 ! D59   D(3,6,7,22)           -69.7283         estimate D2E/DX2                !
 ! D60   D(3,6,7,23)           171.2172         estimate D2E/DX2                !
 ! D61   D(8,6,7,21)           -70.1156         estimate D2E/DX2                !
 ! D62   D(8,6,7,22)           167.9408         estimate D2E/DX2                !
 ! D63   D(8,6,7,23)            48.8864         estimate D2E/DX2                !
 ! D64   D(9,6,7,21)           174.8022         estimate D2E/DX2                !
 ! D65   D(9,6,7,22)            52.8587         estimate D2E/DX2                !
 ! D66   D(9,6,7,23)           -66.1958         estimate D2E/DX2                !
 ! D67   D(3,6,8,24)            51.4106         estimate D2E/DX2                !
 ! D68   D(3,6,8,25)           -70.3343         estimate D2E/DX2                !
 ! D69   D(3,6,8,26)           170.6163         estimate D2E/DX2                !
 ! D70   D(7,6,8,24)           173.9798         estimate D2E/DX2                !
 ! D71   D(7,6,8,25)            52.2349         estimate D2E/DX2                !
 ! D72   D(7,6,8,26)           -66.8145         estimate D2E/DX2                !
 ! D73   D(9,6,8,24)           -70.7981         estimate D2E/DX2                !
 ! D74   D(9,6,8,25)           167.457          estimate D2E/DX2                !
 ! D75   D(9,6,8,26)            48.4076         estimate D2E/DX2                !
 ! D76   D(3,6,9,27)            51.5238         estimate D2E/DX2                !
 ! D77   D(3,6,9,28)           -70.0685         estimate D2E/DX2                !
 ! D78   D(3,6,9,29)           170.8208         estimate D2E/DX2                !
 ! D79   D(7,6,9,27)           -71.3258         estimate D2E/DX2                !
 ! D80   D(7,6,9,28)           167.0819         estimate D2E/DX2                !
 ! D81   D(7,6,9,29)            47.9712         estimate D2E/DX2                !
 ! D82   D(8,6,9,27)           173.7598         estimate D2E/DX2                !
 ! D83   D(8,6,9,28)            52.1676         estimate D2E/DX2                !
 ! D84   D(8,6,9,29)           -66.9431         estimate D2E/DX2                !
 ! D85   D(6,7,22,41)          127.0084         estimate D2E/DX2                !
 ! D86   D(21,7,22,41)           3.4234         estimate D2E/DX2                !
 ! D87   D(23,7,22,41)        -112.9673         estimate D2E/DX2                !
 ! D88   D(2,13,41,22)         -57.4609         estimate D2E/DX2                !
 ! D89   D(2,13,41,30)          96.5159         estimate D2E/DX2                !
 ! D90   D(42,13,41,22)       -174.1976         estimate D2E/DX2                !
 ! D91   D(42,13,41,30)        -20.2208         estimate D2E/DX2                !
 ! D92   D(45,13,41,22)        109.4435         estimate D2E/DX2                !
 ! D93   D(45,13,41,30)        -96.5797         estimate D2E/DX2                !
 ! D94   D(2,13,42,31)        -154.396          estimate D2E/DX2                !
 ! D95   D(41,13,42,31)        -17.3155         estimate D2E/DX2                !
 ! D96   D(45,13,42,31)         50.5912         estimate D2E/DX2                !
 ! D97   D(2,13,45,16)          13.8816         estimate D2E/DX2                !
 ! D98   D(2,13,45,33)        -165.8698         estimate D2E/DX2                !
 ! D99   D(41,13,45,16)       -148.2034         estimate D2E/DX2                !
 ! D100  D(41,13,45,33)         32.0452         estimate D2E/DX2                !
 ! D101  D(42,13,45,16)        145.1078         estimate D2E/DX2                !
 ! D102  D(42,13,45,33)        -34.6436         estimate D2E/DX2                !
 ! D103  D(4,16,45,13)         -32.9429         estimate D2E/DX2                !
 ! D104  D(4,16,45,33)         146.7108         estimate D2E/DX2                !
 ! D105  D(7,22,41,13)         -76.1234         estimate D2E/DX2                !
 ! D106  D(7,22,41,30)        -146.0338         estimate D2E/DX2                !
 ! D107  D(39,30,31,32)        -56.957          estimate D2E/DX2                !
 ! D108  D(39,30,31,42)       -179.4623         estimate D2E/DX2                !
 ! D109  D(39,30,31,43)         64.7466         estimate D2E/DX2                !
 ! D110  D(40,30,31,32)       -176.0447         estimate D2E/DX2                !
 ! D111  D(40,30,31,42)         61.45           estimate D2E/DX2                !
 ! D112  D(40,30,31,43)        -54.3411         estimate D2E/DX2                !
 ! D113  D(41,30,31,32)         64.7869         estimate D2E/DX2                !
 ! D114  D(41,30,31,42)        -57.7185         estimate D2E/DX2                !
 ! D115  D(41,30,31,43)       -173.5095         estimate D2E/DX2                !
 ! D116  D(31,30,41,13)         44.7709         estimate D2E/DX2                !
 ! D117  D(31,30,41,22)        100.8665         estimate D2E/DX2                !
 ! D118  D(39,30,41,13)        168.374          estimate D2E/DX2                !
 ! D119  D(39,30,41,22)       -135.5304         estimate D2E/DX2                !
 ! D120  D(40,30,41,13)        -75.1507         estimate D2E/DX2                !
 ! D121  D(40,30,41,22)        -19.0552         estimate D2E/DX2                !
 ! D122  D(30,31,32,33)        -45.0063         estimate D2E/DX2                !
 ! D123  D(30,31,32,34)         72.2411         estimate D2E/DX2                !
 ! D124  D(30,31,32,35)       -166.5583         estimate D2E/DX2                !
 ! D125  D(42,31,32,33)         76.5351         estimate D2E/DX2                !
 ! D126  D(42,31,32,34)       -166.2175         estimate D2E/DX2                !
 ! D127  D(42,31,32,35)        -45.0169         estimate D2E/DX2                !
 ! D128  D(43,31,32,33)       -166.3551         estimate D2E/DX2                !
 ! D129  D(43,31,32,34)        -49.1076         estimate D2E/DX2                !
 ! D130  D(43,31,32,35)         72.0929         estimate D2E/DX2                !
 ! D131  D(30,31,42,13)         40.5724         estimate D2E/DX2                !
 ! D132  D(32,31,42,13)        -85.8909         estimate D2E/DX2                !
 ! D133  D(43,31,42,13)        156.4747         estimate D2E/DX2                !
 ! D134  D(31,32,33,44)         71.1042         estimate D2E/DX2                !
 ! D135  D(31,32,33,45)        -48.9626         estimate D2E/DX2                !
 ! D136  D(31,32,33,46)       -169.8678         estimate D2E/DX2                !
 ! D137  D(34,32,33,44)        -46.6826         estimate D2E/DX2                !
 ! D138  D(34,32,33,45)       -166.7495         estimate D2E/DX2                !
 ! D139  D(34,32,33,46)         72.3453         estimate D2E/DX2                !
 ! D140  D(35,32,33,44)       -167.6161         estimate D2E/DX2                !
 ! D141  D(35,32,33,45)         72.317          estimate D2E/DX2                !
 ! D142  D(35,32,33,46)        -48.5882         estimate D2E/DX2                !
 ! D143  D(31,32,34,47)        -50.9845         estimate D2E/DX2                !
 ! D144  D(31,32,34,48)       -169.9545         estimate D2E/DX2                !
 ! D145  D(31,32,34,49)         68.594          estimate D2E/DX2                !
 ! D146  D(33,32,34,47)         67.4372         estimate D2E/DX2                !
 ! D147  D(33,32,34,48)        -51.5328         estimate D2E/DX2                !
 ! D148  D(33,32,34,49)       -172.9843         estimate D2E/DX2                !
 ! D149  D(35,32,34,47)       -171.7691         estimate D2E/DX2                !
 ! D150  D(35,32,34,48)         69.2609         estimate D2E/DX2                !
 ! D151  D(35,32,34,49)        -52.1906         estimate D2E/DX2                !
 ! D152  D(31,32,35,36)         75.2272         estimate D2E/DX2                !
 ! D153  D(31,32,35,37)       -164.8679         estimate D2E/DX2                !
 ! D154  D(31,32,35,38)        -45.064          estimate D2E/DX2                !
 ! D155  D(33,32,35,36)        -45.7556         estimate D2E/DX2                !
 ! D156  D(33,32,35,37)         74.1493         estimate D2E/DX2                !
 ! D157  D(33,32,35,38)       -166.0468         estimate D2E/DX2                !
 ! D158  D(34,32,35,36)       -164.8738         estimate D2E/DX2                !
 ! D159  D(34,32,35,37)        -44.9689         estimate D2E/DX2                !
 ! D160  D(34,32,35,38)         74.835          estimate D2E/DX2                !
 ! D161  D(32,33,45,13)         45.6232         estimate D2E/DX2                !
 ! D162  D(32,33,45,16)       -133.8584         estimate D2E/DX2                !
 ! D163  D(44,33,45,13)        -75.4345         estimate D2E/DX2                !
 ! D164  D(44,33,45,16)        105.0839         estimate D2E/DX2                !
 ! D165  D(46,33,45,13)        168.0877         estimate D2E/DX2                !
 ! D166  D(46,33,45,16)        -11.3939         estimate D2E/DX2                !
 ! D167  D(32,35,36,50)         70.3643         estimate D2E/DX2                !
 ! D168  D(32,35,36,51)        -51.2415         estimate D2E/DX2                !
 ! D169  D(32,35,36,52)       -170.5297         estimate D2E/DX2                !
 ! D170  D(37,35,36,50)        -51.9302         estimate D2E/DX2                !
 ! D171  D(37,35,36,51)       -173.536          estimate D2E/DX2                !
 ! D172  D(37,35,36,52)         67.1757         estimate D2E/DX2                !
 ! D173  D(38,35,36,50)       -166.8739         estimate D2E/DX2                !
 ! D174  D(38,35,36,51)         71.5202         estimate D2E/DX2                !
 ! D175  D(38,35,36,52)        -47.768          estimate D2E/DX2                !
 ! D176  D(32,35,37,53)         70.5315         estimate D2E/DX2                !
 ! D177  D(32,35,37,54)        -51.2367         estimate D2E/DX2                !
 ! D178  D(32,35,37,55)       -170.4298         estimate D2E/DX2                !
 ! D179  D(36,35,37,53)       -167.2342         estimate D2E/DX2                !
 ! D180  D(36,35,37,54)         70.9976         estimate D2E/DX2                !
 ! D181  D(36,35,37,55)        -48.1955         estimate D2E/DX2                !
 ! D182  D(38,35,37,53)        -52.0014         estimate D2E/DX2                !
 ! D183  D(38,35,37,54)       -173.7696         estimate D2E/DX2                !
 ! D184  D(38,35,37,55)         67.0373         estimate D2E/DX2                !
 ! D185  D(32,35,38,56)         70.4779         estimate D2E/DX2                !
 ! D186  D(32,35,38,57)        -51.2942         estimate D2E/DX2                !
 ! D187  D(32,35,38,58)       -170.4076         estimate D2E/DX2                !
 ! D188  D(36,35,38,56)        -52.0388         estimate D2E/DX2                !
 ! D189  D(36,35,38,57)       -173.811          estimate D2E/DX2                !
 ! D190  D(36,35,38,58)         67.0757         estimate D2E/DX2                !
 ! D191  D(37,35,38,56)       -167.1763         estimate D2E/DX2                !
 ! D192  D(37,35,38,57)         71.0516         estimate D2E/DX2                !
 ! D193  D(37,35,38,58)        -48.0617         estimate D2E/DX2                !
 --------------------------------------------------------------------------------
 Number of steps in this run=    348 maximum allowed number of steps=    348.
 GradGradGradGradGradGradGradGradGradGradGradGradGradGradGradGradGradGrad

 Framework group  C1[X(C18H40)]
 Deg. of freedom   168
                         Standard orientation:                         
 ---------------------------------------------------------------------
 Center     Atomic      Atomic             Coordinates (Angstroms)
 Number     Number       Type             X           Y           Z
 ---------------------------------------------------------------------
      1          6           0       -1.282214   -1.721132    1.880495
      2          6           0       -1.757430   -0.457936    1.165913
      3          6           0       -2.734389   -0.678620   -0.011400
      4          6           0       -1.945922   -1.252716   -1.196895
      5          6           0       -3.792728   -1.715655    0.387875
      6          6           0       -3.415331    0.679587   -0.406417
      7          6           0       -2.398294    1.827883   -0.479626
      8          6           0       -4.092721    0.588708   -1.781719
      9          6           0       -4.494454    1.081284    0.609291
     10          1           0       -2.095775   -2.209945    2.408944
     11          1           0       -0.522739   -1.454057    2.613965
     12          1           0       -0.842633   -2.436513    1.189508
     13          1           0       -0.879036    0.067086    0.789560
     14          1           0       -2.227671    0.181784    1.914061
     15          1           0       -1.346774   -2.099655   -0.872292
     16          1           0       -1.273002   -0.514472   -1.625077
     17          1           0       -2.614961   -1.604249   -1.976908
     18          1           0       -3.342253   -2.703399    0.441383
     19          1           0       -4.592504   -1.760993   -0.346358
     20          1           0       -4.226808   -1.485033    1.356605
     21          1           0       -1.553179    1.575252   -1.114353
     22          1           0       -2.028001    2.095603    0.505903
     23          1           0       -2.877573    2.708081   -0.904041
     24          1           0       -4.755464   -0.269682   -1.849335
     25          1           0       -3.358881    0.524938   -2.579918
     26          1           0       -4.690648    1.482427   -1.949646
     27          1           0       -4.116918    1.061273    1.628144
     28          1           0       -5.357768    0.425217    0.547207
     29          1           0       -4.830273    2.095149    0.400017
     30          6           0        1.481240    2.093508    1.646581
     31          6           0        2.231507    0.799848    1.337650
     32          6           0        2.838104    0.695111   -0.080447
     33          6           0        1.807613    1.167406   -1.114404
     34          6           0        4.046909    1.637124   -0.164239
     35          6           0        3.268567   -0.786162   -0.372188
     36          6           0        2.051332   -1.675677   -0.662276
     37          6           0        4.199742   -0.871285   -1.590499
     38          6           0        4.020976   -1.404886    0.814978
     39          1           0        2.110189    2.968221    1.502199
     40          1           0        1.162798    2.081594    2.687533
     41          1           0        0.594706    2.200624    1.028104
     42          1           0        1.537594   -0.026896    1.494796
     43          1           0        3.036819    0.698816    2.066567
     44          1           0        1.676887    2.244349   -1.045851
     45          1           0        0.844065    0.693983   -0.950003
     46          1           0        2.134671    0.941161   -2.125789
     47          1           0        3.768827    2.630145    0.179555
     48          1           0        4.398868    1.731346   -1.187445
     49          1           0        4.868422    1.288520    0.456127
     50          1           0        1.604567   -1.433582   -1.622270
     51          1           0        1.292228   -1.578793    0.108200
     52          1           0        2.363024   -2.718098   -0.693525
     53          1           0        5.176975   -0.451138   -1.370785
     54          1           0        3.785403   -0.355730   -2.452709
     55          1           0        4.340078   -1.915013   -1.865307
     56          1           0        3.357782   -1.587452    1.655655
     57          1           0        4.837050   -0.768935    1.147451
     58          1           0        4.446874   -2.360259    0.514086
 ---------------------------------------------------------------------
 Rotational constants (GHZ):           0.6326980           0.1822454           0.1737326
   332 basis functions,   610 primitive gaussians,   350 cartesian basis functions
    74 alpha electrons       74 beta electrons
       nuclear repulsion energy      1538.7108119390 Hartrees.
 NAtoms=   58 NActive=   58 NUniq=   58 SFac= 1.00D+00 NAtFMM=   60 NAOKFM=F Big=F
 Nuclear repulsion after empirical dispersion term =     1538.6481479407 Hartrees.
   1 Symmetry operations used in ECPInt.
 ECPInt:  NShTT=   17766 NPrTT=   71230 LenC2=   16712 LenP2D=   46665.
 LDataN:  DoStor=T MaxTD1= 4 Len=   56
 ExpMin= 1.22D-01 ExpMax= 1.24D+03 ExpMxC= 1.86D+02 IAcc=3 IRadAn=         5 AccDes= 0.00D+00
 Harris functional with IExCor= 4639 and IRadAn=       5 diagonalized for initial guess.
 HarFok:  IExCor= 4639 AccDes= 0.00D+00 IRadAn=         5 IDoV= 1 UseB2=F ITyADJ=14
 ICtDFT=  3500011 ScaDFX=  1.000000  1.000000  1.000000  1.000000
 FoFCou: FMM=F IPFlag=           0 FMFlag=      100000 FMFlg1=           0
         NFxFlg=           0 DoJE=T BraDBF=F KetDBF=T FulRan=T
         wScrn=  0.000000 ICntrl=       500 IOpCl=  0 I1Cent=   200000004 NGrid=           0
         NMat0=    1 NMatS0=      1 NMatT0=    0 NMatD0=    1 NMtDS0=    0 NMtDT0=    0
 Petite list used in FoFCou.
     Minimum is close to point  3 DX=  2.62D-02 DF= -2.70D-04 DXR=  4.19D-02 DFR=  1.75D-03 which will be used.
     Minimum is close to point  3 DX=  4.70D-02 DF= -3.33D-05 DXR=  4.97D-02 DFR=  2.47D-03 which will be used.
     Accept linear search using points  1 and  2.
     Accept linear search using points  1 and  2.
     Minimum is close to point  2 DX= -9.85D-05 DF= -1.14D-13 DXR=  9.85D-05 DFR=  1.08D-08 which will be used.
 SCF Done:  E(RwB97XD) =  -709.246039239     a.u. after    6 cycles
            Convg  =    0.8118D-06                    21 Fock formations.
              S**2 =  0.0000                  -V/T =  2.0109

 **********************************************************************

            Population analysis using the SCF Density.

 **********************************************************************

 Orbital symmetries:
       Occupied  (A) (A) (A) (A) (A) (A) (A) (A) (A) (A) (A) (A)
                 (A) (A) (A) (A) (A) (A) (A) (A) (A) (A) (A) (A)
                 (A) (A) (A) (A) (A) (A) (A) (A) (A) (A) (A) (A)
                 (A) (A) (A) (A) (A) (A) (A) (A) (A) (A) (A) (A)
                 (A) (A) (A) (A) (A) (A) (A) (A) (A) (A) (A) (A)
                 (A) (A) (A) (A) (A) (A) (A) (A) (A) (A) (A) (A)
                 (A) (A)
       Virtual   (A) (A) (A) (A) (A) (A) (A) (A) (A) (A) (A) (A)
                 (A) (A) (A) (A) (A) (A) (A) (A) (A) (A) (A) (A)
                 (A) (A) (A) (A) (A) (A) (A) (A) (A) (A) (A) (A)
                 (A) (A) (A) (A) (A) (A) (A) (A) (A) (A) (A) (A)
                 (A) (A) (A) (A) (A) (A) (A) (A) (A) (A) (A) (A)
                 (A) (A) (A) (A) (A) (A) (A) (A) (A) (A) (A) (A)
                 (A) (A) (A) (A) (A) (A) (A) (A) (A) (A) (A) (A)
                 (A) (A) (A) (A) (A) (A) (A) (A) (A) (A) (A) (A)
                 (A) (A) (A) (A) (A) (A) (A) (A) (A) (A) (A) (A)
                 (A) (A) (A) (A) (A) (A) (A) (A) (A) (A) (A) (A)
                 (A) (A) (A) (A) (A) (A) (A) (A) (A) (A) (A) (A)
                 (A) (A) (A) (A) (A) (A) (A) (A) (A) (A) (A) (A)
                 (A) (A) (A) (A) (A) (A) (A) (A) (A) (A) (A) (A)
                 (A) (A) (A) (A) (A) (A) (A) (A) (A) (A) (A) (A)
                 (A) (A) (A) (A) (A) (A) (A) (A) (A) (A) (A) (A)
                 (A) (A) (A) (A) (A) (A) (A) (A) (A) (A) (A) (A)
                 (A) (A) (A) (A) (A) (A) (A) (A) (A) (A) (A) (A)
                 (A) (A) (A) (A) (A) (A) (A) (A) (A) (A) (A) (A)
                 (A) (A) (A) (A) (A) (A) (A) (A) (A) (A) (A) (A)
                 (A) (A) (A) (A) (A) (A) (A) (A) (A) (A) (A) (A)
                 (A) (A) (A) (A) (A) (A) (A) (A) (A) (A) (A) (A)
                 (A) (A) (A) (A) (A) (A)
 The electronic state is 1-A.
 Alpha  occ. eigenvalues --  -10.29999 -10.29954 -10.29947 -10.29901 -10.27930
 Alpha  occ. eigenvalues --  -10.27812 -10.27335 -10.27197 -10.26957 -10.26925
 Alpha  occ. eigenvalues --  -10.26921 -10.26918 -10.26915 -10.26889 -10.26888
 Alpha  occ. eigenvalues --  -10.26886 -10.26864 -10.26855  -0.93674  -0.93596
 Alpha  occ. eigenvalues --   -0.87092  -0.87022  -0.82035  -0.81849  -0.78751
 Alpha  occ. eigenvalues --   -0.78521  -0.77248  -0.77184  -0.75689  -0.75577
 Alpha  occ. eigenvalues --   -0.72112  -0.72027  -0.66172  -0.66087  -0.59015
 Alpha  occ. eigenvalues --   -0.58847  -0.56963  -0.56911  -0.55271  -0.54265
 Alpha  occ. eigenvalues --   -0.53899  -0.53471  -0.52453  -0.52322  -0.52041
 Alpha  occ. eigenvalues --   -0.51820  -0.49077  -0.48804  -0.48684  -0.48594
 Alpha  occ. eigenvalues --   -0.47166  -0.47069  -0.45972  -0.45799  -0.45422
 Alpha  occ. eigenvalues --   -0.45354  -0.44770  -0.44682  -0.44564  -0.44506
 Alpha  occ. eigenvalues --   -0.43929  -0.43866  -0.43359  -0.42942  -0.41955
 Alpha  occ. eigenvalues --   -0.41813  -0.41323  -0.41298  -0.37953  -0.37893
 Alpha  occ. eigenvalues --   -0.37456  -0.37382  -0.37301  -0.37207
 Alpha virt. eigenvalues --    0.11437   0.13577   0.14664   0.15112   0.16043
 Alpha virt. eigenvalues --    0.16953   0.17499   0.17652   0.17898   0.18240
 Alpha virt. eigenvalues --    0.18329   0.19039   0.19317   0.19877   0.20048
 Alpha virt. eigenvalues --    0.21133   0.21354   0.21699   0.22252   0.22344
 Alpha virt. eigenvalues --    0.22790   0.23413   0.23604   0.24212   0.24362
 Alpha virt. eigenvalues --    0.24461   0.24927   0.25429   0.25951   0.26461
 Alpha virt. eigenvalues --    0.26745   0.26881   0.27780   0.28372   0.28689
 Alpha virt. eigenvalues --    0.29047   0.29350   0.29516   0.29939   0.30494
 Alpha virt. eigenvalues --    0.30887   0.31150   0.31650   0.32373   0.32739
 Alpha virt. eigenvalues --    0.33137   0.33307   0.33851   0.34087   0.35971
 Alpha virt. eigenvalues --    0.36675   0.37655   0.37930   0.38462   0.39456
 Alpha virt. eigenvalues --    0.40941   0.48473   0.49614   0.50231   0.50347
 Alpha virt. eigenvalues --    0.50990   0.51588   0.51814   0.52564   0.53071
 Alpha virt. eigenvalues --    0.53305   0.54341   0.54891   0.56395   0.57123
 Alpha virt. eigenvalues --    0.58397   0.61370   0.62691   0.63538   0.64778
 Alpha virt. eigenvalues --    0.65808   0.67250   0.67280   0.68078   0.68282
 Alpha virt. eigenvalues --    0.69051   0.69282   0.70610   0.70889   0.71261
 Alpha virt. eigenvalues --    0.71834   0.71917   0.74288   0.75327   0.75755
 Alpha virt. eigenvalues --    0.76014   0.76493   0.76829   0.77392   0.77877
 Alpha virt. eigenvalues --    0.78088   0.78108   0.78585   0.78844   0.79632
 Alpha virt. eigenvalues --    0.79777   0.80085   0.80167   0.80553   0.80785
 Alpha virt. eigenvalues --    0.81025   0.81447   0.81650   0.81727   0.82119
 Alpha virt. eigenvalues --    0.82197   0.82348   0.82704   0.83130   0.83266
 Alpha virt. eigenvalues --    0.83936   0.84231   0.84488   0.84676   0.85154
 Alpha virt. eigenvalues --    0.85647   0.85959   0.86481   0.86606   0.87162
 Alpha virt. eigenvalues --    0.87460   0.87931   0.88145   0.88749   0.89293
 Alpha virt. eigenvalues --    0.89804   0.90070   0.90323   0.90989   0.91747
 Alpha virt. eigenvalues --    0.92359   0.94234   0.95857   0.96468   0.97315
 Alpha virt. eigenvalues --    0.97456   0.98139   0.99835   1.00504   1.03572
 Alpha virt. eigenvalues --    1.04405   1.05812   1.06321   1.08243   1.09756
 Alpha virt. eigenvalues --    1.11130   1.11718   1.11970   1.15226   1.17578
 Alpha virt. eigenvalues --    1.19345   1.20591   1.22286   1.22545   1.23661
 Alpha virt. eigenvalues --    1.26049   1.28434   1.29973   1.30482   1.40050
 Alpha virt. eigenvalues --    1.40691   1.40921   1.42864   1.44970   1.45666
 Alpha virt. eigenvalues --    1.46284   1.47125   1.61827   1.62122   1.65732
 Alpha virt. eigenvalues --    1.65886   1.77336   1.77455   1.78452   1.78981
 Alpha virt. eigenvalues --    1.83017   1.83191   1.87897   1.88050   1.92654
 Alpha virt. eigenvalues --    1.92802   1.94915   1.95189   1.96138   1.96497
 Alpha virt. eigenvalues --    1.97334   1.97689   1.98010   1.98794   2.02051
 Alpha virt. eigenvalues --    2.02407   2.03851   2.04285   2.05130   2.05460
 Alpha virt. eigenvalues --    2.11396   2.11632   2.12011   2.12303   2.14341
 Alpha virt. eigenvalues --    2.15126   2.15975   2.16604   2.16810   2.17551
 Alpha virt. eigenvalues --    2.18261   2.18871   2.20064   2.21247   2.21899
 Alpha virt. eigenvalues --    2.23190   2.24706   2.24841   2.27470   2.28133
 Alpha virt. eigenvalues --    2.28727   2.29150   2.29513   2.29827   2.30586
 Alpha virt. eigenvalues --    2.31598   2.32189   2.32337   2.33884   2.35160
 Alpha virt. eigenvalues --    2.35847   2.36460   2.36738   2.37529   2.39313
 Alpha virt. eigenvalues --    2.39735   2.46582   2.47120   2.48475   2.48743
 Alpha virt. eigenvalues --    2.51121   2.51649   2.61308   2.61403   2.62349
 Alpha virt. eigenvalues --    2.63018   2.69766   2.70466   2.83173   2.83373
 Alpha virt. eigenvalues --    2.83785   2.84366   2.85384   2.85817   2.88721
 Alpha virt. eigenvalues --    2.88879   2.89309   2.89650
          Condensed to atoms (all electrons):
 Mulliken charges:
               1
     1  C   -0.307752
     2  C   -0.225457
     3  C   -0.208762
     4  C   -0.279349
     5  C   -0.263364
     6  C   -0.234957
     7  C   -0.272977
     8  C   -0.251129
     9  C   -0.254254
    10  H    0.117501
    11  H    0.121355
    12  H    0.126071
    13  H    0.125029
    14  H    0.101012
    15  H    0.115549
    16  H    0.124001
    17  H    0.113635
    18  H    0.115255
    19  H    0.112271
    20  H    0.115668
    21  H    0.115847
    22  H    0.126816
    23  H    0.107605
    24  H    0.111073
    25  H    0.112518
    26  H    0.107234
    27  H    0.112671
    28  H    0.112655
    29  H    0.107463
    30  C   -0.308127
    31  C   -0.206207
    32  C   -0.207589
    33  C   -0.305633
    34  C   -0.259906
    35  C   -0.232804
    36  C   -0.273201
    37  C   -0.252746
    38  C   -0.249105
    39  H    0.114131
    40  H    0.113694
    41  H    0.132864
    42  H    0.113318
    43  H    0.099112
    44  H    0.118669
    45  H    0.147452
    46  H    0.112346
    47  H    0.110747
    48  H    0.113816
    49  H    0.110054
    50  H    0.116452
    51  H    0.120317
    52  H    0.107320
    53  H    0.113449
    54  H    0.110815
    55  H    0.107201
    56  H    0.113271
    57  H    0.110034
    58  H    0.107028
 Sum of Mulliken charges =   0.00000
 Mulliken charges with hydrogens summed into heavy atoms:
               1
     1  C    0.057175
     2  C    0.000584
     3  C   -0.208762
     4  C    0.073836
     5  C    0.079830
     6  C   -0.234957
     7  C    0.077292
     8  C    0.079696
     9  C    0.078535
    30  C    0.052562
    31  C    0.006222
    32  C   -0.207589
    33  C    0.072833
    34  C    0.074712
    35  C   -0.232804
    36  C    0.070888
    37  C    0.078719
    38  C    0.081227
 Electronic spatial extent (au):  <R**2>=           7170.8071
 Charge=              0.0000 electrons
 Dipole moment (field-independent basis, Debye):
    X=             -0.0637    Y=             -0.0013    Z=              0.0914  Tot=              0.1114
 Evaluate density.
 Using the total density.
 Monte-Carlo method of calculating molar volume:
 based on  0.001 e/bohr**3 density envelope.
 Number of points per bohr**3 =  100 CutOff= 1.00D-04
 Using the SCF density.
 There are      2282 points.  Will hold      2282 in memory.
 LenV=  1047651469 MDV=  1048576000.
 Box volume =11887.854 fraction occupied=0.257
 Integrated density= 1.2494717329098258D+02 error=-2.3052826709017424D+01
 Molar volume = 3057.919 bohr**3/mol (272.885 cm**3/mol)
 Recommended a0 for SCRF calculation =  5.74 angstrom ( 10.86 bohr)
   1 Symmetry operations used in ECPInt.
 ECPInt:  NShTT=   17766 NPrTT=   71230 LenC2=   16712 LenP2D=   46665.
 LDataN:  DoStor=T MaxTD1= 5 Len=  102
 Calling FoFJK, ICntrl=      2127 FMM=F ISym2X=0 I1Cent= 0 IOpClX= 0 NMat=1 NMatS=1 NMatT=0.

 GradGradGradGradGradGradGradGradGradGradGradGradGradGradGradGradGradGrad
 FormGI is forming the generalized inverse of G from B-inverse, IUseBI=4.
 Internal  Forces:  Max     0.012116004 RMS     0.003716474
 Step number   1 out of a maximum of  348
 All quantities printed in internal units (Hartrees-Bohrs-Radians)
 Mixed Optimization -- RFO/linear search
 Second derivative matrix not updated -- first step.
 ITU=  0
     Eigenvalues ---    0.00230   0.00293   0.00293   0.00294   0.00297
     Eigenvalues ---    0.00299   0.00306   0.00307   0.00308   0.00331
     Eigenvalues ---    0.00363   0.00407   0.00416   0.00464   0.00605
     Eigenvalues ---    0.00700   0.00720   0.01041   0.01388   0.01611
     Eigenvalues ---    0.01725   0.02082   0.02313   0.02450   0.02808
     Eigenvalues ---    0.02918   0.03097   0.03350   0.03634   0.03942
     Eigenvalues ---    0.03979   0.04383   0.04429   0.04440   0.04480
     Eigenvalues ---    0.04620   0.04642   0.04673   0.04758   0.04849
     Eigenvalues ---    0.05094   0.05257   0.05347   0.05350   0.05350
     Eigenvalues ---    0.05362   0.05373   0.05397   0.05413   0.05426
     Eigenvalues ---    0.05505   0.05575   0.05584   0.05609   0.05614
     Eigenvalues ---    0.05643   0.05648   0.05651   0.05651   0.05652
     Eigenvalues ---    0.05727   0.05949   0.06029   0.06322   0.06522
     Eigenvalues ---    0.06868   0.07286   0.07625   0.08499   0.08912
     Eigenvalues ---    0.09109   0.09210   0.09434   0.10283   0.10812
     Eigenvalues ---    0.11283   0.11402   0.11464   0.12210   0.12430
     Eigenvalues ---    0.12808   0.13326   0.13804   0.14264   0.14340
     Eigenvalues ---    0.14418   0.14434   0.14872   0.16000   0.16000
     Eigenvalues ---    0.16000   0.16000   0.16000   0.16000   0.16000
     Eigenvalues ---    0.16000   0.16000   0.16000   0.16000   0.16000
     Eigenvalues ---    0.16000   0.16000   0.16000   0.16000   0.16000
     Eigenvalues ---    0.16000   0.16000   0.16000   0.16000   0.16000
     Eigenvalues ---    0.16000   0.16000   0.23833   0.24837   0.25376
     Eigenvalues ---    0.26026   0.26080   0.27302   0.27572   0.27789
     Eigenvalues ---    0.28896   0.28898   0.28905   0.28928   0.28942
     Eigenvalues ---    0.28984   0.29004   0.29690   0.29988   0.30386
     Eigenvalues ---    0.31794   0.33407   0.34014   0.34092   0.34707
     Eigenvalues ---    0.34709   0.34919   0.34971   0.34990   0.34996
     Eigenvalues ---    0.35000   0.35000   0.35005   0.35007   0.35113
     Eigenvalues ---    0.35157   0.35159   0.35160   0.35163   0.35169
     Eigenvalues ---    0.35178   0.35189   0.35193   0.35195   0.35197
     Eigenvalues ---    0.35199   0.35203   0.35212   0.35242   0.35244
     Eigenvalues ---    0.35252   0.35257   0.35258   0.35262   0.35262
     Eigenvalues ---    0.35267   0.35269   0.35287
 Linear search not attempted -- first point.
 Iteration  1 RMS(Cart)=  0.02933644 RMS(Int)=  0.00018707
 Iteration  2 RMS(Cart)=  0.00044386 RMS(Int)=  0.00002883
 Iteration  3 RMS(Cart)=  0.00000010 RMS(Int)=  0.00002883
 Variable       Old X    -DE/DX   Delta X   Delta X   Delta X     New X
                                 (Linear)    (Quad)   (Total)
    R1        2.88586   0.00384   0.00000   0.01229   0.01229   2.89815
    R2        2.05284   0.01089   0.00000   0.02960   0.02960   2.08243
    R3        2.05807   0.00992   0.00000   0.02721   0.02721   2.08529
    R4        2.05491   0.01075   0.00000   0.02932   0.02932   2.08423
    R5        2.92097   0.00556   0.00000   0.01775   0.01774   2.93871
    R6        2.06047   0.00798   0.00000   0.02176   0.02176   2.08223
    R7        2.06153   0.00875   0.00000   0.02412   0.02412   2.08565
    R8        2.90100   0.00440   0.00000   0.01479   0.01478   2.91578
    R9        2.89994   0.00526   0.00000   0.01720   0.01720   2.91714
   R10        2.96660   0.00788   0.00000   0.03008   0.03010   2.99669
   R11        2.05420   0.01080   0.00000   0.02941   0.02941   2.08361
   R12        2.05378   0.01053   0.00000   0.02951   0.02951   2.08329
   R13        2.05243   0.01111   0.00000   0.03018   0.03018   2.08261
   R14        2.05401   0.01077   0.00000   0.02933   0.02933   2.08334
   R15        2.05346   0.01107   0.00000   0.03012   0.03012   2.08358
   R16        2.05281   0.01135   0.00000   0.03085   0.03085   2.08366
   R17        2.90201   0.00453   0.00000   0.01565   0.01565   2.91767
   R18        2.90217   0.00494   0.00000   0.01622   0.01622   2.91840
   R19        2.90153   0.00498   0.00000   0.01632   0.01632   2.91785
   R20        2.05357   0.01151   0.00000   0.03131   0.03131   2.08488
   R21        2.05282   0.00984   0.00000   0.02869   0.02869   2.08151
   R22        2.05675   0.01066   0.00000   0.02917   0.02917   2.08592
   R23        2.05332   0.01144   0.00000   0.03110   0.03110   2.08442
   R24        2.05252   0.01118   0.00000   0.03036   0.03036   2.08288
   R25        2.05663   0.01069   0.00000   0.02923   0.02923   2.08587
   R26        2.05363   0.01137   0.00000   0.03095   0.03095   2.08458
   R27        2.05241   0.01129   0.00000   0.03067   0.03067   2.08308
   R28        2.05667   0.01065   0.00000   0.02914   0.02914   2.08581
   R29        4.92084   0.00123   0.00000   0.00642   0.00643   4.92727
   R30        4.76057  -0.00026   0.00000  -0.01071  -0.01070   4.74987
   R31        4.77625  -0.00001   0.00000  -0.00534  -0.00534   4.77091
   R32        4.77995  -0.00063   0.00000  -0.01937  -0.01937   4.76058
   R33        5.05738  -0.00053   0.00000  -0.02215  -0.02216   5.03522
   R34        2.88572   0.00263   0.00000   0.01038   0.01039   2.89611
   R35        2.05411   0.01108   0.00000   0.03018   0.03018   2.08429
   R36        2.05722   0.01006   0.00000   0.02756   0.02756   2.08478
   R37        2.05271   0.01004   0.00000   0.02803   0.02805   2.08075
   R38        2.92140   0.00492   0.00000   0.01614   0.01614   2.93754
   R39        2.06120   0.00776   0.00000   0.02316   0.02315   2.08435
   R40        2.06150   0.00845   0.00000   0.02330   0.02330   2.08479
   R41        2.89939   0.00467   0.00000   0.01485   0.01482   2.91420
   R42        2.90036   0.00509   0.00000   0.01668   0.01668   2.91703
   R43        2.96668   0.00809   0.00000   0.02933   0.02933   2.99601
   R44        2.05415   0.01061   0.00000   0.02890   0.02890   2.08306
   R45        2.05240   0.01046   0.00000   0.02850   0.02848   2.08088
   R46        2.05368   0.01092   0.00000   0.02973   0.02973   2.08342
   R47        2.05417   0.01072   0.00000   0.02921   0.02921   2.08338
   R48        2.05251   0.01099   0.00000   0.02986   0.02986   2.08237
   R49        2.05387   0.01127   0.00000   0.03069   0.03069   2.08456
   R50        2.90124   0.00560   0.00000   0.01838   0.01838   2.91961
   R51        2.90220   0.00493   0.00000   0.01619   0.01619   2.91839
   R52        2.90201   0.00487   0.00000   0.01597   0.01597   2.91798
   R53        2.05259   0.01124   0.00000   0.03054   0.03054   2.08313
   R54        2.05212   0.01212   0.00000   0.03289   0.03289   2.08501
   R55        2.05691   0.01060   0.00000   0.02900   0.02900   2.08591
   R56        2.05258   0.01120   0.00000   0.03042   0.03042   2.08300
   R57        2.05353   0.01137   0.00000   0.03094   0.03094   2.08447
   R58        2.05675   0.01066   0.00000   0.02916   0.02916   2.08591
   R59        2.05268   0.01102   0.00000   0.02993   0.02993   2.08261
   R60        2.05359   0.01142   0.00000   0.03109   0.03109   2.08468
   R61        2.05682   0.01063   0.00000   0.02908   0.02908   2.08590
    A1        1.94634   0.00133   0.00000   0.00799   0.00796   1.95430
    A2        1.90635   0.00154   0.00000   0.00871   0.00868   1.91503
    A3        1.95264   0.00127   0.00000   0.00685   0.00683   1.95946
    A4        1.88072  -0.00134   0.00000  -0.00691  -0.00695   1.87377
    A5        1.89214  -0.00142   0.00000  -0.00797  -0.00799   1.88414
    A6        1.88324  -0.00158   0.00000  -0.00985  -0.00987   1.87336
    A7        2.02082   0.00121   0.00000   0.01566   0.01563   2.03645
    A8        1.88506  -0.00077   0.00000  -0.00894  -0.00895   1.87611
    A9        1.87370   0.00014   0.00000   0.00478   0.00459   1.87828
   A10        1.89128  -0.00008   0.00000  -0.00118  -0.00116   1.89012
   A11        1.91095   0.00024   0.00000   0.00322   0.00308   1.91403
   A12        1.87718  -0.00090   0.00000  -0.01605  -0.01604   1.86114
   A13        1.89331  -0.00044   0.00000  -0.00415  -0.00417   1.88914
   A14        1.91156   0.00009   0.00000   0.00240   0.00241   1.91397
   A15        1.92015   0.00018   0.00000  -0.00008  -0.00008   1.92007
   A16        1.87803   0.00028   0.00000   0.00224   0.00225   1.88028
   A17        1.93052  -0.00024   0.00000  -0.00239  -0.00239   1.92813
   A18        1.92942   0.00012   0.00000   0.00194   0.00193   1.93136
   A19        1.92182   0.00128   0.00000   0.00926   0.00924   1.93106
   A20        1.94790  -0.00036   0.00000   0.00173   0.00174   1.94964
   A21        1.93827   0.00144   0.00000   0.00978   0.00976   1.94803
   A22        1.88138  -0.00076   0.00000  -0.00672  -0.00674   1.87465
   A23        1.87738  -0.00099   0.00000  -0.00708  -0.00716   1.87022
   A24        1.89475  -0.00072   0.00000  -0.00797  -0.00798   1.88677
   A25        1.91887   0.00172   0.00000   0.00966   0.00962   1.92849
   A26        1.93905   0.00117   0.00000   0.00693   0.00689   1.94594
   A27        1.94351   0.00197   0.00000   0.01111   0.01107   1.95457
   A28        1.87589  -0.00144   0.00000  -0.00794  -0.00798   1.86791
   A29        1.89087  -0.00200   0.00000  -0.01192  -0.01197   1.87890
   A30        1.89369  -0.00166   0.00000  -0.00918  -0.00922   1.88447
   A31        1.95159  -0.00076   0.00000  -0.00454  -0.00453   1.94706
   A32        1.94492   0.00036   0.00000   0.00021   0.00020   1.94513
   A33        1.94416  -0.00004   0.00000  -0.00026  -0.00026   1.94390
   A34        1.86886   0.00017   0.00000   0.00225   0.00225   1.87111
   A35        1.87692   0.00044   0.00000   0.00104   0.00103   1.87795
   A36        1.87327  -0.00014   0.00000   0.00165   0.00165   1.87492
   A37        1.94879   0.00167   0.00000   0.00990   0.00990   1.95869
   A38        1.94635   0.00017   0.00000   0.00674   0.00674   1.95308
   A39        1.90887   0.00052   0.00000   0.00488   0.00487   1.91374
   A40        1.89874  -0.00150   0.00000  -0.01130  -0.01134   1.88741
   A41        1.87833  -0.00061   0.00000  -0.00418  -0.00426   1.87407
   A42        1.88028  -0.00034   0.00000  -0.00704  -0.00708   1.87321
   A43        1.95143   0.00140   0.00000   0.00817   0.00814   1.95957
   A44        1.94290   0.00162   0.00000   0.00912   0.00909   1.95199
   A45        1.90913   0.00098   0.00000   0.00550   0.00548   1.91460
   A46        1.89651  -0.00163   0.00000  -0.00912  -0.00916   1.88735
   A47        1.87972  -0.00119   0.00000  -0.00656  -0.00658   1.87314
   A48        1.88180  -0.00138   0.00000  -0.00827  -0.00829   1.87351
   A49        1.95111   0.00136   0.00000   0.00790   0.00787   1.95899
   A50        1.94208   0.00168   0.00000   0.00956   0.00952   1.95160
   A51        1.91068   0.00095   0.00000   0.00528   0.00526   1.91594
   A52        1.89506  -0.00163   0.00000  -0.00904  -0.00908   1.88598
   A53        1.88034  -0.00119   0.00000  -0.00675  -0.00677   1.87357
   A54        1.88227  -0.00138   0.00000  -0.00812  -0.00814   1.87414
   A55        2.53018  -0.00108   0.00000  -0.00192  -0.00189   2.52829
   A56        2.28925  -0.00165   0.00000  -0.00815  -0.00817   2.28107
   A57        2.70504  -0.00049   0.00000  -0.00417  -0.00421   2.70083
   A58        1.00274   0.00198   0.00000   0.00643   0.00642   1.00916
   A59        1.01690   0.00153   0.00000   0.00718   0.00717   1.02407
   A60        1.10172   0.00160   0.00000   0.00711   0.00712   1.10884
   A61        2.40031  -0.00064   0.00000  -0.00107  -0.00110   2.39922
   A62        2.11852   0.00035   0.00000  -0.00163  -0.00162   2.11691
   A63        1.95041   0.00090   0.00000   0.01049   0.01046   1.96088
   A64        1.90487   0.00158   0.00000   0.01090   0.01087   1.91574
   A65        1.94909  -0.00070   0.00000  -0.00394  -0.00393   1.94517
   A66        1.88081  -0.00069   0.00000  -0.00520  -0.00531   1.87550
   A67        1.89363  -0.00035   0.00000  -0.00578  -0.00576   1.88787
   A68        1.88260  -0.00082   0.00000  -0.00722  -0.00722   1.87538
   A69        2.02167   0.00177   0.00000   0.01391   0.01390   2.03557
   A70        1.87591  -0.00075   0.00000  -0.00235  -0.00234   1.87357
   A71        1.88176   0.00014   0.00000   0.00786   0.00773   1.88949
   A72        1.90756  -0.00043   0.00000  -0.00685  -0.00687   1.90069
   A73        1.89335  -0.00020   0.00000   0.00290   0.00268   1.89603
   A74        1.87882  -0.00069   0.00000  -0.01778  -0.01775   1.86107
   A75        1.91110  -0.00006   0.00000  -0.00327  -0.00331   1.90780
   A76        1.89393   0.00007   0.00000   0.00372   0.00374   1.89767
   A77        1.91982  -0.00039   0.00000  -0.00635  -0.00640   1.91342
   A78        1.87890   0.00015   0.00000   0.00383   0.00384   1.88274
   A79        1.92770  -0.00033   0.00000  -0.00438  -0.00441   1.92329
   A80        1.93159   0.00057   0.00000   0.00673   0.00674   1.93833
   A81        1.92117   0.00157   0.00000   0.01505   0.01502   1.93619
   A82        1.93871  -0.00103   0.00000  -0.00473  -0.00471   1.93400
   A83        1.94008   0.00117   0.00000   0.00764   0.00759   1.94767
   A84        1.89191  -0.00037   0.00000  -0.00531  -0.00532   1.88659
   A85        1.87668  -0.00071   0.00000  -0.00472  -0.00484   1.87184
   A86        1.89348  -0.00069   0.00000  -0.00854  -0.00852   1.88496
   A87        1.91978   0.00153   0.00000   0.00897   0.00893   1.92871
   A88        1.93895   0.00154   0.00000   0.00834   0.00831   1.94726
   A89        1.94689   0.00132   0.00000   0.00775   0.00771   1.95460
   A90        1.87716  -0.00163   0.00000  -0.00971  -0.00974   1.86742
   A91        1.88163  -0.00136   0.00000  -0.00685  -0.00689   1.87474
   A92        1.89716  -0.00163   0.00000  -0.00975  -0.00977   1.88739
   A93        1.94378  -0.00062   0.00000  -0.00665  -0.00665   1.93713
   A94        1.94547   0.00032   0.00000   0.00259   0.00260   1.94807
   A95        1.95071  -0.00016   0.00000  -0.00243  -0.00244   1.94827
   A96        1.87414   0.00019   0.00000   0.00270   0.00270   1.87685
   A97        1.87663   0.00028   0.00000   0.00118   0.00116   1.87779
   A98        1.86905   0.00002   0.00000   0.00311   0.00311   1.87216
   A99        1.94332   0.00174   0.00000   0.00967   0.00963   1.95295
   A100       1.94816   0.00181   0.00000   0.01020   0.01016   1.95833
   A101       1.91056   0.00099   0.00000   0.00599   0.00596   1.91652
   A102       1.89617  -0.00203   0.00000  -0.01217  -0.01221   1.88396
   A103       1.88164  -0.00136   0.00000  -0.00758  -0.00761   1.87403
   A104       1.88177  -0.00137   0.00000  -0.00733  -0.00736   1.87441
   A105       1.94293   0.00164   0.00000   0.00928   0.00924   1.95217
   A106       1.95189   0.00139   0.00000   0.00806   0.00803   1.95992
   A107       1.90883   0.00096   0.00000   0.00541   0.00539   1.91421
   A108       1.89655  -0.00165   0.00000  -0.00923  -0.00926   1.88729
   A109       1.88179  -0.00136   0.00000  -0.00804  -0.00806   1.87374
   A110       1.87947  -0.00119   0.00000  -0.00663  -0.00665   1.87282
   A111       1.94645   0.00149   0.00000   0.00832   0.00829   1.95474
   A112       1.94837   0.00147   0.00000   0.00852   0.00849   1.95685
   A113       1.90886   0.00089   0.00000   0.00510   0.00507   1.91393
   A114       1.89660  -0.00164   0.00000  -0.00937  -0.00940   1.88720
   A115       1.88108  -0.00125   0.00000  -0.00742  -0.00744   1.87365
   A116       1.88010  -0.00115   0.00000  -0.00625  -0.00627   1.87384
   A117       0.92146   0.00114   0.00000   0.00424   0.00423   0.92569
   A118       2.01891  -0.00112   0.00000  -0.00375  -0.00375   2.01515
   A119       2.70701  -0.00041   0.00000  -0.00103  -0.00105   2.70595
   A120       2.14323  -0.00016   0.00000  -0.00006  -0.00010   2.14312
   A121       1.04094   0.00168   0.00000   0.00734   0.00735   1.04828
   A122       2.52721  -0.00072   0.00000  -0.00345  -0.00349   2.52371
   A123       2.71503  -0.00096   0.00000  -0.00393  -0.00394   2.71109
    D1       -1.17026  -0.00038   0.00000  -0.00734  -0.00738  -1.17765
    D2        2.98953  -0.00050   0.00000  -0.00957  -0.00956   2.97997
    D3        0.96998   0.00086   0.00000   0.01119   0.01123   0.98121
    D4        3.03611  -0.00052   0.00000  -0.00932  -0.00937   3.02675
    D5        0.91272  -0.00065   0.00000  -0.01155  -0.01154   0.90118
    D6       -1.10683   0.00072   0.00000   0.00922   0.00925  -1.09759
    D7        0.95226  -0.00036   0.00000  -0.00705  -0.00710   0.94517
    D8       -1.17113  -0.00048   0.00000  -0.00928  -0.00927  -1.18040
    D9        3.09250   0.00088   0.00000   0.01148   0.01152   3.10402
   D10       -1.27899   0.00059   0.00000   0.00591   0.00592  -1.27307
   D11        0.76622   0.00073   0.00000   0.00758   0.00758   0.77379
   D12        2.89034   0.00105   0.00000   0.01150   0.01150   2.90184
   D13        0.84108   0.00035   0.00000   0.00405   0.00406   0.84514
   D14        2.88628   0.00049   0.00000   0.00572   0.00572   2.89200
   D15       -1.27278   0.00081   0.00000   0.00964   0.00964  -1.26314
   D16        2.88377  -0.00064   0.00000  -0.01403  -0.01405   2.86971
   D17       -1.35421  -0.00050   0.00000  -0.01237  -0.01239  -1.36660
   D18        0.76991  -0.00018   0.00000  -0.00845  -0.00847   0.76144
   D19       -1.95700   0.00086   0.00000   0.01331   0.01327  -1.94373
   D20       -0.38393   0.00141   0.00000   0.01252   0.01247  -0.37146
   D21        1.65781   0.00074   0.00000   0.00303   0.00300   1.66081
   D22        2.12456  -0.00008   0.00000   0.00053   0.00053   2.12509
   D23       -2.58555   0.00047   0.00000  -0.00025  -0.00027  -2.58583
   D24       -0.54382  -0.00020   0.00000  -0.00975  -0.00974  -0.55355
   D25        0.06028   0.00017   0.00000   0.00614   0.00616   0.06644
   D26        1.63335   0.00072   0.00000   0.00536   0.00536   1.63871
   D27       -2.60810   0.00005   0.00000  -0.00414  -0.00410  -2.61220
   D28        0.87107  -0.00015   0.00000  -0.00053  -0.00054   0.87053
   D29       -1.21767   0.00019   0.00000   0.00063   0.00063  -1.21704
   D30        2.94865   0.00035   0.00000   0.00281   0.00281   2.95146
   D31       -1.19550  -0.00017   0.00000  -0.00236  -0.00238  -1.19788
   D32        2.99894   0.00017   0.00000  -0.00120  -0.00120   2.99774
   D33        0.88208   0.00033   0.00000   0.00097   0.00098   0.88306
   D34        2.97851  -0.00035   0.00000  -0.00473  -0.00473   2.97378
   D35        0.88977  -0.00002   0.00000  -0.00357  -0.00356   0.88622
   D36       -1.22710   0.00015   0.00000  -0.00139  -0.00137  -1.22847
   D37       -1.24485   0.00036   0.00000   0.00710   0.00710  -1.23775
   D38        2.96402   0.00031   0.00000   0.00643   0.00644   2.97045
   D39        0.85099   0.00027   0.00000   0.00573   0.00574   0.85673
   D40        0.80993   0.00004   0.00000   0.00473   0.00472   0.81466
   D41       -1.26438  -0.00000   0.00000   0.00406   0.00406  -1.26032
   D42        2.90577  -0.00005   0.00000   0.00336   0.00336   2.90913
   D43        2.91980   0.00000   0.00000   0.00437   0.00437   2.92416
   D44        0.84548  -0.00005   0.00000   0.00370   0.00370   0.84918
   D45       -1.26755  -0.00010   0.00000   0.00300   0.00300  -1.26455
   D46        0.78629  -0.00013   0.00000  -0.00646  -0.00647   0.77983
   D47        2.87725  -0.00018   0.00000  -0.00654  -0.00655   2.87070
   D48       -1.31442  -0.00014   0.00000  -0.00449  -0.00450  -1.31892
   D49       -1.30511   0.00046   0.00000   0.00027   0.00027  -1.30483
   D50        0.78585   0.00040   0.00000   0.00019   0.00019   0.78604
   D51        2.87736   0.00044   0.00000   0.00224   0.00224   2.87960
   D52        2.89974   0.00018   0.00000  -0.00224  -0.00224   2.89750
   D53       -1.29249   0.00013   0.00000  -0.00232  -0.00232  -1.29481
   D54        0.79902   0.00017   0.00000  -0.00027  -0.00027   0.79876
   D55        1.20169  -0.00011   0.00000  -0.00275  -0.00275   1.19894
   D56       -0.91076  -0.00098   0.00000  -0.01086  -0.01082  -0.92159
   D57       -2.93955   0.00097   0.00000   0.00522   0.00517  -2.93437
   D58        0.91133  -0.00014   0.00000  -0.00337  -0.00337   0.90796
   D59       -1.21699   0.00050   0.00000  -0.00065  -0.00066  -1.21765
   D60        2.98830   0.00048   0.00000   0.00076   0.00076   2.98906
   D61       -1.22375  -0.00023   0.00000  -0.00233  -0.00232  -1.22607
   D62        2.93112   0.00041   0.00000   0.00039   0.00038   2.93150
   D63        0.85323   0.00039   0.00000   0.00180   0.00180   0.85503
   D64        3.05087  -0.00036   0.00000  -0.00585  -0.00585   3.04503
   D65        0.92256   0.00027   0.00000  -0.00313  -0.00314   0.91942
   D66       -1.15533   0.00026   0.00000  -0.00172  -0.00172  -1.15706
   D67        0.89729   0.00028   0.00000   0.00445   0.00445   0.90173
   D68       -1.22757   0.00024   0.00000   0.00393   0.00392  -1.22365
   D69        2.97782   0.00032   0.00000   0.00500   0.00500   2.98281
   D70        3.03652  -0.00032   0.00000   0.00044   0.00045   3.03697
   D71        0.91167  -0.00036   0.00000  -0.00008  -0.00008   0.91159
   D72       -1.16613  -0.00028   0.00000   0.00099   0.00100  -1.16514
   D73       -1.23566   0.00020   0.00000   0.00355   0.00355  -1.23211
   D74        2.92268   0.00016   0.00000   0.00303   0.00302   2.92570
   D75        0.84487   0.00024   0.00000   0.00410   0.00410   0.84897
   D76        0.89926  -0.00024   0.00000   0.00232   0.00233   0.90159
   D77       -1.22293  -0.00029   0.00000   0.00162   0.00162  -1.22131
   D78        2.98139  -0.00024   0.00000   0.00235   0.00235   2.98374
   D79       -1.24487   0.00043   0.00000   0.00743   0.00743  -1.23744
   D80        2.91613   0.00038   0.00000   0.00673   0.00673   2.92286
   D81        0.83726   0.00044   0.00000   0.00746   0.00746   0.84472
   D82        3.03268   0.00009   0.00000   0.00350   0.00350   3.03619
   D83        0.91050   0.00004   0.00000   0.00280   0.00280   0.91329
   D84       -1.16838   0.00009   0.00000   0.00353   0.00353  -1.16485
   D85        2.21671   0.00067   0.00000   0.00616   0.00614   2.22286
   D86        0.05975  -0.00051   0.00000  -0.00300  -0.00294   0.05681
   D87       -1.97165   0.00118   0.00000   0.01167   0.01160  -1.96005
   D88       -1.00288   0.00055   0.00000  -0.00097  -0.00098  -1.00386
   D89        1.68452   0.00032   0.00000  -0.00150  -0.00153   1.68299
   D90       -3.04032   0.00091   0.00000   0.00503   0.00506  -3.03526
   D91       -0.35292   0.00068   0.00000   0.00450   0.00451  -0.34841
   D92        1.91015   0.00059   0.00000   0.00266   0.00265   1.91280
   D93       -1.68563   0.00035   0.00000   0.00212   0.00210  -1.68354
   D94       -2.69472   0.00020   0.00000  -0.00623  -0.00625  -2.70097
   D95       -0.30221  -0.00006   0.00000  -0.00496  -0.00497  -0.30718
   D96        0.88298   0.00046   0.00000  -0.00148  -0.00149   0.88150
   D97        0.24228   0.00049   0.00000   0.00735   0.00732   0.24960
   D98       -2.89497   0.00072   0.00000   0.01592   0.01591  -2.87906
   D99       -2.58664   0.00061   0.00000   0.00031   0.00028  -2.58635
   D100       0.55929   0.00083   0.00000   0.00888   0.00888   0.56817
   D101       2.53261  -0.00062   0.00000  -0.00218  -0.00221   2.53039
   D102      -0.60465  -0.00039   0.00000   0.00639   0.00638  -0.59826
[...]
 .00000106,0.00000261,-0.00000090,0.00000200,0.00000244,-0.00000028,-0.
 00000377,-0.00000052,-0.00000114,-0.00000532,0.00000024,-0.00000137,-0
 .00000210,0.00000284,0.00000253,-0.00000007,-0.00000039,-0.00000154,-0
 .00000047,-0.00000014,-0.00000105,-0.00000330,0.00000189,0.00000262,0.
 00000083,-0.00000182,-0.00000145,-0.00000042,0.00000181,-0.00000122,-0
 .00000035,0.00000180,0.00000251,0.00000058,-0.00019953,-0.00001488,-0.
 00040932,-0.00007086,-0.00207162,0.00044597,0.00018664,0.00019091,0.00
 062421,0.00003160,0.00016803,-0.00012496,-0.00018416,0.00014464,-0.000
 12806,0.01022170,-0.00146137,-0.01247251,0.00126978,-0.00011097,-0.000
 76469,-0.00112516,-0.00133268,-0.00224020,-0.15374189,0.03032139,0.129
 10754,0.00001041,-0.00002942,-0.00000057,0.00004692,0.00004114,-0.0000
 1275,-0.00005955,-0.00011028,0.00000726,-0.00058049,-0.00068473,0.0001
 5923,-0.00064893,-0.00018661,-0.00013144,0.00002108,0.00003780,0.00004
 603,0.00000277,-0.00002208,0.00001835,0.00000826,0.00001199,-0.0000208
 9,0.00008441,0.00008013,0.00008475,0.00000891,0.00003142,0.00000890,0.
 00013222,-0.00006942,0.00016109,0.00019008,-0.00004602,0.00014525,-0.0
 0012926,-0.00016530,0.00007429,0.00003387,0.00005833,0.00017727,0.0002
 1289,-0.00024365,-0.00012622,0.00071849,-0.00008206,-0.00076543,-0.000
 09613,0.00006179,-0.00009666,0.16240129,-0.00001436,0.00002533,-0.0000
 7845,-0.00003196,0.00001580,0.00005050,0.00000529,-0.00000780,-0.00003
 941,0.00000994,0.00001256,0.00001149,0.00001034,0.00000189,0.00002138,
 -0.00000708,0.00000496,0.00001469,0.00000385,0.00000395,-0.00002149,0.
 00000607,-0.00000407,-0.00000513,-0.00000022,-0.00000551,-0.00000448,0
 .00002214,-0.00002217,0.00001489,-0.00001042,0.00003237,0.00003725,0.0
 0001521,-0.00002425,0.00003691,0.00000501,-0.00001358,-0.00005322,-0.0
 0001367,-0.00001480,0.00000006,0.00000298,-0.00001092,-0.00000939,0.00
 000213,0.00000808,-0.00000347,-0.00000074,-0.00000605,0.00000659,-0.00
 000103,-0.00000377,-0.00000318,0.00000819,-0.00000414,0.00000117,-0.00
 000492,0.00000091,0.00000125,-0.00000276,0.00000252,-0.00000576,-0.000
 01095,-0.00000892,0.00001608,0.00000613,-0.00000056,0.00000488,0.00000
 502,-0.00000341,0.00000250,-0.00000237,0.00000167,0.00000259,-0.000000
 53,0.00000049,0.00000128,-0.00000216,0.00000097,0.00000571,0.00000481,
 -0.00000214,0.00000071,-0.00000217,0.00000004,0.00000082,-0.00006404,0
 .00003820,0.00030144,-0.00038332,-0.00131949,-0.00027297,0.00086227,0.
 00048288,-0.00046893,-0.00019101,0.00002715,0.00015967,0.00009431,-0.0
 0025835,0.00022262,0.01016746,-0.00245568,-0.00965680,0.00049709,0.000
 37732,0.00090703,-0.00158715,-0.00110219,-0.00145985,0.02865615,-0.055
 73644,-0.03471384,0.00004419,0.00015665,-0.00004399,-0.00001554,-0.000
 02300,-0.00000818,0.00011258,0.00012769,-0.00000924,-0.00090103,-0.000
 28113,0.00000511,-0.00017746,-0.00175710,0.00050016,0.00000576,-0.0000
 1327,0.00000111,-0.00001985,0.00000960,-0.00003754,0.00006338,0.000059
 84,0.00013842,-0.00004917,-0.00011565,-0.00007816,-0.00010046,0.000056
 82,0.00003591,-0.00012573,0.00005904,-0.00019132,0.00001008,-0.0002274
 3,0.00007679,-0.00025061,0.00033784,0.00003854,-0.00022729,-0.00008775
 ,0.00013670,-0.00024562,-0.00009863,0.00017510,0.00030803,0.00048958,-
 0.00080821,0.00005348,0.00031703,-0.00031868,-0.02869001,0.05665749,0.
 00002110,-0.00002745,0.00000061,-0.00000709,-0.00001188,-0.00001146,-0
 .00001202,0.00001287,-0.00002523,0.00000570,-0.00002517,-0.00000290,0.
 00000552,-0.00000393,0.00001476,-0.00000267,-0.00002334,0.00000671,0.0
 0001056,0.00001432,-0.00001420,0.00000716,0.00001109,-0.00000281,-0.00
 000136,0.00000870,-0.00000075,0.00003798,0.00001502,-0.00000252,-0.000
 03497,-0.00003667,0.00007497,-0.00005965,0.00004347,-0.00005407,0.0000
 0022,-0.00001726,-0.00002538,0.00001285,0.00001757,0.00000562,-0.00000
 083,0.00001728,-0.00001043,-0.00000296,0.00000569,-0.00000043,0.000008
 24,0.00000116,0.00000984,-0.00000487,0.00001080,-0.00000475,0.00001038
 ,-0.00000149,0.00000590,-0.00000652,-0.00000096,-0.00000005,0.00000093
 ,-0.00000736,0.00000246,-0.00000307,-0.00000924,0.00000483,0.00000541,
 0.00000583,0.00000664,-0.00000263,-0.00000162,-0.00000088,-0.00000246,
 -0.00000308,0.00000144,0.00000505,0.00000505,0.00000367,-0.00000262,-0
 .00000478,0.00000670,-0.00000140,-0.00000212,0.00000166,0.00000402,0.0
 0000600,0.00000190,-0.00014568,0.00023778,0.00045935,0.00092452,0.0009
 3431,0.00001094,0.00031585,0.00077136,-0.00036529,0.00002684,-0.000025
 91,0.00004309,-0.00018861,0.00008735,0.00001501,0.01568641,-0.00188061
 ,-0.01732751,0.00136510,-0.00017561,0.00094532,-0.00379635,-0.00318284
 ,-0.00364815,0.12740858,-0.03582290,-0.20583134,0.00004029,0.00014969,
 -0.00003408,-0.00002496,-0.00006125,0.00000908,0.00008431,0.00008358,-
 0.00002083,-0.00047077,0.00020757,0.00014710,0.00042220,0.00048153,0.0
 0038017,-0.00007203,-0.00004408,-0.00001546,-0.00006411,-0.00000674,-0
 .00000190,0.00007784,0.00007546,0.00010025,0.00003896,-0.00005405,0.00
 004800,-0.00005772,0.00011268,0.00005888,0.00003589,0.00003261,0.00002
 084,-0.00000388,0.00005020,0.00039406,-0.00082768,0.00005801,-0.000028
 12,0.00000582,0.00020405,-0.00020861,-0.00004208,0.00002585,0.00028560
 ,0.00098828,-0.00005762,-0.00146834,-0.00012122,0.00005182,0.00033226,
 -0.13817441,0.03845191,0.22173635,-0.00000586,0.00003959,-0.00002465,-
 0.00000278,0.00000476,0.00002142,0.00001555,0.00001019,-0.00003517,-0.
 00000182,0.00000517,0.00001230,-0.00000331,-0.00001084,0.00001541,-0.0
 0000343,0.00002599,0.00001956,0.00000442,-0.00000325,-0.00002000,0.000
 00356,-0.00001443,-0.00000623,-0.00000063,-0.00001480,-0.00000666,-0.0
 0002572,-0.00002194,0.00001259,0.00001884,0.00002922,-0.00002675,0.000
 03041,-0.00006004,0.00002867,0.00000566,0.00004104,-0.00001990,-0.0000
 2616,-0.00001629,0.00001298,0.00002126,-0.00005518,-0.00002316,0.00001
 502,0.00005335,0.00001884,-0.00002269,-0.00000565,0.00000121,0.0000055
 3,-0.00001000,-0.00000366,-0.00000142,-0.00000010,-0.00000493,-0.00000
 685,0.00000289,0.00000869,-0.00000421,0.00001033,0.00000117,-0.0000077
 1,-0.00000125,0.00001372,-0.00000285,-0.00000805,-0.00000060,0.0000068
 9,0.00000011,0.00000345,0.00000001,0.00000632,0.00000776,-0.00000721,-
 0.00000751,-0.00000073,0.00000170,0.00000523,0.00000190,0.00000256,0.0
 0000139,-0.00000014,-0.00000744,-0.00000775,-0.00000081,0.00029904,-0.
 00013760,0.00027698,-0.00061890,0.00023864,-0.00036398,-0.00019126,0.0
 0117628,-0.00036860,0.00009907,-0.00012549,0.00013753,-0.00037582,0.00
 004694,-0.00007464,-0.01199413,0.00837544,-0.00304267,-0.00062166,-0.0
 0241840,-0.00358278,0.00032718,-0.00032415,0.00091248,-0.20439087,0.11
 364335,-0.06583966,-0.00003755,-0.00006040,0.00000628,-0.00001791,-0.0
 0001272,-0.00001024,0.00009896,0.00015007,-0.00001393,0.00032415,-0.00
 010240,-0.00012850,-0.00031358,-0.00039477,0.00063933,-0.00000944,-0.0
 0009849,0.00000007,0.00013638,0.00006371,0.00000719,0.00000544,0.00007
 663,0.00010122,0.00020830,0.00000926,0.00013450,0.00017222,0.00018756,
 0.00018984,0.00096774,-0.00003219,0.00024923,-0.00087327,0.00066581,-0
 .00046792,0.00028492,-0.00003741,0.00020188,0.00022574,-0.00003241,0.0
 0019479,0.00047669,0.00007019,-0.00017812,0.00008324,-0.00013342,-0.00
 005271,0.00003773,-0.00005981,0.00007878,-0.01243359,0.00974914,-0.007
 79787,0.21715362,0.00000441,-0.00000722,0.00000457,-0.00000762,-0.0000
 0063,-0.00000330,-0.00000435,0.00000395,-0.00000979,-0.00000553,-0.000
 00478,0.00000641,0.00000119,-0.00000308,0.00000586,-0.00000451,0.00000
 128,0.00000157,-0.00000011,-0.00000315,0.00000323,0.00000297,0.0000007
 0,-0.00000163,0.00000275,-0.00000175,0.00000063,0.00001213,0.00000085,
 -0.00000184,-0.00000292,-0.00000740,0.00002148,-0.00001500,0.00000918,
 -0.00001784,0.00000319,-0.00000272,-0.00000503,0.00000383,0.00000600,0
 .00000191,0.00000381,-0.00000263,-0.00000714,0.00000297,0.00000914,-0.
 00000272,0.00000245,-0.00000201,0.00000257,-0.00000230,0.00000265,-0.0
 0000147,0.00000455,-0.00000050,0.00000292,-0.00000144,0.00000075,-0.00
 000156,-0.00000303,0.00000241,-0.00001058,-0.00000363,-0.00000442,0.00
 000559,0.00000470,0.00000268,0.00000169,0.00000124,-0.00000276,0.00000
 030,-0.00000123,0.00000023,-0.00000135,0.00000123,0.00000301,0.0000011
 6,-0.00000225,-0.00000137,0.00000211,0.00000282,-0.00000215,-0.0000007
 2,0.00000016,0.00000288,0.00000142,0.00000672,0.00001158,0.00001029,-0
 .00014465,-0.00005614,0.00026323,-0.00023739,0.00017286,0.00055624,0.0
 0013953,0.00022417,-0.00011100,-0.00043984,-0.00101941,-0.00067009,-0.
 01170808,0.00940008,-0.00434190,-0.00118270,-0.00110430,-0.00200824,-0
 .00019822,0.00018054,0.00065414,0.11485206,-0.13047461,0.04882103,0.00
 000891,-0.00000589,0.00000264,0.00002121,0.00000686,-0.00001986,0.0000
 1846,0.00000346,-0.00000298,-0.00003155,-0.00003242,-0.00008844,-0.000
 49962,-0.00027181,0.00011516,0.00005218,0.00005061,0.00005672,0.000058
 79,0.00001211,0.00003833,-0.00000547,0.00000592,0.00002878,0.00006588,
 0.00017528,0.00012371,0.00001228,0.00004366,0.00007876,-0.00005143,-0.
 00181016,-0.00067340,-0.00062743,0.00070926,-0.00031611,0.00004478,-0.
 00008324,0.00001529,-0.00002643,0.00041429,-0.00022687,0.00012558,0.00
 019359,0.00018704,-0.00011492,0.00000536,0.00013847,0.00009498,-0.0000
 1585,-0.00006621,0.00137204,-0.00265752,0.00156204,-0.12334884,0.13889
 937,-0.00000645,0.00002739,-0.00001895,0.00001710,-0.00002554,-0.00000
 750,0.00000229,0.00002789,-0.00003299,-0.00000519,-0.00000955,0.000006
 97,-0.00000394,-0.00001313,0.00001481,-0.00000042,0.00000672,0.0000152
 6,0.00000444,-0.00000145,-0.00000709,0.00000289,-0.00000272,-0.0000035
 7,-0.00000076,-0.00000699,-0.00000401,0.00000530,-0.00000218,0.0000125
 8,-0.00000774,-0.00002734,0.00003406,-0.00001748,-0.00001075,-0.000028
 50,-0.00000536,0.00002057,-0.00000498,-0.00000567,0.00000361,0.0000127
 3,0.00002073,-0.00004395,-0.00002878,0.00001359,0.00005417,0.00002247,
 -0.00002095,-0.00000195,0.00000421,0.00000230,-0.00000010,-0.00000545,
 0.00000107,0.00000139,-0.00000105,-0.00000857,0.00000142,0.00000704,-0
 .00000192,0.00000759,0.00000439,-0.00000073,-0.00000067,0.00000402,-0.
 00000353,-0.00000399,0.00000010,0.00000243,0.00000088,0.00000068,0.000
 00041,0.00000414,0.00000602,-0.00000364,-0.00000458,0.00000174,0.00000
 075,0.00000079,0.00000155,-0.00000043,0.00000127,0.00000012,-0.0000031
 6,-0.00000366,0.00000086,-0.00011005,0.00005020,-0.00005843,0.00043492
 ,-0.00039420,0.00021752,0.00004138,0.00068679,0.00060522,0.00018670,0.
 00006525,-0.00003936,-0.00036971,-0.00011375,-0.00030676,-0.01674102,0
 .01546303,-0.00644756,-0.00173845,-0.00256169,-0.00408801,-0.00114735,
 0.00093976,0.00102112,-0.06542133,0.04808272,-0.07745562,0.00000456,-0
 .00001794,0.00000641,0.00001162,-0.00001339,0.00000212,-0.00000465,-0.
 00002795,0.00000157,0.00004566,0.00010777,-0.00001212,0.00006359,0.000
 18592,-0.00001473,0.00002679,-0.00006677,0.00001978,0.00012273,0.00004
 775,0.00000274,-0.00004181,0.00004818,0.00001036,0.00026639,0.00011563
 ,0.00018659,0.00004246,0.00001561,0.00003418,0.00036325,-0.00069680,0.
 00044371,-0.00152062,0.00060719,-0.00012344,-0.00027487,-0.00005405,0.
 00005905,0.00029343,-0.00026192,-0.00002237,0.00063355,-0.00028186,-0.
 00049018,0.00029400,-0.00020887,0.00021838,-0.00005766,-0.00012338,0.0
 0001218,0.01792956,-0.01444198,0.01003759,0.07434692,-0.05130794,0.079
 61109,0.00000793,-0.00003140,0.00005630,0.00001899,-0.00000535,-0.0000
 3023,-0.00000630,0.00000033,0.00002297,-0.00000128,-0.00001595,-0.0000
 1764,-0.00000422,-0.00000105,-0.00001132,0.00000558,-0.00001594,-0.000
 00831,0.00000367,0.00000942,0.00000160,-0.00000281,0.00000658,0.000003
 61,-0.00000252,0.00001030,0.00000210,-0.00001015,0.00001444,-0.0000093
 9,0.00000496,-0.00000740,-0.00002693,-0.00000454,0.00001125,-0.0000199
 8,0.00000237,0.00000590,0.00002014,0.00000753,0.00001115,-0.00000120,-
 0.00000418,0.00001396,0.00001204,-0.00000246,-0.00000986,0.00000443,-0
 .00000040,0.00000450,-0.00000246,-0.00000014,0.00000580,0.00000316,-0.
 00000362,0.00000130,0.00000020,0.00000261,-0.00000026,-0.00000161,0.00
 000455,-0.00000947,0.00001110,0.00000633,0.00000398,-0.00001123,-0.000
 00345,0.00000192,0.00000015,-0.00000579,0.00000266,-0.00000196,0.00000
 146,-0.00000362,-0.00000128,0.00000253,0.00000155,-0.00000032,0.000001
 16,-0.00000193,-0.00000200,-0.00000527,0.00000099,0.00000118,0.0000035
 6,0.00000205,-0.00000054,0.00007564,-0.00001848,-0.00006350,-0.0000443
 7,-0.00022872,-0.00044720,-0.00148749,0.00018867,-0.00226086,0.0001288
 0,-0.00090143,0.00032629,-0.00023063,0.00014735,-0.00008240,-0.0061877
 8,-0.01322746,0.00498780,0.00004250,-0.00137989,0.00073073,0.00059141,
 0.00059561,0.00122917,-0.08369901,-0.08455289,0.02993327,-0.00002339,-
 0.00006813,-0.00000545,-0.00001121,-0.00001220,0.00002547,-0.00001200,
 -0.00002935,-0.00001076,0.00032887,0.00006220,0.00002913,-0.00018058,0
 .00007370,0.00004700,-0.00020408,-0.00015818,-0.00021339,-0.00001725,0
 .00002493,0.00004472,0.00002703,0.00002509,-0.00005944,0.00009934,-0.0
 0004628,0.00006794,0.00012112,0.00003922,0.00005222,0.00030083,-0.0000
 9729,0.00006132,0.00021168,0.00036075,0.00003316,0.00004778,-0.0000271
 0,-0.00007539,-0.00062895,0.00055712,-0.00063425,-0.00002367,0.0001802
 9,-0.00014332,-0.00018636,0.00022306,0.00008088,0.00044983,0.00023288,
 -0.00022712,-0.00642891,-0.01759739,0.00437650,0.01097623,0.02174269,-
 0.00765735,0.08594852,-0.00000606,-0.00001006,0.00002041,0.00002955,-0
 .00002282,-0.00002525,-0.00000298,0.00000779,0.00001792,0.00000416,-0.
 00001389,-0.00001831,-0.00000559,-0.00000186,-0.00000992,0.00001047,-0
 .00001911,-0.00000330,0.00000468,0.00001241,-0.00000377,-0.00000498,0.
 00000664,0.00000439,-0.00000610,0.00001063,-0.00000026,-0.00000956,0.0
 0001252,0.00000180,-0.00000168,-0.00001379,-0.00001696,0.00000059,0.00
 000521,-0.00001097,-0.00000277,0.00000728,0.00001911,0.00000378,0.0000
 0692,-0.00000024,0.00000312,0.00000268,0.00000777,0.00000063,-0.000001
 23,0.00001448,-0.00001044,0.00000636,-0.00000325,0.00000260,0.00000440
 ,0.00000249,-0.00000720,0.00000195,-0.00000254,0.00000033,-0.00000068,
 0.00000209,0.00000763,-0.00000977,0.00002433,0.00001037,0.00000800,-0.
 00001702,-0.00000929,-0.00000179,-0.00000062,-0.00000691,0.00000599,-0
 .00000225,0.00000315,-0.00000279,0.00000205,0.00000057,-0.00000275,-0.
 00000031,0.00000331,-0.00000097,-0.00000358,-0.00000864,0.00000361,0.0
 0000231,0.00000301,-0.00000154,-0.00000119,-0.00006108,0.00010474,0.00
 004985,0.00043335,0.00017789,-0.00027162,-0.00122725,0.00045685,-0.002
 72635,0.00005126,-0.00084022,0.00049066,-0.00024156,0.00023915,0.00006
 604,-0.00433860,-0.01393468,0.00459348,0.00103676,0.00037721,0.0004871
 4,0.00001882,0.00040081,0.00125358,-0.08506020,-0.25384616,0.07144299,
 0.00000834,0.00001199,-0.00001959,-0.00002787,-0.00003842,0.00004431,-
 0.00001393,-0.00004577,-0.00001861,-0.00010691,0.00007657,0.00000521,-
 0.00001206,0.00001309,-0.00017501,-0.00027662,-0.00008601,-0.00025908,
 -0.00009393,0.00003441,-0.00002058,0.00003038,0.00000999,-0.00012524,0
 .00004611,-0.00007710,-0.00003030,-0.00003534,-0.00011369,-0.00013752,
 -0.00015296,0.00017693,0.00004541,0.00008934,0.00026438,-0.00013208,0.
 00014294,0.00003922,0.00001512,-0.00019205,0.00065082,0.00002276,0.000
 10275,-0.00030372,-0.00006071,0.00017706,0.00045807,0.00010898,0.00016
 039,0.00042732,-0.00077161,0.00278481,0.00695705,-0.00226467,-0.007133
 05,-0.01297679,0.00415739,0.09388536,0.27138673,-0.00001395,0.00001185
 ,-0.00004448,-0.00000241,-0.00000663,0.00001738,-0.00000399,-0.0000023
 3,-0.00001202,0.00001046,0.00000038,-0.00000238,0.00000690,0.00000374,
 0.00000858,-0.00000147,-0.00000953,0.00000738,0.00000219,0.00000940,-0
 .00001857,0.00000220,0.00000230,-0.00000062,-0.00000242,0.00000352,-0.
 00000236,0.00002325,-0.00000282,0.00000542,-0.00000592,0.00000326,0.00
 003719,-0.00000478,0.00000810,0.00000974,-0.00000318,-0.00001315,-0.00
 002745,-0.00000517,-0.00000175,-0.00000056,-0.00000467,0.00001052,0.00
 000071,-0.00000139,-0.00000968,-0.00000116,0.00000279,0.00000045,0.000
 00527,-0.00000257,0.00000126,-0.00000103,0.00000500,-0.00000181,0.0000
 0233,-0.00000184,-0.00000013,-0.00000124,0.00000371,-0.00000648,0.0000
 0325,-0.00000408,-0.00000490,0.00000515,0.00000242,0.00000074,0.000004
 81,0.00000052,-0.00000161,0.00000045,-0.00000053,-0.00000115,0.0000002
 0,0.00000161,0.00000194,0.00000112,-0.00000165,-0.00000056,0.00000323,
 0.00000111,-0.00000167,0.00000171,0.00000093,0.00000182,0.00000033,0.0
 0007340,0.00002726,0.00043164,0.00002458,0.00073078,-0.00084764,-0.002
 23683,-0.00079106,-0.00416294,-0.00016168,-0.00149342,0.00054729,-0.00
 032099,0.00013008,-0.00001698,-0.00937438,-0.02283119,0.00583116,0.000
 58938,-0.00089735,0.00052143,-0.00071783,-0.00176123,0.00064698,0.0309
 6743,0.07351103,-0.07169893,0.00001329,0.00008732,-0.00002910,-0.00002
 918,-0.00004358,0.00000946,0.00010468,0.00013239,-0.00003139,-0.000299
 69,0.00001080,-0.00005086,0.00058641,-0.00008518,0.00046890,-0.0003614
 2,-0.00024759,-0.00029135,-0.00001424,0.00004786,0.00000698,0.00005410
 ,0.00003292,0.00005954,0.00009111,-0.00006452,0.00001458,0.00000660,-0
 .00001331,0.00003070,0.00016623,-0.00001368,0.00003915,0.00025052,-0.0
 0000800,0.00006460,-0.00000533,0.00009032,-0.00004208,-0.00020030,0.00
 033228,0.00004441,0.00018010,0.00008890,0.00005813,-0.00000487,0.00014
 393,0.00035228,-0.00015705,0.00012338,-0.00081630,0.00647229,0.0213524
 1,-0.00606611,0.00443834,0.00718273,-0.00343774,-0.03013774,-0.0757693
 4,0.07836182\\0.00000017,-0.00000013,0.00000015,0.00000031,0.00000014,
 0.00000028,-0.00000015,-0.00000008,0.00000023,-0.00000003,0.00000009,0
 .00000009,0.00000001,-0.00000003,0.00000040,0.00000001,0.00000003,0.00
 000035,-0.00000005,-0.00000002,0.00000016,-0.00000017,-0.00000003,0.00
 000032,0.00000005,-0.00000009,0.00000040,0.00000022,-0.00000008,0.0000
 0022,0.00000023,-0.00000004,0.00000006,0.00000009,-0.00000002,0.000000
 19,-0.00000005,-0.00000015,0.00000004,0.00000018,-0.00000007,0.0000001
 8,-0.00000015,-0.00000003,0.00000014,-0.00000021,-0.00000012,0.0000002
 0,-0.00000021,0.,0.00000027,0.00000001,-0.00000007,0.00000037,-0.00000
 003,-0.00000002,0.00000051,0.00000010,-0.00000010,0.00000041,-0.000000
 08,0.00000005,0.00000010,0.00000011,-0.00000007,0.00000005,-0.00000005
 ,-0.00000002,0.00000020,-0.00000017,-0.00000009,0.00000040,-0.00000023
 ,0.00000006,0.00000031,-0.00000017,0.,0.00000039,0.00000016,-0.0000000
 9,0.00000034,0.00000007,-0.00000011,0.00000047,0.00000007,-0.00000006,
 0.00000040,0.00000024,0.00000012,-0.00000022,0.00000009,-0.00000008,-0
 .00000023,0.00000011,0.00000009,-0.00000027,-0.00000017,0.00000006,-0.
 00000025,0.,0.00000007,-0.00000041,-0.00000007,0.00000002,-0.00000028,
 -0.00000010,0.00000011,-0.00000013,-0.00000012,0.00000011,-0.00000035,
 0.00000006,0.,-0.00000032,0.00000019,-0.00000002,-0.00000025,0.0000002
 9,-0.00000007,-0.00000015,0.00000010,-0.00000012,-0.00000005,0.0000001
 5,0.00000005,-0.00000012,0.00000022,-0.00000003,-0.00000028,-0.0000000
 5,0.00000006,-0.00000020,-0.00000005,0.00000001,-0.00000010,-0.0000001
 8,0.00000008,-0.00000019,0.00000007,0.00000005,-0.00000041,-0.00000009
 ,0.00000008,-0.00000043,0.00000007,0.00000005,-0.00000048,-0.00000024,
 0.00000004,-0.00000009,-0.00000003,0.00000001,-0.00000010,-0.00000013,
 0.00000003,-0.00000016,-0.00000014,0.00000011,-0.00000047,-0.00000024,
 0.00000012,-0.00000032,-0.00000021,0.00000010,-0.00000036,0.00000014,0
 .00000002,-0.00000028,0.00000009,0.00000003,-0.00000041,0.,0.00000003,
 -0.00000035\\\@


 ALL OUR THINKING ABOUT NATURE MUST NECESSARILY MOVE IN CIRCLES OR SPIRALS;
 FOR WE CAN ONLY UNDERSTAND NATURE IF WE THINK ABOUT HER, AND WE CAN ONLY
 THINK BECAUSE OUR BRAIN IS BUILT IN ACCORDANCE WITH NATURE'S LAWS.

                                             -- TIMOTHY FERRIS, "GALAXIES"
 File lengths (MBytes):  RWF=    744 Int=      0 D2E=      0 Chk=     11 Scr=      1
 Normal termination of Gaussian 16 at Fri Feb  3 18:28:53 2023.
real 20103.54
user 79744.00
sys 58.30
