 Entering Gaussian System, Link 0=g16
 Input=gaussian_test.inp
 Output=gaussian_test.log
 Initial command:
 /sw/restricted/lms/sw/Gaussian/g16_B01/g16/l1.exe "/scratch/user/peterchao1/peterchao1/9993843_1712002033000000392685915/Gau-92070.inp" -scrdir="/scratch/user/peterchao1/peterchao1/9993843_1712002033000000392685915/"
 Entering Link 1 = /sw/restricted/lms/sw/Gaussian/g16_B01/g16/l1.exe PID=     92072.
  
 Copyright (c) 1988-2017, Gaussian, Inc.  All Rights Reserved.
  
 This is part of the Gaussian(R) 16 program.  It is based on
 the Gaussian(R) 09 system (copyright 2009, Gaussian, Inc.),
 the Gaussian(R) 03 system (copyright 2003, Gaussian, Inc.),
 the Gaussian(R) 98 system (copyright 1998, Gaussian, Inc.),
 the Gaussian(R) 94 system (copyright 1995, Gaussian, Inc.),
 the Gaussian 92(TM) system (copyright 1992, Gaussian, Inc.),
 the Gaussian 90(TM) system (copyright 1990, Gaussian, Inc.),
 the Gaussian 88(TM) system (copyright 1988, Gaussian, Inc.),
 the Gaussian 86(TM) system (copyright 1986, Carnegie Mellon
 University), and the Gaussian 82(TM) system (copyright 1983,
 Carnegie Mellon University). Gaussian is a federally registered
 trademark of Gaussian, Inc.
  
 This software contains proprietary and confidential information,
 including trade secrets, belonging to Gaussian, Inc.
  
 This software is provided under written license and may be
 used, copied, transmitted, or stored only in accord with that
 written license.
  
 The following legend is applicable only to US Government
 contracts under FAR:
  
                    RESTRICTED RIGHTS LEGEND
  
 Use, reproduction and disclosure by the US Government is
 subject to restrictions as set forth in subparagraphs (a)
 and (c) of the Commercial Computer Software - Restricted
 Rights clause in FAR 52.227-19.
  
 Gaussian, Inc.
 340 Quinnipiac St., Bldg. 40, Wallingford CT 06492
  
  
 ---------------------------------------------------------------
 Warning -- This program may not be used in any manner that
 competes with the business of Gaussian, Inc. or will provide
 assistance to any competitor of Gaussian, Inc.  The licensee
 of this program is prohibited from giving any competitor of
 Gaussian, Inc. access to this program.  By using this program,
 the user acknowledges that Gaussian, Inc. is engaged in the
 business of creating and licensing software in the field of
 computational chemistry and represents and warrants to the
 licensee that it is not a competitor of Gaussian, Inc. and that
 it will not use this program in any manner prohibited above.
 ---------------------------------------------------------------
  

 Cite this work as:
 Gaussian 16, Revision B.01,
 M. J. Frisch, G. W. Trucks, H. B. Schlegel, G. E. Scuseria, 
 M. A. Robb, J. R. Cheeseman, G. Scalmani, V. Barone, 
 G. A. Petersson, H. Nakatsuji, X. Li, M. Caricato, A. V. Marenich, 
 J. Bloino, B. G. Janesko, R. Gomperts, B. Mennucci, H. P. Hratchian, 
 J. V. Ortiz, A. F. Izmaylov, J. L. Sonnenberg, D. Williams-Young, 
 F. Ding, F. Lipparini, F. Egidi, J. Goings, B. Peng, A. Petrone, 
 T. Henderson, D. Ranasinghe, V. G. Zakrzewski, J. Gao, N. Rega, 
 G. Zheng, W. Liang, M. Hada, M. Ehara, K. Toyota, R. Fukuda, 
 J. Hasegawa, M. Ishida, T. Nakajima, Y. Honda, O. Kitao, H. Nakai, 
 T. Vreven, K. Throssell, J. A. Montgomery, Jr., J. E. Peralta, 
 F. Ogliaro, M. J. Bearpark, J. J. Heyd, E. N. Brothers, K. N. Kudin, 
 V. N. Staroverov, T. A. Keith, R. Kobayashi, J. Normand, 
 K. Raghavachari, A. P. Rendell, J. C. Burant, S. S. Iyengar, 
 J. Tomasi, M. Cossi, J. M. Millam, M. Klene, C. Adamo, R. Cammi, 
 J. W. Ochterski, R. L. Martin, K. Morokuma, O. Farkas, 
 J. B. Foresman, and D. J. Fox, Gaussian, Inc., Wallingford CT, 2016.
 
 ******************************************
 Gaussian 16:  ES64L-G16RevB.01 20-Dec-2017
                 1-Apr-2024 
 ******************************************
 %nprocshared=4
 Will use up to    4 processors via shared memory.
 %mem=8000mb
 %chk=dimer.chk
 %nprocshared=4
 Will use up to    4 processors via shared memory.
 %mem=8000mb
 ----------------------------------------------------------------------
 #T wB97XD/def2svpp opt=tight freq int(grid=ultrafine) scf=(verytight,q
 c) Volume=tight
 ----------------------------------------------------------------------
 -----
 Dimer
 -----
 Symbolic Z-matrix:
 Charge =  0 Multiplicity = 1
 C                     2.3384    1.50132  -0.8006 
 C                     2.25778   0.2615    0.09042 
 C                     3.55826   0.07018   0.87052 
 O                     1.21754   0.42037   1.04905 
 C                     2.00123  -1.00167  -0.77717 
 O                     0.69286  -1.07417  -1.29859 
 H                     3.20958   1.44528  -1.44735 
 H                     2.41655   2.39397  -0.18364 
 H                     1.44787   1.58105  -1.42064 
 H                     4.37658  -0.15804   0.19404 
 H                     3.44458  -0.74394   1.58162 
 H                     3.79037   0.97699   1.42216 
 H                     0.48483   0.90775   0.62194 
 H                     2.2192   -1.89641  -0.18367 
 H                     2.67844  -0.97974  -1.63437 
 H                     0.11659  -1.44816  -0.60323 
 C                    -3.25223   1.35086   0.35611 
 C                    -2.23765   0.28128  -0.04705 
 C                    -2.77522  -0.56843  -1.19916 
 O                    -1.0573    0.96266  -0.45708 
 C                    -1.93863  -0.61901   1.1833 
 O                    -0.80441  -1.44185   1.01968 
 H                    -3.5285    1.93934  -0.51447 
 H                    -2.81167   2.01624   1.09399 
 H                    -4.142     0.89098   0.77577 
 H                    -2.09266  -1.38715  -1.41836 
 H                    -2.88372   0.04549  -2.09082 
 H                    -3.7451   -0.98409  -0.94053 
 H                    -0.55472   0.36685  -1.04429 
 H                    -2.79009  -1.28546   1.34202 
 H                    -1.81981   0.01213   2.0704 
 H                    -0.01657  -0.91454   1.26662 
 
 Add virtual bond connecting atoms O20        and H13        Dist= 3.56D+00.
 Add virtual bond connecting atoms O22        and H16        Dist= 3.53D+00.
 Add virtual bond connecting atoms H29        and O6         Dist= 3.63D+00.
 Add virtual bond connecting atoms H29        and H16        Dist= 3.75D+00.
 Add virtual bond connecting atoms H32        and O4         Dist= 3.46D+00.

 GradGradGradGradGradGradGradGradGradGradGradGradGradGradGradGradGradGrad
 Initialization pass.
                           ----------------------------
                           !    Initial Parameters    !
                           ! (Angstroms and Degrees)  !
 --------------------------                            --------------------------
 ! Name  Definition              Value          Derivative Info.                !
 --------------------------------------------------------------------------------
 ! R1    R(1,2)                  1.5289         estimate D2E/DX2                !
 ! R2    R(1,7)                  1.0865         estimate D2E/DX2                !
 ! R3    R(1,8)                  1.0879         estimate D2E/DX2                !
 ! R4    R(1,9)                  1.088          estimate D2E/DX2                !
 ! R5    R(2,3)                  1.5285         estimate D2E/DX2                !
 ! R6    R(2,4)                  1.4235         estimate D2E/DX2                !
 ! R7    R(2,5)                  1.5537         estimate D2E/DX2                !
 ! R8    R(3,10)                 1.086          estimate D2E/DX2                !
 ! R9    R(3,11)                 1.0869         estimate D2E/DX2                !
 ! R10   R(3,12)                 1.0865         estimate D2E/DX2                !
 ! R11   R(4,13)                 0.9782         estimate D2E/DX2                !
 ! R12   R(4,32)                 1.8309         estimate D2E/DX2                !
 ! R13   R(5,6)                  1.4103         estimate D2E/DX2                !
 ! R14   R(5,14)                 1.0956         estimate D2E/DX2                !
 ! R15   R(5,15)                 1.0927         estimate D2E/DX2                !
 ! R16   R(6,16)                 0.9775         estimate D2E/DX2                !
 ! R17   R(6,29)                 1.9229         estimate D2E/DX2                !
 ! R18   R(13,20)                1.8829         estimate D2E/DX2                !
 ! R19   R(16,22)                1.866          estimate D2E/DX2                !
 ! R20   R(16,29)                1.9848         estimate D2E/DX2                !
 ! R21   R(17,18)                1.5284         estimate D2E/DX2                !
 ! R22   R(17,23)                1.0865         estimate D2E/DX2                !
 ! R23   R(17,24)                1.0869         estimate D2E/DX2                !
 ! R24   R(17,25)                1.086          estimate D2E/DX2                !
 ! R25   R(18,19)                1.5292         estimate D2E/DX2                !
 ! R26   R(18,20)                1.4232         estimate D2E/DX2                !
 ! R27   R(18,21)                1.5536         estimate D2E/DX2                !
 ! R28   R(19,26)                1.0882         estimate D2E/DX2                !
 ! R29   R(19,27)                1.088          estimate D2E/DX2                !
 ! R30   R(19,28)                1.0864         estimate D2E/DX2                !
 ! R31   R(20,29)                0.9759         estimate D2E/DX2                !
 ! R32   R(21,22)                1.4108         estimate D2E/DX2                !
 ! R33   R(21,30)                1.0929         estimate D2E/DX2                !
 ! R34   R(21,31)                1.0952         estimate D2E/DX2                !
 ! R35   R(22,32)                0.9797         estimate D2E/DX2                !
 ! A1    A(2,1,7)              110.3264         estimate D2E/DX2                !
 ! A2    A(2,1,8)              109.7948         estimate D2E/DX2                !
 ! A3    A(2,1,9)              110.3875         estimate D2E/DX2                !
 ! A4    A(7,1,8)              108.8029         estimate D2E/DX2                !
 ! A5    A(7,1,9)              108.7138         estimate D2E/DX2                !
 ! A6    A(8,1,9)              108.7748         estimate D2E/DX2                !
 ! A7    A(1,2,3)              110.7365         estimate D2E/DX2                !
 ! A8    A(1,2,4)              109.9074         estimate D2E/DX2                !
 ! A9    A(1,2,5)              110.0325         estimate D2E/DX2                !
 ! A10   A(3,2,4)              106.9784         estimate D2E/DX2                !
 ! A11   A(3,2,5)              108.8866         estimate D2E/DX2                !
 ! A12   A(4,2,5)              110.2494         estimate D2E/DX2                !
 ! A13   A(2,3,10)             110.4567         estimate D2E/DX2                !
 ! A14   A(2,3,11)             109.7958         estimate D2E/DX2                !
 ! A15   A(2,3,12)             109.6583         estimate D2E/DX2                !
 ! A16   A(10,3,11)            109.2044         estimate D2E/DX2                !
 ! A17   A(10,3,12)            109.3104         estimate D2E/DX2                !
 ! A18   A(11,3,12)            108.38           estimate D2E/DX2                !
 ! A19   A(2,4,13)             107.9956         estimate D2E/DX2                !
 ! A20   A(2,4,32)             119.4209         estimate D2E/DX2                !
 ! A21   A(13,4,32)             84.8518         estimate D2E/DX2                !
 ! A22   A(2,5,6)              113.6669         estimate D2E/DX2                !
 ! A23   A(2,5,14)             109.1842         estimate D2E/DX2                !
 ! A24   A(2,5,15)             108.6274         estimate D2E/DX2                !
 ! A25   A(6,5,14)             110.0522         estimate D2E/DX2                !
 ! A26   A(6,5,15)             106.6164         estimate D2E/DX2                !
 ! A27   A(14,5,15)            108.5462         estimate D2E/DX2                !
 ! A28   A(5,6,16)             107.673          estimate D2E/DX2                !
 ! A29   A(5,6,29)             120.9627         estimate D2E/DX2                !
 ! A30   A(4,13,20)            151.429          estimate D2E/DX2                !
 ! A31   A(6,16,22)            155.2802         estimate D2E/DX2                !
 ! A32   A(22,16,29)            91.3313         estimate D2E/DX2                !
 ! A33   A(18,17,23)           109.6621         estimate D2E/DX2                !
 ! A34   A(18,17,24)           109.781          estimate D2E/DX2                !
 ! A35   A(18,17,25)           110.4556         estimate D2E/DX2                !
 ! A36   A(23,17,24)           108.3889         estimate D2E/DX2                !
 ! A37   A(23,17,25)           109.3096         estimate D2E/DX2                !
 ! A38   A(24,17,25)           109.2085         estimate D2E/DX2                !
 ! A39   A(17,18,19)           110.7464         estimate D2E/DX2                !
 ! A40   A(17,18,20)           106.9476         estimate D2E/DX2                !
 ! A41   A(17,18,21)           108.9294         estimate D2E/DX2                !
 ! A42   A(19,18,20)           109.9085         estimate D2E/DX2                !
 ! A43   A(19,18,21)           110.0183         estimate D2E/DX2                !
 ! A44   A(20,18,21)           110.2406         estimate D2E/DX2                !
 ! A45   A(18,19,26)           110.4451         estimate D2E/DX2                !
 ! A46   A(18,19,27)           109.8147         estimate D2E/DX2                !
 ! A47   A(18,19,28)           110.308          estimate D2E/DX2                !
 ! A48   A(26,19,27)           108.7835         estimate D2E/DX2                !
 ! A49   A(26,19,28)           108.6655         estimate D2E/DX2                !
 ! A50   A(27,19,28)           108.7819         estimate D2E/DX2                !
 ! A51   A(13,20,18)           120.0114         estimate D2E/DX2                !
 ! A52   A(13,20,29)            84.562          estimate D2E/DX2                !
 ! A53   A(18,20,29)           107.948          estimate D2E/DX2                !
 ! A54   A(18,21,22)           113.6329         estimate D2E/DX2                !
 ! A55   A(18,21,30)           108.5692         estimate D2E/DX2                !
 ! A56   A(18,21,31)           109.172          estimate D2E/DX2                !
 ! A57   A(22,21,30)           106.7111         estimate D2E/DX2                !
 ! A58   A(22,21,31)           110.0499         estimate D2E/DX2                !
 ! A59   A(30,21,31)           108.5614         estimate D2E/DX2                !
 ! A60   A(16,22,21)           119.9766         estimate D2E/DX2                !
 ! A61   A(16,22,32)            79.8709         estimate D2E/DX2                !
 ! A62   A(21,22,32)           107.6605         estimate D2E/DX2                !
 ! A63   A(6,29,20)            150.5996         estimate D2E/DX2                !
 ! A64   A(16,29,20)           126.7817         estimate D2E/DX2                !
 ! A65   A(4,32,22)            154.761          estimate D2E/DX2                !
 ! D1    D(7,1,2,3)             54.6127         estimate D2E/DX2                !
 ! D2    D(7,1,2,4)            172.5943         estimate D2E/DX2                !
 ! D3    D(7,1,2,5)            -65.8149         estimate D2E/DX2                !
 ! D4    D(8,1,2,3)            -65.2966         estimate D2E/DX2                !
 ! D5    D(8,1,2,4)             52.685          estimate D2E/DX2                !
 ! D6    D(8,1,2,5)            174.2759         estimate D2E/DX2                !
 ! D7    D(9,1,2,3)            174.7903         estimate D2E/DX2                !
 ! D8    D(9,1,2,4)            -67.228          estimate D2E/DX2                !
 ! D9    D(9,1,2,5)             54.3628         estimate D2E/DX2                !
 ! D10   D(1,2,3,10)           -66.0221         estimate D2E/DX2                !
 ! D11   D(1,2,3,11)           173.4874         estimate D2E/DX2                !
 ! D12   D(1,2,3,12)            54.5114         estimate D2E/DX2                !
 ! D13   D(4,2,3,10)           174.2242         estimate D2E/DX2                !
 ! D14   D(4,2,3,11)            53.7337         estimate D2E/DX2                !
 ! D15   D(4,2,3,12)           -65.2423         estimate D2E/DX2                !
 ! D16   D(5,2,3,10)            55.0854         estimate D2E/DX2                !
 ! D17   D(5,2,3,11)           -65.405          estimate D2E/DX2                !
 ! D18   D(5,2,3,12)           175.619          estimate D2E/DX2                !
 ! D19   D(1,2,4,13)            35.9184         estimate D2E/DX2                !
 ! D20   D(1,2,4,32)           130.2124         estimate D2E/DX2                !
 ! D21   D(3,2,4,13)           156.2034         estimate D2E/DX2                !
 ! D22   D(3,2,4,32)          -109.5025         estimate D2E/DX2                !
 ! D23   D(5,2,4,13)           -85.5428         estimate D2E/DX2                !
 ! D24   D(5,2,4,32)             8.7512         estimate D2E/DX2                !
 ! D25   D(1,2,5,6)            -72.247          estimate D2E/DX2                !
 ! D26   D(1,2,5,14)           164.4639         estimate D2E/DX2                !
 ! D27   D(1,2,5,15)            46.2565         estimate D2E/DX2                !
 ! D28   D(3,2,5,6)            166.2155         estimate D2E/DX2                !
 ! D29   D(3,2,5,14)            42.9265         estimate D2E/DX2                !
 ! D30   D(3,2,5,15)           -75.2809         estimate D2E/DX2                !
 ! D31   D(4,2,5,6)             49.1398         estimate D2E/DX2                !
 ! D32   D(4,2,5,14)           -74.1493         estimate D2E/DX2                !
 ! D33   D(4,2,5,15)           167.6433         estimate D2E/DX2                !
 ! D34   D(2,4,13,20)           82.9938         estimate D2E/DX2                !
 ! D35   D(32,4,13,20)         -36.3017         estimate D2E/DX2                !
 ! D36   D(2,4,32,22)          -76.5368         estimate D2E/DX2                !
 ! D37   D(13,4,32,22)          31.2402         estimate D2E/DX2                !
 ! D38   D(2,5,6,16)           -82.7131         estimate D2E/DX2                !
 ! D39   D(2,5,6,29)             4.9259         estimate D2E/DX2                !
 ! D40   D(14,5,6,16)           40.1005         estimate D2E/DX2                !
 ! D41   D(14,5,6,29)          127.7395         estimate D2E/DX2                !
 ! D42   D(15,5,6,16)          157.6346         estimate D2E/DX2                !
 ! D43   D(15,5,6,29)         -114.7265         estimate D2E/DX2                !
 ! D44   D(5,6,16,22)           69.4894         estimate D2E/DX2                !
 ! D45   D(5,6,29,20)          -57.801          estimate D2E/DX2                !
 ! D46   D(4,13,20,18)          63.871          estimate D2E/DX2                !
 ! D47   D(4,13,20,29)         -43.7361         estimate D2E/DX2                !
 ! D48   D(6,16,22,21)          70.5634         estimate D2E/DX2                !
 ! D49   D(6,16,22,32)         -34.0754         estimate D2E/DX2                !
 ! D50   D(29,16,22,21)         24.0018         estimate D2E/DX2                !
 ! D51   D(29,16,22,32)        -80.637          estimate D2E/DX2                !
 ! D52   D(22,16,29,20)          7.714          estimate D2E/DX2                !
 ! D53   D(23,17,18,19)        -54.5067         estimate D2E/DX2                !
 ! D54   D(23,17,18,20)         65.2351         estimate D2E/DX2                !
 ! D55   D(23,17,18,21)       -175.6308         estimate D2E/DX2                !
 ! D56   D(24,17,18,19)       -173.487          estimate D2E/DX2                !
 ! D57   D(24,17,18,20)        -53.7452         estimate D2E/DX2                !
 ! D58   D(24,17,18,21)         65.3889         estimate D2E/DX2                !
 ! D59   D(25,17,18,19)         66.0277         estimate D2E/DX2                !
 ! D60   D(25,17,18,20)       -174.2305         estimate D2E/DX2                !
 ! D61   D(25,17,18,21)        -55.0964         estimate D2E/DX2                !
 ! D62   D(17,18,19,26)       -174.5369         estimate D2E/DX2                !
 ! D63   D(17,18,19,27)         65.4903         estimate D2E/DX2                !
 ! D64   D(17,18,19,28)        -54.3942         estimate D2E/DX2                !
 ! D65   D(20,18,19,26)         67.5127         estimate D2E/DX2                !
 ! D66   D(20,18,19,27)        -52.4601         estimate D2E/DX2                !
 ! D67   D(20,18,19,28)       -172.3446         estimate D2E/DX2                !
 ! D68   D(21,18,19,26)        -54.0587         estimate D2E/DX2                !
 ! D69   D(21,18,19,27)       -174.0315         estimate D2E/DX2                !
 ! D70   D(21,18,19,28)         66.084          estimate D2E/DX2                !
 ! D71   D(17,18,20,13)        108.8141         estimate D2E/DX2                !
 ! D72   D(17,18,20,29)       -157.0537         estimate D2E/DX2                !
 ! D73   D(19,18,20,13)       -130.9067         estimate D2E/DX2                !
 ! D74   D(19,18,20,29)        -36.7744         estimate D2E/DX2                !
 ! D75   D(21,18,20,13)         -9.4682         estimate D2E/DX2                !
 ! D76   D(21,18,20,29)         84.664          estimate D2E/DX2                !
 ! D77   D(17,18,21,22)       -166.4366         estimate D2E/DX2                !
 ! D78   D(17,18,21,30)         75.0017         estimate D2E/DX2                !
 ! D79   D(17,18,21,31)        -43.1835         estimate D2E/DX2                !
 ! D80   D(19,18,21,22)         71.9951         estimate D2E/DX2                !
 ! D81   D(19,18,21,30)        -46.5666         estimate D2E/DX2                !
 ! D82   D(19,18,21,31)       -164.7518         estimate D2E/DX2                !
 ! D83   D(20,18,21,22)        -49.378          estimate D2E/DX2                !
 ! D84   D(20,18,21,30)       -167.9397         estimate D2E/DX2                !
 ! D85   D(20,18,21,31)         73.8751         estimate D2E/DX2                !
 ! D86   D(13,20,29,6)          36.0991         estimate D2E/DX2                !
 ! D87   D(13,20,29,16)         62.0036         estimate D2E/DX2                !
 ! D88   D(18,20,29,6)         -83.7223         estimate D2E/DX2                !
 ! D89   D(18,20,29,16)        -57.8178         estimate D2E/DX2                !
 ! D90   D(18,21,22,16)         -3.5144         estimate D2E/DX2                !
 ! D91   D(18,21,22,32)         84.7995         estimate D2E/DX2                !
 ! D92   D(30,21,22,16)        116.1092         estimate D2E/DX2                !
 ! D93   D(30,21,22,32)       -155.5768         estimate D2E/DX2                !
 ! D94   D(31,21,22,16)       -126.286          estimate D2E/DX2                !
 ! D95   D(31,21,22,32)        -37.9721         estimate D2E/DX2                !
 ! D96   D(16,22,32,4)          49.1633         estimate D2E/DX2                !
 ! D97   D(21,22,32,4)         -69.2469         estimate D2E/DX2                !
 --------------------------------------------------------------------------------
 Number of steps in this run=    192 maximum allowed number of steps=    192.
 GradGradGradGradGradGradGradGradGradGradGradGradGradGradGradGradGradGrad

                    Distance matrix (angstroms):
                    1          2          3          4          5
     1  C    0.000000
     2  C    1.528915   0.000000
     3  C    2.515731   1.528530   0.000000
     4  O    2.417852   1.423483   2.373489   0.000000
     5  C    2.525709   1.553746   2.507599   2.443650   0.000000
     6  O    3.096600   2.482405   3.771613   2.832020   1.410311
     7  H    1.086456   2.161479   2.717540   3.354205   2.810122
     8  H    1.087917   2.155858   2.795488   2.617682   3.472047
     9  H    1.088043   2.163437   3.462064   2.738542   2.718584
    10  H    2.810166   2.162427   1.085989   3.323424   2.701340
    11  H    3.455411   2.154784   1.086912   2.568840   2.777327
    12  H    2.706259   2.152737   1.086502   2.658659   3.457329
    13  H    2.410742   1.960488   3.195199   0.978183   2.811205
    14  H    3.455344   2.175588   2.602274   2.808975   1.095586
    15  H    2.639413   2.166231   2.854978   3.360846   1.092653
    16  H    3.697950   2.826444   4.040092   2.726448   1.944603
    17  C    5.711019   5.622946   6.948922   4.617885   5.866653
    18  C    4.795468   4.497570   5.871880   3.627546   4.488557
    19  C    5.530989   5.261458   6.693608   4.687681   4.814596
    20  O    3.455274   3.432364   4.884915   2.781619   3.649066
    21  C    5.169588   4.424878   5.548745   3.325619   4.417283
    22  O    4.674708   3.625176   4.619662   2.748993   3.360658
    23  H    5.890182   6.054924   7.458829   5.222721   6.268697
    24  H    5.511612   5.457621   6.664317   4.333984   5.981062
    25  H    6.697237   6.467077   7.744455   5.387096   6.613095
    26  H    5.325334   4.890890   6.268623   4.506957   4.161693
    27  H    5.572665   5.589228   7.090077   5.178769   5.165751
    28  H    6.573112   6.216826   7.598052   5.527995   5.748684
    29  H    3.117139   3.034604   4.546548   2.743328   2.911545
    30  H    6.217583   5.425915   6.508573   4.365405   5.246737
    31  H    5.267932   4.539746   5.510600   3.230379   4.872048
    32  H    3.956727   2.817657   3.729067   1.830938   2.873360
                    6          7          8          9         10
     6  O    0.000000
     7  H    3.564209   0.000000
     8  H    4.030158   1.768015   0.000000
     9  H    2.763168   1.767134   1.768997   0.000000
    10  H    4.078854   2.574241   3.239928   3.769483   0.000000
    11  H    3.997076   3.744677   3.744260   4.290222   1.771240
    12  H    4.604810   2.964918   2.544368   3.732788   1.772069
    13  H    2.767619   3.463406   2.566975   2.356462   4.057684
    14  H    2.061274   3.707371   4.294911   3.770643   2.796224
    15  H    2.015985   2.489538   3.681730   2.849148   2.627160
    16  H    0.977488   4.318690   4.497535   3.408309   4.521899
    17  C    4.917577   6.709425   5.789170   5.029989   7.778296
    18  C    3.462873   5.743518   5.113086   4.142365   6.633187
    19  C    3.506178   6.319372   6.063135   4.743820   7.297795
    20  O    2.814230   4.406791   3.767099   2.754402   5.586325
    21  C    3.645779   6.138865   5.469384   4.805116   6.408827
    22  O    2.784129   5.525739   5.151312   4.490635   5.401155
    23  H    5.245571   6.820273   5.971583   5.070880   8.209228
    24  H    5.249462   6.560483   5.395310   4.965532   7.563629
    25  H    5.616106   7.700338   6.796617   6.045416   8.602621
    26  H    2.805607   6.011424   6.012852   4.620128   6.779503
    27  H    3.830559   6.285039   6.102912   4.644323   7.614066
    28  H    4.453296   7.384190   7.067538   5.811832   8.242049
    29  H    1.922928   3.936423   3.698432   2.371984   5.111433
    30  H    4.375889   7.157759   6.555525   5.814589   7.345073
    31  H    4.340935   6.302644   5.357301   5.032561   6.476499
    32  H    2.666290   4.831400   4.355405   3.948914   4.585032
                   11         12         13         14         15
    11  H    0.000000
    12  H    1.762556   0.000000
    13  H    3.522672   3.401727   0.000000
    14  H    2.438433   3.647415   3.394165   0.000000
    15  H    3.314389   3.795731   3.669540   1.776435   0.000000
    16  H    4.042893   4.845635   2.680852   2.190415   2.801024
    17  C    7.123015   7.132631   3.772613   6.385350   6.675825
    18  C    5.999276   6.243357   2.872604   4.962306   5.317680
    19  C    6.815388   7.236479   4.015400   5.266789   5.486445
    20  O    5.228354   5.199192   1.882933   4.357119   4.372040
    21  C    5.399371   5.951946   2.918778   4.559376   5.420956
    22  O    4.342431   5.208136   2.709414   3.285858   4.403152
    23  H    7.759992   7.631678   4.296790   6.917985   6.949923
    24  H    6.855442   6.691388   3.509772   6.500072   6.823583
    25  H    7.802466   7.959120   4.629410   7.011054   7.471733
    26  H    6.330449   6.947497   4.009093   4.513973   4.793335
    27  H    7.359168   7.599482   4.410174   5.783423   5.674247
    28  H    7.623016   8.137038   4.890055   6.080960   6.460910
    29  H    4.911583   5.033432   2.037044   3.682069   3.551739
    30  H    6.262723   6.958984   4.006713   5.271997   6.233553
    31  H    5.340821   5.729335   2.865582   5.003697   5.911301
    32  H    3.479636   4.253801   1.996937   2.840084   3.960191
                   16         17         18         19         20
    16  H    0.000000
    17  C    4.483733   0.000000
    18  C    2.973679   1.528372   0.000000
    19  C    3.080858   2.515965   1.529173   0.000000
    20  O    2.685417   2.372699   1.423244   2.417891   0.000000
    21  C    2.846601   2.508023   1.553602   2.525583   2.443206
    22  O    1.866043   3.772453   2.482187   3.093582   2.833095
    23  H    4.976927   1.086525   2.152663   2.706501   2.657828
    24  H    4.843285   1.086872   2.154427   3.455488   2.567815
    25  H    5.050627   1.085953   2.162247   2.810393   3.322713
    26  H    2.355621   3.462670   2.164533   1.088236   2.741838
    27  H    3.666849   2.797725   2.156391   1.087986   2.616511
    28  H    3.904078   2.715912   2.161456   1.086429   3.353781
    29  H    1.984804   3.194677   1.958073   2.414405   0.975910
    30  H    3.501324   2.852330   2.165495   2.640447   3.360558
    31  H    3.609772   2.604389   2.175000   3.455421   2.805906
    32  H    1.949063   4.053466   2.844098   3.716191   2.752843
                   21         22         23         24         25
    21  C    0.000000
    22  O    1.410781   0.000000
    23  H    3.457637   4.605079   0.000000
    24  H    2.777537   3.999127   1.762640   0.000000
    25  H    2.702028   4.079348   1.772051   1.771224   0.000000
    26  H    2.717056   2.758009   3.734200   4.290919   3.768805
    27  H    3.471972   4.026277   2.547022   3.745942   3.242758
    28  H    2.811983   3.563655   2.962244   3.743330   2.572758
    29  H    2.801652   2.755661   3.405413   3.519459   4.056586
    30  H    1.092853   2.017745   3.793566   3.311072   2.623961
    31  H    1.095175   2.061340   3.649019   2.440007   2.800176
    32  H    1.946433   0.979654   4.863188   4.053625   4.529898
                   26         27         28         29         30
    26  H    0.000000
    27  H    1.769306   0.000000
    28  H    1.766735   1.767820   0.000000
    29  H    2.362561   2.573465   3.466166   0.000000
    30  H    2.848935   3.683011   2.492566   3.663527   0.000000
    31  H    3.768807   4.295207   3.710106   3.380473   1.776432
    32  H    3.426754   4.518254   4.333393   2.696639   2.799227
                   31         32
    31  H    0.000000
    32  H    2.180932   0.000000
 Framework group  C1[X(C8H20O4)]
 Deg. of freedom    90
                         Standard orientation:                         
 ---------------------------------------------------------------------
 Center     Atomic      Atomic             Coordinates (Angstroms)
 Number     Number       Type             X           Y           Z
 ---------------------------------------------------------------------
      1          6           0       -2.338784    1.477717    0.815084
      2          6           0       -2.258963    0.248193   -0.090168
      3          6           0       -3.560392    0.065412   -0.870731
      4          8           0       -1.220010    0.418325   -1.048258
      5          6           0       -2.000934   -1.024743    0.762580
      6          8           0       -0.691869   -1.102806    1.281455
      7          1           0       -3.209114    1.414011    1.462273
      8          1           0       -2.417992    2.377336    0.208474
      9          1           0       -1.447481    1.550611    1.434844
     10          1           0       -4.377780   -0.170780   -0.195852
     11          1           0       -3.447399   -0.740488   -1.591243
     12          1           0       -3.793475    0.978403   -1.411662
     13          1           0       -0.486884    0.901015   -0.616543
     14          1           0       -2.219412   -1.912699    0.159164
     15          1           0       -2.677041   -1.012829    1.620852
     16          1           0       -0.116392   -1.468649    0.581120
     17          6           0        3.250387    1.342184   -0.350480
     18          6           0        2.236630    0.267755    0.041720
     19          6           0        2.775941   -0.594915    1.183348
     20          8           0        1.056619    0.944045    0.461040
     21          6           0        1.936284   -0.618492   -1.198456
     22          8           0        0.802507   -1.443491   -1.042798
     23          1           0        3.527615    1.920750    0.526413
     24          1           0        2.808686    2.015825   -1.080136
     25          1           0        4.139741    0.887399   -0.776526
     26          1           0        2.093895   -1.416302    1.394043
     27          1           0        2.885411    0.008793    2.081829
     28          1           0        3.745602   -1.007298    0.918722
     29          1           0        0.554972    0.341397    1.042045
     30          1           0        2.787726   -1.282827   -1.365887
     31          1           0        1.816139    0.022714   -2.078131
     32          1           0        0.014201   -0.913630   -1.282678
 ---------------------------------------------------------------------
 Rotational constants (GHZ):           1.5352780           0.4961861           0.4868288
   208 basis functions,   380 primitive gaussians,   220 cartesian basis functions
    50 alpha electrons       50 beta electrons
       nuclear repulsion energy       856.3682994568 Hartrees.
 NAtoms=   32 NActive=   32 NUniq=   32 SFac= 1.00D+00 NAtFMM=   60 NAOKFM=F Big=F
 Nuclear repulsion after empirical dispersion term =      856.3421973562 Hartrees.
   1 Symmetry operations used in ECPInt.
 ECPInt:  NShTT=    6328 NPrTT=   25416 LenC2=    6212 LenP2D=   18415.
 LDataN:  DoStor=T MaxTD1= 4 Len=   56
 ExpMin= 1.22D-01 ExpMax= 2.27D+03 ExpMxC= 3.41D+02 IAcc=3 IRadAn=         5 AccDes= 0.00D+00
 Harris functional with IExCor= 4639 and IRadAn=       5 diagonalized for initial guess.
 HarFok:  IExCor= 4639 AccDes= 0.00D+00 IRadAn=         5 IDoV= 1 UseB2=F ITyADJ=14
 ICtDFT=  3500011 ScaDFX=  1.000000  1.000000  1.000000  1.000000
 FoFCou: FMM=F IPFlag=           0 FMFlag=      100000 FMFlg1=           0
         NFxFlg=           0 DoJE=T BraDBF=F KetDBF=T FulRan=T
         wScrn=  0.000000 ICntrl=       500 IOpCl=  0 I1Cent=   200000004 NGrid=           0
         NMat0=    1 NMatS0=      1 NMatT0=    0 NMatD0=    1 NMtDS0=    0 NMtDT0=    0
 Petite list used in FoFCou.
     Accept linear search using points  2 and  3.
     Minimum is close to point  2 DX=  3.48D-02 DF= -4.09D-06 DXR=  5.49D-02 DFR=  3.02D-03 which will be used.
     Accept linear search using points  1 and  2.
     Minimum is close to point  2 DX= -1.73D-04 DF= -9.09D-13 DXR=  1.73D-04 DFR=  2.96D-08 which will be used.
 SCF Done:  E(RwB97XD) =  -617.106701830     a.u. after    7 cycles
            Convg  =    0.1151D-08                    33 Fock formations.
              S**2 =  0.0000                  -V/T =  2.0085

 **********************************************************************

            Population analysis using the SCF Density.

 **********************************************************************

 Orbital symmetries:
       Occupied  (A) (A) (A) (A) (A) (A) (A) (A) (A) (A) (A) (A)
                 (A) (A) (A) (A) (A) (A) (A) (A) (A) (A) (A) (A)
                 (A) (A) (A) (A) (A) (A) (A) (A) (A) (A) (A) (A)
                 (A) (A) (A) (A) (A) (A) (A) (A) (A) (A) (A) (A)
                 (A) (A)
       Virtual   (A) (A) (A) (A) (A) (A) (A) (A) (A) (A) (A) (A)
                 (A) (A) (A) (A) (A) (A) (A) (A) (A) (A) (A) (A)
                 (A) (A) (A) (A) (A) (A) (A) (A) (A) (A) (A) (A)
                 (A) (A) (A) (A) (A) (A) (A) (A) (A) (A) (A) (A)
                 (A) (A) (A) (A) (A) (A) (A) (A) (A) (A) (A) (A)
                 (A) (A) (A) (A) (A) (A) (A) (A) (A) (A) (A) (A)
                 (A) (A) (A) (A) (A) (A) (A) (A) (A) (A) (A) (A)
                 (A) (A) (A) (A) (A) (A) (A) (A) (A) (A) (A) (A)
                 (A) (A) (A) (A) (A) (A) (A) (A) (A) (A) (A) (A)
                 (A) (A) (A) (A) (A) (A) (A) (A) (A) (A) (A) (A)
                 (A) (A) (A) (A) (A) (A) (A) (A) (A) (A) (A) (A)
                 (A) (A) (A) (A) (A) (A) (A) (A) (A) (A) (A) (A)
                 (A) (A) (A) (A) (A) (A) (A) (A) (A) (A) (A) (A)
                 (A) (A)
 The electronic state is 1-A.
 Alpha  occ. eigenvalues --  -19.25811 -19.25740 -19.25686 -19.25649 -10.35471
 Alpha  occ. eigenvalues --  -10.35439 -10.33650 -10.33649 -10.28229 -10.28172
 Alpha  occ. eigenvalues --  -10.28070 -10.28024  -1.14439  -1.11935  -1.10709
 Alpha  occ. eigenvalues --   -1.10693  -0.88798  -0.88204  -0.79191  -0.79097
 Alpha  occ. eigenvalues --   -0.77362  -0.76981  -0.67659  -0.67478  -0.62490
 Alpha  occ. eigenvalues --   -0.60108  -0.59425  -0.58818  -0.55673  -0.55511
 Alpha  occ. eigenvalues --   -0.54793  -0.53177  -0.51440  -0.51265  -0.48421
 Alpha  occ. eigenvalues --   -0.48399  -0.47966  -0.47724  -0.46363  -0.45983
 Alpha  occ. eigenvalues --   -0.45334  -0.45240  -0.43652  -0.43418  -0.41058
 Alpha  occ. eigenvalues --   -0.39445  -0.39153  -0.39119  -0.35361  -0.33596
 Alpha virt. eigenvalues --    0.12775   0.13730   0.16425   0.16995   0.17402
 Alpha virt. eigenvalues --    0.18282   0.18879   0.19782   0.20291   0.20829
 Alpha virt. eigenvalues --    0.22124   0.22850   0.23045   0.24008   0.24329
 Alpha virt. eigenvalues --    0.24677   0.25252   0.25694   0.26521   0.27673
 Alpha virt. eigenvalues --    0.28388   0.29042   0.29402   0.30117   0.32837
 Alpha virt. eigenvalues --    0.33631   0.34537   0.34831   0.37682   0.38045
 Alpha virt. eigenvalues --    0.48002   0.48585   0.52846   0.53568   0.55610
 Alpha virt. eigenvalues --    0.55884   0.56898   0.57893   0.59509   0.62060
 Alpha virt. eigenvalues --    0.63896   0.64431   0.64794   0.65644   0.67098
 Alpha virt. eigenvalues --    0.69569   0.70090   0.70935   0.70962   0.72594
 Alpha virt. eigenvalues --    0.72884   0.73493   0.74814   0.77195   0.77641
 Alpha virt. eigenvalues --    0.78666   0.79393   0.79665   0.79889   0.80345
 Alpha virt. eigenvalues --    0.80820   0.81608   0.81685   0.82200   0.82421
 Alpha virt. eigenvalues --    0.82835   0.83097   0.83682   0.83884   0.84388
 Alpha virt. eigenvalues --    0.85435   0.85625   0.86056   0.88671   0.90658
 Alpha virt. eigenvalues --    0.97055   1.00804   1.02618   1.07875   1.09905
 Alpha virt. eigenvalues --    1.12110   1.12463   1.19030   1.19727   1.20876
 Alpha virt. eigenvalues --    1.21807   1.30593   1.32150   1.32725   1.33170
 Alpha virt. eigenvalues --    1.41436   1.41852   1.45922   1.47062   1.51150
 Alpha virt. eigenvalues --    1.58670   1.59077   1.61636   1.63404   1.64937
 Alpha virt. eigenvalues --    1.70100   1.71075   1.81146   1.83115   1.87946
 Alpha virt. eigenvalues --    1.88460   1.91921   1.93099   1.95037   1.95631
 Alpha virt. eigenvalues --    1.96757   1.96913   1.99855   2.02956   2.07045
 Alpha virt. eigenvalues --    2.07696   2.10635   2.11059   2.16066   2.16246
 Alpha virt. eigenvalues --    2.20358   2.22016   2.22526   2.23346   2.24632
 Alpha virt. eigenvalues --    2.24698   2.25334   2.25491   2.40620   2.40779
 Alpha virt. eigenvalues --    2.44859   2.45243   2.46168   2.46362   2.65612
 Alpha virt. eigenvalues --    2.66108   2.69278   2.70374   2.71520   2.72341
 Alpha virt. eigenvalues --    2.74775   2.74810   2.90071   2.91475   2.97593
 Alpha virt. eigenvalues --    2.99154   3.00532   3.01032   3.09406   3.09719
 Alpha virt. eigenvalues --    3.10040   3.10590   3.16179   3.16269   3.46415
 Alpha virt. eigenvalues --    3.49234   3.49484   3.50272
          Condensed to atoms (all electrons):
 Mulliken charges:
               1
     1  C   -0.297368
     2  C   -0.055404
     3  C   -0.252267
     4  O   -0.529329
     5  C    0.044612
     6  O   -0.529121
     7  H    0.115782
     8  H    0.128700
     9  H    0.132812
    10  H    0.111802
    11  H    0.121453
    12  H    0.122016
    13  H    0.339395
    14  H    0.104007
    15  H    0.100781
    16  H    0.340288
    17  C   -0.252355
    18  C   -0.061640
    19  C   -0.299215
    20  O   -0.530333
    21  C    0.052699
    22  O   -0.528001
    23  H    0.122198
    24  H    0.121344
    25  H    0.112125
    26  H    0.133589
    27  H    0.129010
    28  H    0.116803
    29  H    0.343956
    30  H    0.100411
    31  H    0.104168
    32  H    0.337083
 Sum of Mulliken charges =   0.00000
 Mulliken charges with hydrogens summed into heavy atoms:
               1
     1  C    0.079926
     2  C   -0.055404
     3  C    0.103005
     4  O   -0.189934
     5  C    0.249399
     6  O   -0.188833
    17  C    0.103312
    18  C   -0.061640
    19  C    0.080187
    20  O   -0.186377
    21  C    0.257278
    22  O   -0.190918
 Electronic spatial extent (au):  <R**2>=           2679.2626
 Charge=              0.0000 electrons
 Dipole moment (field-independent basis, Debye):
    X=              0.0271    Y=              0.3942    Z=              0.0693  Tot=              0.4011
 Evaluate density.
 Using the total density.
 Monte-Carlo method of calculating molar volume:
 based on  0.001 e/bohr**3 density envelope.
 Number of points per bohr**3 =  100 CutOff= 1.00D-04
 Using the SCF density.
 There are      2004 points.  Will hold      2004 in memory.
 LenV=  1048081058 MDV=  1048576000.
 Box volume = 8058.139 fraction occupied=0.213
 Integrated density= 7.7479484633107134D+01 error=-2.2520515366892866D+01
 Molar volume = 1712.958 bohr**3/mol (152.863 cm**3/mol)
 Recommended a0 for SCRF calculation =  4.82 angstrom (  9.11 bohr)
   1 Symmetry operations used in ECPInt.
 ECPInt:  NShTT=    6328 NPrTT=   25416 LenC2=    6212 LenP2D=   18415.
 LDataN:  DoStor=T MaxTD1= 5 Len=  102
 Calling FoFJK, ICntrl=      2127 FMM=F ISym2X=0 I1Cent= 0 IOpClX= 0 NMat=1 NMatS=1 NMatT=0.

 GradGradGradGradGradGradGradGradGradGradGradGradGradGradGradGradGradGrad
 FormGI is forming the generalized inverse of G from B-inverse, IUseBI=4.
 Internal  Forces:  Max     0.011851088 RMS     0.002991247
 Step number   1 out of a maximum of  192
 All quantities printed in internal units (Hartrees-Bohrs-Radians)
 Mixed Optimization -- RFO/linear search
 Second derivative matrix not updated -- first step.
 ITU=  0
     Eigenvalues ---    0.00380   0.00383   0.00389   0.00391   0.00758
     Eigenvalues ---    0.00809   0.00925   0.01099   0.01319   0.01535
     Eigenvalues ---    0.02721   0.02747   0.03959   0.04276   0.04475
     Eigenvalues ---    0.04802   0.04809   0.04953   0.05307   0.05406
     Eigenvalues ---    0.05487   0.05605   0.05652   0.05657   0.05665
     Eigenvalues ---    0.05667   0.05711   0.05717   0.05750   0.05788
     Eigenvalues ---    0.05790   0.05965   0.06496   0.06807   0.07767
     Eigenvalues ---    0.08720   0.09362   0.09765   0.09784   0.10695
     Eigenvalues ---    0.10886   0.11215   0.13186   0.13629   0.14141
     Eigenvalues ---    0.14856   0.15807   0.16000   0.16000   0.16000
     Eigenvalues ---    0.16000   0.16000   0.16000   0.16000   0.16000
     Eigenvalues ---    0.16000   0.16000   0.16000   0.16000   0.16282
     Eigenvalues ---    0.25525   0.25908   0.29500   0.29524   0.29560
     Eigenvalues ---    0.29574   0.34175   0.34221   0.34485   0.34508
     Eigenvalues ---    0.35017   0.35040   0.35046   0.35055   0.35172
     Eigenvalues ---    0.35177   0.35217   0.35220   0.35225   0.35229
     Eigenvalues ---    0.35280   0.35284   0.37462   0.37613   0.40940
     Eigenvalues ---    0.41519   0.42775   0.46889   0.47529   0.49531
 Linear search not attempted -- first point.
 Iteration  1 RMS(Cart)=  0.01510719 RMS(Int)=  0.00015522
 Iteration  2 RMS(Cart)=  0.00015131 RMS(Int)=  0.00002749
 Iteration  3 RMS(Cart)=  0.00000003 RMS(Int)=  0.00002749
 Variable       Old X    -DE/DX   Delta X   Delta X   Delta X     New X
                                 (Linear)    (Quad)   (Total)
    R1        2.88923   0.00189   0.00000   0.00628   0.00628   2.89551
    R2        2.05310   0.01101   0.00000   0.03077   0.03077   2.08387
    R3        2.05586   0.01037   0.00000   0.02913   0.02913   2.08499
    R4        2.05610   0.01068   0.00000   0.02999   0.02999   2.08610
    R5        2.88850  -0.00120   0.00000  -0.00398  -0.00398   2.88453
    R6        2.68999   0.00194   0.00000   0.00490   0.00489   2.69488
    R7        2.93615  -0.00258   0.00000  -0.00924  -0.00924   2.92692
    R8        2.05222   0.01185   0.00000   0.03306   0.03306   2.08529
    R9        2.05397   0.01105   0.00000   0.03091   0.03091   2.08488
   R10        2.05319   0.01089   0.00000   0.03043   0.03043   2.08362
   R11        1.84850   0.00181   0.00000   0.00426   0.00425   1.85274
   R12        3.45997  -0.00097   0.00000  -0.01334  -0.01334   3.44663
   R13        2.66510   0.00096   0.00000   0.00141   0.00142   2.66653
   R14        2.07036   0.00745   0.00000   0.02146   0.02146   2.09182
   R15        2.06482   0.00681   0.00000   0.01943   0.01943   2.08424
   R16        1.84719   0.00140   0.00000   0.00219   0.00221   1.84940
   R17        3.63381  -0.00089   0.00000  -0.01593  -0.01592   3.61789
   R18        3.55823  -0.00119   0.00000  -0.01566  -0.01567   3.54256
   R19        3.52631  -0.00072   0.00000  -0.01578  -0.01577   3.51054
   R20        3.75074   0.00018   0.00000  -0.00022  -0.00024   3.75049
   R21        2.88820  -0.00120   0.00000  -0.00400  -0.00400   2.88421
   R22        2.05323   0.01088   0.00000   0.03041   0.03041   2.08364
   R23        2.05389   0.01107   0.00000   0.03099   0.03099   2.08488
   R24        2.05215   0.01183   0.00000   0.03301   0.03301   2.08516
   R25        2.88972   0.00181   0.00000   0.00601   0.00601   2.89573
   R26        2.68954   0.00165   0.00000   0.00432   0.00430   2.69384
   R27        2.93588  -0.00258   0.00000  -0.00899  -0.00898   2.92690
   R28        2.05647   0.01069   0.00000   0.03005   0.03005   2.08652
   R29        2.05600   0.01031   0.00000   0.02897   0.02897   2.08496
   R30        2.05305   0.01104   0.00000   0.03084   0.03084   2.08389
   R31        1.84420   0.00209   0.00000   0.00397   0.00396   1.84816
   R32        2.66599   0.00099   0.00000   0.00160   0.00163   2.66762
   R33        2.06519   0.00678   0.00000   0.01934   0.01934   2.08453
   R34        2.06958   0.00754   0.00000   0.02168   0.02168   2.09126
   R35        1.85128   0.00164   0.00000   0.00340   0.00341   1.85468
    A1        1.92556   0.00086   0.00000   0.00487   0.00485   1.93041
    A2        1.91628   0.00039   0.00000   0.00243   0.00241   1.91869
    A3        1.92663   0.00228   0.00000   0.01402   0.01398   1.94061
    A4        1.89897  -0.00070   0.00000  -0.00476  -0.00476   1.89420
    A5        1.89741  -0.00164   0.00000  -0.01004  -0.01008   1.88734
    A6        1.89848  -0.00128   0.00000  -0.00705  -0.00708   1.89140
    A7        1.93272   0.00049   0.00000   0.00729   0.00722   1.93994
    A8        1.91825  -0.00069   0.00000  -0.00921  -0.00916   1.90908
    A9        1.92043   0.00066   0.00000   0.00974   0.00967   1.93010
   A10        1.86713  -0.00013   0.00000  -0.00402  -0.00400   1.86313
   A11        1.90043  -0.00018   0.00000   0.00225   0.00218   1.90261
   A12        1.92422  -0.00016   0.00000  -0.00641  -0.00640   1.91782
   A13        1.92783   0.00125   0.00000   0.00718   0.00716   1.93499
   A14        1.91630   0.00076   0.00000   0.00476   0.00474   1.92104
   A15        1.91390   0.00089   0.00000   0.00556   0.00554   1.91944
   A16        1.90598  -0.00109   0.00000  -0.00700  -0.00702   1.89896
   A17        1.90783  -0.00114   0.00000  -0.00721  -0.00723   1.90060
   A18        1.89159  -0.00072   0.00000  -0.00360  -0.00361   1.88797
   A19        1.88488   0.00032   0.00000   0.00563   0.00563   1.89051
   A20        2.08429   0.00016   0.00000  -0.00005  -0.00009   2.08420
   A21        1.48094   0.00019   0.00000   0.00179   0.00178   1.48273
   A22        1.98386   0.00029   0.00000   0.00118   0.00112   1.98498
   A23        1.90562   0.00017   0.00000  -0.00171  -0.00171   1.90392
   A24        1.89591  -0.00015   0.00000   0.00321   0.00315   1.89905
   A25        1.92077  -0.00034   0.00000  -0.00551  -0.00549   1.91528
   A26        1.86081   0.00072   0.00000   0.01426   0.01423   1.87503
   A27        1.89449  -0.00074   0.00000  -0.01172  -0.01170   1.88279
   A28        1.87925   0.00067   0.00000   0.00133   0.00140   1.88064
   A29        2.11120   0.00010   0.00000  -0.00396  -0.00399   2.10721
   A30        2.64294  -0.00038   0.00000  -0.00276  -0.00282   2.64011
   A31        2.71015  -0.00096   0.00000  -0.01001  -0.01001   2.70014
   A32        1.59403   0.00012   0.00000   0.00315   0.00312   1.59716
   A33        1.91397   0.00089   0.00000   0.00560   0.00558   1.91955
   A34        1.91604   0.00077   0.00000   0.00483   0.00482   1.92086
   A35        1.92781   0.00123   0.00000   0.00705   0.00703   1.93484
   A36        1.89174  -0.00073   0.00000  -0.00362  -0.00364   1.88810
   A37        1.90781  -0.00113   0.00000  -0.00716  -0.00717   1.90064
   A38        1.90605  -0.00109   0.00000  -0.00701  -0.00702   1.89903
   A39        1.93289   0.00044   0.00000   0.00745   0.00737   1.94026
   A40        1.86659  -0.00010   0.00000  -0.00400  -0.00399   1.86260
   A41        1.90118  -0.00014   0.00000   0.00235   0.00227   1.90345
   A42        1.91827  -0.00068   0.00000  -0.00943  -0.00938   1.90889
   A43        1.92018   0.00074   0.00000   0.01079   0.01071   1.93089
   A44        1.92406  -0.00029   0.00000  -0.00757  -0.00755   1.91651
   A45        1.92763   0.00229   0.00000   0.01399   0.01395   1.94158
   A46        1.91663   0.00028   0.00000   0.00182   0.00180   1.91843
   A47        1.92524   0.00096   0.00000   0.00555   0.00553   1.93077
   A48        1.89863  -0.00125   0.00000  -0.00701  -0.00704   1.89160
   A49        1.89657  -0.00171   0.00000  -0.01050  -0.01054   1.88603
   A50        1.89860  -0.00068   0.00000  -0.00441  -0.00441   1.89419
   A51        2.09459   0.00016   0.00000  -0.00079  -0.00083   2.09376
   A52        1.47589   0.00007   0.00000   0.00042   0.00042   1.47630
   A53        1.88405   0.00026   0.00000   0.00473   0.00473   1.88877
   A54        1.98327   0.00055   0.00000   0.00336   0.00330   1.98657
   A55        1.89489  -0.00019   0.00000   0.00347   0.00338   1.89827
   A56        1.90541   0.00011   0.00000  -0.00263  -0.00262   1.90279
   A57        1.86246   0.00061   0.00000   0.01397   0.01391   1.87637
   A58        1.92073  -0.00044   0.00000  -0.00689  -0.00686   1.91388
   A59        1.89475  -0.00069   0.00000  -0.01161  -0.01158   1.88318
   A60        2.09399   0.00004   0.00000  -0.00249  -0.00250   2.09149
   A61        1.39401   0.00043   0.00000   0.00672   0.00669   1.40070
   A62        1.87903   0.00043   0.00000   0.00007   0.00012   1.87915
   A63        2.62846  -0.00055   0.00000  -0.00147  -0.00154   2.62692
   A64        2.21276  -0.00077   0.00000  -0.00583  -0.00586   2.20689
   A65        2.70109  -0.00090   0.00000  -0.00821  -0.00822   2.69287
    D1        0.95317   0.00038   0.00000   0.01925   0.01927   0.97244
    D2        3.01234   0.00008   0.00000   0.01304   0.01304   3.02538
    D3       -1.14869  -0.00015   0.00000   0.00538   0.00533  -1.14336
    D4       -1.13964   0.00046   0.00000   0.02054   0.02058  -1.11906
    D5        0.91953   0.00016   0.00000   0.01433   0.01435   0.93388
    D6        3.04169  -0.00007   0.00000   0.00667   0.00664   3.04833
    D7        3.05067   0.00036   0.00000   0.01892   0.01895   3.06962
    D8       -1.17335   0.00006   0.00000   0.01271   0.01272  -1.16063
    D9        0.94881  -0.00017   0.00000   0.00504   0.00501   0.95382
   D10       -1.15230  -0.00054   0.00000  -0.00714  -0.00714  -1.15944
   D11        3.02793  -0.00047   0.00000  -0.00608  -0.00608   3.02185
   D12        0.95140  -0.00059   0.00000  -0.00796  -0.00796   0.94345
   D13        3.04079   0.00011   0.00000   0.00232   0.00232   3.04310
   D14        0.93783   0.00018   0.00000   0.00338   0.00338   0.94121
   D15       -1.13869   0.00006   0.00000   0.00150   0.00150  -1.13719
   D16        0.96142   0.00048   0.00000   0.01097   0.01097   0.97240
   D17       -1.14153   0.00054   0.00000   0.01203   0.01204  -1.12950
   D18        3.06513   0.00042   0.00000   0.01015   0.01016   3.07528
   D19        0.62689   0.00001   0.00000  -0.00353  -0.00351   0.62338
   D20        2.27264   0.00048   0.00000   0.00193   0.00194   2.27457
   D21        2.72626   0.00012   0.00000  -0.00236  -0.00233   2.72393
   D22       -1.91118   0.00059   0.00000   0.00310   0.00311  -1.90807
   D23       -1.49300  -0.00026   0.00000  -0.00550  -0.00549  -1.49850
   D24        0.15274   0.00021   0.00000  -0.00004  -0.00005   0.15269
   D25       -1.26095   0.00041   0.00000   0.01655   0.01657  -1.24438
   D26        2.87044   0.00052   0.00000   0.02417   0.02419   2.89462
   D27        0.80733   0.00140   0.00000   0.03738   0.03740   0.84473
   D28        2.90101  -0.00049   0.00000   0.00003   0.00003   2.90104
   D29        0.74921  -0.00038   0.00000   0.00765   0.00765   0.75686
   D30       -1.31390   0.00050   0.00000   0.02086   0.02086  -1.29304
   D31        0.85765  -0.00013   0.00000   0.00724   0.00723   0.86489
   D32       -1.29415  -0.00002   0.00000   0.01486   0.01485  -1.27930
   D33        2.92593   0.00086   0.00000   0.02807   0.02806   2.95399
   D34        1.44851  -0.00021   0.00000  -0.01890  -0.01890   1.42961
   D35       -0.63358  -0.00046   0.00000  -0.01986  -0.01985  -0.65344
   D36       -1.33582  -0.00017   0.00000  -0.01018  -0.01017  -1.34599
   D37        0.54524   0.00032   0.00000  -0.00269  -0.00269   0.54256
   D38       -1.44362  -0.00060   0.00000  -0.01264  -0.01261  -1.45623
   D39        0.08597   0.00018   0.00000  -0.00409  -0.00409   0.08189
   D40        0.69989  -0.00043   0.00000  -0.01820  -0.01818   0.68171
   D41        2.22947   0.00035   0.00000  -0.00966  -0.00965   2.21982
   D42        2.75124  -0.00108   0.00000  -0.02694  -0.02696   2.72428
   D43       -2.00235  -0.00030   0.00000  -0.01839  -0.01843  -2.02079
   D44        1.21282  -0.00016   0.00000  -0.00754  -0.00754   1.20528
   D45       -1.00882  -0.00047   0.00000  -0.02080  -0.02081  -1.02963
   D46        1.11476   0.00038   0.00000   0.02206   0.02204   1.13680
   D47       -0.76334   0.00002   0.00000   0.01640   0.01640  -0.74694
   D48        1.23156   0.00042   0.00000   0.00786   0.00786   1.23942
   D49       -0.59473  -0.00031   0.00000   0.00400   0.00398  -0.59075
   D50        0.41891   0.00039   0.00000   0.00615   0.00622   0.42513
   D51       -1.40738  -0.00034   0.00000   0.00230   0.00234  -1.40504
   D52        0.13464  -0.00036   0.00000  -0.01670  -0.01669   0.11794
   D53       -0.95132   0.00062   0.00000   0.00872   0.00871  -0.94261
   D54        1.13857  -0.00002   0.00000  -0.00092  -0.00092   1.13765
   D55       -3.06534  -0.00049   0.00000  -0.01088  -0.01088  -3.07622
   D56       -3.02792   0.00050   0.00000   0.00680   0.00680  -3.02112
   D57       -0.93803  -0.00014   0.00000  -0.00283  -0.00283  -0.94086
   D58        1.14125  -0.00061   0.00000  -0.01280  -0.01279   1.12846
   D59        1.15240   0.00057   0.00000   0.00791   0.00791   1.16031
   D60       -3.04090  -0.00007   0.00000  -0.00173  -0.00172  -3.04262
   D61       -0.96161  -0.00054   0.00000  -0.01169  -0.01169  -0.97330
   D62       -3.04624  -0.00039   0.00000  -0.02095  -0.02099  -3.06723
   D63        1.14302  -0.00047   0.00000  -0.02225  -0.02229   1.12073
   D64       -0.94936  -0.00042   0.00000  -0.02143  -0.02146  -0.97082
   D65        1.17832  -0.00011   0.00000  -0.01471  -0.01472   1.16360
   D66       -0.91560  -0.00019   0.00000  -0.01601  -0.01602  -0.93162
   D67       -3.00798  -0.00014   0.00000  -0.01520  -0.01519  -3.02317
   D68       -0.94350   0.00021   0.00000  -0.00615  -0.00611  -0.94961
   D69       -3.03742   0.00012   0.00000  -0.00744  -0.00741  -3.04483
   D70        1.15338   0.00018   0.00000  -0.00663  -0.00658   1.14681
   D71        1.89916  -0.00058   0.00000  -0.00359  -0.00360   1.89556
   D72       -2.74110  -0.00028   0.00000  -0.00052  -0.00055  -2.74166
   D73       -2.28475  -0.00050   0.00000  -0.00233  -0.00235  -2.28710
   D74       -0.64183  -0.00020   0.00000   0.00074   0.00069  -0.64114
   D75       -0.16525  -0.00020   0.00000   0.00005   0.00005  -0.16520
   D76        1.47767   0.00010   0.00000   0.00312   0.00310   1.48076
   D77       -2.90487   0.00046   0.00000   0.00013   0.00012  -2.90475
   D78        1.30903  -0.00052   0.00000  -0.02187  -0.02187   1.28716
   D79       -0.75370   0.00036   0.00000  -0.00843  -0.00843  -0.76212
   D80        1.25655  -0.00046   0.00000  -0.01733  -0.01736   1.23919
   D81       -0.81274  -0.00144   0.00000  -0.03933  -0.03935  -0.85209
   D82       -2.87546  -0.00056   0.00000  -0.02589  -0.02591  -2.90137
   D83       -0.86181   0.00009   0.00000  -0.00767  -0.00768  -0.86949
   D84       -2.93110  -0.00088   0.00000  -0.02967  -0.02967  -2.96077
   D85        1.28936  -0.00001   0.00000  -0.01623  -0.01623   1.27314
   D86        0.63005   0.00022   0.00000   0.01785   0.01783   0.64787
   D87        1.08217   0.00053   0.00000   0.01017   0.01012   1.09228
   D88       -1.46123   0.00000   0.00000   0.01819   0.01820  -1.44303
   D89       -1.00911   0.00032   0.00000   0.01051   0.01049  -0.99862
   D90       -0.06134  -0.00016   0.00000   0.00349   0.00348  -0.05786
   D91        1.48003   0.00061   0.00000   0.01079   0.01077   1.49080
   D92        2.02649   0.00035   0.00000   0.01923   0.01927   2.04576
   D93       -2.71533   0.00111   0.00000   0.02653   0.02657  -2.68876
   D94       -2.20411  -0.00036   0.00000   0.00973   0.00972  -2.19439
   D95       -0.66274   0.00041   0.00000   0.01703   0.01701  -0.64573
   D96        0.85806   0.00021   0.00000   0.00862   0.00862   0.86668
   D97       -1.20859   0.00008   0.00000   0.00945   0.00945  -1.19913
         Item               Value     Threshold  Converged?
 Maximum Force            0.011851     0.000015     NO 
 RMS     Force            0.002991     0.000010     NO 
 Maximum Displacement     0.064274     0.000060     NO 
 RMS     Displacement     0.015140     0.000040     NO 
 GradGradGradGradGradGradGradGradGradGradGradGradGradGradGradGradGradGrad

                    Distance matrix (angstroms):
                    1          2          3          4          5
     1  C    0.000000
     2  C    1.532238   0.000000
     3  C    2.522995   1.526426   0.000000
     4  O    2.414904   1.426070   2.370295   0.000000
     5  C    2.532918   1.548858   2.503845   2.436193   0.000000
     6  O    3.096697   2.479751   3.768985   2.826387   1.411064
     7  H    1.102736   2.180135   2.746411   3.370862   2.828916
     8  H    1.103329   2.172045   2.803693   2.626434   3.491448
     9  H    1.103914   2.188401   3.488459   2.747090   2.750396
    10  H    2.835383   2.178901   1.103486   3.340877   2.717049
    11  H    3.478152   2.168611   1.103271   2.576021   2.779899
    12  H    2.721977   2.166947   1.102606   2.665428   3.470350
    13  H    2.408474   1.968194   3.196328   0.980430   2.811392
    14  H    3.473071   2.178425   2.603980   2.797566   1.106941
    15  H    2.669867   2.171843   2.848598   3.368830   1.102933
    16  H    3.702560   2.831773   4.043106   2.727670   1.947054
    17  C    5.689408   5.616059   6.937554   4.609954   5.856043
    18  C    4.782760   4.495923   5.866147   3.624221   4.482377
    19  C    5.508780   5.250563   6.680975   4.679564   4.799927
    20  O    3.438176   3.426594   4.875155   2.774674   3.641438
    21  C    5.151185   4.416805   5.536566   3.314246   4.404111
    22  O    4.664664   3.620361   4.610992   2.741440   3.348492
    23  H    5.871539   6.055858   7.456090   5.225456   6.268661
    24  H    5.492543   5.454053   6.652922   4.327293   5.976931
    25  H    6.697241   6.481672   7.754091   5.399403   6.623164
    26  H    5.302779   4.879172   6.256248   4.506290   4.140351
    27  H    5.558981   5.592144   7.091749   5.184827   5.170342
    28  H    6.568491   6.220188   7.598423   5.534999   5.741844
    29  H    3.097502   3.023992   4.533509   2.734449   2.901322
    30  H    6.216989   5.435209   6.511188   4.365796   5.257237
    31  H    5.234035   4.518735   5.483006   3.203962   4.850866
    32  H    3.949203   2.813384   3.718166   1.823879   2.861113
                    6          7          8          9         10
     6  O    0.000000
     7  H    3.570674   0.000000
     8  H    4.047841   1.790721   0.000000
     9  H    2.779830   1.786761   1.789866   0.000000
    10  H    4.095319   2.610932   3.263316   3.816776   0.000000
    11  H    4.001465   3.789175   3.768656   4.330950   1.794343
    12  H    4.617325   3.003149   2.548948   3.763629   1.794851
    13  H    2.766843   3.478237   2.577973   2.357542   4.080300
    14  H    2.066741   3.744315   4.319660   3.810663   2.821314
    15  H    2.034698   2.519626   3.721612   2.912598   2.626079
    16  H    0.978659   4.332948   4.519041   3.425091   4.544396
    17  C    4.907327   6.696575   5.780838   4.994691   7.787755
    18  C    3.456239   5.739966   5.117058   4.122084   6.648457
    19  C    3.489468   6.300107   6.061341   4.714443   7.303519
    20  O    2.807398   4.398160   3.768160   2.728923   5.597197
    21  C    3.634265   6.135265   5.464296   4.785889   6.418006
    22  O    2.774229   5.530965   5.155558   4.487795   5.412722
    23  H    5.245803   6.805243   5.965735   5.033445   8.225751
    24  H    5.249572   6.553104   5.382898   4.935095   7.573956
    25  H    5.625940   7.710055   6.808499   6.032714   8.633770
    26  H    2.779515   5.987365   6.014917   4.595436   6.780530
    27  H    3.834963   6.269548   6.107985   4.618154   7.633343
    28  H    4.443456   7.382065   7.084797   5.800471   8.259859
    29  H    1.914504   3.922185   3.700367   2.350470   5.117766
    30  H    4.391218   7.173471   6.563677   5.814292   7.371599
    31  H    4.326727   6.286670   5.330493   4.999103   6.471091
    32  H    2.660173   4.840828   4.360538   3.952449   4.594783
                   11         12         13         14         15
    11  H    0.000000
    12  H    1.786546   0.000000
    13  H    3.534073   3.410256   0.000000
    14  H    2.432255   3.663415   3.390818   0.000000
    15  H    3.310182   3.810794   3.691520   1.786421   0.000000
    16  H    4.049715   4.862915   2.684937   2.187761   2.816084
    17  C    7.121055   7.126868   3.759557   6.369485   6.689739
    18  C    6.001345   6.246517   2.866317   4.950428   5.334444
    19  C    6.811877   7.235805   4.005976   5.250764   5.490811
    20  O    5.229688   5.198388   1.874641   4.348178   4.390482
    21  C    5.392270   5.947159   2.902611   4.536461   5.425126
    22  O    4.335812   5.210010   2.701379   3.260924   4.403172
    23  H    7.770339   7.633745   4.294602   6.917209   6.974464
    24  H    6.853542   6.680481   3.498336   6.489390   6.844587
    25  H    7.819062   7.973548   4.636507   7.013152   7.504778
    26  H    6.328097   6.951110   4.010238   4.494054   4.782144
    27  H    7.373612   7.611054   4.413858   5.791540   5.698710
    28  H    7.628489   8.151449   4.897461   6.066934   6.471035
    29  H    4.910490   5.032114   2.030957   3.674523   3.566439
    30  H    6.266776   6.965298   4.002671   5.270177   6.261125
    31  H    5.319944   5.703393   2.833051   4.973317   5.907345
    32  H    3.470665   4.253161   1.993292   2.813720   3.960335
                   16         17         18         19         20
    16  H    0.000000
    17  C    4.476666   0.000000
    18  C    2.969063   1.526257   0.000000
    19  C    3.067700   2.523236   1.532355   0.000000
    20  O    2.683578   2.369255   1.425517   2.414391   0.000000
    21  C    2.837777   2.504451   1.548848   2.533697   2.434631
    22  O    1.857700   3.771121   2.481500   3.096517   2.828817
    23  H    4.982929   1.102616   2.166885   2.721996   2.664719
    24  H    4.847501   1.103269   2.168327   3.478218   2.574660
    25  H    5.061918   1.103420   2.178595   2.835912   3.339773
    26  H    2.339907   3.489168   2.189379   1.104139   2.748943
    27  H    3.677559   2.804600   2.171948   1.103315   2.624814
    28  H    3.894110   2.746386   2.180508   1.102748   3.370395
    29  H    1.984675   3.195567   1.964776   2.411609   0.978003
    30  H    3.517188   2.845790   2.171366   2.673253   3.367798
    31  H    3.602522   2.605809   2.177357   3.473560   2.791917
    32  H    1.948603   4.056605   2.850079   3.722227   2.753790
                   21         22         23         24         25
    21  C    0.000000
    22  O    1.411642   0.000000
    23  H    3.470857   4.619321   0.000000
    24  H    2.779989   4.004267   1.786634   0.000000
    25  H    2.718110   4.096679   1.794834   1.794331   0.000000
    26  H    2.750500   2.778434   3.764581   4.331659   3.816919
    27  H    3.491743   4.047134   2.549889   3.768982   3.265125
    28  H    2.831819   3.571649   3.002043   3.789379   2.611433
    29  H    2.798789   2.753968   3.414945   3.530251   4.078593
    30  H    1.103087   2.036285   3.808856   3.305950   2.622773
    31  H    1.106646   2.066013   3.664482   2.432946   2.825941
    32  H    1.948572   0.981457   4.880802   4.059992   4.552418
                   26         27         28         29         30
    26  H    0.000000
    27  H    1.790166   0.000000
    28  H    1.786108   1.790713   0.000000
    29  H    2.361335   2.585931   3.480256   0.000000
    30  H    2.916280   3.724608   2.525125   3.683388   0.000000
    31  H    3.809867   4.319289   3.748580   3.372768   1.786557
    32  H    3.445639   4.541251   4.348443   2.698088   2.813824
                   31         32
    31  H    0.000000
    32  H    2.176613   0.000000
 Framework group  C1[X(C8H20O4)]
 Deg. of freedom    90
                         Standard orientation:                         
 ---------------------------------------------------------------------
 Center     Atomic      Atomic             Coordinates (Angstroms)
 Number     Number       Type             X           Y           Z
 ---------------------------------------------------------------------
      1          6           0       -2.321170    1.484320    0.819240
      2          6           0       -2.257736    0.247582   -0.083094
      3          6           0       -3.556425    0.069189   -0.865116
      4          8           0       -1.218613    0.416394   -1.045073
      5          6           0       -1.995670   -1.026831    0.757236
      6          8           0       -0.685908   -1.105375    1.276328
      7          1           0       -3.192164    1.428661    1.493257
      8          1           0       -2.412152    2.395129    0.203217
      9          1           0       -1.412063    1.572991    1.439150
     10          1           0       -4.394147   -0.167799   -0.187075
     11          1           0       -3.448427   -0.749643   -1.596591
     12          1           0       -3.794061    0.993889   -1.416656
     13          1           0       -0.479754    0.899849   -0.618928
     14          1           0       -2.206031   -1.919099    0.136813
     15          1           0       -2.691427   -1.037804    1.612960
     16          1           0       -0.109526   -1.475241    0.577217
     17          6           0        3.244398    1.340302   -0.352543
     18          6           0        2.236526    0.262801    0.038160
     19          6           0        2.765396   -0.597931    1.190353
     20          8           0        1.054325    0.939873    0.457770
     21          6           0        1.927582   -0.613872   -1.200763
     22          8           0        0.795840   -1.443034   -1.044611
     23          1           0        3.526348    1.931833    0.534224
     24          1           0        2.798676    2.023992   -1.094906
     25          1           0        4.153758    0.889322   -0.785229
     26          1           0        2.071312   -1.424323    1.423691
     27          1           0        2.887324    0.020229    2.096066
     28          1           0        3.743545   -1.035971    0.930741
     29          1           0        0.548317    0.339047    1.040397
     30          1           0        2.793689   -1.268088   -1.397382
     31          1           0        1.789901    0.041979   -2.081427
     32          1           0        0.004320   -0.915175   -1.285689
 ---------------------------------------------------------------------
 Rotational constants (GHZ):           1.5315477           0.4979427           0.4883784
   208 basis functions,   380 primitive gaussians,   220 cartesian basis functions
    50 alpha electrons       50 beta electrons
       nuclear repulsion energy       855.8864915312 Hartrees.
 NAtoms=   32 NActive=   32 NUniq=   32 SFac= 1.00D+00 NAtFMM=   60 NAOKFM=F Big=F
 Nuclear repulsion after empirical dispersion term =      855.8603520586 Hartrees.
   1 Symmetry operations used in ECPInt.
 ECPInt:  NShTT=    6328 NPrTT=   25416 LenC2=    6212 LenP2D=   18407.
 LDataN:  DoStor=T MaxTD1= 4 Len=   56
 Initial guess from the checkpoint file:  "dimer.chk"
 B after Tr=    -0.000000    0.000000   -0.000000
         Rot=    1.000000   -0.000772   -0.000448    0.000434 Ang=  -0.11 deg.
 ExpMin= 1.22D-01 ExpMax= 2.27D+03 ExpMxC= 3.41D+02 IAcc=3 IRadAn=         5 AccDes= 0.00D+00
 Harris functional with IExCor= 4639 and IRadAn=       5 diagonalized for initial guess.
 HarFok:  IExCor= 4639 AccDes= 0.00D+00 IRadAn=         5 IDoV= 1 UseB2=F ITyADJ=14
 ICtDFT=  3500011 ScaDFX=  1.000000  1.000000  1.000000  1.000000
 FoFCou: FMM=F IPFlag=           0 FMFlag=      100000 FMFlg1=           0
         NFxFlg=           0 DoJE=T BraDBF=F KetDBF=T FulRan=T
         wScrn=  0.000000 ICntrl=       500 IOpCl=  0 I1Cent=   200000004 NGrid=           0
         NMat0=    1 NMatS0=      1 NMatT0=    0 NMatD0=    1 NMtDS0=    0 NMtDT0=    0
 Petite list used in FoFCou.
     Accept linear search using points  3 and  4.
     Accept linear search using points  1 and  2.
     Minimum is close to point  2 DX= -2.08D-04 DF= -3.18D-12 DXR=  2.08D-04 DFR=  4.35D-08 which will be used.
 SCF Done:  E(RwB97XD) =  -617.109678702     a.u. after    5 cycles
            Convg  =    0.4046D-09                    30 Fock formations.
              S**2 =  0.0000                  -V/T =  2.0091
   1 Symmetry operations used in ECPInt.
 ECPInt:  NShTT=    6328 NPrTT=   25416 LenC2=    6212 LenP2D=   18407.
 LDataN:  DoStor=T MaxTD1= 5 Len=  102
 Calling FoFJK, ICntrl=      2127 FMM=F ISym2X=0 I1Cent= 0 IOpClX= 0 NMat=1 NMatS=1 NMatT=0.

 GradGradGradGradGradGradGradGradGradGradGradGradGradGradGradGradGradGrad
 Using GEDIIS/GDIIS optimizer.
 FormGI is forming the generalized inverse of G from B-inverse, IUseBI=4.
 Internal  Forces:  Max     0.001164016 RMS     0.000385358
 Step number   2 out of a maximum of  192
 All quantities printed in internal units (Hartrees-Bohrs-Radians)
 Mixed Optimization -- En-DIIS/RFO-DIIS
 Trust test= 1.02D+00 RLast= 1.94D-01 DXMaxT set to 5.05D-01
 ITU=  1  0
 Use linear search instead of GDIIS.
     Eigenvalues ---    0.00380   0.00383   0.00389   0.00391   0.00758
     Eigenvalues ---    0.00805   0.00936   0.01111   0.01329   0.01540
     Eigenvalues ---    0.02700   0.02727   0.03936   0.04254   0.04431
     Eigenvalues ---    0.04698   0.04712   0.04950   0.05313   0.05427
     Eigenvalues ---    0.05489   0.05551   0.05559   0.05597   0.05602
     Eigenvalues ---    0.05604   0.05661   0.05666   0.05729   0.05731
     Eigenvalues ---    0.05752   0.05996   0.06527   0.06833   0.07778
     Eigenvalues ---    0.08733   0.09319   0.09792   0.09820   0.10612
     Eigenvalues ---    0.10917   0.11221   0.13195   0.13621   0.14141
     Eigenvalues ---    0.14895   0.15678   0.15860   0.16000   0.16000
     Eigenvalues ---    0.16000   0.16000   0.16000   0.16000   0.16000
     Eigenvalues ---    0.16000   0.16000   0.16000   0.16027   0.16295
     Eigenvalues ---    0.25453   0.25683   0.29294   0.29510   0.29563
     Eigenvalues ---    0.29570   0.34173   0.34220   0.34483   0.34509
     Eigenvalues ---    0.35023   0.35041   0.35051   0.35095   0.35174
     Eigenvalues ---    0.35181   0.35208   0.35219   0.35227   0.35265
     Eigenvalues ---    0.35283   0.36336   0.37572   0.38579   0.40927
     Eigenvalues ---    0.41567   0.42924   0.46907   0.47530   0.49469
 Quartic linear search produced a step of  0.07979.
 Iteration  1 RMS(Cart)=  0.01533915 RMS(Int)=  0.00016327
 Iteration  2 RMS(Cart)=  0.00015981 RMS(Int)=  0.00002764
 Iteration  3 RMS(Cart)=  0.00000002 RMS(Int)=  0.00002764
 Variable       Old X    -DE/DX   Delta X   Delta X   Delta X     New X
                                 (Linear)    (Quad)   (Total)
    R1        2.89551  -0.00107   0.00050  -0.00409  -0.00359   2.89192
    R2        2.08387   0.00022   0.00245  -0.00028   0.00217   2.08604
    R3        2.08499  -0.00005   0.00232  -0.00107   0.00125   2.08624
    R4        2.08610  -0.00014   0.00239  -0.00138   0.00101   2.08711
    R5        2.88453  -0.00112  -0.00032  -0.00397  -0.00428   2.88024
    R6        2.69488   0.00116   0.00039   0.00307   0.00345   2.69833
    R7        2.92692  -0.00103  -0.00074  -0.00419  -0.00495   2.92197
    R8        2.08529   0.00012   0.00264  -0.00066   0.00198   2.08726
    R9        2.08488  -0.00006   0.00247  -0.00114   0.00133   2.08621
   R10        2.08362  -0.00004   0.00243  -0.00107   0.00136   2.08499
   R11        1.85274   0.00034   0.00034   0.00135   0.00168   1.85442
   R12        3.44663  -0.00070  -0.00106  -0.00963  -0.01069   3.43594
   R13        2.66653  -0.00083   0.00011  -0.00278  -0.00266   2.66387
   R14        2.09182   0.00023   0.00171   0.00004   0.00175   2.09357
   R15        2.08424   0.00016   0.00155  -0.00012   0.00143   2.08567
   R16        1.84940   0.00075   0.00018   0.00112   0.00132   1.85072
   R17        3.61789  -0.00092  -0.00127  -0.01648  -0.01772   3.60017
   R18        3.54256  -0.00094  -0.00125  -0.01299  -0.01424   3.52832
   R19        3.51054  -0.00057  -0.00126  -0.01186  -0.01309   3.49745
   R20        3.75049   0.00025  -0.00002   0.00125   0.00119   3.75168
   R21        2.88421  -0.00115  -0.00032  -0.00405  -0.00437   2.87984
   R22        2.08364  -0.00004   0.00243  -0.00108   0.00135   2.08499
   R23        2.08488  -0.00006   0.00247  -0.00116   0.00131   2.08619
   R24        2.08516   0.00012   0.00263  -0.00066   0.00198   2.08714
   R25        2.89573  -0.00111   0.00048  -0.00425  -0.00377   2.89196
   R26        2.69384   0.00113   0.00034   0.00321   0.00354   2.69738
   R27        2.92690  -0.00110  -0.00072  -0.00451  -0.00524   2.92166
   R28        2.08652  -0.00009   0.00240  -0.00122   0.00118   2.08770
   R29        2.08496  -0.00006   0.00231  -0.00109   0.00122   2.08619
   R30        2.08389   0.00022   0.00246  -0.00028   0.00218   2.08607
   R31        1.84816   0.00053   0.00032   0.00088   0.00119   1.84935
   R32        2.66762  -0.00080   0.00013  -0.00274  -0.00258   2.66503
   R33        2.08453   0.00018   0.00154  -0.00003   0.00151   2.08604
   R34        2.09126   0.00022   0.00173   0.00002   0.00175   2.09301
   R35        1.85468   0.00070   0.00027   0.00163   0.00191   1.85659
    A1        1.93041   0.00054   0.00039   0.00364   0.00402   1.93443
    A2        1.91869   0.00003   0.00019   0.00015   0.00034   1.91904
    A3        1.94061   0.00030   0.00112   0.00138   0.00249   1.94310
    A4        1.89420  -0.00025  -0.00038  -0.00117  -0.00155   1.89265
    A5        1.88734  -0.00044  -0.00080  -0.00271  -0.00352   1.88382
    A6        1.89140  -0.00021  -0.00057  -0.00150  -0.00207   1.88933
    A7        1.93994  -0.00030   0.00058  -0.00227  -0.00172   1.93822
    A8        1.90908   0.00010  -0.00073   0.00029  -0.00041   1.90867
    A9        1.93010   0.00013   0.00077   0.00302   0.00377   1.93387
   A10        1.86313  -0.00003  -0.00032   0.00023  -0.00009   1.86304
   A11        1.90261   0.00025   0.00017   0.00250   0.00270   1.90531
   A12        1.91782  -0.00015  -0.00051  -0.00394  -0.00449   1.91333
   A13        1.93499   0.00052   0.00057   0.00315   0.00372   1.93871
   A14        1.92104   0.00016   0.00038   0.00086   0.00123   1.92227
   A15        1.91944   0.00047   0.00044   0.00315   0.00358   1.92302
   A16        1.89896  -0.00039  -0.00056  -0.00273  -0.00329   1.89567
   A17        1.90060  -0.00051  -0.00058  -0.00309  -0.00367   1.89692
   A18        1.88797  -0.00029  -0.00029  -0.00156  -0.00185   1.88613
   A19        1.89051  -0.00029   0.00045   0.00104   0.00149   1.89200
   A20        2.08420  -0.00022  -0.00001  -0.00586  -0.00591   2.07829
   A21        1.48273   0.00053   0.00014   0.00357   0.00372   1.48644
   A22        1.98498   0.00046   0.00009  -0.00043  -0.00045   1.98453
   A23        1.90392  -0.00018  -0.00014  -0.00169  -0.00181   1.90211
   A24        1.89905   0.00019   0.00025   0.00487   0.00515   1.90421
   A25        1.91528   0.00010  -0.00044   0.00112   0.00073   1.91602
   A26        1.87503  -0.00035   0.00114   0.00076   0.00190   1.87693
   A27        1.88279  -0.00026  -0.00093  -0.00484  -0.00578   1.87701
   A28        1.88064   0.00014   0.00011  -0.00366  -0.00347   1.87717
   A29        2.10721  -0.00020  -0.00032  -0.00574  -0.00608   2.10113
   A30        2.64011  -0.00032  -0.00023  -0.00233  -0.00266   2.63745
   A31        2.70014  -0.00071  -0.00080  -0.01001  -0.01086   2.68928
   A32        1.59716   0.00020   0.00025   0.00500   0.00520   1.60235
   A33        1.91955   0.00045   0.00045   0.00300   0.00344   1.92299
   A34        1.92086   0.00015   0.00038   0.00083   0.00121   1.92207
   A35        1.93484   0.00053   0.00056   0.00324   0.00380   1.93864
   A36        1.88810  -0.00028  -0.00029  -0.00152  -0.00181   1.88629
   A37        1.90064  -0.00050  -0.00057  -0.00308  -0.00366   1.89698
   A38        1.89903  -0.00039  -0.00056  -0.00269  -0.00325   1.89578
   A39        1.94026  -0.00029   0.00059  -0.00207  -0.00151   1.93876
   A40        1.86260   0.00001  -0.00032   0.00056   0.00024   1.86284
   A41        1.90345   0.00019   0.00018   0.00200   0.00221   1.90566
   A42        1.90889   0.00006  -0.00075   0.00002  -0.00069   1.90819
   A43        1.93089   0.00018   0.00085   0.00334   0.00418   1.93507
   A44        1.91651  -0.00016  -0.00060  -0.00403  -0.00466   1.91185
   A45        1.94158   0.00027   0.00111   0.00108   0.00219   1.94378
   A46        1.91843   0.00002   0.00014   0.00015   0.00030   1.91873
   A47        1.93077   0.00058   0.00044   0.00393   0.00436   1.93513
   A48        1.89160  -0.00019  -0.00056  -0.00148  -0.00205   1.88955
   A49        1.88603  -0.00046  -0.00084  -0.00294  -0.00379   1.88225
   A50        1.89419  -0.00025  -0.00035  -0.00094  -0.00130   1.89290
   A51        2.09376  -0.00030  -0.00007  -0.00664  -0.00675   2.08701
   A52        1.47630   0.00042   0.00003   0.00212   0.00216   1.47846
   A53        1.88877  -0.00018   0.00038   0.00097   0.00132   1.89009
[...]
 4824,-0.00000632,-0.00001311,0.00000470,0.00001981,-0.00015058,0.00015
 633,-0.00005591,-0.00006025,0.00005115,-0.00003251,-0.00020602,0.00018
 918,0.00000379,-0.00000771,0.00000606,0.00001056,-0.00000211,0.0000119
 3,0.00000590,-0.00001411,-0.00000073,-0.00000047,0.00000124,0.00000010
 ,0.00000781,-0.00000793,0.00000724,0.00000031,0.00000262,-0.00000226,-
 0.00019245,0.00008517,-0.00019180,0.00004505,-0.00001496,0.00002300,-0
 .00002925,0.00000094,-0.00000683,0.00056911,0.00014671,-0.00010729,-0.
 00014703,0.00013739,0.00108345,-0.00291853,0.00663528,-0.00991789,-0.0
 5530853,0.02446285,-0.03120764,0.00100369,0.00063454,0.00092519,-0.000
 66818,-0.00182225,-0.00100490,-0.00005283,-0.00016979,0.00000376,0.000
 39324,0.00013317,0.00022583,-0.00013222,0.00002751,-0.00003173,0.00002
 305,-0.00003515,0.00013168,-0.00231153,0.01073064,-0.01760323,0.053124
 94,0.00000938,-0.00000132,-0.00001078,-0.00004142,-0.00000894,0.000043
 57,0.00000374,0.00001079,-0.00000107,0.00015446,0.00001996,0.00003631,
 -0.00007712,0.00003405,-0.00007263,0.00018428,0.00006412,-0.00004085,0
 .00001446,-0.00000089,-0.00000089,-0.00000755,0.00000348,-0.00000464,-
 0.00001181,0.00000265,0.00002442,0.00000567,-0.00000195,-0.00000174,-0
 .00000331,-0.00000002,-0.00000235,0.00000260,0.00000239,0.00000404,-0.
 00012463,0.00000521,-0.00011812,-0.00001144,0.00000081,-0.00000192,0.0
 0004247,0.00000307,0.00000246,-0.00043677,-0.00011030,-0.00010160,-0.0
 0045775,0.00134077,-0.00051318,-0.00347238,0.01021670,-0.01635416,0.02
 487775,-0.14330020,0.12933449,0.00193637,0.00130152,0.00020372,-0.0008
 5489,-0.00266625,-0.00279182,-0.00007388,0.00051725,0.00056055,0.00010
 812,-0.00030467,-0.00006729,-0.00004479,0.00011176,0.00016279,0.000077
 61,-0.00005862,-0.00002738,0.00091362,-0.01091537,0.01727611,-0.026023
 03,0.14975320,-0.00003732,0.00000357,0.00000586,0.00011555,-0.00000974
 ,-0.00007854,-0.00000934,0.00000016,0.00000850,-0.00009512,-0.00017464
 ,0.00020699,-0.00001394,0.00001039,-0.00001066,-0.00000425,-0.00009607
 ,0.00019242,0.00000050,-0.00000893,0.00001121,0.00000160,-0.00000075,-
 0.00000217,0.00000316,0.00000796,-0.00000052,-0.00000606,0.00000133,0.
 00000286,0.00000964,-0.00000786,0.00000371,0.00000312,0.00000073,-0.00
 000271,-0.00011859,0.00011597,-0.00020373,0.00002315,-0.00001635,0.000
 00505,-0.00000457,0.00000183,0.00001048,0.00010961,-0.00004048,-0.0003
 7588,-0.00031806,0.00143789,0.00075356,-0.00272566,0.01695274,-0.02184
 729,-0.03245028,0.12621198,-0.21872593,0.00170877,0.00010012,0.0032057
 4,-0.00083834,-0.00522450,-0.00298763,-0.00067308,0.00047582,0.0006681
 1,0.00053852,-0.00103038,-0.00002845,0.00001694,-0.00013187,0.00043050
 ,-0.00008829,-0.00006212,0.00000353,0.00105794,-0.00626284,0.00852813,
 0.03651545,-0.13526438,0.23561809,0.00001480,-0.00000662,0.00003794,0.
 00006410,0.00003202,-0.00004920,-0.00000663,-0.00002660,0.00000124,-0.
 00023726,0.00017040,-0.00017736,0.00036135,0.00001974,0.00014461,-0.00
 071888,0.00015468,-0.00022028,-0.00002601,0.00000776,-0.00000264,0.000
 00042,-0.00000554,-0.00000899,-0.00000201,0.00001386,-0.00004032,-0.00
 001035,0.00000308,0.00000278,0.00000030,0.00000815,-0.00000457,-0.0000
 0882,-0.00000624,-0.00001005,0.00044759,-0.00011245,0.00034450,-0.0000
 7825,0.00002264,-0.00006111,-0.00006315,-0.00000382,0.00000289,0.00029
 062,-0.00033885,0.00043413,0.00026875,0.00071707,0.00071239,-0.0090464
 3,-0.00205167,0.00572232,-0.25159966,-0.10209003,0.05802387,-0.0012903
 6,-0.00214475,-0.00245918,-0.00058470,-0.00036787,0.00080514,0.0004599
 4,0.00022688,-0.00047650,-0.00001464,-0.00003290,-0.00015277,0.0001085
 5,0.00015280,-0.00013882,0.00054129,0.00007857,-0.00002055,-0.01447582
 ,-0.01006654,0.00387738,0.00705717,0.00361485,-0.00174357,0.26684952,0
 .00000809,0.00000340,0.00008010,0.00018960,-0.00007927,-0.00015029,-0.
 00002067,0.00003639,0.00003407,-0.00043395,0.00023575,-0.00015329,-0.0
 0011671,-0.00004922,-0.00006540,0.00040854,0.00033466,0.00025030,-0.00
 003222,0.00000183,-0.00000148,0.00000814,0.00001044,-0.00000524,0.0000
 1056,-0.00000643,-0.00005419,-0.00002149,-0.00000007,-0.00000076,0.000
 00102,0.00000176,-0.00000631,0.00001147,-0.00000072,0.00000606,0.00060
 460,-0.00014252,0.00046027,0.00002964,0.00000183,0.00001587,0.00003102
 ,0.00001041,0.00001675,-0.00028887,0.00000431,-0.00033847,-0.00020307,
 0.00023226,0.00058234,-0.01307527,-0.00668543,0.00841156,-0.10081179,-
 0.09876204,0.02861343,-0.00465294,-0.00257001,-0.00406616,0.00040542,0
 .00019315,0.00074793,0.00020065,-0.00007038,0.00019962,-0.00008328,-0.
 00012582,0.00006245,0.00020618,0.00023745,0.00013962,0.00031236,-0.000
 30935,-0.00069798,0.02014828,0.01248424,-0.00574281,-0.01559134,-0.006
 76365,0.00197551,0.11153281,0.10238877,-0.00001201,0.00000589,0.000058
 46,0.00011378,-0.00004553,-0.00009034,-0.00001479,0.00002170,0.0000258
 5,-0.00022512,0.00022979,-0.00014474,-0.00014699,-0.00006730,-0.000028
 23,0.00027320,0.00019477,0.00017733,-0.00002669,0.00000219,-0.00000639
 ,0.00001370,0.00000837,0.00000484,0.00000933,-0.00001410,-0.00005905,-
 0.00001258,-0.00000066,-0.00000309,-0.00000007,0.,-0.00000284,0.000007
 78,0.00000241,0.00000534,0.00045541,-0.00020984,0.00041688,0.00002545,
 0.00000147,0.00002091,0.00001383,0.00001177,0.00000267,-0.00010697,-0.
 00008310,-0.00011329,-0.00017232,0.00020906,0.00076219,-0.02018785,-0.
 00777239,0.00852902,0.06101223,0.03074812,-0.06697106,-0.00541098,-0.0
 0501134,-0.00253198,-0.00058454,0.00008884,0.00056238,0.00038587,-0.00
 004849,-0.00002645,0.00017276,0.00001242,-0.00001535,-0.00009721,0.000
 31006,0.00008420,0.00018315,-0.00039655,-0.00022561,0.00515899,0.00390
 038,-0.00238328,0.02233987,0.00822403,-0.00417733,-0.06360318,-0.02999
 555,0.06772504,-0.00088283,0.00040801,-0.00012725,-0.00031177,-0.00051
 025,-0.00235943,-0.00034562,0.00045804,0.00043343,-0.00313292,0.000924
 34,0.00117315,-0.00812728,0.00075896,-0.00188466,0.00123202,-0.0070305
 5,0.00032236,0.00032845,0.00000368,0.00014270,0.00054811,0.00028757,0.
 00025430,-0.00080528,-0.00209900,0.00069674,-0.00007443,-0.00003579,-0
 .00005465,0.00010016,-0.00012134,0.00005091,0.00025936,0.00008698,0.00
 017705,0.00397643,-0.00264628,-0.00315710,0.00126939,-0.00033469,0.000
 83664,0.00063756,0.00016026,-0.00007201,0.00468222,0.00312214,-0.00206
 538,-0.00405539,-0.00317555,0.00152665,-0.02635548,0.01666323,0.022326
 55,0.00221258,0.00163687,-0.00111316,-0.14298277,0.09866342,0.12178697
 ,0.00327584,-0.00124476,0.00039938,-0.00377740,0.00085369,0.00149889,0
 .00002297,-0.00002325,-0.00009876,0.00004521,-0.00009619,0.00009395,-0
 .00046994,0.00104473,0.00040503,-0.00000693,-0.00092227,-0.00031144,-0
 .00090048,-0.00011757,-0.00064602,0.00114205,0.00087692,0.00056554,0.1
 7153620,-0.00069047,0.00007520,-0.00156092,-0.00123128,0.00218992,0.00
 074316,0.00014153,-0.00102880,-0.00016641,0.00153392,-0.00213085,-0.00
 014048,0.00832385,0.00346315,0.00298956,-0.00890490,-0.00389265,-0.001
 73144,0.00056077,-0.00001922,0.00025270,0.00014925,-0.00029892,0.00016
 833,-0.00107610,-0.00056266,0.00102652,0.00012442,0.00008177,0.0000349
 0,0.00010086,-0.00001693,0.00017623,-0.00028876,-0.00007198,-0.0002554
 8,-0.00236042,0.00148654,-0.00315382,-0.00180973,0.00006467,-0.0010792
 7,-0.00124822,-0.00018929,-0.00006952,0.00108010,-0.00906290,0.0034310
 9,-0.00269330,-0.00212231,0.00117992,-0.00988824,0.01569325,0.01479839
 ,-0.00289436,0.00166744,0.00097336,0.13195808,-0.19883625,-0.16729707,
 -0.00577769,0.00131119,0.00075488,0.00344052,-0.00094313,-0.00307227,0
 .00014725,-0.00004454,-0.00015855,0.00015222,-0.00006289,0.00012268,-0
 .00095863,0.00082001,0.00031719,-0.00029536,-0.00149962,-0.00039931,0.
 00046935,0.00004848,0.00025938,0.00003571,-0.00089954,-0.00044764,-0.1
 0894377,0.19563769,0.00077589,-0.00043591,-0.00042136,-0.00411276,0.00
 039889,0.00220345,0.00034799,-0.00015939,-0.00051705,0.00390801,-0.000
 25718,0.00079314,0.00184853,0.00274456,-0.00012661,-0.00222047,-0.0017
 2407,-0.00606714,0.00023000,0.00014792,-0.00009134,-0.00028132,-0.0000
 4814,-0.00012719,0.00064596,0.00074907,0.00054571,0.00026383,-0.000014
 84,0.00002507,-0.00009937,0.00006209,0.00000581,-0.00010407,-0.0000370
 4,-0.00001723,-0.00487656,-0.00378970,-0.00697782,-0.00109826,0.000050
 44,-0.00048784,0.00004416,-0.00023984,-0.00016835,-0.00182593,0.003531
 53,0.00267936,-0.00141317,0.00034516,0.00030806,0.00787059,-0.00360565
 ,-0.00760719,-0.00220378,0.00001776,0.00246491,0.14229828,-0.14717516,
 -0.16214358,0.00187433,-0.00082125,-0.00156370,-0.00057114,-0.00123415
 ,0.00065531,0.00007534,0.00002719,0.00000840,0.00001710,0.00006565,-0.
 00001755,-0.00061778,0.00020836,0.00065580,0.00013743,-0.00070625,0.00
 068273,-0.00076756,0.00046561,-0.00030317,-0.00026154,-0.00033273,-0.0
 0096223,-0.13919448,0.15054375,0.17768417,-0.00010328,0.00002365,0.000
 03039,0.00055187,0.00001281,-0.00035201,-0.00002115,-0.00002139,0.0000
 2485,-0.00099348,-0.00132587,0.00022907,0.00033377,0.00006487,0.000008
 08,-0.00048485,-0.00023743,0.00082820,-0.00001255,-0.00002485,0.000046
 57,0.00000344,-0.00000858,-0.00001201,-0.00000556,0.00001364,0.0000106
 2,-0.00003165,0.00000651,0.00000956,0.00002829,-0.00000580,0.00001049,
 -0.00000416,-0.00001267,-0.00001309,-0.00021225,0.00041514,-0.00020374
 ,0.00005020,-0.00006152,-0.00001593,-0.00005588,-0.00000917,0.00005401
 ,0.00037875,-0.00015293,-0.00146192,-0.00006362,-0.00013831,0.00063678
 ,0.00393006,0.00172493,-0.00131947,-0.00002937,0.00018276,-0.00074101,
 0.00188893,0.00113631,-0.00136651,-0.20125265,-0.12193325,0.04182935,-
 0.03414833,-0.00513615,0.00310621,0.00022396,-0.00021812,0.00005172,0.
 00000279,0.00014277,-0.00002761,0.00013078,0.00042816,-0.00028115,-0.0
 0004830,-0.00013047,0.00000659,0.00020173,0.00010532,0.00003096,0.0003
 1588,0.00022372,-0.00025511,-0.00027363,0.00038076,-0.00019500,0.23254
 773,0.00003199,-0.00000924,0.00006634,0.00005395,-0.00003934,-0.000068
 75,-0.00001981,0.00001184,0.00002858,0.00003697,0.00106365,-0.00000514
 ,0.00001555,-0.00006708,0.00006046,-0.00004496,0.00040270,-0.00030861,
 -0.00003366,0.00000828,-0.00001028,0.00000514,0.00000714,-0.00000615,0
 .00002541,0.00000893,-0.00005963,-0.00001584,0.00000236,-0.00000122,-0
 .00000310,0.00000642,-0.00001204,0.00000697,0.00000053,-0.00000060,0.0
 0089947,-0.00011271,0.00015324,-0.00004040,0.00004367,-0.00002550,-0.0
 0000732,0.00001479,0.00000265,-0.00004278,-0.00015185,0.00041969,-0.00
 024097,-0.00011505,-0.00013939,-0.01497397,-0.00685432,-0.00106922,-0.
 00022342,0.00084379,-0.00098009,-0.00102420,-0.00239098,0.00501897,-0.
 12962986,-0.15058783,0.03390453,0.02763820,0.01422398,-0.00384543,0.00
 029256,0.00018443,-0.00004602,0.00003598,0.00009368,0.00023597,0.00080
 534,-0.00051009,0.00016008,0.00009625,-0.00002069,0.00017208,0.0001287
 3,0.00000598,-0.00022330,0.00044476,0.00039678,0.00025119,0.00059115,-
 0.00077894,-0.00016386,0.12439994,0.15453780,-0.00004081,-0.00000191,-
 0.00004565,0.00004275,0.00005236,-0.00006361,-0.00001308,-0.00000627,0
 .00001628,0.00018378,0.00017965,0.00036573,-0.00015478,-0.00001790,-0.
 00001976,0.00020236,-0.00027943,-0.00011019,0.00002251,-0.00000992,0.0
 0001329,0.00000914,0.00000130,0.00000497,-0.00004036,-0.00000418,0.000
 05655,-0.00000077,0.00000110,-0.00000077,0.00000872,-0.00000748,0.0000
 0418,0.00000611,0.00000406,-0.00000177,-0.00023633,0.00006160,-0.00072
 039,0.00002257,-0.00000668,0.00001916,0.00001013,0.00001146,0.00000237
 ,0.00010402,0.00025587,0.00004046,0.00009542,-0.00065103,-0.00008329,0
 .02014575,0.01447635,-0.00308211,0.00072952,0.00002513,0.00068710,0.00
 215400,0.00534967,-0.00554187,0.03938335,0.03101020,-0.06554148,0.0047
 4894,0.00104705,0.00258874,-0.00016312,-0.00010632,-0.00001050,-0.0000
 4666,-0.00000756,0.00004537,-0.00035830,0.00020787,0.00031337,0.000089
 75,-0.00013485,-0.00013074,-0.00006483,-0.00012601,0.00044731,-0.00067
 969,-0.00003078,-0.00087466,-0.00040802,0.00059317,0.00043719,-0.04635
 688,-0.03705713,0.06404113,0.00007531,-0.00004752,-0.00010080,-0.00034
 165,0.00026871,0.00020830,0.00001853,-0.00004302,-0.00004981,0.0004114
 6,-0.00045627,-0.00048443,0.00045102,0.00010045,0.00014232,-0.00077286
 ,-0.00067033,0.00079488,0.00001096,0.00002287,-0.00002169,-0.00000866,
 -0.00002523,0.00000906,-0.00001016,0.00001678,0.00001170,0.00002571,-0
 .00000160,-0.00000233,-0.00000430,0.00000823,0.00001574,-0.00002485,-0
 .00001027,-0.00000916,-0.00029268,0.00012184,0.00034702,0.00005474,-0.
 00002680,-0.00002152,-0.00007158,-0.00005167,-0.00001746,0.00082171,0.
 00075996,-0.00182598,0.00007872,-0.00020747,-0.00123049,-0.00127884,-0
 .00459898,-0.00358168,-0.00001445,0.00176206,-0.00170809,0.00110782,0.
 00076528,0.00037695,-0.06498355,-0.03771650,-0.04364357,-0.00619517,0.
 02821383,0.02735493,-0.00016355,0.00005007,0.00024898,0.00002618,0.000
 65470,-0.00025125,-0.00009135,-0.00022768,-0.00002771,-0.00000411,-0.0
 0003855,0.00010851,0.00004195,-0.00021898,-0.00066454,0.00033292,0.000
 14738,0.00025574,-0.00034268,0.00026219,-0.00005202,-0.00179272,-0.012
 39346,-0.01948281,0.06992784,0.00002727,0.00000907,0.00001496,-0.00010
 238,-0.00003022,-0.00004868,-0.00002570,0.00006002,0.00003350,0.000279
 35,0.00083732,0.00028966,-0.00053846,-0.00012369,-0.00020100,0.0008060
 2,0.00053277,-0.00072298,-0.00000102,-0.00000189,-0.00000941,0.0000107
 0,0.00002636,0.00000456,0.00000123,-0.00002474,0.00000528,-0.00000797,
 -0.00000694,-0.00000226,-0.00000310,-0.00001674,-0.00001709,0.00002780
 ,0.00002150,0.00001219,0.00012082,-0.00015646,-0.00027755,-0.00004838,
 0.00002657,0.00003526,0.00009468,0.00003906,-0.00000711,-0.00090915,-0
 .00052077,0.00184371,0.00014166,0.00107280,0.00149747,0.00442113,0.008
 92778,0.01546872,0.00052795,-0.00199422,0.00253590,0.00059576,0.001091
 17,-0.00142463,-0.03262576,-0.13731723,-0.11581318,0.01066722,-0.01643
 455,-0.01768205,-0.00006868,0.00017503,-0.00001487,0.00011227,-0.00046
 770,0.00027480,-0.00000551,0.00005657,-0.00022412,-0.00012556,0.000000
 73,0.00003673,0.00043437,0.00069963,0.00079655,0.00018325,0.00003879,-
 0.00001120,0.00019177,-0.00020259,0.00005593,-0.00331941,-0.00806385,-
 0.01445526,0.02152064,0.15262509,-0.00006975,0.00002513,0.00005601,0.0
 0030539,-0.00010726,-0.00033635,-0.00005489,0.00003771,0.00007783,-0.0
 0025781,0.00066744,0.00053093,-0.00037899,-0.00010053,-0.00008676,0.00
 050404,0.00028860,-0.00010511,-0.00001639,-0.00001405,0.00002121,0.000
 02508,0.00002376,0.00000118,0.00000588,-0.00002336,-0.00001303,-0.0000
 3683,0.00000400,-0.00000351,0.00000955,-0.00000844,-0.00001196,0.00002
 759,0.00001045,0.00000587,0.00073898,0.00000887,-0.00089651,0.00000360
 ,0.00001230,0.00001643,0.00004958,0.00004028,0.00002692,-0.00050283,-0
 .00013532,0.00052134,0.00087408,-0.00154353,0.00060386,-0.00966817,-0.
 01717939,-0.02225148,-0.00038639,0.00467943,-0.00321086,0.00052793,0.0
 0021077,0.00280661,-0.03852615,-0.11551237,-0.20861806,0.00551130,-0.0
 0355317,0.00001660,0.00035332,0.00013560,0.00037650,-0.00023875,0.0010
 8890,0.00049263,-0.00009742,0.00016382,-0.00006767,0.00016768,0.000007
 07,0.00028628,-0.00058752,-0.00084383,-0.00134163,-0.00007554,0.000010
 77,0.00025673,-0.00006361,-0.00025945,0.00007852,0.00097277,0.00529602
 ,0.00761495,0.04123639,0.12819419,0.22214123,0.00162308,-0.00049244,-0
 .00099155,-0.00819231,0.00094074,0.00551657,0.00024670,-0.00039711,-0.
 00047568,0.00098329,0.00823143,-0.00388854,0.00354498,-0.00009127,0.00
 232728,-0.00532916,-0.00087459,0.00184622,0.00016138,0.00048984,-0.000
 60824,-0.00012171,-0.00014426,0.00013280,-0.00007101,0.00006691,-0.000
 07693,0.00040462,0.00000524,-0.00008908,-0.00037858,0.00017756,-0.0000
 8056,-0.00013001,0.00008079,-0.00002658,0.00655043,-0.00081366,0.00086
 399,-0.00063961,0.00082514,-0.00010172,-0.00046503,-0.00015810,-0.0008
 2386,0.00566751,0.00047248,-0.00341777,-0.00013770,-0.00048827,0.00106
 280,0.00144040,0.00121963,-0.00226174,-0.00039125,-0.00070396,0.000619
 07,-0.00383597,-0.00123459,0.00023469,-0.03717032,-0.00875155,-0.00726
 048,-0.28496051,-0.13293254,-0.08781478,0.00038601,-0.00026659,0.00009
 012,0.00002252,0.00013768,-0.00010471,-0.00010208,0.00008329,-0.000069
 00,0.00008437,0.00003874,-0.00035189,0.00026683,-0.00007338,0.00030211
 ,-0.00009227,-0.00002479,-0.00013021,0.00157627,0.00020047,-0.00044223
 ,-0.00105474,0.00318537,0.00008761,0.00300831,-0.00238281,-0.00035212,
 0.31710557,0.00191435,-0.00078169,-0.00151337,-0.00751661,0.00484747,0
 .00635770,0.00055044,-0.00011142,-0.00121355,0.01222980,-0.00115776,-0
 .00507263,0.00183352,0.00239375,-0.00027264,-0.00209026,-0.00194840,0.
 00069345,0.00018677,0.00062726,-0.00069742,-0.00014765,-0.00029218,0.0
 0019696,-0.00006927,0.00001554,0.00007596,0.00053979,-0.00013558,0.000
 10171,-0.00013113,-0.00000021,0.00020235,-0.00022675,-0.00006110,0.000
 00461,0.00044654,-0.00837077,0.00345947,0.00051223,-0.00073520,0.00016
 827,-0.00016421,-0.00085321,-0.00032729,0.00089504,0.00204610,-0.00386
 261,-0.00021361,-0.00059492,0.00113228,0.00616938,0.00072238,-0.002807
 97,-0.00044109,-0.00048003,-0.00005155,-0.00460253,-0.00063727,-0.0009
 2062,0.02406514,0.01400560,0.01084576,-0.17341298,-0.14781965,-0.08042
 577,0.00019579,-0.00040501,-0.00002127,0.00008303,-0.00006439,-0.00015
 995,-0.00028678,0.00011210,0.00003503,0.00000551,0.00005093,-0.0001290
 3,0.00006259,-0.00000962,0.00020229,-0.00016514,-0.00014777,-0.0001187
 5,0.00056951,0.00012470,0.00133125,0.00347463,-0.00215480,-0.00037413,
 0.00205934,-0.00087865,-0.00162441,0.13367460,0.14269381,0.00045562,-0
 .00024495,-0.00057433,0.00158467,0.00320881,-0.00086311,-0.00007962,-0
 .00054700,0.00005992,-0.00118042,-0.00440364,-0.00661633,0.00408147,0.
 00015190,-0.00043080,-0.00189881,0.00026057,0.00244318,-0.00000276,0.0
 0015455,-0.00004911,-0.00003307,-0.00011735,-0.00000304,-0.00003324,0.
 00011876,-0.00004890,-0.00001607,0.00009503,-0.00008613,-0.00012553,0.
 00017931,0.00002042,-0.00013946,-0.00005842,-0.00007524,0.00105463,0.0
 0446708,0.00112200,-0.00000609,-0.00023672,-0.00012620,-0.00034480,-0.
 00013092,0.00015705,-0.00152079,-0.00419304,-0.00873491,0.00029262,0.0
 0027676,-0.00009128,-0.00338957,-0.00065372,0.00010002,0.00033374,0.00
 037748,-0.00034691,0.00197115,-0.00091017,0.00002057,0.00888277,0.0032
 0039,0.00115544,-0.11156685,-0.07518717,-0.05817650,-0.00001635,0.0000
 0488,0.00000964,-0.00005895,-0.00008372,0.00003307,0.00006250,-0.00002
 409,-0.00003740,-0.00019612,-0.00002280,0.00012947,-0.00011747,0.00000
 657,-0.00001639,0.00007665,0.00003478,-0.00001590,-0.00113427,0.001426
 41,-0.00162826,0.00471521,-0.00174743,-0.00047133,0.00206481,-0.000187
 99,0.00101132,0.09628440,0.07478586,0.07213000\\0.00000082,0.00000043,
 -0.00000127,-0.00000544,-0.00000352,0.00000199,0.00000197,-0.00000137,
 -0.00000129,0.00000198,0.00000039,-0.00000153,0.00000639,0.00000136,0.
 00000308,-0.00000590,-0.00000149,-0.00000535,-0.00000005,-0.00000030,-
 0.00000046,0.00000064,-0.00000046,0.00000019,-0.00000009,-0.00000015,-
 0.00000027,-0.00000019,-0.00000122,-0.00000072,0.00000013,-0.00000149,
 -0.00000041,0.,-0.00000104,-0.00000035,0.00000043,-0.00000134,0.000001
 26,-0.00000109,-0.00000093,-0.00000140,-0.00000092,-0.00000014,-0.0000
 0048,0.00000056,0.00000283,0.00000149,-0.00000158,0.00000032,0.0000008
 4,0.00000887,0.00000428,0.00000101,-0.00000105,-0.00000066,-0.00000046
 ,-0.00000654,-0.00000233,0.00000014,-0.00000525,0.00000296,0.00000111,
 0.00000217,-0.00000464,-0.00000307,0.00000075,0.00000115,0.00000075,0.
 00000089,0.00000098,0.00000125,0.00000060,0.00000102,0.00000103,-0.000
 00058,0.00000038,0.00000028,-0.00000057,0.00000138,0.00000029,-0.00000
 043,0.00000125,0.00000052,0.00000086,-0.00000038,0.00000061,0.00000046
 ,0.00000059,0.00000091,0.00000095,-0.00000001,0.00000048,0.00000120,0.
 00000215,-0.00000019\\\@


 We make a living by what we get,
 we make a life by what we give.
                   -- Sir Winston Churchill
 File lengths (MBytes):  RWF=    175 Int=      0 D2E=      0 Chk=      5 Scr=      1
 Normal termination of Gaussian 16 at Mon Apr  1 15:38:18 2024.
real 1864.43
user 6959.93
sys 39.37
