 Entering Gaussian System, Link 0=g16
 Input=gaussian_test.inp
 Output=gaussian_test.log
 Initial command:
 /sw/restricted/lms/sw/Gaussian/g16_B01/g16/l1.exe "/scratch/user/peterchao1/peterchao1/8626467_1689049295000000490597801/Gau-79024.inp" -scrdir="/scratch/user/peterchao1/peterchao1/8626467_1689049295000000490597801/"
 Entering Link 1 = /sw/restricted/lms/sw/Gaussian/g16_B01/g16/l1.exe PID=     79025.
  
 Copyright (c) 1988-2017, Gaussian, Inc.  All Rights Reserved.
  
 This is part of the Gaussian(R) 16 program.  It is based on
 the Gaussian(R) 09 system (copyright 2009, Gaussian, Inc.),
 the Gaussian(R) 03 system (copyright 2003, Gaussian, Inc.),
 the Gaussian(R) 98 system (copyright 1998, Gaussian, Inc.),
 the Gaussian(R) 94 system (copyright 1995, Gaussian, Inc.),
 the Gaussian 92(TM) system (copyright 1992, Gaussian, Inc.),
 the Gaussian 90(TM) system (copyright 1990, Gaussian, Inc.),
 the Gaussian 88(TM) system (copyright 1988, Gaussian, Inc.),
 the Gaussian 86(TM) system (copyright 1986, Carnegie Mellon
 University), and the Gaussian 82(TM) system (copyright 1983,
 Carnegie Mellon University). Gaussian is a federally registered
 trademark of Gaussian, Inc.
  
 This software contains proprietary and confidential information,
 including trade secrets, belonging to Gaussian, Inc.
  
 This software is provided under written license and may be
 used, copied, transmitted, or stored only in accord with that
 written license.
  
 The following legend is applicable only to US Government
 contracts under FAR:
  
                    RESTRICTED RIGHTS LEGEND
  
 Use, reproduction and disclosure by the US Government is
 subject to restrictions as set forth in subparagraphs (a)
 and (c) of the Commercial Computer Software - Restricted
 Rights clause in FAR 52.227-19.
  
 Gaussian, Inc.
 340 Quinnipiac St., Bldg. 40, Wallingford CT 06492
  
  
 ---------------------------------------------------------------
 Warning -- This program may not be used in any manner that
 competes with the business of Gaussian, Inc. or will provide
 assistance to any competitor of Gaussian, Inc.  The licensee
 of this program is prohibited from giving any competitor of
 Gaussian, Inc. access to this program.  By using this program,
 the user acknowledges that Gaussian, Inc. is engaged in the
 business of creating and licensing software in the field of
 computational chemistry and represents and warrants to the
 licensee that it is not a competitor of Gaussian, Inc. and that
 it will not use this program in any manner prohibited above.
 ---------------------------------------------------------------
  

 Cite this work as:
 Gaussian 16, Revision B.01,
 M. J. Frisch, G. W. Trucks, H. B. Schlegel, G. E. Scuseria, 
 M. A. Robb, J. R. Cheeseman, G. Scalmani, V. Barone, 
 G. A. Petersson, H. Nakatsuji, X. Li, M. Caricato, A. V. Marenich, 
 J. Bloino, B. G. Janesko, R. Gomperts, B. Mennucci, H. P. Hratchian, 
 J. V. Ortiz, A. F. Izmaylov, J. L. Sonnenberg, D. Williams-Young, 
 F. Ding, F. Lipparini, F. Egidi, J. Goings, B. Peng, A. Petrone, 
 T. Henderson, D. Ranasinghe, V. G. Zakrzewski, J. Gao, N. Rega, 
 G. Zheng, W. Liang, M. Hada, M. Ehara, K. Toyota, R. Fukuda, 
 J. Hasegawa, M. Ishida, T. Nakajima, Y. Honda, O. Kitao, H. Nakai, 
 T. Vreven, K. Throssell, J. A. Montgomery, Jr., J. E. Peralta, 
 F. Ogliaro, M. J. Bearpark, J. J. Heyd, E. N. Brothers, K. N. Kudin, 
 V. N. Staroverov, T. A. Keith, R. Kobayashi, J. Normand, 
 K. Raghavachari, A. P. Rendell, J. C. Burant, S. S. Iyengar, 
 J. Tomasi, M. Cossi, J. M. Millam, M. Klene, C. Adamo, R. Cammi, 
 J. W. Ochterski, R. L. Martin, K. Morokuma, O. Farkas, 
 J. B. Foresman, and D. J. Fox, Gaussian, Inc., Wallingford CT, 2016.
 
 ******************************************
 Gaussian 16:  ES64L-G16RevB.01 20-Dec-2017
                10-Jul-2023 
 ******************************************
 %chk=46.chk
 %nprocshared=4
 Will use up to    4 processors via shared memory.
 %mem=8000mb
 ----------------------------------------------------------------------
 #T wB97XD/def2svpp opt=(calcall,tight) int(grid=ultrafine) scf=(veryti
 ght,qc)
 ----------------------------------------------------------------------
 --------------
 Comment gs min
 --------------
 Symbolic Z-matrix:
 Charge =  1 Multiplicity = 2
 C                    -1.28277  -0.24453  -1.43512 
 C                    -0.82773  -0.00001   0. 
 C                    -1.28294   1.36505   0.50583 
 C                    -1.28271  -1.12065   0.92929 
 Br                    1.16419   0.00004   0. 
 H                    -2.38824  -0.25053  -1.46892 
 H                    -0.92054  -1.21567  -1.81056 
 H                    -0.92093   0.54773  -2.11091 
 H                    -2.38842   1.39702   0.5178 
 H                    -0.92111   2.17583  -0.14765 
 H                    -0.9209    1.55437   1.52973 
 H                    -2.38817  -1.14719   0.95114 
 H                    -0.92072  -0.96008   1.9581 
 H                    -0.92054  -2.10196   0.58119 
 

 GradGradGradGradGradGradGradGradGradGradGradGradGradGradGradGradGradGrad
 Initialization pass.
                           ----------------------------
                           !    Initial Parameters    !
                           ! (Angstroms and Degrees)  !
 --------------------------                            --------------------------
 ! Name  Definition              Value          Derivative Info.                !
 --------------------------------------------------------------------------------
 ! R1    R(1,2)                  1.5253         calculate D2E/DX2 analytically  !
 ! R2    R(1,6)                  1.106          calculate D2E/DX2 analytically  !
 ! R3    R(1,7)                  1.1024         calculate D2E/DX2 analytically  !
 ! R4    R(1,8)                  1.1024         calculate D2E/DX2 analytically  !
 ! R5    R(2,3)                  1.5253         calculate D2E/DX2 analytically  !
 ! R6    R(2,4)                  1.5253         calculate D2E/DX2 analytically  !
 ! R7    R(2,5)                  1.9919         calculate D2E/DX2 analytically  !
 ! R8    R(3,9)                  1.106          calculate D2E/DX2 analytically  !
 ! R9    R(3,10)                 1.1024         calculate D2E/DX2 analytically  !
 ! R10   R(3,11)                 1.1024         calculate D2E/DX2 analytically  !
 ! R11   R(4,12)                 1.106          calculate D2E/DX2 analytically  !
 ! R12   R(4,13)                 1.1024         calculate D2E/DX2 analytically  !
 ! R13   R(4,14)                 1.1024         calculate D2E/DX2 analytically  !
 ! A1    A(2,1,6)              109.1359         calculate D2E/DX2 analytically  !
 ! A2    A(2,1,7)              111.3236         calculate D2E/DX2 analytically  !
 ! A3    A(2,1,8)              111.3247         calculate D2E/DX2 analytically  !
 ! A4    A(6,1,7)              108.2547         calculate D2E/DX2 analytically  !
 ! A5    A(6,1,8)              108.2549         calculate D2E/DX2 analytically  !
 ! A6    A(7,1,8)              108.4495         calculate D2E/DX2 analytically  !
 ! A7    A(1,2,3)              111.498          calculate D2E/DX2 analytically  !
 ! A8    A(1,2,4)              111.4985         calculate D2E/DX2 analytically  !
 ! A9    A(1,2,5)              107.3578         calculate D2E/DX2 analytically  !
 ! A10   A(3,2,4)              111.4985         calculate D2E/DX2 analytically  !
 ! A11   A(3,2,5)              107.3631         calculate D2E/DX2 analytically  !
 ! A12   A(4,2,5)              107.356          calculate D2E/DX2 analytically  !
 ! A13   A(2,3,9)              109.1327         calculate D2E/DX2 analytically  !
 ! A14   A(2,3,10)             111.3257         calculate D2E/DX2 analytically  !
 ! A15   A(2,3,11)             111.3273         calculate D2E/DX2 analytically  !
 ! A16   A(9,3,10)             108.2536         calculate D2E/DX2 analytically  !
 ! A17   A(9,3,11)             108.2545         calculate D2E/DX2 analytically  !
 ! A18   A(10,3,11)            108.4493         calculate D2E/DX2 analytically  !
 ! A19   A(2,4,12)             109.1364         calculate D2E/DX2 analytically  !
 ! A20   A(2,4,13)             111.3232         calculate D2E/DX2 analytically  !
 ! A21   A(2,4,14)             111.3237         calculate D2E/DX2 analytically  !
 ! A22   A(12,4,13)            108.2554         calculate D2E/DX2 analytically  !
 ! A23   A(12,4,14)            108.2554         calculate D2E/DX2 analytically  !
 ! A24   A(13,4,14)            108.4494         calculate D2E/DX2 analytically  !
 ! D1    D(6,1,2,3)            -62.6794         calculate D2E/DX2 analytically  !
 ! D2    D(6,1,2,4)             62.6636         calculate D2E/DX2 analytically  !
 ! D3    D(6,1,2,5)            179.9879         calculate D2E/DX2 analytically  !
 ! D4    D(7,1,2,3)            177.8895         calculate D2E/DX2 analytically  !
 ! D5    D(7,1,2,4)            -56.7676         calculate D2E/DX2 analytically  !
 ! D6    D(7,1,2,5)             60.5568         calculate D2E/DX2 analytically  !
 ! D7    D(8,1,2,3)             56.7526         calculate D2E/DX2 analytically  !
 ! D8    D(8,1,2,4)           -177.9044         calculate D2E/DX2 analytically  !
 ! D9    D(8,1,2,5)            -60.5801         calculate D2E/DX2 analytically  !
 ! D10   D(1,2,3,9)             62.6766         calculate D2E/DX2 analytically  !
 ! D11   D(1,2,3,10)           -56.7524         calculate D2E/DX2 analytically  !
 ! D12   D(1,2,3,11)          -177.8922         calculate D2E/DX2 analytically  !
 ! D13   D(4,2,3,9)            -62.6663         calculate D2E/DX2 analytically  !
 ! D14   D(4,2,3,10)           177.9047         calculate D2E/DX2 analytically  !
 ! D15   D(4,2,3,11)            56.7648         calculate D2E/DX2 analytically  !
 ! D16   D(5,2,3,9)           -179.9939         calculate D2E/DX2 analytically  !
 ! D17   D(5,2,3,10)            60.5771         calculate D2E/DX2 analytically  !
 ! D18   D(5,2,3,11)           -60.5628         calculate D2E/DX2 analytically  !
 ! D19   D(1,2,4,12)           -62.6692         calculate D2E/DX2 analytically  !
 ! D20   D(1,2,4,13)           177.8988         calculate D2E/DX2 analytically  !
 ! D21   D(1,2,4,14)            56.7631         calculate D2E/DX2 analytically  !
 ! D22   D(3,2,4,12)            62.6735         calculate D2E/DX2 analytically  !
 ! D23   D(3,2,4,13)           -56.7585         calculate D2E/DX2 analytically  !
 ! D24   D(3,2,4,14)          -177.8942         calculate D2E/DX2 analytically  !
 ! D25   D(5,2,4,12)          -179.9946         calculate D2E/DX2 analytically  !
 ! D26   D(5,2,4,13)            60.5734         calculate D2E/DX2 analytically  !
 ! D27   D(5,2,4,14)           -60.5623         calculate D2E/DX2 analytically  !
 --------------------------------------------------------------------------------
 Number of steps in this run=     74 maximum allowed number of steps=    100.
 GradGradGradGradGradGradGradGradGradGradGradGradGradGradGradGradGradGrad

                    Distance matrix (angstroms):
                    1          2          3          4          5
     1  C    0.000000
     2  C    1.525266   0.000000
     3  C    2.521513   1.525271   0.000000
     4  C    2.521514   1.525262   2.521518   0.000000
     5  Br   2.847280   1.991919   2.847378   2.847246   0.000000
     6  H    1.106004   2.157703   2.780541   2.780414   3.852306
     7  H    1.102401   2.182796   3.486706   2.765315   3.016978
     8  H    1.102403   2.182811   2.765213   3.486718   3.017223
     9  H    2.780471   2.157666   1.106005   2.780393   3.852360
    10  H    2.765231   2.182834   1.102410   3.486736   3.017338
    11  H    3.486740   2.182851   1.102407   2.765357   3.017219
    12  H    2.780465   2.157703   2.780504   1.106000   3.852280
    13  H    3.486700   2.182784   2.765239   1.102397   3.017090
    14  H    2.765282   2.182794   3.486711   1.102401   3.016990
                    6          7          8          9         10
     6  H    0.000000
     7  H    1.789519   0.000000
     8  H    1.789523   1.788794   0.000000
     9  H    2.580978   3.795006   3.128090   0.000000
    10  H    3.128169   3.777239   2.550513   1.789515   0.000000
    11  H    3.795085   4.339435   3.777252   1.789523   1.788802
    12  H    2.580832   3.128207   3.794965   2.580847   3.795005
    13  H    3.794935   3.777322   4.339399   3.128021   3.777314
    14  H    3.128079   2.550685   3.777335   3.794930   4.339428
                   11         12         13         14
    11  H    0.000000
    12  H    3.128273   0.000000
    13  H    2.550680   1.789521   0.000000
    14  H    3.777361   1.789524   1.788787   0.000000
 This structure is nearly, but not quite of a higher symmetry.
 Consider Symm=Loose if the higher symmetry is desired.
 Framework group  C1[X(C4H9Br)]
 Deg. of freedom    36
                         Standard orientation:                         
 ---------------------------------------------------------------------
 Center     Atomic      Atomic             Coordinates (Angstroms)
 Number     Number       Type             X           Y           Z
 ---------------------------------------------------------------------
      1          6           0       -1.440115   -0.241446    1.277751
      2          6           0       -0.000313   -0.016170    0.827575
      3          6           0        0.531906    1.329592    1.309362
      4          6           0        0.906729   -1.163434    1.260573
      5         35           0        0.000448    0.022773   -1.163963
      6          1           0       -1.474442   -0.268377    2.382894
      7          1           0       -1.834315   -1.197808    0.896614
      8          1           0       -2.100162    0.570777    0.931451
      9          1           0        0.544077    1.339721    2.415254
     10          1           0       -0.105468    2.159892    0.963436
     11          1           0        1.559453    1.505905    0.951086
     12          1           0        0.927642   -1.211976    2.365310
     13          1           0        1.938623   -1.015953    0.901795
     14          1           0        0.539670   -2.130486    0.879304
 ---------------------------------------------------------------------
 Rotational constants (GHZ):           4.5216432           2.0312715           2.0312690
   106 basis functions,   216 primitive gaussians,   113 cartesian basis functions
    34 alpha electrons       33 beta electrons
       nuclear repulsion energy       349.4630112089 Hartrees.
 NAtoms=   14 NActive=   14 NUniq=   14 SFac= 1.00D+00 NAtFMM=   60 NAOKFM=F Big=F
 Nuclear repulsion after empirical dispersion term =      349.4552682286 Hartrees.
   1 Symmetry operations used in ECPInt.
 ECPInt:  NShTT=    1485 NPrTT=    6674 LenC2=    1477 LenP2D=    5403.
 LDataN:  DoStor=T MaxTD1= 4 Len=   56
 ExpMin= 1.22D-01 ExpMax= 1.13D+05 ExpMxC= 1.70D+04 IAcc=3 IRadAn=         5 AccDes= 0.00D+00
 Harris functional with IExCor= 4639 and IRadAn=       5 diagonalized for initial guess.
 HarFok:  IExCor= 4639 AccDes= 0.00D+00 IRadAn=         5 IDoV= 1 UseB2=F ITyADJ=14
 ICtDFT=  3500011 ScaDFX=  1.000000  1.000000  1.000000  1.000000
 FoFCou: FMM=F IPFlag=           0 FMFlag=      100000 FMFlg1=           0
         NFxFlg=           0 DoJE=T BraDBF=F KetDBF=T FulRan=T
         wScrn=  0.000000 ICntrl=       500 IOpCl=  0 I1Cent=   200000004 NGrid=           0
         NMat0=    1 NMatS0=      1 NMatT0=    0 NMatD0=    1 NMtDS0=    0 NMtDT0=    0
 Petite list used in FoFCou.
 Initial guess <Sx>= 0.0000 <Sy>= 0.0000 <Sz>= 0.5000 <S**2>= 0.7500 S= 0.5000
     Minimum is close to point  4 DX= -1.47D-02 DF= -2.87D-04 DXR=  2.50D-02 DFR=  6.24D-04 which will be used.
     Minimum is close to point  2 DX=  7.12D-02 DF= -7.61D-06 DXR=  9.24D-02 DFR=  8.60D-03 which will be used.
     Accept linear search using points  1 and  2.
     Accept linear search using points  1 and  2.
     Minimum is close to point  2 DX= -8.24D-02 DF= -1.23D-06 DXR=  8.98D-02 DFR=  8.35D-03 which will be used.
     Minimum is close to point  2 DX=  1.02D-02 DF= -1.02D-09 DXR=  1.01D-02 DFR=  1.01D-04 which will be used.
     Accept linear search using points  1 and  2.
     Accept linear search using points  1 and  2.
     Accept linear search using points  1 and  2.
     Minimum is close to point  2 DX= -1.31D-02 DF= -2.05D-11 DXR=  1.33D-02 DFR=  1.75D-04 which will be used.
 Incorrect curvature in search direction -- initial direction reversed.
     Accept linear search using points  1 and  2.
     Minimum is close to point  2 DX= -4.63D-02 DF= -7.64D-11 DXR=  4.86D-02 DFR=  2.36D-03 which will be used.
     Accept linear search using points  1 and  2.
     Accept linear search using points  1 and  2.
     Minimum is close to point  2 DX= -6.63D-03 DF= -4.55D-13 DXR=  6.67D-03 DFR=  3.01D-05 which will be used.
 QCLLim is confused:  Bigger=T Turned=T
 NLin=  3 IMin12=  1  2 I12=  0  2 IX=  1 XLMin= 0.000D+00 XLMax= 0.000D+00
 X = 0.000D+00 1.000D+00 2.000D+00
 DE= 0.000D+00 1.181D-09 1.195D-08
 QCLLim is confused:  Bigger=T Turned=T
 NLin=  3 IMin12=  1  2 I12=  0  2 IX=  1 XLMin= 0.000D+00 XLMax= 0.000D+00
 X = 0.000D+00 1.000D+00 2.000D+00
 DE= 0.000D+00 9.095D-13 1.164D-10
 QCLLim is confused:  Bigger=T Turned=T
 NLin=  3 IMin12=  1  2 I12=  0  2 IX=  1 XLMin= 0.000D+00 XLMax= 0.000D+00
 X = 0.000D+00 1.000D+00 2.000D+00
 DE= 0.000D+00 2.001D-11 2.447D-10
 QCLLim is confused:  Bigger=T Turned=T
 NLin=  4 IMin12=  1  3 I12=  0  2 IX=  1 XLMin= 0.000D+00 XLMax= 0.000D+00
 X = 0.000D+00 1.000D+00 2.000D+00 4.000D+00
 DE= 0.000D+00 1.364D-11 1.182D-11 2.910D-11
 QCLLim is confused:  Bigger=T Turned=T
 NLin=  5 IMin12=  1  3 I12=  0  2 IX=  1 XLMin= 0.000D+00 XLMax= 0.000D+00
 X = 0.000D+00 1.000D+00 2.000D+00 4.000D+00 8.000D+00
 DE= 0.000D+00 1.364D-11 1.182D-11 2.910D-11 1.501D-10
 QCLLim is confused:  Bigger=T Turned=T
 NLin=  6 IMin12=  1  3 I12=  0  2 IX=  1 XLMin= 0.000D+00 XLMax= 0.000D+00
 X = 0.000D+00 1.000D+00 2.000D+00 4.000D+00 8.000D+00 1.600D+01
 DE= 0.000D+00 1.364D-11 1.182D-11 2.910D-11 1.501D-10 6.312D-10
 QCLLim is confused:  Bigger=T Turned=T
 NLin=  7 IMin12=  1  3 I12=  0  2 IX=  1 XLMin= 0.000D+00 XLMax= 0.000D+00
 X = 0.000D+00 1.000D+00 2.000D+00 4.000D+00 8.000D+00 1.600D+01 3.200D+01
 DE= 0.000D+00 1.364D-11 1.182D-11 2.910D-11 1.501D-10 6.312D-10 2.572D-09
 QCLLim is confused:  Bigger=T Turned=T
 NLin= 10 IMin12=  1  3 I12=  0  2 IX=  1 XLMin= 0.000D+00 XLMax= 0.000D+00
 X = 0.000D+00 1.000D+00 2.000D+00 4.000D+00 8.000D+00 1.600D+01 3.200D+01 6.400D+01 1.280D+02 2.560D+02
 DE= 0.000D+00 1.364D-11 1.182D-11 2.910D-11 1.501D-10 6.312D-10 2.572D-09 1.045D-08 4.221D-08 1.705D-07
 Search did not lower the energy significantly.
 No lower point found -- using Newton-Raphson step.
 SCF Done:  E(UwB97XD) =  -2731.21307668     a.u. after   56 cycles
            Convg  =    0.5592D-06                   662 Fock formations.
              S**2 =  0.7526                  -V/T =  2.0017
 <Sx>= 0.0000 <Sy>= 0.0000 <Sz>= 0.5000 <S**2>= 0.7526 S= 0.5013
 <L.S>=  0.00000000000    
 Annihilation of the first spin contaminant:
 S**2 before annihilation     0.7526,   after     0.7500
 DoSCS=F DFT=T ScalE2(SS,OS)=  1.000000  1.000000
 NROrb=    106 NOA=    34 NOB=    33 NVA=    72 NVB=    73

 **** Warning!!: The largest alpha MO coefficient is  0.15054249D+02


 **** Warning!!: The largest beta MO coefficient is  0.15045708D+02

   1 Symmetry operations used in ECPInt.
 ECPInt:  NShTT=    1485 NPrTT=    6674 LenC2=    1477 LenP2D=    5403.
 LDataN:  DoStor=T MaxTD1= 5 Len=  102
 Symmetrizing basis deriv contribution to polar:
 IMax=3 JMax=2 DiffMx= 0.00D+00
 Calling FoFCou, ICntrl=  3107 FMM=F I1Cent=   0 AccDes= 0.00D+00.
 End of G2Drv F.D. properties file   721 does not exist.
 End of G2Drv F.D. properties file   722 does not exist.
 End of G2Drv F.D. properties file   788 does not exist.
          IDoAtm=11111111111111
 End of Minotr F.D. properties file   721 does not exist.
 End of Minotr F.D. properties file   722 does not exist.
 End of Minotr F.D. properties file   788 does not exist.

 **********************************************************************

            Population analysis using the SCF Density.

 **********************************************************************

 Orbital symmetries:
 Alpha Orbitals:
       Occupied  (A) (A) (A) (A) (A) (A) (A) (A) (A) (A) (A) (A)
                 (A) (A) (A) (A) (A) (A) (A) (A) (A) (A) (A) (A)
                 (A) (A) (A) (A) (A) (A) (A) (A) (A) (A)
       Virtual   (A) (A) (A) (A) (A) (A) (A) (A) (A) (A) (A) (A)
                 (A) (A) (A) (A) (A) (A) (A) (A) (A) (A) (A) (A)
                 (A) (A) (A) (A) (A) (A) (A) (A) (A) (A) (A) (A)
                 (A) (A) (A) (A) (A) (A) (A) (A) (A) (A) (A) (A)
                 (A) (A) (A) (A) (A) (A) (A) (A) (A) (A) (A) (A)
                 (A) (A) (A) (A) (A) (A) (A) (A) (A) (A) (A) (A)
 Beta  Orbitals:
       Occupied  (A) (A) (A) (A) (A) (A) (A) (A) (A) (A) (A) (A)
                 (A) (A) (A) (A) (A) (A) (A) (A) (A) (A) (A) (A)
                 (A) (A) (A) (A) (A) (A) (A) (A) (A)
       Virtual   (A) (A) (A) (A) (A) (A) (A) (A) (A) (A) (A) (A)
                 (A) (A) (A) (A) (A) (A) (A) (A) (A) (A) (A) (A)
                 (A) (A) (A) (A) (A) (A) (A) (A) (A) (A) (A) (A)
                 (A) (A) (A) (A) (A) (A) (A) (A) (A) (A) (A) (A)
                 (A) (A) (A) (A) (A) (A) (A) (A) (A) (A) (A) (A)
                 (A) (A) (A) (A) (A) (A) (A) (A) (A) (A) (A) (A)
                 (A)
 The electronic state is 2-A.
 Alpha  occ. eigenvalues -- -483.36801 -62.94877 -56.75873 -56.75409 -56.75121
 Alpha  occ. eigenvalues --  -10.58910 -10.48995 -10.47902 -10.47760  -9.11824
 Alpha  occ. eigenvalues --   -6.94592  -6.93487  -6.92439  -3.04898  -3.04781
 Alpha  occ. eigenvalues --   -3.03952  -3.03211  -3.03082  -1.19941  -1.09195
 Alpha  occ. eigenvalues --   -0.98364  -0.97661  -0.84326  -0.76403  -0.74370
 Alpha  occ. eigenvalues --   -0.73531  -0.69458  -0.67876  -0.65491  -0.64178
 Alpha  occ. eigenvalues --   -0.64041  -0.63110  -0.62440  -0.61724
 Alpha virt. eigenvalues --   -0.16961  -0.03364   0.02530   0.02554   0.02821
 Alpha virt. eigenvalues --    0.03638   0.03880   0.06926   0.07457   0.08761
 Alpha virt. eigenvalues --    0.09368   0.09674   0.10671   0.15870   0.22927
 Alpha virt. eigenvalues --    0.24240   0.27638   0.28014   0.33421   0.34192
 Alpha virt. eigenvalues --    0.34242   0.39812   0.41638   0.41865   0.43836
 Alpha virt. eigenvalues --    0.51035   0.51653   0.54863   0.56713   0.56815
 Alpha virt. eigenvalues --    0.56957   0.58114   0.59617   0.60557   0.63272
 Alpha virt. eigenvalues --    0.63808   0.63914   0.64840   0.66888   0.67049
 Alpha virt. eigenvalues --    0.71363   0.72770   0.74036   0.88150   0.95977
 Alpha virt. eigenvalues --    1.00998   1.01364   1.28470   1.28862   1.59705
 Alpha virt. eigenvalues --    1.68169   1.68482   1.71936   1.81570   1.82054
 Alpha virt. eigenvalues --    1.90331   1.90680   1.96171   2.03349   2.03681
 Alpha virt. eigenvalues --    2.04565   2.05052   2.29730   2.32055   2.32140
 Alpha virt. eigenvalues --    2.52761   2.53119   3.24905   3.24921   3.34789
 Alpha virt. eigenvalues --    3.37331   3.58239
  Beta  occ. eigenvalues -- -483.36534 -62.94695 -56.75269 -56.75259 -56.74989
  Beta  occ. eigenvalues --  -10.58887 -10.48901 -10.47876 -10.47743  -9.11471
  Beta  occ. eigenvalues --   -6.93604  -6.93328  -6.92295  -3.04315  -3.04305
  Beta  occ. eigenvalues --   -3.03491  -3.03131  -3.02943  -1.17450  -1.07161
  Beta  occ. eigenvalues --   -0.97983  -0.97578  -0.83725  -0.76048  -0.73333
  Beta  occ. eigenvalues --   -0.72849  -0.67488  -0.67041  -0.63993  -0.63358
  Beta  occ. eigenvalues --   -0.62618  -0.62336  -0.60965
  Beta virt. eigenvalues --   -0.39380  -0.16213  -0.03359   0.02613   0.02659
  Beta virt. eigenvalues --    0.02908   0.03839   0.03908   0.07241   0.07489
  Beta virt. eigenvalues --    0.08832   0.09766   0.09907   0.10670   0.16255
  Beta virt. eigenvalues --    0.25248   0.25269   0.28598   0.28701   0.34050
  Beta virt. eigenvalues --    0.36453   0.36516   0.41872   0.42217   0.42542
  Beta virt. eigenvalues --    0.44512   0.51642   0.51897   0.55073   0.56859
  Beta virt. eigenvalues --    0.57354   0.57416   0.58138   0.60229   0.60704
  Beta virt. eigenvalues --    0.63463   0.63858   0.64034   0.65013   0.67004
  Beta virt. eigenvalues --    0.67177   0.71410   0.73891   0.74312   0.88280
  Beta virt. eigenvalues --    0.96426   1.01254   1.01493   1.28752   1.28957
  Beta virt. eigenvalues --    1.59895   1.68404   1.68647   1.72119   1.81759
  Beta virt. eigenvalues --    1.82110   1.90472   1.90782   1.96242   2.03559
  Beta virt. eigenvalues --    2.03776   2.04612   2.05194   2.29902   2.32184
  Beta virt. eigenvalues --    2.32192   2.52987   2.53241   3.25511   3.25659
  Beta virt. eigenvalues --    3.35369   3.37364   3.58443
          Condensed to atoms (all electrons):
          Atomic-Atomic Spin Densities.
 Mulliken charges and spin densities:
               1          2
     1  C   -0.261654   0.012678
     2  C   -0.444854  -0.011386
     3  C   -0.259212   0.009006
     4  C   -0.280982   0.040186
     5  Br   0.547656   0.927794
     6  H    0.200737   0.004026
     7  H    0.181337   0.000145
     8  H    0.176480   0.000255
     9  H    0.198917   0.002302
    10  H    0.175862   0.000461
    11  H    0.180209   0.000370
    12  H    0.214495   0.016931
    13  H    0.185247  -0.001375
    14  H    0.185762  -0.001394
 Sum of Mulliken charges =   1.00000   1.00000
 Mulliken charges and spin densities with hydrogens summed into heavy atoms:
               1          2
     1  C    0.296900   0.017104
     2  C   -0.444854  -0.011386
     3  C    0.295776   0.012139
     4  C    0.304522   0.054349
     5  Br   0.547656   0.927794
 APT charges:
               1
     1  C  -26.640372
     2  C   78.537853
     3  C  -24.414051
     4  C  -14.780795
     5  Br -22.803921
     6  H    7.668066
     7  H   -2.079664
     8  H   -0.300063
     9  H    6.399400
    10  H    0.166434
    11  H   -2.116192
    12  H    1.433133
    13  H   -0.280154
    14  H    0.210327
 Sum of APT charges =   1.00000
 APT charges with hydrogens summed into heavy atoms:
               1
     1  C  -21.352033
     2  C   78.537853
     3  C  -19.964409
     4  C  -13.417490
     5  Br -22.803921
 Electronic spatial extent (au):  <R**2>=            710.2570
 Charge=              1.0000 electrons
 Dipole moment (field-independent basis, Debye):
    X=              0.0958    Y=             -0.1743    Z=              1.2000  Tot=              1.2164
  Exact polarizability:-720.674-502.666-275.365  -9.939  -8.809  73.787
 Approx polarizability:  55.317  -0.880  55.573   0.996  -2.173  83.285
                          Isotropic Fermi Contact Couplings
        Atom                 a.u.       MegaHertz       Gauss      10(-4) cm-1
     1  C(13)              0.00838       9.42329       3.36246       3.14327
     2  C(13)             -0.00738      -8.30196      -2.96235      -2.76924
     3  C(13)              0.00533       5.99549       2.13934       1.99988
     4  C(13)              0.03253      36.57335      13.05028      12.19956
     5  Br(79)             0.15909     178.77346      63.79082      59.63241
     6  H(1)               0.00187       8.35771       2.98224       2.78783
     7  H(1)               0.00015       0.65699       0.23443       0.21915
     8  H(1)              -0.00028      -1.26731      -0.45221      -0.42273
     9  H(1)               0.00111       4.96536       1.77176       1.65627
    10  H(1)              -0.00019      -0.85943      -0.30667      -0.28668
    11  H(1)               0.00020       0.87425       0.31195       0.29162
    12  H(1)               0.00755      33.76462      12.04806      11.26267
    13  H(1)              -0.00063      -2.80104      -0.99948      -0.93433
    14  H(1)              -0.00058      -2.61126      -0.93176      -0.87102
 --------------------------------------------------------
       Center         ----  Spin Dipole Couplings  ----
                      3XX-RR        3YY-RR        3ZZ-RR
 --------------------------------------------------------
     1   Atom        0.003684     -0.015120      0.011436
     2   Atom        0.014174      0.027261     -0.041434
     3   Atom       -0.010412      0.000360      0.010052
     4   Atom       -0.020103     -0.005882      0.025985
     5   Atom        1.570333      3.508533     -5.078867
     6   Atom       -0.001510     -0.003689      0.005198
     7   Atom        0.001001     -0.001029      0.000027
     8   Atom        0.002608     -0.004940      0.002332
     9   Atom       -0.003231     -0.001324      0.004554
    10   Atom       -0.005408      0.002822      0.002585
    11   Atom        0.000317     -0.000869      0.000552
    12   Atom       -0.005704     -0.005262      0.010966
    13   Atom        0.007212     -0.007594      0.000382
    14   Atom       -0.008444      0.008379      0.000065
 --------------------------------------------------------
                        XY            XZ            YZ
 --------------------------------------------------------
     1   Atom        0.003191     -0.021932     -0.004386
     2   Atom       -0.052714     -0.000843      0.000826
     3   Atom        0.004930      0.006796      0.015677
     4   Atom       -0.027508      0.037807     -0.048971
     5   Atom       -7.802157     -0.198617      0.222589
     6   Atom       -0.000090     -0.002272     -0.000626
     7   Atom        0.004603     -0.004663     -0.003276
     8   Atom       -0.002553     -0.006826      0.000259
     9   Atom        0.000360      0.001039      0.002246
    10   Atom       -0.000355      0.001029      0.006706
    11   Atom        0.004113      0.004324      0.004023
    12   Atom       -0.001165      0.000144     -0.000553
    13   Atom       -0.003687      0.004813     -0.003396
    14   Atom        0.000036      0.001866     -0.005271
 --------------------------------------------------------


 ---------------------------------------------------------------------------------
              Anisotropic Spin Dipole Couplings in Principal Axis System
 ---------------------------------------------------------------------------------

       Atom             a.u.   MegaHertz   Gauss  10(-4) cm-1        Axes

              Baa    -0.0159    -2.131    -0.760    -0.711  0.1602  0.9464  0.2806
     1 C(13)  Bbb    -0.0146    -1.958    -0.699    -0.653  0.7537 -0.3008  0.5844
              Bcc     0.0305     4.089     1.459     1.364 -0.6374 -0.1179  0.7615
 
              Baa    -0.0414    -5.562    -1.985    -1.855  0.0138 -0.0014  0.9999
     2 C(13)  Bbb    -0.0324    -4.348    -1.551    -1.450  0.7493  0.6622 -0.0094
              Bcc     0.0738     9.910     3.536     3.306 -0.6621  0.7494  0.0102
 
              Baa    -0.0125    -1.675    -0.598    -0.559  0.9698 -0.1012 -0.2221
     3 C(13)  Bbb    -0.0112    -1.503    -0.536    -0.501 -0.0489  0.8112 -0.5828
              Bcc     0.0237     3.178     1.134     1.060  0.2391  0.5760  0.7817
 
              Baa    -0.0415    -5.563    -1.985    -1.856  0.2959  0.8441  0.4470
     4 C(13)  Bbb    -0.0413    -5.547    -1.979    -1.850  0.8610 -0.0331 -0.5076
              Bcc     0.0828    11.110     3.964     3.706  0.4137 -0.5351  0.7366
 
              Baa    -5.3227  -713.971  -254.763  -238.155  0.7495  0.6620  0.0062
     5 Br(79) Bbb    -5.0846  -682.035  -243.367  -227.502  0.0081 -0.0185  0.9998
              Bcc    10.4073  1396.006   498.130   465.658 -0.6620  0.7493  0.0193
 
              Baa    -0.0038    -2.011    -0.718    -0.671  0.1454  0.9837  0.1055
     6 H(1)   Bbb    -0.0022    -1.153    -0.411    -0.384  0.9456 -0.1695  0.2775
              Bcc     0.0059     3.164     1.129     1.055 -0.2909 -0.0594  0.9549
 
              Baa    -0.0048    -2.571    -0.918    -0.858  0.7138 -0.6569  0.2426
     7 H(1)   Bbb    -0.0037    -1.971    -0.703    -0.658  0.2427  0.5570  0.7942
              Bcc     0.0085     4.543     1.621     1.515  0.6569  0.5081 -0.5570
 
              Baa    -0.0064    -3.432    -1.225    -1.145  0.4973  0.7875  0.3640
     8 H(1)   Bbb    -0.0031    -1.678    -0.599    -0.560  0.4865 -0.6005  0.6346
              Bcc     0.0096     5.110     1.824     1.705  0.7184 -0.1385 -0.6817
 
              Baa    -0.0034    -1.798    -0.642    -0.600  0.9921 -0.0460 -0.1170
     9 H(1)   Bbb    -0.0021    -1.112    -0.397    -0.371  0.0060  0.9469 -0.3214
              Bcc     0.0055     2.910     1.038     0.971  0.1256  0.3181  0.9397
 
              Baa    -0.0059    -3.161    -1.128    -1.054  0.8899  0.2997 -0.3438
    10 H(1)   Bbb    -0.0035    -1.868    -0.667    -0.623 -0.4550  0.6357 -0.6236
              Bcc     0.0094     5.029     1.795     1.678  0.0316  0.7113  0.7021
 
              Baa    -0.0045    -2.391    -0.853    -0.798 -0.5039  0.8320 -0.2320
    11 H(1)   Bbb    -0.0039    -2.063    -0.736    -0.688 -0.6251 -0.1659  0.7627
              Bcc     0.0083     4.454     1.589     1.486  0.5961  0.5294  0.6037
 
              Baa    -0.0067    -3.560    -1.270    -1.187  0.7681  0.6402  0.0138
    12 H(1)   Bbb    -0.0043    -2.302    -0.821    -0.768 -0.6402  0.7674  0.0338
              Bcc     0.0110     5.862     2.092     1.955  0.0111 -0.0348  0.9993
 
              Baa    -0.0091    -4.850    -1.730    -1.618  0.1349  0.9525  0.2730
    13 H(1)   Bbb    -0.0019    -1.002    -0.357    -0.334 -0.5137 -0.1684  0.8413
              Bcc     0.0110     5.851     2.088     1.952  0.8473 -0.2537  0.4666
 
              Baa    -0.0089    -4.760    -1.698    -1.588  0.9663 -0.0769 -0.2457
    14 H(1)   Bbb    -0.0020    -1.091    -0.389    -0.364  0.2542  0.4357  0.8634
              Bcc     0.0110     5.851     2.088     1.952 -0.0407  0.8968 -0.4406
 

 ---------------------------------------------------------------------------------

   1 Symmetry operations used in ECPInt.
 ECPInt:  NShTT=    1485 NPrTT=    6674 LenC2=    1477 LenP2D=    5403.
 LDataN:  DoStor=T MaxTD1= 6 Len=  172
 Calling FoFJK, ICntrl=    100127 FMM=F ISym2X=0 I1Cent= 0 IOpClX= 1 NMat=1 NMatS=1 NMatT=0.
 FormGI is forming the generalized inverse of G from B-inverse, IUseBI=4.

 GradGradGradGradGradGradGradGradGradGradGradGradGradGradGradGradGradGrad
 Internal  Forces:  Max     0.010342515 RMS     0.003071114
 Step number   1 out of a maximum of   74
 All quantities printed in internal units (Hartrees-Bohrs-Radians)
 Mixed Optimization -- RFO/linear search
 Second derivative matrix not updated -- analytic derivatives used.
 ITU=  0
     Eigenvalues ---    0.00222   0.00366   0.00394   0.01545   0.02749
     Eigenvalues ---    0.04375   0.04532   0.04592   0.04610   0.04679
     Eigenvalues ---    0.04805   0.10162   0.10980   0.11636   0.12745
     Eigenvalues ---    0.13496   0.13553   0.13859   0.14402   0.14998
     Eigenvalues ---    0.16294   0.17638   0.17804   0.27973   0.29788
     Eigenvalues ---    0.32994   0.33743   0.33778   0.33958   0.34331
     Eigenvalues ---    0.34405   0.34435   0.34505   0.34549   0.34660
     Eigenvalues ---   20.77704
 Linear search not attempted -- first point.
 Iteration  1 RMS(Cart)=  0.03692065 RMS(Int)=  0.00236935
 Iteration  2 RMS(Cart)=  0.00352128 RMS(Int)=  0.00124399
 Iteration  3 RMS(Cart)=  0.00000589 RMS(Int)=  0.00124398
 Iteration  4 RMS(Cart)=  0.00000000 RMS(Int)=  0.00124398
 Variable       Old X    -DE/DX   Delta X   Delta X   Delta X     New X
                                 (Linear)    (Quad)   (Total)
    R1        2.88234   0.00298   0.00000  -0.02092  -0.02092   2.86141
    R2        2.09004  -0.00182   0.00000  -0.00105  -0.00105   2.08900
    R3        2.08324   0.00035   0.00000  -0.00164  -0.00164   2.08160
    R4        2.08324   0.00003   0.00000  -0.00103  -0.00103   2.08221
    R5        2.88235   0.00239   0.00000  -0.02586  -0.02586   2.85648
    R6        2.88233   0.00737   0.00000   0.00092   0.00092   2.88325
    R7        3.76418   0.00544   0.00000   0.17391   0.17391   3.93809
    R8        2.09005  -0.00191   0.00000  -0.00168  -0.00168   2.08837
    R9        2.08325   0.00000   0.00000  -0.00125  -0.00125   2.08200
   R10        2.08325   0.00028   0.00000  -0.00170  -0.00170   2.08155
   R11        2.09004  -0.00112   0.00000   0.00580   0.00580   2.09584
   R12        2.08323   0.00053   0.00000   0.00073   0.00073   2.08396
   R13        2.08324   0.00055   0.00000   0.00056   0.00056   2.08380
    A1        1.90478  -0.00633   0.00000  -0.04794  -0.04786   1.85692
    A2        1.94296   0.00340   0.00000   0.02364   0.02316   1.96613
    A3        1.94298   0.00292   0.00000   0.01880   0.01822   1.96120
    A4        1.88940   0.00053   0.00000  -0.00465  -0.00446   1.88494
    A5        1.88940   0.00045   0.00000  -0.01227  -0.01231   1.87710
    A6        1.89280  -0.00104   0.00000   0.02121   0.02025   1.91305
    A7        1.94601   0.00244   0.00000   0.05175   0.04703   1.99304
    A8        1.94602   0.00122   0.00000   0.04530   0.04021   1.98622
    A9        1.87375  -0.00052   0.00000  -0.01607  -0.01532   1.85842
   A10        1.94602   0.00133   0.00000   0.05018   0.04549   1.99151
   A11        1.87384   0.00006   0.00000  -0.00541  -0.00398   1.86986
   A12        1.87372  -0.00496   0.00000  -0.13887  -0.13757   1.73615
   A13        1.90473  -0.00581   0.00000  -0.04301  -0.04293   1.86179
   A14        1.94300   0.00278   0.00000   0.01758   0.01709   1.96009
   A15        1.94303   0.00321   0.00000   0.02215   0.02174   1.96477
   A16        1.88938   0.00033   0.00000  -0.01172  -0.01174   1.87764
   A17        1.88940   0.00040   0.00000  -0.00541  -0.00525   1.88415
   A18        1.89280  -0.00100   0.00000   0.01922   0.01839   1.91119
   A19        1.90479  -0.01034   0.00000  -0.07665  -0.07632   1.82847
   A20        1.94296   0.00433   0.00000   0.03622   0.03473   1.97768
   A21        1.94297   0.00438   0.00000   0.03626   0.03478   1.97775
   A22        1.88941   0.00144   0.00000  -0.01590  -0.01558   1.87383
   A23        1.88941   0.00146   0.00000  -0.01445  -0.01411   1.87530
   A24        1.89280  -0.00132   0.00000   0.03236   0.02973   1.92253
    D1       -1.09396  -0.00103   0.00000  -0.03938  -0.04001  -1.13397
    D2        1.09369   0.00351   0.00000   0.10070   0.10122   1.19491
    D3        3.14138  -0.00214   0.00000  -0.05187  -0.05195   3.08943
    D4        3.10476   0.00029   0.00000  -0.01738  -0.01765   3.08711
    D5       -0.99078   0.00483   0.00000   0.12271   0.12358  -0.86720
    D6        1.05692  -0.00082   0.00000  -0.02986  -0.02960   1.02732
    D7        0.99052  -0.00275   0.00000  -0.07383  -0.07462   0.91590
    D8       -3.10502   0.00179   0.00000   0.06625   0.06661  -3.03841
    D9       -1.05732  -0.00386   0.00000  -0.08631  -0.08657  -1.14389
   D10        1.09391   0.00114   0.00000   0.04114   0.04184   1.13575
   D11       -0.99052   0.00275   0.00000   0.07248   0.07333  -0.91718
   D12       -3.10480  -0.00012   0.00000   0.02044   0.02083  -3.08397
   D13       -1.09373  -0.00334   0.00000  -0.09623  -0.09690  -1.19064
   D14        3.10502  -0.00173   0.00000  -0.06489  -0.06541   3.03961
   D15        0.99073  -0.00460   0.00000  -0.11693  -0.11791   0.87283
   D16       -3.14149   0.00190   0.00000   0.04718   0.04730  -3.09419
   D17        1.05727   0.00351   0.00000   0.07852   0.07879   1.13606
   D18       -1.05702   0.00064   0.00000   0.02647   0.02629  -1.03073
   D19       -1.09378  -0.00272   0.00000  -0.07392  -0.07433  -1.16811
   D20        3.10492  -0.00053   0.00000  -0.02728  -0.02697   3.07795
   D21        0.99070  -0.00486   0.00000  -0.11875  -0.11989   0.87082
   D22        1.09386   0.00244   0.00000   0.06703   0.06762   1.16148
   D23       -0.99062   0.00463   0.00000   0.11368   0.11499  -0.87564
   D24       -3.10484   0.00029   0.00000   0.02221   0.02207  -3.08277
   D25       -3.14150   0.00024   0.00000   0.00435   0.00419  -3.13731
   D26        1.05720   0.00243   0.00000   0.05100   0.05155   1.10875
   D27       -1.05701  -0.00190   0.00000  -0.04047  -0.04137  -1.09838
         Item               Value     Threshold  Converged?
 Maximum Force            0.010343     0.000015     NO 
 RMS     Force            0.003071     0.000010     NO 
 Maximum Displacement     0.169381     0.000060     NO 
 RMS     Displacement     0.038236     0.000040     NO 
 GradGradGradGradGradGradGradGradGradGradGradGradGradGradGradGradGradGrad

                    Distance matrix (angstroms):
                    1          2          3          4          5
     1  C    0.000000
     2  C    1.514194   0.000000
     3  C    2.540399   1.511586   0.000000
     4  C    2.546660   1.525751   2.548853   0.000000
     5  Br   2.902740   2.083947   2.912717   2.778035   0.000000
     6  H    1.105449   2.111789   2.787429   2.819512   3.897999
     7  H    1.101533   2.188801   3.503777   2.769433   3.053612
     8  H    1.101859   2.185579   2.783101   3.509358   3.117601
     9  H    2.791854   2.112991   1.105118   2.824437   3.907030
    10  H    2.781800   2.182404   1.101749   3.510018   3.124983
    11  H    3.503572   2.185516   1.101507   2.773890   3.067846
    12  H    2.785477   2.102475   2.785729   1.109070   3.796409
    13  H    3.516708   2.208125   2.791660   1.102785   2.951068
    14  H    2.785537   2.208106   3.517524   1.102700   2.944553
                    6          7          8          9         10
     6  H    0.000000
     7  H    1.785476   0.000000
     8  H    1.780639   1.800599   0.000000
     9  H    2.582450   3.800902   3.133669   0.000000
    10  H    3.129489   3.798335   2.569699   1.780639   0.000000
    11  H    3.796991   4.354587   3.798982   1.784675   1.799304
    12  H    2.602735   3.111283   3.799642   2.606368   3.799405
    13  H    3.827807   3.794334   4.369171   3.165397   3.801921
    14  H    3.158008   2.552294   3.796983   3.831494   4.367567
                   11         12         13         14
    11  H    0.000000
    12  H    3.113594   0.000000
    13  H    2.561621   1.782171   0.000000
    14  H    3.798416   1.783069   1.808312   0.000000
 Framework group  C1[X(C4H9Br)]
 Deg. of freedom    36
                         Standard orientation:                         
 ---------------------------------------------------------------------
 Center     Atomic      Atomic             Coordinates (Angstroms)
 Number     Number       Type             X           Y           Z
 ---------------------------------------------------------------------
      1          6           0       -1.347534   -0.104565   -1.442863
      2          6           0       -0.905721    0.000210    0.001647
      3          6           0       -1.364520    1.259884    0.699943
      4          6           0       -1.128835   -1.275752    0.807908
      5         35           0        1.177865    0.033408   -0.018355
      6          1           0       -2.450482   -0.177230   -1.427297
      7          1           0       -0.954187   -1.003954   -1.942615
      8          1           0       -1.081741    0.790062   -2.028601
      9          1           0       -2.467389    1.210694    0.750415
     10          1           0       -1.097302    2.169833    0.139196
     11          1           0       -0.980581    1.336352    1.729536
     12          1           0       -2.231078   -1.382218    0.869243
     13          1           0       -0.746405   -1.212136    1.840301
     14          1           0       -0.736464   -2.179353    0.312432
 ---------------------------------------------------------------------
 Rotational constants (GHZ):           4.4614223           1.9896138           1.9889356
   106 basis functions,   216 primitive gaussians,   113 cartesian basis functions
    34 alpha electrons       33 beta electrons
       nuclear repulsion energy       345.9143509338 Hartrees.
 NAtoms=   14 NActive=   14 NUniq=   14 SFac= 1.00D+00 NAtFMM=   60 NAOKFM=F Big=F
 Nuclear repulsion after empirical dispersion term =      345.9066200375 Hartrees.
   1 Symmetry operations used in ECPInt.
 ECPInt:  NShTT=    1485 NPrTT=    6674 LenC2=    1477 LenP2D=    5375.
 LDataN:  DoStor=T MaxTD1= 4 Len=   56
 Initial guess from the checkpoint file:  "46.chk"
 B after Tr=    -0.000000   -0.000000    0.000000
         Rot=    0.716160   -0.046005    0.695829    0.028654 Ang= -88.52 deg.
 Initial guess <Sx>= 0.0000 <Sy>= 0.0000 <Sz>= 0.5000 <S**2>= 0.7526 S= 0.5013
 ExpMin= 1.22D-01 ExpMax= 1.13D+05 ExpMxC= 1.70D+04 IAcc=3 IRadAn=         5 AccDes= 0.00D+00
 Harris functional with IExCor= 4639 and IRadAn=       5 diagonalized for initial guess.
 HarFok:  IExCor= 4639 AccDes= 0.00D+00 IRadAn=         5 IDoV= 1 UseB2=F ITyADJ=14
 ICtDFT=  3500011 ScaDFX=  1.000000  1.000000  1.000000  1.000000
 FoFCou: FMM=F IPFlag=           0 FMFlag=      100000 FMFlg1=           0
         NFxFlg=           0 DoJE=T BraDBF=F KetDBF=T FulRan=T
         wScrn=  0.000000 ICntrl=       500 IOpCl=  0 I1Cent=   200000004 NGrid=           0
         NMat0=    1 NMatS0=      1 NMatT0=    0 NMatD0=    1 NMtDS0=    0 NMtDT0=    0
 Petite list used in FoFCou.
     Accept linear search using points  1 and  2.
     Minimum is close to point  2 DX= -1.95D-02 DF= -1.68D-07 DXR=  1.80D-02 DFR=  3.87D-04 which will be used.
     Accept linear search using points  1 and  2.
     Minimum is close to point  2 DX=  8.30D-02 DF= -1.00D-06 DXR=  7.66D-02 DFR=  5.90D-03 which will be used.
     Accept linear search using points  1 and  2.
     Minimum is close to point  2 DX= -1.37D-02 DF= -2.38D-08 DXR=  1.39D-02 DFR=  1.93D-04 which will be used.
     Accept linear search using points  1 and  2.
     Accept linear search using points  1 and  2.
     Minimum is close to point  2 DX= -1.57D-02 DF= -1.70D-08 DXR=  1.78D-02 DFR=  2.54D-04 which will be used.
     Minimum is close to point  2 DX=  7.30D-02 DF= -3.27D-07 DXR=  7.50D-02 DFR=  5.66D-03 which will be used.
     Accept linear search using points  1 and  2.
     Minimum is close to point  2 DX= -3.65D-02 DF= -9.65D-07 DXR=  3.78D-02 DFR=  1.47D-03 which will be used.
     Minimum is close to point  2 DX=  3.28D-03 DF= -4.68D-11 DXR=  3.27D-03 DFR=  1.06D-05 which will be used.
 QCLLim is confused:  Bigger=T Turned=T
 NLin=  9 IMin12=  1  2 I12=  0  2 IX=  1 XLMin= 0.000D+00 XLMax= 0.000D+00
 X = 0.000D+00 1.000D+00 2.000D+00 4.000D+00 8.000D+00 1.600D+01 3.200D+01 6.400D+01 1.280D+02
 DE= 0.000D+00 6.366D-12 8.185D-12 7.731D-12 2.001D-11 7.003D-11 3.020D-10 1.226D-09 4.971D-09
 QCLLim is confused:  Bigger=T Turned=T
 NLin= 10 IMin12=  1  2 I12=  0  2 IX=  1 XLMin= 0.000D+00 XLMax= 0.000D+00
 X = 0.000D+00 1.000D+00 2.000D+00 4.000D+00 8.000D+00 1.600D+01 3.200D+01 6.400D+01 1.280D+02 2.560D+02
 DE= 0.000D+00 6.366D-12 8.185D-12 7.731D-12 2.001D-11 7.003D-11 3.020D-10 1.226D-09 4.971D-09 2.008D-08
 Search did not lower the energy significantly.
 No lower point found -- using Newton-Raphson step.
 SCF Done:  E(UwB97XD) =  -2731.21847655     a.u. after   15 cycles
            Convg  =    0.2603D-07                    94 Fock formations.
              S**2 =  0.7528                  -V/T =  2.0017
 <Sx>= 0.0000 <Sy>= 0.0000 <Sz>= 0.5000 <S**2>= 0.7528 S= 0.5014
 <L.S>=  0.00000000000    
 Annihilation of the first spin contaminant:
 S**2 before annihilation     0.7528,   after     0.7500
 DoSCS=F DFT=T ScalE2(SS,OS)=  1.000000  1.000000
 NROrb=    106 NOA=    34 NOB=    33 NVA=    72 NVB=    73

 **** Warning!!: The largest alpha MO coefficient is  0.13736298D+02


 **** Warning!!: The largest beta MO coefficient is  0.13823026D+02

   1 Symmetry operations used in ECPInt.
 ECPInt:  NShTT=    1485 NPrTT=    6674 LenC2=    1477 LenP2D=    5375.
 LDataN:  DoStor=T MaxTD1= 5 Len=  102
 Symmetrizing basis deriv contribution to polar:
 IMax=3 JMax=2 DiffMx= 0.00D+00
 Calling FoFCou, ICntrl=  3107 FMM=F I1Cent=   0 AccDes= 0.00D+00.
 End of G2Drv F.D. properties file   721 does not exist.
 End of G2Drv F.D. properties file   722 does not exist.
 End of G2Drv F.D. properties file   788 does not exist.
          IDoAtm=11111111111111
 End of Minotr F.D. properties file   721 does not exist.
 End of Minotr F.D. properties file   722 does not exist.
 End of Minotr F.D. properties file   788 does not exist.
   1 Symmetry operations used in ECPInt.
 ECPInt:  NShTT=    1485 NPrTT=    6674 LenC2=    1477 LenP2D=    5375.
 LDataN:  DoStor=T MaxTD1= 6 Len=  172
 Calling FoFJK, ICntrl=    100127 FMM=F ISym2X=0 I1Cent= 0 IOpClX= 1 NMat=1 NMatS=1 NMatT=0.
 FormGI is forming the generalized inverse of G from B-inverse, IUseBI=4.

 GradGradGradGradGradGradGradGradGradGradGradGradGradGradGradGradGradGrad
 Using GEDIIS/GDIIS optimizer.
 Internal  Forces:  Max     0.003510766 RMS     0.000772312
 Step number   2 out of a maximum of   74
 All quantities printed in internal units (Hartrees-Bohrs-Radians)
 Mixed Optimization -- En-DIIS/RFO-DIIS
 Second derivative matrix not updated -- analytic derivatives used.
 Trust test= 1.04D+00 RLast= 4.57D-01 DXMaxT set to 5.05D-01
 ITU=  1  0
 Use linear search instead of GDIIS.
     Eigenvalues ---    0.00213   0.00358   0.00405   0.00686   0.02535
     Eigenvalues ---    0.04228   0.04360   0.04452   0.04522   0.04661
     Eigenvalues ---    0.04759   0.06008   0.07557   0.11661   0.12489
     Eigenvalues ---    0.12967   0.13236   0.13438   0.13863   0.14622
     Eigenvalues ---    0.14980   0.15748   0.18299   0.18589   0.29229
     Eigenvalues ---    0.30650   0.33032   0.33616   0.33927   0.34113
     Eigenvalues ---    0.34311   0.34564   0.34622   0.34727   0.34770
     Eigenvalues ---    0.34828
 Quintic linear search produced a step of  0.44591.
 Iteration  1 RMS(Cart)=  0.03237849 RMS(Int)=  0.01472067
 Iteration  2 RMS(Cart)=  0.01439853 RMS(Int)=  0.00172368
 Iteration  3 RMS(Cart)=  0.00000924 RMS(Int)=  0.00172367
 Iteration  4 RMS(Cart)=  0.00000001 RMS(Int)=  0.00172367
 Variable       Old X    -DE/DX   Delta X   Delta X   Delta X     New X
                                 (Linear)    (Quad)   (Total)
    R1        2.86141   0.00056  -0.00933  -0.01946  -0.02879   2.83262
    R2        2.08900   0.00010  -0.00047   0.00563   0.00516   2.09416
    R3        2.08160  -0.00004  -0.00073  -0.00102  -0.00175   2.07984
    R4        2.08221  -0.00018  -0.00046  -0.00080  -0.00126   2.08095
    R5        2.85648   0.00121  -0.01153  -0.01046  -0.02199   2.83449
    R6        2.88325   0.00139   0.00041  -0.04993  -0.04951   2.83374
    R7        3.93809   0.00351   0.07755   0.23337   0.31092   4.24901
    R8        2.08837   0.00022  -0.00075   0.00662   0.00587   2.09424
    R9        2.08200  -0.00011  -0.00056  -0.00057  -0.00113   2.08088
   R10        2.08155   0.00007  -0.00076  -0.00095  -0.00171   2.07984
   R11        2.09584   0.00019   0.00259   0.00119   0.00378   2.09962
   R12        2.08396   0.00003   0.00033   0.00020   0.00052   2.08448
   R13        2.08380   0.00004   0.00025   0.00026   0.00051   2.08431
    A1        1.85692  -0.00014  -0.02134   0.00549  -0.01580   1.84112
    A2        1.96613   0.00038   0.01033  -0.00395   0.00601   1.97214
    A3        1.96120  -0.00002   0.00812   0.00179   0.00952   1.97072
    A4        1.88494  -0.00024  -0.00199  -0.00618  -0.00809   1.87684
    A5        1.87710  -0.00013  -0.00549  -0.00449  -0.00997   1.86713
    A6        1.91305   0.00010   0.00903   0.00675   0.01513   1.92818
    A7        1.99304   0.00123   0.02097   0.01901   0.03242   2.02545
    A8        1.98622   0.00015   0.01793   0.03450   0.04538   2.03160
    A9        1.85842   0.00006  -0.00683  -0.04385  -0.04877   1.80965
   A10        1.99151  -0.00010   0.02029   0.02489   0.03791   2.02942
   A11        1.86986  -0.00063  -0.00177  -0.06219  -0.06203   1.80784
   A12        1.73615  -0.00114  -0.06134   0.00950  -0.04923   1.68692
   A13        1.86179  -0.00076  -0.01914  -0.00278  -0.02189   1.83991
   A14        1.96009   0.00013   0.00762   0.00347   0.01069   1.97077
   A15        1.96477   0.00058   0.00969  -0.00177   0.00754   1.97231
   A16        1.87764   0.00001  -0.00523  -0.00484  -0.01006   1.86759
   A17        1.88415  -0.00007  -0.00234  -0.00476  -0.00704   1.87711
   A18        1.91119   0.00006   0.00820   0.00969   0.01722   1.92841
   A19        1.82847  -0.00054  -0.03403   0.04594   0.01208   1.84056
   A20        1.97768   0.00032   0.01548  -0.01064   0.00409   1.98177
   A21        1.97775   0.00035   0.01551  -0.01120   0.00355   1.98130
   A22        1.87383  -0.00025  -0.00695  -0.01400  -0.02079   1.85304
   A23        1.87530  -0.00032  -0.00629  -0.01533  -0.02145   1.85385
   A24        1.92253   0.00032   0.01326   0.00620   0.01815   1.94068
    D1       -1.13397  -0.00042  -0.01784  -0.06226  -0.08080  -1.21477
    D2        1.19491   0.00086   0.04514   0.03062   0.07657   1.27148
    D3        3.08943  -0.00039  -0.02317   0.03300   0.00968   3.09911
    D4        3.08711  -0.00026  -0.00787  -0.05599  -0.06437   3.02274
    D5       -0.86720   0.00102   0.05511   0.03689   0.09300  -0.77420
    D6        1.02732  -0.00023  -0.01320   0.03927   0.02611   1.05343
    D7        0.91590  -0.00068  -0.03327  -0.06333  -0.09746   0.81844
    D8       -3.03841   0.00060   0.02970   0.02955   0.05991  -2.97850
    D9       -1.14389  -0.00065  -0.03860   0.03193  -0.00697  -1.15086
   D10        1.13575   0.00032   0.01866   0.06007   0.07924   1.21499
   D11       -0.91718   0.00070   0.03270   0.06575   0.09913  -0.81806
   D12       -3.08397   0.00007   0.00929   0.05150   0.06112  -3.02285
   D13       -1.19064  -0.00109  -0.04321  -0.03761  -0.08144  -1.27208
   D14        3.03961  -0.00070  -0.02917  -0.03192  -0.06156   2.97805
   D15        0.87283  -0.00133  -0.05258  -0.04617  -0.09957   0.77326
   D16       -3.09419   0.00069   0.02109  -0.02488  -0.00365  -3.09784
   D17        1.13606   0.00108   0.03513  -0.01920   0.01623   1.15230
   D18       -1.03073   0.00045   0.01172  -0.03345  -0.02177  -1.05250
   D19       -1.16811  -0.00078  -0.03315  -0.04118  -0.07524  -1.24335
   D20        3.07795  -0.00031  -0.01203  -0.04714  -0.05973   3.01822
   D21        0.87082  -0.00132  -0.05346  -0.03707  -0.09181   0.77901
   D22        1.16148   0.00113   0.03015   0.04883   0.07991   1.24139
   D23       -0.87564   0.00160   0.05127   0.04286   0.09541  -0.78022
   D24       -3.08277   0.00059   0.00984   0.05293   0.06334  -3.01943
   D25       -3.13731  -0.00028   0.00187  -0.00849  -0.00663   3.13925
   D26        1.10875   0.00018   0.02299  -0.01445   0.00888   1.11763
   D27       -1.09838  -0.00082  -0.01845  -0.00439  -0.02320  -1.12158
         Item               Value     Threshold  Converged?
 Maximum Force            0.003511     0.000015     NO 
 RMS     Force            0.000772     0.000010     NO 
 Maximum Displacement     0.163989     0.000060     NO 
 RMS     Displacement     0.036705     0.000040     NO 
 GradGradGradGradGradGradGradGradGradGradGradGradGradGradGradGradGradGrad

                    Distance matrix (angstroms):
                    1          2          3          4          5
     1  C    0.000000
     2  C    1.498958   0.000000
     3  C    2.543910   1.499949   0.000000
     4  C    2.548443   1.499550   2.547558   0.000000
     5  Br   2.982841   2.248477   2.981517   2.843519   0.000000
     6  H    1.108181   2.088567   2.823714   2.856315   3.998668
     7  H    1.100605   2.178803   3.499934   2.760866   3.108970
     8  H    1.101191   2.178267   2.768793   3.500405   3.169330
     9  H    2.822968   2.088523   1.108225   2.854446   3.997265
    10  H    2.768997   2.179152   1.101153   3.499901   3.168499
    11  H    3.499830   2.179800   1.100604   2.759203   3.106692
    12  H    2.843756   2.090733   2.841482   1.111071   3.891746
    13  H    3.509284   2.187926   2.771352   1.103061   2.979273
    14  H    2.772274   2.187531   3.508759   1.102968   2.981595
                    6          7          8          9         10
     6  H    0.000000
     7  H    1.781671   0.000000
     8  H    1.775779   1.808844   0.000000
     9  H    2.650699   3.830536   3.142894   0.000000
    10  H    3.143303   3.779093   2.537118   1.776083   0.000000
    11  H    3.831294   4.338927   3.778815   1.781879   1.808955
    12  H    2.704314   3.145327   3.855520   2.700631   3.853867
    13  H    3.861793   3.779245   4.343731   3.174494   3.774524
    14  H    3.175545   2.527038   3.775522   3.859709   4.343895
                   11         12         13         14
    11  H    0.000000
    12  H    3.141564   0.000000
    13  H    2.525072   1.770282   0.000000
    14  H    3.778114   1.770748   1.820144   0.000000
 Framework group  C1[X(C4H9Br)]
 Deg. of freedom    36
                         Standard orientation:                         
 ---------------------------------------------------------------------
 Center     Atomic      Atomic             Coordinates (Angstroms)
 Number     Number       Type             X           Y           Z
 ---------------------------------------------------------------------
      1          6           0       -1.393542    1.407108   -0.338611
      2          6           0       -1.023596   -0.007717   -0.009539
      3          6           0       -1.391544   -0.482100    1.365024
      4          6           0       -1.164623   -1.008675   -1.117168
      5         35           0        1.224340    0.025038    0.027337
      6          1           0       -2.499471    1.415141   -0.408767
      7          1           0       -0.997234    1.740372   -1.309799
      8          1           0       -1.116505    2.118394    0.455078
      9          1           0       -2.497436   -0.553973    1.365716
     10          1           0       -1.114895    0.234272    2.154210
     11          1           0       -0.993828   -1.482058    1.595752
     12          1           0       -2.258610   -1.140512   -1.259611
     13          1           0       -0.765475   -2.005317   -0.863931
     14          1           0       -0.768613   -0.654359   -2.083696
 ---------------------------------------------------------------------
 Rotational constants (GHZ):           4.4529394           1.8742052           1.8737713
   106 basis functions,   216 primitive gaussians,   113 cartesian basis functions
    34 alpha electrons       33 beta electrons
       nuclear repulsion energy       338.7705273206 Hartrees.
 NAtoms=   14 NActive=   14 NUniq=   14 SFac= 1.00D+00 NAtFMM=   60 NAOKFM=F Big=F
 Nuclear repulsion after empirical dispersion term =      338.7628113343 Hartrees.
   1 Symmetry operations used in ECPInt.
 ECPInt:  NShTT=    1485 NPrTT=    6674 LenC2=    1476 LenP2D=    5352.
 LDataN:  DoStor=T MaxTD1= 4 Len=   56
 Initial guess from the checkpoint file:  "46.chk"
 B after Tr=     0.000000    0.000000    0.000000
         Rot=    0.763695   -0.645574   -0.001908    0.000312 Ang= -80.42 deg.
 Initial guess <Sx>= 0.0000 <Sy>= 0.0000 <Sz>= 0.5000 <S**2>= 0.7529 S= 0.5014
 ExpMin= 1.22D-01 ExpMax= 1.13D+05 ExpMxC= 1.70D+04 IAcc=3 IRadAn=         5 AccDes= 0.00D+00
 Harris functional with IExCor= 4639 and IRadAn=       5 diagonalized for initial guess.
 HarFok:  IExCor= 4639 AccDes= 0.00D+00 IRadAn=         5 IDoV= 1 UseB2=F ITyADJ=14
 ICtDFT=  3500011 ScaDFX=  1.000000  1.000000  1.000000  1.000000
 FoFCou: FMM=F IPFlag=           0 FMFlag=      100000 FMFlg1=           0
         NFxFlg=           0 DoJE=T BraDBF=F KetDBF=T FulRan=T
         wScrn=  0.000000 ICntrl=       500 IOpCl=  0 I1Cent=   200000004 NGrid=           0
         NMat0=    1 NMatS0=      1 NMatT0=    0 NMatD0=    1 NMtDS0=    0 NMtDT0=    0
 Petite list used in FoFCou.
     Accept linear search using points  2 and  3.
     Accept linear search using points  1 and  2.
     Minimum is close to point  2 DX= -3.16D-02 DF= -6.19D-07 DXR=  2.71D-02 DFR=  9.96D-04 which will be used.
     Accept linear search using points  1 and  2.
     Minimum is close to point  2 DX=  6.37D-02 DF= -7.86D-07 DXR=  5.99D-02 DFR=  3.60D-03 which will be used.
     Accept linear search using points  1 and  2.
     Minimum is close to point  2 DX= -2.82D-02 DF= -1.26D-07 DXR=  2.91D-02 DFR=  8.45D-04 which will be used.
     Accept linear search using points  1 and  2.
     Accept linear search using points  1 and  2.
     Minimum is close to point  2 DX= -3.28D-02 DF= -7.42D-08 DXR=  3.78D-02 DFR=  1.15D-03 which will be used.
     Minimum is close to point  2 DX=  5.83D-02 DF= -1.88D-07 DXR=  6.08D-02 DFR=  3.71D-03 which will be used.
     Accept linear search using points  1 and  2.
     Minimum is close to point  2 DX= -1.23D-02 DF= -3.81D-08 DXR=  1.25D-02 DFR=  1.57D-04 which will be used.
     Accept linear search using points  1 and  2.
     Minimum is close to point  2 DX= -6.62D-05 DF=  0.00D+00 DXR=  6.62D-05 DFR=  0.00D+00 which will be used.
 SCF Done:  E(UwB97XD) =  -2731.22017403     a.u. after   14 cycles
            Convg  =    0.1244D-06                    64 Fock formations.
              S**2 =  0.7531                  -V/T =  2.0017
 <Sx>= 0.0000 <Sy>= 0.0000 <Sz>= 0.5000 <S**2>= 0.7531 S= 0.5015
 <L.S>=  0.00000000000    
 Annihilation of the first spin contaminant:
 S**2 before annihilation     0.7531,   after     0.7500
 DoSCS=F DFT=T ScalE2(SS,OS)=  1.000000  1.000000
 NROrb=    106 NOA=    34 NOB=    33 NVA=    72 NVB=    73

 **** Warning!!: The largest alpha MO coefficient is  0.11115876D+02


 **** Warning!!: The largest beta MO coefficient is  0.10942828D+02

   1 Symmetry operations used in ECPInt.
 ECPInt:  NShTT=    1485 NPrTT=    6674 LenC2=    1476 LenP2D=    5352.
 LDataN:  DoStor=T MaxTD1= 5 Len=  102
 Symmetrizing basis deriv contribution to polar:
 IMax=3 JMax=2 DiffMx= 0.00D+00
 Calling FoFCou, ICntrl=  3107 FMM=F I1Cent=   0 AccDes= 0.00D+00.
 End of G2Drv F.D. properties file   721 does not exist.
 End of G2Drv F.D. properties file   722 does not exist.
 End of G2Drv F.D. properties file   788 does not exist.
          IDoAtm=11111111111111
 End of Minotr F.D. properties file   721 does not exist.
 End of Minotr F.D. properties file   722 does not exist.
 End of Minotr F.D. properties file   788 does not exist.
   1 Symmetry operations used in ECPInt.
 ECPInt:  NShTT=    1485 NPrTT=    6674 LenC2=    1476 LenP2D=    5352.
 LDataN:  DoStor=T MaxTD1= 6 Len=  172
 Calling FoFJK, ICntrl=    100127 FMM=F ISym2X=0 I1Cent= 0 IOpClX= 1 NMat=1 NMatS=1 NMatT=0.
 FormGI is forming the generalized inverse of G from B-inverse, IUseBI=4.

 GradGradGradGradGradGradGradGradGradGradGradGradGradGradGradGradGradGrad
 Using GEDIIS/GDIIS optimizer.
 Internal  Forces:  Max     0.005070341 RMS     0.000850048
 Step number   3 out of a maximum of   74
 All quantities printed in internal units (Hartrees-Bohrs-Radians)
 Mixed Optimization -- En-DIIS/RFO-DIIS
 Swapping is turned off.
 Second derivative matrix not updated -- analytic derivatives used.
 Trust test= 1.33D+00 RLast= 4.85D-01 DXMaxT set to 8.49D-01
 ITU=  1  1  0
     Eigenvalues ---   -0.00228   0.00225   0.00352   0.00407   0.02543
     Eigenvalues ---    0.04006   0.04106   0.04330   0.04438   0.04646
     Eigenvalues ---    0.04746   0.05480   0.06011   0.12203   0.12600
     Eigenvalues ---    0.12786   0.13097   0.13248   0.14387   0.14507
     Eigenvalues ---    0.14954   0.15145   0.18923   0.18950   0.31625
     Eigenvalues ---    0.31698   0.32846   0.33461   0.33476   0.34252
     Eigenvalues ---    0.34420   0.34781   0.34866   0.34979   0.35011
     Eigenvalues ---    0.35279
 Use linear search instead of GDIIS.
 Quartic linear search produced a step of  2.00000.
 Maximum step size (   0.849) exceeded in Quadratic search.
    -- Step size scaled by   0.928
 Iteration  1 RMS(Cart)=  0.08563736 RMS(Int)=  0.15739271
 Iteration  2 RMS(Cart)=  0.03401690 RMS(Int)=  0.12949135
 Iteration  3 RMS(Cart)=  0.02427741 RMS(Int)=  0.10461241
 Iteration  4 RMS(Cart)=  0.02408837 RMS(Int)=  0.07981341
 Iteration  5 RMS(Cart)=  0.02409041 RMS(Int)=  0.05519605
 Iteration  6 RMS(Cart)=  0.02409039 RMS(Int)=  0.03119339
 Iteration  7 RMS(Cart)=  0.02409040 RMS(Int)=  0.01222501
 Iteration  8 RMS(Cart)=  0.00382704 RMS(Int)=  0.01156191
 Iteration  9 RMS(Cart)=  0.00000004 RMS(Int)=  0.01156191
 Variable       Old X    -DE/DX   Delta X   Delta X   Delta X     New X
                                 (Linear)    (Quad)   (Total)
    R1        2.83262   0.00126  -0.05758  -0.03377  -0.09136   2.74127
    R2        2.09416   0.00023   0.01033   0.00998   0.02031   2.11447
    R3        2.07984   0.00008  -0.00351  -0.00074  -0.00425   2.07559
    R4        2.08095  -0.00009  -0.00253   0.00023  -0.00229   2.07866
    R5        2.83449   0.00087  -0.04398  -0.04559  -0.08957   2.74492
    R6        2.83374   0.00379  -0.09903  -0.04630  -0.14533   2.68841
    R7        4.24901   0.00507   0.62183   0.81380   1.43563   5.68464
    R8        2.09424   0.00020   0.01174   0.00865   0.02039   2.11463
    R9        2.08088  -0.00007  -0.00225   0.00007  -0.00218   2.07870
   R10        2.07984   0.00006  -0.00341  -0.00083  -0.00425   2.07559
   R11        2.09962   0.00006   0.00756  -0.00742   0.00014   2.09976
   R12        2.08448  -0.00026   0.00104  -0.00718  -0.00614   2.07834
   R13        2.08431  -0.00021   0.00101  -0.00692  -0.00590   2.07840
    A1        1.84112   0.00012  -0.03161  -0.02984  -0.06128   1.77983
    A2        1.97214   0.00026   0.01202   0.00646   0.01670   1.98884
    A3        1.97072  -0.00032   0.01904   0.01514   0.03269   2.00342
    A4        1.87684  -0.00013  -0.01619  -0.00382  -0.02022   1.85662
    A5        1.86713   0.00012  -0.01993   0.00154  -0.01785   1.84928
    A6        1.92818  -0.00003   0.03026   0.00737   0.03512   1.96331
    A7        2.02545   0.00095   0.06483   0.03442   0.04665   2.07211
    A8        2.03160  -0.00059   0.09076   0.02963   0.07041   2.10201
    A9        1.80965  -0.00025  -0.09754  -0.13780  -0.22820   1.58145
   A10        2.02942  -0.00031   0.07582   0.04184   0.06718   2.09660
   A11        1.80784  -0.00020  -0.12405  -0.11457  -0.23244   1.57540
   A12        1.68692   0.00032  -0.09846   0.09183   0.01422   1.70114
   A13        1.83991   0.00027  -0.04378  -0.01867  -0.06229   1.77762
   A14        1.97077  -0.00032   0.02137   0.01327   0.03300   2.00377
   A15        1.97231   0.00020   0.01508   0.00356   0.01670   1.98901
   A16        1.86759   0.00005  -0.02011   0.00096  -0.01861   1.84897
   A17        1.87711  -0.00017  -0.01408  -0.00591  -0.02021   1.85690
   A18        1.92841  -0.00002   0.03444   0.00443   0.03616   1.96457
   A19        1.84056  -0.00087   0.02417  -0.00989   0.01436   1.85491
   A20        1.98177  -0.00003   0.00817  -0.01985  -0.01185   1.96992
   A21        1.98130   0.00007   0.00711  -0.01838  -0.01144   1.96987
   A22        1.85304   0.00049  -0.04157   0.03672  -0.00477   1.84827
   A23        1.85385   0.00043  -0.04290   0.03708  -0.00574   1.84812
   A24        1.94068  -0.00006   0.03630  -0.01609   0.01989   1.96057
    D1       -1.21477   0.00003  -0.16160  -0.12517  -0.28640  -1.50116
    D2        1.27148  -0.00002   0.15313   0.04416   0.20019   1.47166
    D3        3.09911  -0.00002   0.01936   0.08430   0.10102  -3.08305
    D4        3.02274  -0.00002  -0.12874  -0.10548  -0.23355   2.78919
    D5       -0.77420  -0.00007   0.18600   0.06385   0.25303  -0.52117
    D6        1.05343  -0.00007   0.05223   0.10399   0.15387   1.20730
    D7        0.81844   0.00008  -0.19491  -0.13365  -0.32911   0.48934
    D8       -2.97850   0.00002   0.11983   0.03568   0.15748  -2.82102
    D9       -1.15086   0.00003  -0.01395   0.07582   0.05831  -1.09255
   D10        1.21499  -0.00006   0.15849   0.12820   0.28540   1.50039
   D11       -0.81806  -0.00012   0.19825   0.13155   0.32948  -0.48857
   D12       -3.02285   0.00001   0.12224   0.11138   0.23200  -2.79085
   D13       -1.27208   0.00010  -0.16288  -0.03627  -0.20089  -1.47297
   D14        2.97805   0.00004  -0.12312  -0.03292  -0.15681   2.82125
   D15        0.77326   0.00018  -0.19914  -0.05309  -0.25429   0.51897
   D16       -3.09784  -0.00005  -0.00730  -0.09457  -0.09948   3.08586
   D17        1.15230  -0.00011   0.03247  -0.09122  -0.05540   1.09690
   D18       -1.05250   0.00003  -0.04355  -0.11139  -0.15288  -1.20538
   D19       -1.24335  -0.00023  -0.15047  -0.08816  -0.24296  -1.48631
   D20        3.01822  -0.00026  -0.11947  -0.11612  -0.23981   2.77841
   D21        0.77901  -0.00021  -0.18362  -0.05902  -0.24706   0.53195
   D22        1.24139   0.00019   0.15982   0.07873   0.24276   1.48415
   D23       -0.78022   0.00016   0.19083   0.05078   0.24591  -0.53432
   D24       -3.01943   0.00021   0.12668   0.10788   0.23866  -2.78078
   D25        3.13925   0.00006  -0.01325   0.01036  -0.00277   3.13647
   D26        1.11763   0.00002   0.01775  -0.01759   0.00038   1.11801
   D27       -1.12158   0.00007  -0.04640   0.03950  -0.00687  -1.12845
         Item               Value     Threshold  Converged?
 Maximum Force            0.005070     0.000015     NO 
 RMS     Force            0.000850     0.000010     NO 
 Maximum Displacement     0.934814     0.000060     NO 
 RMS     Displacement     0.164403     0.000040     NO 
 GradGradGradGradGradGradGradGradGradGradGradGradGradGradGradGradGradGrad

                    Distance matrix (angstroms):
                    1          2          3          4          5
     1  C    0.000000
     2  C    1.450615   0.000000
     3  C    2.497881   1.452550   0.000000
     4  C    2.493811   1.422647   2.491622   0.000000
     5  Br   3.353574   3.008182   3.346532   3.490786   0.000000
     6  H    1.118927   2.007471   2.880143   2.865951   4.445298
     7  H    1.098357   2.145770   3.429589   2.688183   3.409997
     8  H    1.099977   2.156892   2.680588   3.428811   3.325503
     9  H    2.878113   2.007400   1.119015   2.862317   4.438922
    10  H    2.681509   2.158862   1.099999   3.427872   3.319849
    11  H    3.429551   2.147601   1.098356   2.683783   3.399430
    12  H    2.927893   2.035872   2.924253   1.111145   4.573022
    13  H    3.412101   2.109406   2.658136   1.099812   3.507264
    14  H    2.662349   2.109393   3.411651   1.099844   3.515340
                    6          7          8          9         10
     6  H    0.000000
     7  H    1.775221   0.000000
     8  H    1.771618   1.827733   0.000000
     9  H    2.817301   3.879544   3.142340   0.000000
    10  H    3.144445   3.668465   2.393247   1.771501   0.000000
    11  H    3.881184   4.225807   3.667869   1.775472   1.828521
    12  H    2.867251   3.188523   3.930457   2.861333   3.928180
    13  H    3.863313   3.661306   4.206590   3.123221   3.649021
    14  H    3.126911   2.385636   3.653009   3.860329   4.208334
                   11         12         13         14
    11  H    0.000000
    12  H    3.181453   0.000000
    13  H    2.378541   1.764576   0.000000
    14  H    3.658675   1.764501   1.827157   0.000000
 Framework group  C1[X(C4H9Br)]
 Deg. of freedom    36
                         Standard orientation:                         
 ---------------------------------------------------------------------
 Center     Atomic      Atomic             Coordinates (Angstroms)
 Number     Number       Type             X           Y           Z
 ---------------------------------------------------------------------
      1          6           0       -1.515164    1.351076    0.538705
      2          6           0       -1.507529    0.001799    0.006089
      3          6           0       -1.506244   -1.115212    0.934627
      4          6           0       -1.707490   -0.225429   -1.383986
      5         35           0        1.500481   -0.003120   -0.025649
      6          1           0       -2.608429    1.534495    0.690780
      7          1           0       -1.169292    2.113197   -0.172584
      8          1           0       -1.049850    1.458352    1.529626
      9          1           0       -2.598904   -1.247268    1.136746
     10          1           0       -1.042048   -0.904561    1.909382
     11          1           0       -1.155793   -2.059330    0.496209
     12          1           0       -2.807265   -0.256474   -1.539472
     13          1           0       -1.328560   -1.203025   -1.716109
     14          1           0       -1.338143    0.600401   -2.009481
 ---------------------------------------------------------------------
 Rotational constants (GHZ):           4.6141104           1.3533208           1.3515305
   106 basis functions,   216 primitive gaussians,   113 cartesian basis functions
    34 alpha electrons       33 beta electrons
       nuclear repulsion energy       308.3615006677 Hartrees.
 NAtoms=   14 NActive=   14 NUniq=   14 SFac= 1.00D+00 NAtFMM=   60 NAOKFM=F Big=F
 Nuclear repulsion after empirical dispersion term =      308.3535830881 Hartrees.
   1 Symmetry operations used in ECPInt.
 ECPInt:  NShTT=    1485 NPrTT=    6674 LenC2=    1471 LenP2D=    5214.
 LDataN:  DoStor=T MaxTD1= 4 Len=   56
 Initial guess from the checkpoint file:  "46.chk"
 B after Tr=     0.000000    0.000000    0.000000
         Rot=    0.958335   -0.282876   -0.035997    0.016708 Ang= -33.19 deg.
 Initial guess <Sx>= 0.0000 <Sy>= 0.0000 <Sz>= 0.5000 <S**2>= 0.7534 S= 0.5017
 ExpMin= 1.22D-01 ExpMax= 1.13D+05 ExpMxC= 1.70D+04 IAcc=3 IRadAn=         5 AccDes= 0.00D+00
 Harris functional with IExCor= 4639 and IRadAn=       5 diagonalized for initial guess.
 HarFok:  IExCor= 4639 AccDes= 0.00D+00 IRadAn=         5 IDoV= 1 UseB2=F ITyADJ=14
 ICtDFT=  3500011 ScaDFX=  1.000000  1.000000  1.000000  1.000000
 FoFCou: FMM=F IPFlag=           0 FMFlag=      100000 FMFlg1=           0
         NFxFlg=           0 DoJE=T BraDBF=F KetDBF=T FulRan=T
         wScrn=  0.000000 ICntrl=       500 IOpCl=  0 I1Cent=   200000004 NGrid=           0
         NMat0=    1 NMatS0=      1 NMatT0=    0 NMatD0=    1 NMtDS0=    0 NMtDT0=    0
 Petite list used in FoFCou.
     Accept linear search using points  4 and  5.
     Accept linear search using points  2 and  3.
     Accept linear search using points  1 and  2.
     Minimum is close to point  2 DX= -1.08D-02 DF= -6.17D-07 DXR=  9.07D-03 DFR=  1.13D-04 which will be used.
     Accept linear search using points  1 and  2.
     Minimum is close to point  2 DX=  6.91D-02 DF= -6.89D-06 DXR=  6.46D-02 DFR=  4.19D-03 which will be used.
     Minimum is close to point  2 DX=  6.69D-02 DF= -4.05D-06 DXR=  6.27D-02 DFR=  3.95D-03 which will be used.
     Accept linear search using points  1 and  2.
     Minimum is close to point  2 DX= -4.26D-02 DF= -1.27D-06 DXR=  4.03D-02 DFR=  1.92D-03 which will be used.
     Accept linear search using points  1 and  2.
     Minimum is close to point  2 DX=  5.44D-02 DF= -7.95D-07 DXR=  5.16D-02 DFR=  2.67D-03 which will be used.
     Minimum is close to point  2 DX=  1.42D-02 DF= -4.04D-08 DXR=  1.40D-02 DFR=  1.96D-04 which will be used.
     Accept linear search using points  1 and  2.
     Minimum is close to point  2 DX= -2.88D-02 DF= -1.27D-07 DXR=  2.96D-02 DFR=  8.79D-04 which will be used.
     Accept linear search using points  1 and  2.
     Minimum is close to point  2 DX= -6.88D-02 DF= -5.67D-07 DXR=  7.39D-02 DFR=  5.49D-03 which will be used.
     Accept linear search using points  1 and  2.
     Accept linear search using points  1 and  2.
     Accept linear search using points  1 and  2.
     Accept linear search using points  1 and  2.
     Accept linear search using points  1 and  2.
     Accept linear search using points  2 and  3.
     Minimum is close to point  3 DX=  1.29D-01 DF= -4.83D-07 DXR=  8.41D-02 DFR=  1.07D-02 which will be used.
     Minimum is close to point  3 DX=  1.47D-01 DF= -2.99D-07 DXR=  8.92D-02 DFR=  1.06D-02 which will be used.
     Minimum is close to point  3 DX=  1.68D-01 DF= -1.06D-07 DXR=  9.49D-02 DFR=  9.27D-03 which will be used.
     Accept linear search using points  1 and  2.
     Minimum is close to point  2 DX=  1.15D-02 DF= -1.64D-11 DXR=  1.13D-02 DFR=  1.24D-04 which will be used.
 SCF Done:  E(UwB97XD) =  -2731.22430296     a.u. after   37 cycles
            Convg  =    0.1824D-07                   303 Fock formations.
              S**2 =  0.7521                  -V/T =  2.0016
 <Sx>= 0.0000 <Sy>= 0.0000 <Sz>= 0.5000 <S**2>= 0.7521 S= 0.5011
 <L.S>=  0.00000000000    
 Annihilation of the first spin contaminant:
 S**2 before annihilation     0.7521,   after     0.7500
 DoSCS=F DFT=T ScalE2(SS,OS)=  1.000000  1.000000
 NROrb=    106 NOA=    34 NOB=    33 NVA=    72 NVB=    73
   1 Symmetry operations used in ECPInt.
 ECPInt:  NShTT=    1485 NPrTT=    6674 LenC2=    1471 LenP2D=    5214.
 LDataN:  DoStor=T MaxTD1= 5 Len=  102
 Symmetrizing basis deriv contribution to polar:
 IMax=3 JMax=2 DiffMx= 0.00D+00
 Calling FoFCou, ICntrl=  3107 FMM=F I1Cent=   0 AccDes= 0.00D+00.
 End of G2Drv F.D. properties file   721 does not exist.
 End of G2Drv F.D. properties file   722 does not exist.
 End of G2Drv F.D. properties file   788 does not exist.
          IDoAtm=11111111111111
 End of Minotr F.D. properties file   721 does not exist.
 End of Minotr F.D. properties file   722 does not exist.
 End of Minotr F.D. properties file   788 does not exist.
   1 Symmetry operations used in ECPInt.
 ECPInt:  NShTT=    1485 NPrTT=    6674 LenC2=    1471 LenP2D=    5214.
 LDataN:  DoStor=T MaxTD1= 6 Len=  172
 Calling FoFJK, ICntrl=    100127 FMM=F ISym2X=0 I1Cent= 0 IOpClX= 1 NMat=1 NMatS=1 NMatT=0.
 FormGI is forming the generalized inverse of G from B-inverse, IUseBI=4.

 GradGradGradGradGradGradGradGradGradGradGradGradGradGradGradGradGradGrad
 Using GEDIIS/GDIIS optimizer.
 Internal  Forces:  Max     0.035839020 RMS     0.005438193
 Step number   4 out of a maximum of   74
 All quantities printed in internal units (Hartrees-Bohrs-Radians)
 Mixed Optimization -- RFO/linear search
 Second derivative matrix not updated -- analytic derivatives used.
 Trust test= 3.93D-01 RLast= 1.85D+00 DXMaxT set to 8.49D-01
 ITU=  0  1  1  0
 Use linear search instead of GDIIS.
     Eigenvalues ---   -0.00032   0.00081   0.00254   0.00598   0.00811
     Eigenvalues ---    0.02069   0.02957   0.03163   0.03308   0.03880
     Eigenvalues ---    0.04174   0.04523   0.04661   0.10528   0.10886
     Eigenvalues ---    0.12548   0.12668   0.13062   0.13931   0.15204
     Eigenvalues ---    0.16273   0.16461   0.21598   0.22384   0.31168
     Eigenvalues ---    0.31420   0.32781   0.34898   0.35025   0.35069
     Eigenvalues ---    0.35322   0.35496   0.35534   0.38440   0.40594
     Eigenvalues ---    0.47132
 Quintic linear search produced a step of -0.21463.
 Iteration  1 RMS(Cart)=  0.10172242 RMS(Int)=  0.04691630
 Iteration  2 RMS(Cart)=  0.05795578 RMS(Int)=  0.00304018
 Iteration  3 RMS(Cart)=  0.00258449 RMS(Int)=  0.00167685
 Iteration  4 RMS(Cart)=  0.00000352 RMS(Int)=  0.00167684
 Iteration  5 RMS(Cart)=  0.00000000 RMS(Int)=  0.00167684
 Variable       Old X    -DE/DX   Delta X   Delta X   Delta X     New X
                                 (Linear)    (Quad)   (Total)
    R1        2.74127   0.01528   0.01961   0.03203   0.05164   2.79291
    R2        2.11447  -0.00014  -0.00436  -0.00647  -0.01083   2.10364
    R3        2.07559   0.00125   0.00091   0.00513   0.00604   2.08164
    R4        2.07866  -0.00039   0.00049   0.00513   0.00562   2.08427
    R5        2.74492   0.01432   0.01922   0.01203   0.03125   2.77617
    R6        2.68841   0.03584   0.03119   0.05863   0.08982   2.77824
    R7        5.68464   0.00449  -0.30813   0.34154   0.03341   5.71805
[...]
    12   1    -0.27   0.53  -0.22    -0.01   0.01  -0.01     0.09  -0.17   0.07
    13   1    -0.27  -0.53  -0.22     0.01   0.01   0.01     0.09   0.17   0.07
    14   1    -0.29  -0.00   0.13     0.00  -0.00  -0.00     0.10   0.00  -0.04
                     34                     35                     36
                      A                      A                      A
 Frequencies --   3180.4421              3186.2353              3190.6197
 Red. masses --      1.1125                 1.1116                 1.1114
 Frc consts  --      6.6304                 6.6491                 6.6663
 IR Inten    --      7.2024                 2.2216                 6.7777
  Atom  AN      X      Y      Z        X      Y      Z        X      Y      Z
     1   6     0.00  -0.01   0.01    -0.01   0.03  -0.06    -0.02   0.03  -0.06
     2   6     0.00  -0.00   0.00    -0.00   0.00  -0.00    -0.00  -0.00   0.00
     3   6    -0.00  -0.01  -0.01     0.01   0.03   0.06    -0.02  -0.03  -0.06
     4   6    -0.00  -0.10  -0.00     0.00  -0.02   0.00     0.00   0.00   0.00
     5  35    -0.00  -0.00   0.00    -0.00   0.00  -0.00    -0.00  -0.00   0.00
     6   1    -0.01   0.00   0.01     0.02   0.00  -0.01     0.03  -0.00  -0.02
     7   1     0.03   0.06  -0.04    -0.13  -0.31   0.24    -0.13  -0.30   0.23
     8   1    -0.06   0.01  -0.11     0.27  -0.03   0.48     0.28  -0.03   0.50
     9   1     0.01   0.00  -0.01    -0.02   0.00   0.01     0.03   0.00  -0.02
    10   1     0.06   0.01   0.11    -0.27  -0.03  -0.48     0.28   0.03   0.50
    11   1    -0.03   0.06   0.04     0.13  -0.31  -0.24    -0.13   0.30   0.23
    12   1    -0.30   0.57  -0.23    -0.06   0.12  -0.05    -0.00   0.01  -0.00
    13   1     0.30   0.57   0.23     0.06   0.12   0.05    -0.00  -0.01  -0.00
    14   1     0.00  -0.02  -0.00     0.00  -0.00   0.00    -0.01  -0.00   0.00
 
 Temperature   298.150 Kelvin.  Pressure   1.00000 Atm.
 Zero-point correction=                           0.117811 (Hartree/Particle)
 Thermal correction to Energy=                    0.126172
 Thermal correction to Enthalpy=                  0.127116
 Thermal correction to Gibbs Free Energy=         0.082415
 Sum of electronic and zero-point Energies=          -2731.111009
 Sum of electronic and thermal Energies=             -2731.102649
 Sum of electronic and thermal Enthalpies=           -2731.101705
 Sum of electronic and thermal Free Energies=        -2731.146406

 ----------------------------------------------------------------------

 Electric dipole moment (input orientation):
 (Debye = 10**-18 statcoulomb cm , SI units = C m)
                  (au)            (Debye)         (10**-30 SI)
   Tot        0.313750D+01      0.797473D+01      0.266008D+02
   x         -0.312110D+01     -0.793304D+01     -0.264618D+02
   y          0.834623D-01      0.212140D+00      0.707623D+00
   z          0.309339D+00      0.786262D+00      0.262269D+01

 Dipole polarizability, Alpha (input orientation).
 (esu units = cm**3 , SI units = C**2 m**2 J**-1)
 Alpha(0;0):
               (au)            (10**-24 esu)      (10**-40 SI)
   iso        0.548381D+02      0.812616D+01      0.904157D+01
   aniso      0.669256D+00      0.991736D-01      0.110345D+00
   xx         0.548604D+02      0.812948D+01      0.904526D+01
   yx         0.179605D+00      0.266148D-01      0.296129D-01
   yy         0.548616D+02      0.812965D+01      0.904546D+01
   zx        -0.185059D+00     -0.274229D-01     -0.305121D-01
   zy        -0.284981D+00     -0.422298D-01     -0.469870D-01
   zz         0.547921D+02      0.811935D+01      0.903400D+01

 ----------------------------------------------------------------------

 Dipole orientation:
     6         -2.95907074         -0.42737764          2.48499282
     6         -0.22066016         -0.04804089          2.56152419
     6          0.84939003          2.50103369          2.48499156
     6          1.45136021         -2.22253865          2.88125394
    35         -0.22289762         -0.04513026         -4.03324284
     1         -3.54120016         -0.35441719          4.51255482
     1         -3.49247538         -2.32615277          1.81528270
     1         -3.98812693          1.08202780          1.49282454
     1          0.92843222          3.08236484          4.51255458
     1         -0.34502629          3.88329759          1.49283493
     1          2.82146495          2.52878166          1.81526761
     1          0.52403937         -3.86045789          3.77120926
     1          3.27253183         -1.74708336          3.77119750
     1          1.88374718         -2.78488087          0.89313469

 Electric dipole moment (dipole orientation):
 (Debye = 10**-18 statcoulomb cm , SI units = C m)
                  (au)            (Debye)         (10**-30 SI)
   Tot        0.313750D+01      0.797473D+01      0.266008D+02
   x          0.000000D+00      0.000000D+00      0.000000D+00
   y          0.000000D+00      0.000000D+00      0.000000D+00
   z          0.313750D+01      0.797473D+01      0.266008D+02

 Dipole polarizability, Alpha (dipole orientation).
 (esu units = cm**3 , SI units = C**2 m**2 J**-1)
 Alpha(0;0):
               (au)            (10**-24 esu)      (10**-40 SI)
   iso        0.548381D+02      0.812616D+01      0.904157D+01
   aniso      0.669256D+00      0.991736D-01      0.110345D+00
   xx         0.547435D+02      0.811215D+01      0.902598D+01
   yx        -0.267319D+00     -0.396126D-01     -0.440749D-01
   yy         0.548856D+02      0.813321D+01      0.904941D+01
   zx         0.162573D+00      0.240908D-01      0.268046D-01
   zy        -0.211440D+00     -0.313322D-01     -0.348617D-01
   zz         0.548851D+02      0.813313D+01      0.904932D+01

 ----------------------------------------------------------------------
 1\1\GINC-C681\Freq\UwB97XD\def2SVPP\C4H9Br1(1+,2)\PETERCHAO1\11-Jul-20
 23\0\\#T wB97XD/def2svpp opt=(calcall,tight) int(grid=ultrafine) scf=(
 verytight,qc)\\Comment gs min\\1,2\C,-1.4689691374,-0.2287498408,-1.42
 20188498\C,-1.3606140655,0.0078399484,0.0181628902\C,-1.2316411137,1.3
 684453912,0.5415726592\C,-1.4688350563,-1.1163001417,0.9456241118\Br,2
 .1108616414,-0.0834833587,-0.3271300848\H,-2.5659398662,-0.1690440292,
 -1.6236994273\H,-1.1686410278,-1.2491176997,-1.7110211946\H,-0.9814818
 941,0.5423949887,-2.0367380615\H,-2.2874111727,1.7054238047,0.68078366
 84\H,-0.7544644594,2.0702455371,-0.1584035265\H,-0.7751746682,1.398829
 1086,1.5443613895\H,-2.0068929261,-1.981783718,0.526961705\H,-1.835612
 2126,-0.8291207024,1.9440471962\H,-0.4067290414,-1.4361622882,1.077425
 5244\\Version=ES64L-G16RevB.01\State=2-A\HF=-2731.2288205\S2=0.751785\
 S2-1=0.\S2A=0.750001\RMSD=2.365e-09\RMSF=1.712e-06\ZeroPoint=0.1178112
 \Thermal=0.1261716\Dipole=-3.1210974,0.0834623,0.3093394\DipoleDeriv=-
 0.2970879,-0.0631731,-0.379463,-0.0164909,-0.1493449,-0.0818716,-0.206
 1833,-0.0690062,-0.5320789,0.5967063,-0.0512285,0.1021117,-0.1130701,1
 .0898106,0.0193425,0.1524141,0.0118672,1.0687133,-0.2103292,0.3013053,
 0.1264512,0.1440077,-0.5457382,-0.1800584,0.0431476,-0.2062976,-0.2224
 443,-0.2052587,0.2989674,-0.2339052,0.0611504,-0.4525037,0.2561442,-0.
 0404646,0.2273991,-0.3085864,-0.1115461,0.0013946,0.0174821,-0.0061622
 ,0.0391043,0.003493,0.0236285,0.0025796,0.0375289,0.1418538,0.0246697,
 0.1471374,0.0129088,0.1762431,-0.0033928,0.051184,-0.0160132,0.1195714
 ,0.1605877,0.032753,0.0791872,0.0339529,0.0677698,0.0509723,-0.0030133
 ,0.0394212,0.0927033,0.1452824,-0.0267712,0.0730018,-0.0511345,0.05519
 75,-0.0286651,0.0119047,-0.0151201,0.109892,0.1091029,-0.1380301,-0.04
 91891,-0.0489978,0.1480047,-0.013236,-0.0160891,0.008726,0.1805604,0.1
 39514,-0.0811871,-0.00295,-0.0246444,0.1284908,0.0005264,0.0319719,-0.
 0091278,0.042365,0.1409463,-0.0709219,-0.0515356,0.0074208,0.0810821,0
 .0453715,-0.0340355,0.0665377,0.0990343,0.1258898,-0.0714666,0.0257456
 ,-0.0087191,0.1331703,-0.0331396,-0.0270335,-0.0090389,0.0470489,0.133
 0611,-0.0546278,0.059171,0.0121901,0.0624072,-0.0345046,0.0065614,-0.0
 429442,0.1106395,0.1312775,-0.1016836,0.0867547,-0.0024116,0.1663065,-
 0.0009818,0.006007,0.0110173,0.1550525\Polar=54.8604224,0.1796055,54.8
 61612,-0.1850587,-0.2849807,54.7921231\PG=C01 [X(C4H9Br1)]\NImag=0\\0.
 47787150,0.01393113,0.62319163,-0.05844170,-0.01618322,0.55152780,-0.0
 7608169,-0.00039658,0.00250550,0.26800942,0.00023297,-0.10706673,-0.02
 627225,0.04896047,0.59092950,0.02074933,-0.02604881,-0.26100337,0.0001
 0061,0.00011060,0.59823855,0.02558732,-0.01531755,0.00154653,-0.084515
 02,-0.04698454,-0.01706003,0.49420581,-0.00972648,-0.00012229,-0.01258
 473,-0.02943261,-0.23828886,-0.05115866,0.06318361,0.54631331,0.005091
 24,-0.03498604,-0.01227872,-0.01258106,-0.04888942,-0.12134787,0.01279
 030,-0.03881799,0.61207189,0.01309655,0.00305202,-0.00799002,-0.083250
 90,-0.04339688,0.03284887,0.01418223,0.00299536,0.00036147,0.49226449,
 0.00198339,0.00803915,0.00578268,-0.02373454,-0.19356858,0.07611281,0.
 00366923,-0.03016605,0.01548476,0.05847885,0.56490888,-0.00621248,0.02
 384919,-0.02431865,0.01685567,0.07848937,-0.16940360,-0.00109503,-0.00
 262941,0.01280101,-0.03072248,0.04720402,0.59694923,-0.00267999,0.0001
 3901,-0.00110991,0.00271944,-0.00014170,-0.00026480,-0.00234290,0.0013
 3806,0.00043999,-0.00049752,-0.00139413,0.00122929,0.00672782,-0.00005
 077,0.00000568,-0.00006213,-0.00039444,-0.00067301,0.00024907,0.000945
 04,-0.00048947,-0.00016086,-0.00056266,0.00005441,0.00026043,0.0000733
 2,0.00096387,-0.00072695,0.00004400,-0.00026039,-0.00005927,0.00021853
 ,-0.00059601,0.00053109,-0.00033743,-0.00010231,0.00055298,0.00036091,
 -0.00006941,-0.00075565,-0.00000448,0.00106424,-0.27875179,0.01371497,
 -0.04186903,-0.01017963,-0.00103648,-0.00976560,-0.00151649,0.00218924
 ,0.00092027,0.00215374,-0.00273708,0.00087253,-0.00012311,-0.00000078,
 -0.00015080,0.30442251,0.01024953,-0.03044220,0.00265579,-0.00554869,-
 0.00273237,-0.00078167,0.00455780,-0.00217528,-0.00006441,-0.00071795,
 0.00003362,0.00116883,-0.00013406,0.00005924,-0.00005271,-0.01355577,0
 .03598797,-0.05824154,0.00338276,-0.04977543,-0.03270872,0.00317743,-0
 .00433470,0.00563971,-0.00174751,0.00066578,0.00376109,-0.00053879,-0.
 00333069,-0.00009903,-0.00001706,0.00003137,0.05538774,-0.00273250,0.0
 4948071,-0.06069228,0.07062087,0.02951007,-0.00238041,-0.00770193,-0.0
 0905681,0.00057575,0.00085643,-0.00091867,-0.00021438,-0.00018356,0.00
 113913,-0.00023737,-0.00010038,-0.00007162,-0.00678087,0.02649828,0.00
 907277,0.06394091,0.07214696,-0.29050136,-0.06122889,-0.00171724,-0.00
 296193,-0.00448938,0.00108874,0.00154010,0.00009657,-0.00012016,0.0010
 6386,0.00264769,0.00010462,0.00003090,0.00001775,-0.00147654,-0.001361
 35,-0.00037517,-0.07670229,0.30363446,0.02595602,-0.05951117,-0.068172
 73,0.01149421,-0.03308079,-0.00772493,-0.00337495,0.00148099,-0.005551
 15,-0.00228556,-0.00007513,0.00136951,0.00001514,0.00002564,0.00002335
 ,-0.00232664,0.00713782,0.00257842,-0.02281483,0.07040772,0.07181050,-
 0.09969619,-0.08877073,0.07746897,0.00016596,0.00507740,-0.00936798,-0
 .00186913,0.00121607,-0.00022611,0.00329817,-0.00148932,-0.00171019,-0
 .00027110,0.00005020,-0.00008779,-0.01002317,-0.01971567,0.01693267,0.
 00508381,0.00651360,-0.00774866,0.10299311,-0.09096116,-0.19663154,0.1
 0691708,0.00670627,0.00663523,-0.00041546,0.00194350,-0.00101320,-0.00
 099559,-0.00390833,0.00144869,-0.00063851,-0.00004882,-0.00005022,-0.0
 0003286,0.00218384,0.00117434,-0.00149300,-0.01266799,-0.01146645,0.01
 442230,0.09683623,0.19930336,0.07391642,0.10455049,-0.13376586,0.01500
 571,0.02458989,-0.01845762,-0.00079417,0.00125231,0.00066314,-0.000762
 58,-0.00289040,-0.00338148,0.00009967,-0.00005783,0.00004922,-0.003932
 71,-0.00569478,0.00482905,-0.00657883,-0.00620964,0.00620784,-0.075946
 85,-0.11522929,0.14468619,-0.00321805,0.00010105,-0.00232816,-0.003137
 70,0.00891691,0.00350518,-0.25904801,0.06803198,0.02901111,0.00176291,
 -0.00191047,0.00206749,-0.00006764,0.00015176,0.00004652,0.00130227,-0
 .00064883,-0.00104294,0.00048405,0.00029719,0.00034516,0.00026043,-0.0
 0002442,-0.00011285,0.28276311,-0.00426457,0.00146020,-0.00017864,0.03
 088296,-0.00950620,-0.00215051,0.08335719,-0.06529119,-0.01259659,-0.0
 0457001,-0.00262199,-0.00089341,0.00008090,0.00001963,-0.00003553,0.00
 045246,-0.00074821,-0.00132086,-0.00042146,-0.00037277,0.00065206,0.00
 029599,0.00012915,0.00031707,-0.08414960,0.06678721,-0.00542320,0.0012
 6309,-0.00126821,0.01225137,-0.00400005,-0.00460281,0.03573682,-0.0118
 8992,-0.03463033,-0.00030010,0.00073681,-0.00028421,0.00016078,-0.0000
 9585,0.00001550,0.00030259,-0.00137704,-0.00127921,-0.00014582,-0.0001
 2065,0.00037529,0.00047946,-0.00050717,0.00024457,-0.03476893,0.012483
 24,0.04034100,-0.00201995,0.00066247,-0.00077974,-0.00188038,0.0067695
 1,0.00101147,-0.09889562,-0.08561922,0.07501777,0.00404659,0.00038196,
 0.00084715,-0.00026479,0.00013253,-0.00000474,0.00017179,-0.00046456,-
 0.00035851,0.00025490,0.00028469,-0.00003711,0.00060307,-0.00055540,-0
 .00015582,-0.00950304,-0.01845776,0.01640007,0.10048636,0.00167835,0.0
 0030736,0.00148296,-0.01296458,-0.02167846,0.02062713,-0.08293583,-0.1
 5762980,0.11230885,-0.00132972,-0.00250239,-0.00376696,-0.00007213,0.0
 0006025,-0.00001907,0.00016726,0.00031353,0.00037264,0.00032976,0.0002
 9291,-0.00008191,-0.00018601,0.00021771,-0.00119190,0.00541626,0.00784
 458,-0.00728506,0.08634344,0.17155842,-0.00162968,-0.00055424,-0.00050
 659,-0.00863500,-0.00656675,0.01190251,0.07816926,0.11473517,-0.173568
 70,0.00325936,-0.00201428,-0.00017894,0.00005484,-0.00003081,-0.000067
 58,-0.00001954,-0.00041395,0.00014877,0.00025864,0.00027876,-0.0002317
 8,0.00026381,-0.00142362,-0.00038789,0.00003295,0.00244923,-0.00236127
 ,-0.08448238,-0.11998225,0.17493832,0.00087240,0.00009589,-0.00054553,
 -0.00239482,0.00697363,0.00432673,-0.09036760,-0.01263056,-0.10727189,
 0.00007714,-0.00067078,0.00014840,-0.00022002,0.00008033,0.00015320,0.
 00046506,0.00003416,0.00042972,0.00051618,0.00052164,-0.00011887,0.000
 14643,-0.00020996,-0.00037387,-0.01023726,-0.00231216,-0.02519573,0.00
 775787,0.00303222,0.01330262,0.09393231,0.00272422,-0.00601166,-0.0003
 8334,-0.01593881,0.00074820,-0.03128008,-0.00863884,-0.05046510,0.0021
 5087,0.00227252,0.00068541,-0.00045412,0.00003687,0.00000469,0.0000033
 6,-0.00019209,0.00026078,0.00076182,-0.00005076,0.00028646,-0.00172081
 ,0.00001635,-0.00023201,-0.00015793,0.00443129,0.00104279,0.01032648,0
 .01084790,0.00225117,0.01455648,0.00550249,0.05179827,-0.00041609,-0.0
 0142202,0.00170391,-0.00245545,-0.00473486,-0.01142070,-0.10820607,0.0
 0110016,-0.27853313,0.00112748,0.00263210,0.00145650,-0.00006497,0.000
 01500,0.00003218,-0.00046174,0.00004862,-0.00023926,-0.00061875,-0.000
 34893,-0.00006448,-0.00022556,0.00022467,0.00040159,0.00347349,0.00024
 748,0.00363063,-0.00748712,-0.00281248,-0.01018386,0.11465790,0.005829
 39,0.29365491,-0.00015679,0.00021444,0.00041556,-0.00141018,0.00769338
 ,-0.00283925,0.00335857,0.00020366,-0.00116711,-0.11078166,-0.11397112
 ,-0.04693854,-0.00035398,-0.00003878,0.00014672,-0.00016509,0.00010779
 ,-0.00010026,0.00001284,-0.00027366,0.00067307,-0.00014794,0.00025083,
 0.00004782,-0.00041116,-0.00077558,0.00010198,-0.00014753,0.00045480,-
 0.00000821,-0.00021162,0.00002834,0.00017808,0.11450907,0.00186963,0.0
 0200066,-0.00196175,-0.01116231,-0.02350832,-0.00816005,-0.00222612,-0
 .00045585,0.00420057,-0.11225560,-0.21393956,-0.08582819,0.00016336,0.
 00001934,-0.00005100,0.00034859,-0.00041373,0.00050283,-0.00021399,-0.
 00008652,0.00044244,0.00013412,-0.00003285,-0.00030581,0.00026813,0.00
 008478,-0.00003388,0.00047585,-0.00109141,-0.00017268,0.00017800,0.000
 43373,-0.00002700,0.11779416,0.23125756,-0.00130526,0.00120399,0.00012
 307,0.01439330,0.01641045,0.01225167,-0.00375840,0.00224438,-0.0015603
 1,-0.05057076,-0.08711375,-0.09921065,0.00008348,-0.00000978,-0.000008
 08,0.00051933,0.00020042,-0.00036933,0.00063465,-0.00035103,-0.0003707
 9,0.00011307,-0.00018315,0.00026876,0.00043039,0.00125500,-0.00008216,
 -0.00021918,0.00054757,0.00012970,0.00030814,-0.00019272,-0.00016943,0
 .05594211,0.08782901,0.09583429,0.00424391,0.00087668,-0.00025047,-0.0
 0252794,0.00541986,-0.00671022,-0.00024828,-0.00062228,0.00009856,-0.0
 7499439,0.01582063,0.08908087,-0.00038966,-0.00011060,0.00006324,-0.00
 039377,-0.00025492,0.00097423,-0.00029826,-0.00016356,-0.00000434,-0.0
 0022346,0.00013062,-0.00045568,-0.00027283,0.00016020,-0.00006161,-0.0
 0021310,0.00003628,-0.00025148,-0.00012405,-0.00068088,0.00008169,0.00
 711166,-0.00149103,-0.01511729,0.07569100,0.00264015,-0.00327159,0.001
 33892,-0.01140308,0.01019281,0.02603105,0.00182402,0.00020460,0.000619
 74,0.01949170,-0.07462583,-0.07301708,-0.00000422,0.00002393,-0.000012
 96,-0.00018620,-0.00025569,0.00110989,-0.00028476,-0.00004809,-0.00025
 942,0.00044328,-0.00005377,0.00077412,-0.00043820,-0.00047576,0.000252
 96,-0.00003191,0.00035838,-0.00006410,-0.00074649,-0.00021067,-0.00032
 080,0.01090412,-0.00265409,-0.01732107,-0.02457215,0.07311508,0.002882
 77,0.00321460,0.00037015,0.00507832,-0.00285195,-0.02033173,-0.0015167
 4,-0.00205028,0.00201061,0.08833160,-0.07108037,-0.27431203,-0.0001244
 5,-0.00001690,0.00002300,-0.00025905,-0.00004454,0.00024095,-0.0001575
 3,-0.00009025,0.00039903,-0.00051612,0.00009418,-0.00083203,-0.0003903
 0,0.00051215,-0.00019952,-0.00016637,-0.00020909,-0.00005731,0.0001249
 6,0.00047193,-0.00010974,0.00273360,0.00025897,-0.00475522,-0.09273502
 ,0.07072299,0.29279510,0.00162504,0.00107633,0.00186794,-0.00313617,0.
 00921740,-0.00747750,0.00089337,-0.00198327,-0.00156589,-0.26114296,0.
 06575695,-0.02556183,-0.00199918,-0.00017478,0.00036309,-0.00058145,-0
 .00040711,0.00035305,-0.00026488,-0.00050398,0.00022736,-0.00031999,0.
 00032479,0.00004375,-0.00067708,-0.00027858,0.00046234,-0.00039617,0.0
 0002989,-0.00031520,-0.00021203,-0.00035861,0.00041710,-0.01120619,0.0
 0611723,-0.00145356,-0.00736084,0.00236376,-0.00328566,0.28477852,-0.0
 0245333,-0.00095731,0.00067752,0.02614319,-0.00852129,0.00135396,-0.00
 446626,-0.00196091,0.00164952,0.08057083,-0.05880960,0.01360814,-0.000
 14107,-0.00002925,-0.00009852,0.00012859,0.00029934,-0.00108247,0.0000
 2177,-0.00005021,0.00016026,-0.00042152,0.00057156,0.00025369,-0.00044
 306,0.00164778,0.00024703,-0.00076949,-0.00030225,-0.00079695,0.000151
 58,-0.00059207,-0.00043133,-0.02259235,0.00838626,-0.00451933,0.005451
 12,-0.00229929,0.00106855,-0.08118000,0.06261723,0.00380111,0.00119736
 ,-0.00237497,-0.02124520,0.00339978,-0.00316940,0.00139166,0.00040292,
 -0.00063990,-0.03761135,0.01539862,-0.03808659,0.00033564,-0.00009444,
 -0.00013508,0.00078265,-0.00004990,0.00135355,-0.00025238,-0.00023454,
 -0.00064808,0.00057130,-0.00073958,-0.00052548,-0.00026911,-0.00074070
 ,0.00010074,0.00041451,0.00000956,0.00042461,0.00005423,0.00008867,-0.
 00015911,-0.00918557,0.00330654,-0.00208153,0.02528751,-0.00985423,0.0
 0475873,0.03592500,-0.01209007,0.04118251\\0.00000130,0.00000019,-0.00
 000030,-0.00000001,0.00000030,-0.00000023,0.00000131,0.00000020,-0.000
 00033,-0.00000264,0.00000061,-0.00000016,0.00000026,-0.00000465,0.0000
 0376,0.00000162,0.00000171,-0.00000159,0.00000020,-0.00000029,0.000000
 20,0.00000310,-0.00000058,0.00000010,0.00000161,0.00000170,-0.00000158
 ,0.00000310,-0.00000060,0.00000011,0.00000020,-0.00000027,0.00000019,-
 0.00000339,0.00000128,-0.00000064,-0.00000339,0.00000129,-0.00000063,-
 0.00000326,-0.00000089,0.00000109\\\@


 THE THINKER DIES, BUT HIS THOUGHTS ARE BEYOND THE 
 REACH OF DESTRUCTION.  MEN ARE MORTAL; BUT IDEAS 
 ARE IMMORTAL.
                              -- WALTER LIPPMANN
 Job cpu time:       0 days  4 hours  7 minutes  7.5 seconds.
 Elapsed time:       0 days  1 hours  4 minutes 39.4 seconds.
 File lengths (MBytes):  RWF=     51 Int=      0 D2E=      0 Chk=      3 Scr=      1
 Normal termination of Gaussian 16 at Tue Jul 11 00:26:24 2023.
real 3888.86
user 14659.36
sys 168.21
