 Entering Gaussian System, Link 0=g16
 Input=gaussian_test.inp
 Output=gaussian_test.log
 Initial command:
 /sw/restricted/lms/sw/Gaussian/g16_B01/g16/l1.exe "/scratch/user/peterchao1/peterchao1/6991747_1675632216000000139374378/Gau-39315.inp" -scrdir="/scratch/user/peterchao1/peterchao1/6991747_1675632216000000139374378/"
 Entering Link 1 = /sw/restricted/lms/sw/Gaussian/g16_B01/g16/l1.exe PID=     39317.
  
 Copyright (c) 1988-2017, Gaussian, Inc.  All Rights Reserved.
  
 This is part of the Gaussian(R) 16 program.  It is based on
 the Gaussian(R) 09 system (copyright 2009, Gaussian, Inc.),
 the Gaussian(R) 03 system (copyright 2003, Gaussian, Inc.),
 the Gaussian(R) 98 system (copyright 1998, Gaussian, Inc.),
 the Gaussian(R) 94 system (copyright 1995, Gaussian, Inc.),
 the Gaussian 92(TM) system (copyright 1992, Gaussian, Inc.),
 the Gaussian 90(TM) system (copyright 1990, Gaussian, Inc.),
 the Gaussian 88(TM) system (copyright 1988, Gaussian, Inc.),
 the Gaussian 86(TM) system (copyright 1986, Carnegie Mellon
 University), and the Gaussian 82(TM) system (copyright 1983,
 Carnegie Mellon University). Gaussian is a federally registered
 trademark of Gaussian, Inc.
  
 This software contains proprietary and confidential information,
 including trade secrets, belonging to Gaussian, Inc.
  
 This software is provided under written license and may be
 used, copied, transmitted, or stored only in accord with that
 written license.
  
 The following legend is applicable only to US Government
 contracts under FAR:
  
                    RESTRICTED RIGHTS LEGEND
  
 Use, reproduction and disclosure by the US Government is
 subject to restrictions as set forth in subparagraphs (a)
 and (c) of the Commercial Computer Software - Restricted
 Rights clause in FAR 52.227-19.
  
 Gaussian, Inc.
 340 Quinnipiac St., Bldg. 40, Wallingford CT 06492
  
  
 ---------------------------------------------------------------
 Warning -- This program may not be used in any manner that
 competes with the business of Gaussian, Inc. or will provide
 assistance to any competitor of Gaussian, Inc.  The licensee
 of this program is prohibited from giving any competitor of
 Gaussian, Inc. access to this program.  By using this program,
 the user acknowledges that Gaussian, Inc. is engaged in the
 business of creating and licensing software in the field of
 computational chemistry and represents and warrants to the
 licensee that it is not a competitor of Gaussian, Inc. and that
 it will not use this program in any manner prohibited above.
 ---------------------------------------------------------------
  

 Cite this work as:
 Gaussian 16, Revision B.01,
 M. J. Frisch, G. W. Trucks, H. B. Schlegel, G. E. Scuseria, 
 M. A. Robb, J. R. Cheeseman, G. Scalmani, V. Barone, 
 G. A. Petersson, H. Nakatsuji, X. Li, M. Caricato, A. V. Marenich, 
 J. Bloino, B. G. Janesko, R. Gomperts, B. Mennucci, H. P. Hratchian, 
 J. V. Ortiz, A. F. Izmaylov, J. L. Sonnenberg, D. Williams-Young, 
 F. Ding, F. Lipparini, F. Egidi, J. Goings, B. Peng, A. Petrone, 
 T. Henderson, D. Ranasinghe, V. G. Zakrzewski, J. Gao, N. Rega, 
 G. Zheng, W. Liang, M. Hada, M. Ehara, K. Toyota, R. Fukuda, 
 J. Hasegawa, M. Ishida, T. Nakajima, Y. Honda, O. Kitao, H. Nakai, 
 T. Vreven, K. Throssell, J. A. Montgomery, Jr., J. E. Peralta, 
 F. Ogliaro, M. J. Bearpark, J. J. Heyd, E. N. Brothers, K. N. Kudin, 
 V. N. Staroverov, T. A. Keith, R. Kobayashi, J. Normand, 
 K. Raghavachari, A. P. Rendell, J. C. Burant, S. S. Iyengar, 
 J. Tomasi, M. Cossi, J. M. Millam, M. Klene, C. Adamo, R. Cammi, 
 J. W. Ochterski, R. L. Martin, K. Morokuma, O. Farkas, 
 J. B. Foresman, and D. J. Fox, Gaussian, Inc., Wallingford CT, 2016.
 
 ******************************************
 Gaussian 16:  ES64L-G16RevB.01 20-Dec-2017
                 5-Feb-2023 
 ******************************************
 %nprocshared=4
 Will use up to    4 processors via shared memory.
 %mem=8000mb
 %chk=5.chk
 %nprocshared=4
 Will use up to    4 processors via shared memory.
 %mem=8000mb
 ----------------------------------------------------------------------
 #T wB97XD/def2svpp opt=tight freq int(grid=ultrafine) scf=(verytight,q
 c) Volume=tight
 ----------------------------------------------------------------------
 -----
 Dimer
 -----
 Symbolic Z-matrix:
 Charge =  0 Multiplicity = 1
 C                     1.86956   1.25103   0.7226 
 C                     2.0007   -0.00072  -0.1416 
 C                     3.33206   0.00521  -0.88827 
 C                     1.87636  -1.25793   0.71564 
 H                     0.916     1.26181   1.24655 
 H                     1.93363   2.14851   0.11091 
 H                     2.66599   1.28346   1.4634 
 H                     1.19124  -0.00096  -0.8814 
 H                     4.16087   0.00496  -0.18309 
 H                     3.4161    0.88963  -1.51604 
 H                     3.42052  -0.87463  -1.52183 
 H                     0.9228   -1.27698   1.23937 
 H                     2.67287  -1.28999   1.45635 
 H                     1.94558  -2.15159   0.09898 
 C                    -2.37271  -0.00542   1.33795 
 C                    -2.65095   0.00198  -0.16299 
 C                    -2.06799   1.25727  -0.80711 
 C                    -2.07532  -1.25125  -0.81764 
 H                    -2.79947   0.87542   1.81275 
 H                    -1.30029  -0.00818   1.52254 
 H                    -2.80259  -0.88906   1.80468 
 H                    -3.73674   0.00586  -0.3144 
 H                    -0.98893   1.28532  -0.67259 
 H                    -2.4925    2.15198  -0.35679 
 H                    -2.28191   1.27617  -1.87359 
 H                    -2.51125  -2.14703  -0.38066 
 H                    -0.99756  -1.29098  -0.67611 
 H                    -2.28207  -1.25577  -1.8856 
 
 Add virtual bond connecting atoms H20        and H5         Dist= 4.86D+00.
 Add virtual bond connecting atoms H20        and H12        Dist= 4.87D+00.
 Add virtual bond connecting atoms H23        and H8         Dist= 4.80D+00.
 Add virtual bond connecting atoms H27        and H8         Dist= 4.82D+00.

 GradGradGradGradGradGradGradGradGradGradGradGradGradGradGradGradGradGrad
 Initialization pass.
                           ----------------------------
                           !    Initial Parameters    !
                           ! (Angstroms and Degrees)  !
 --------------------------                            --------------------------
 ! Name  Definition              Value          Derivative Info.                !
 --------------------------------------------------------------------------------
 ! R1    R(1,2)                  1.5267         estimate D2E/DX2                !
 ! R2    R(1,5)                  1.0881         estimate D2E/DX2                !
 ! R3    R(1,6)                  1.088          estimate D2E/DX2                !
 ! R4    R(1,7)                  1.0882         estimate D2E/DX2                !
 ! R5    R(2,3)                  1.5265         estimate D2E/DX2                !
 ! R6    R(2,4)                  1.5267         estimate D2E/DX2                !
 ! R7    R(2,8)                  1.0966         estimate D2E/DX2                !
 ! R8    R(3,9)                  1.0882         estimate D2E/DX2                !
 ! R9    R(3,10)                 1.0878         estimate D2E/DX2                !
 ! R10   R(3,11)                 1.0878         estimate D2E/DX2                !
 ! R11   R(4,12)                 1.0881         estimate D2E/DX2                !
 ! R12   R(4,13)                 1.0882         estimate D2E/DX2                !
 ! R13   R(4,14)                 1.088          estimate D2E/DX2                !
 ! R14   R(5,20)                 2.5692         estimate D2E/DX2                !
 ! R15   R(8,23)                 2.5399         estimate D2E/DX2                !
 ! R16   R(8,27)                 2.549          estimate D2E/DX2                !
 ! R17   R(12,20)                2.5753         estimate D2E/DX2                !
 ! R18   R(15,16)                1.5265         estimate D2E/DX2                !
 ! R19   R(15,19)                1.0879         estimate D2E/DX2                !
 ! R20   R(15,20)                1.0882         estimate D2E/DX2                !
 ! R21   R(15,21)                1.0879         estimate D2E/DX2                !
 ! R22   R(16,17)                1.5266         estimate D2E/DX2                !
 ! R23   R(16,18)                1.5266         estimate D2E/DX2                !
 ! R24   R(16,22)                1.0963         estimate D2E/DX2                !
 ! R25   R(17,23)                1.0878         estimate D2E/DX2                !
 ! R26   R(17,24)                1.0879         estimate D2E/DX2                !
 ! R27   R(17,25)                1.0879         estimate D2E/DX2                !
 ! R28   R(18,26)                1.0878         estimate D2E/DX2                !
 ! R29   R(18,27)                1.0877         estimate D2E/DX2                !
 ! R30   R(18,28)                1.0878         estimate D2E/DX2                !
 ! A1    A(2,1,5)              110.8528         estimate D2E/DX2                !
 ! A2    A(2,1,6)              110.6716         estimate D2E/DX2                !
 ! A3    A(2,1,7)              110.2989         estimate D2E/DX2                !
 ! A4    A(5,1,6)              108.3106         estimate D2E/DX2                !
 ! A5    A(5,1,7)              108.2585         estimate D2E/DX2                !
 ! A6    A(6,1,7)              108.364          estimate D2E/DX2                !
 ! A7    A(1,2,3)              110.4028         estimate D2E/DX2                !
 ! A8    A(1,2,4)              110.507          estimate D2E/DX2                !
 ! A9    A(1,2,8)              108.5816         estimate D2E/DX2                !
 ! A10   A(3,2,4)              110.4189         estimate D2E/DX2                !
 ! A11   A(3,2,8)              108.2894         estimate D2E/DX2                !
 ! A12   A(4,2,8)              108.5719         estimate D2E/DX2                !
 ! A13   A(2,3,9)              110.3227         estimate D2E/DX2                !
 ! A14   A(2,3,10)             110.6595         estimate D2E/DX2                !
 ! A15   A(2,3,11)             110.6511         estimate D2E/DX2                !
 ! A16   A(9,3,10)             108.3795         estimate D2E/DX2                !
 ! A17   A(9,3,11)             108.3788         estimate D2E/DX2                !
 ! A18   A(10,3,11)            108.3725         estimate D2E/DX2                !
 ! A19   A(2,4,12)             110.8581         estimate D2E/DX2                !
 ! A20   A(2,4,13)             110.295          estimate D2E/DX2                !
 ! A21   A(2,4,14)             110.6687         estimate D2E/DX2                !
 ! A22   A(12,4,13)            108.2594         estimate D2E/DX2                !
 ! A23   A(12,4,14)            108.312          estimate D2E/DX2                !
 ! A24   A(13,4,14)            108.3631         estimate D2E/DX2                !
 ! A25   A(1,5,20)             143.3995         estimate D2E/DX2                !
 ! A26   A(2,8,23)             125.3116         estimate D2E/DX2                !
 ! A27   A(2,8,27)             125.4251         estimate D2E/DX2                !
 ! A28   A(23,8,27)             60.8302         estimate D2E/DX2                !
 ! A29   A(4,12,20)            143.2071         estimate D2E/DX2                !
 ! A30   A(16,15,19)           110.7145         estimate D2E/DX2                !
 ! A31   A(16,15,20)           110.2689         estimate D2E/DX2                !
 ! A32   A(16,15,21)           110.7175         estimate D2E/DX2                !
 ! A33   A(19,15,20)           108.3377         estimate D2E/DX2                !
 ! A34   A(19,15,21)           108.3861         estimate D2E/DX2                !
 ! A35   A(20,15,21)           108.3364         estimate D2E/DX2                !
 ! A36   A(15,16,17)           110.4412         estimate D2E/DX2                !
 ! A37   A(15,16,18)           110.4218         estimate D2E/DX2                !
 ! A38   A(15,16,22)           108.4415         estimate D2E/DX2                !
 ! A39   A(17,16,18)           110.4941         estimate D2E/DX2                !
 ! A40   A(17,16,22)           108.483          estimate D2E/DX2                !
 ! A41   A(18,16,22)           108.4894         estimate D2E/DX2                !
 ! A42   A(16,17,23)           110.3546         estimate D2E/DX2                !
 ! A43   A(16,17,24)           110.6464         estimate D2E/DX2                !
 ! A44   A(16,17,25)           110.6601         estimate D2E/DX2                !
 ! A45   A(23,17,24)           108.3428         estimate D2E/DX2                !
 ! A46   A(23,17,25)           108.4118         estimate D2E/DX2                !
 ! A47   A(24,17,25)           108.3474         estimate D2E/DX2                !
 ! A48   A(16,18,26)           110.6486         estimate D2E/DX2                !
 ! A49   A(16,18,27)           110.3524         estimate D2E/DX2                !
 ! A50   A(16,18,28)           110.6556         estimate D2E/DX2                !
 ! A51   A(26,18,27)           108.3433         estimate D2E/DX2                !
 ! A52   A(26,18,28)           108.3483         estimate D2E/DX2                !
 ! A53   A(27,18,28)           108.4151         estimate D2E/DX2                !
 ! A54   A(5,20,12)             59.1411         estimate D2E/DX2                !
 ! A55   A(5,20,15)            146.1655         estimate D2E/DX2                !
 ! A56   A(12,20,15)           146.4412         estimate D2E/DX2                !
 ! A57   A(8,23,17)            145.9204         estimate D2E/DX2                !
 ! A58   A(8,27,18)            145.2722         estimate D2E/DX2                !
 ! D1    D(5,1,2,3)            179.1259         estimate D2E/DX2                !
 ! D2    D(5,1,2,4)            -58.4258         estimate D2E/DX2                !
 ! D3    D(5,1,2,8)             60.5529         estimate D2E/DX2                !
 ! D4    D(6,1,2,3)             58.9244         estimate D2E/DX2                !
 ! D5    D(6,1,2,4)           -178.6273         estimate D2E/DX2                !
 ! D6    D(6,1,2,8)            -59.6487         estimate D2E/DX2                !
 ! D7    D(7,1,2,3)            -60.9823         estimate D2E/DX2                !
 ! D8    D(7,1,2,4)             61.466          estimate D2E/DX2                !
 ! D9    D(7,1,2,8)           -179.5553         estimate D2E/DX2                !
 ! D10   D(2,1,5,20)            -3.4855         estimate D2E/DX2                !
 ! D11   D(6,1,5,20)           118.1125         estimate D2E/DX2                !
 ! D12   D(7,1,5,20)          -124.589          estimate D2E/DX2                !
 ! D13   D(1,2,3,9)             61.2849         estimate D2E/DX2                !
 ! D14   D(1,2,3,10)           -58.6488         estimate D2E/DX2                !
 ! D15   D(1,2,3,11)          -178.7876         estimate D2E/DX2                !
 ! D16   D(4,2,3,9)            -61.215          estimate D2E/DX2                !
 ! D17   D(4,2,3,10)           178.8513         estimate D2E/DX2                !
 ! D18   D(4,2,3,11)            58.7124         estimate D2E/DX2                !
 ! D19   D(8,2,3,9)           -179.9639         estimate D2E/DX2                !
 ! D20   D(8,2,3,10)            60.1024         estimate D2E/DX2                !
 ! D21   D(8,2,3,11)           -60.0364         estimate D2E/DX2                !
 ! D22   D(1,2,4,12)            58.4389         estimate D2E/DX2                !
 ! D23   D(1,2,4,13)           -61.4549         estimate D2E/DX2                !
 ! D24   D(1,2,4,14)           178.6439         estimate D2E/DX2                !
 ! D25   D(3,2,4,12)          -179.1222         estimate D2E/DX2                !
 ! D26   D(3,2,4,13)            60.984          estimate D2E/DX2                !
 ! D27   D(3,2,4,14)           -58.9172         estimate D2E/DX2                !
 ! D28   D(8,2,4,12)           -60.5456         estimate D2E/DX2                !
 ! D29   D(8,2,4,13)           179.5606         estimate D2E/DX2                !
 ! D30   D(8,2,4,14)            59.6594         estimate D2E/DX2                !
 ! D31   D(1,2,8,23)           -21.4996         estimate D2E/DX2                !
 ! D32   D(1,2,8,27)           -98.2542         estimate D2E/DX2                !
 ! D33   D(3,2,8,23)          -141.3984         estimate D2E/DX2                !
 ! D34   D(3,2,8,27)           141.847          estimate D2E/DX2                !
 ! D35   D(4,2,8,23)            98.6889         estimate D2E/DX2                !
 ! D36   D(4,2,8,27)            21.9343         estimate D2E/DX2                !
 ! D37   D(2,4,12,20)            3.2115         estimate D2E/DX2                !
 ! D38   D(13,4,12,20)         124.3141         estimate D2E/DX2                !
 ! D39   D(14,4,12,20)        -118.3872         estimate D2E/DX2                !
 ! D40   D(1,5,20,12)           38.139          estimate D2E/DX2                !
 ! D41   D(1,5,20,15)         -110.2965         estimate D2E/DX2                !
 ! D42   D(2,8,23,17)         -137.4628         estimate D2E/DX2                !
 ! D43   D(27,8,23,17)         -22.7481         estimate D2E/DX2                !
 ! D44   D(2,8,27,18)          137.5932         estimate D2E/DX2                !
 ! D45   D(23,8,27,18)          23.0542         estimate D2E/DX2                !
 ! D46   D(4,12,20,5)          -37.9211         estimate D2E/DX2                !
 ! D47   D(4,12,20,15)         110.2591         estimate D2E/DX2                !
 ! D48   D(19,15,16,17)         58.6971         estimate D2E/DX2                !
 ! D49   D(19,15,16,18)       -178.7914         estimate D2E/DX2                !
 ! D50   D(19,15,16,22)        -60.0489         estimate D2E/DX2                !
 ! D51   D(20,15,16,17)        -61.1849         estimate D2E/DX2                !
 ! D52   D(20,15,16,18)         61.3266         estimate D2E/DX2                !
 ! D53   D(20,15,16,22)       -179.9309         estimate D2E/DX2                !
 ! D54   D(21,15,16,17)        178.9328         estimate D2E/DX2                !
 ! D55   D(21,15,16,18)        -58.5557         estimate D2E/DX2                !
 ! D56   D(21,15,16,22)         60.1868         estimate D2E/DX2                !
 ! D57   D(16,15,20,5)          62.8253         estimate D2E/DX2                !
 ! D58   D(16,15,20,12)        -62.7966         estimate D2E/DX2                !
 ! D59   D(19,15,20,5)         -58.4823         estimate D2E/DX2                !
 ! D60   D(19,15,20,12)        175.8958         estimate D2E/DX2                !
 ! D61   D(21,15,20,5)        -175.8641         estimate D2E/DX2                !
 ! D62   D(21,15,20,12)         58.514          estimate D2E/DX2                !
 ! D63   D(15,16,17,23)         61.1611         estimate D2E/DX2                !
 ! D64   D(15,16,17,24)        -58.7391         estimate D2E/DX2                !
 ! D65   D(15,16,17,25)       -178.8438         estimate D2E/DX2                !
 ! D66   D(18,16,17,23)        -61.3081         estimate D2E/DX2                !
 ! D67   D(18,16,17,24)        178.7918         estimate D2E/DX2                !
 ! D68   D(18,16,17,25)         58.687          estimate D2E/DX2                !
 ! D69   D(22,16,17,23)        179.8818         estimate D2E/DX2                !
 ! D70   D(22,16,17,24)         59.9817         estimate D2E/DX2                !
 ! D71   D(22,16,17,25)        -60.1231         estimate D2E/DX2                !
 ! D72   D(15,16,18,26)         59.2057         estimate D2E/DX2                !
 ! D73   D(15,16,18,27)        -60.695          estimate D2E/DX2                !
 ! D74   D(15,16,18,28)        179.3102         estimate D2E/DX2                !
 ! D75   D(17,16,18,26)       -178.3137         estimate D2E/DX2                !
 ! D76   D(17,16,18,27)         61.7855         estimate D2E/DX2                !
 ! D77   D(17,16,18,28)        -58.2093         estimate D2E/DX2                !
 ! D78   D(22,16,18,26)        -59.5075         estimate D2E/DX2                !
 ! D79   D(22,16,18,27)       -179.4082         estimate D2E/DX2                !
 ! D80   D(22,16,18,28)         60.5969         estimate D2E/DX2                !
 ! D81   D(16,17,23,8)          49.377          estimate D2E/DX2                !
 ! D82   D(24,17,23,8)         170.6568         estimate D2E/DX2                !
 ! D83   D(25,17,23,8)         -71.9634         estimate D2E/DX2                !
 ! D84   D(16,18,27,8)         -50.0472         estimate D2E/DX2                !
 ! D85   D(26,18,27,8)        -171.3286         estimate D2E/DX2                !
 ! D86   D(28,18,27,8)          71.2884         estimate D2E/DX2                !
 --------------------------------------------------------------------------------
 Number of steps in this run=    168 maximum allowed number of steps=    168.
 GradGradGradGradGradGradGradGradGradGradGradGradGradGradGradGradGradGrad

                    Distance matrix (angstroms):
                    1          2          3          4          5
     1  C    0.000000
     2  C    1.526734   0.000000
     3  C    2.507168   1.526457   0.000000
     4  C    2.508976   1.526730   2.507411   0.000000
     5  H    1.088073   2.167368   3.460320   2.748309   0.000000
     6  H    1.087997   2.165043   2.747305   3.460169   1.763938
     7  H    1.088173   2.160495   2.758244   2.764294   1.763500
     8  H    2.144864   1.096600   2.140842   2.144736   2.489681
     9  H    2.760990   2.160575   1.088204   2.760727   3.762005
    10  H    2.744796   2.164519   1.087824   3.458785   3.744444
    11  H    3.458524   2.164404   1.087813   2.745474   4.301264
    12  H    2.748498   2.167443   3.460550   1.088087   2.538806
    13  H    2.764142   2.160437   2.758499   1.088165   3.105200
    14  H    3.460135   2.164992   2.747504   1.087981   3.745430
    15  C    4.467014   4.616908   6.123776   4.473327   3.525606
    16  C    4.772781   4.651705   6.026818   4.780787   4.036971
    17  C    4.224262   4.310419   5.543903   4.919646   3.622398
    18  C    4.918931   4.316810   5.551893   4.238724   4.418640
    19  H    4.809299   5.256305   6.756365   5.255301   3.778179
    20  H    3.503346   3.696746   5.222148   3.507710   2.569238
    21  H    5.251659   5.258215   6.759121   4.818161   4.331943
    22  H    5.835784   5.740043   7.092056   5.845082   5.065762
    23  H    3.180989   3.297529   4.511778   4.074939   2.704145
    24  H    4.583055   4.986910   6.230301   5.644866   3.870532
    25  H    4.896488   4.792808   5.839772   5.515161   4.467902
    26  H    5.652915   5.002146   6.247723   4.609062   5.100392
    27  H    4.079045   3.307576   4.524463   3.193349   3.724926
    28  H    5.506609   4.791530   5.839791   4.904991   5.135773
                    6          7          8          9         10
     6  H    0.000000
     7  H    1.764613   0.000000
     8  H    2.481138   3.053311   0.000000
     9  H    3.105123   2.565182   3.050633   0.000000
    10  H    2.535631   3.097546   2.479093   1.764670   0.000000
    11  H    3.743797   3.760086   2.478536   1.764653   1.764275
    12  H    3.745553   3.105602   2.489571   3.761900   4.301514
    13  H    3.765628   2.573476   3.053178   2.564926   3.760085
    14  H    4.300132   3.765666   2.481006   3.104482   3.744294
    15  C    4.968869   5.202450   4.198488   6.708308   6.515879
    16  C    5.069617   5.705890   3.908784   6.811854   6.279153
    17  C    4.201197   5.250376   3.494465   6.384074   5.541929
    18  C    5.337818   5.840200   3.498248   6.393030   5.935221
    19  H    5.188380   5.491792   4.894107   7.292971   7.050838
    20  H    4.135483   4.171712   3.462180   5.721327   5.681838
    21  H    5.876014   5.894213   4.894333   7.296600   7.270698
    22  H    6.076585   6.766660   4.960494   7.898697   7.306709
    23  H    3.146477   4.233300   2.539930   5.329100   4.502466
    24  H    4.450778   5.538720   4.298876   6.993368   6.152147
    25  H    4.740257   5.968019   3.831228   6.781091   5.722287
    26  H    6.200822   6.478623   4.308682   7.013360   6.756017
    27  H    4.587087   4.962544   2.548950   5.341530   4.994089
    28  H    5.774705   6.492047   3.827113   6.782283   6.099865
                   11         12         13         14         15
    11  H    0.000000
    12  H    3.744961   0.000000
    13  H    3.098557   1.763515   0.000000
    14  H    2.536357   1.763953   1.764583   0.000000
    15  C    6.518852   3.533693   5.207882   4.978832   0.000000
    16  C    6.283131   4.046489   5.712663   5.082780   1.526523
    17  C    5.931244   4.422145   5.838456   5.343235   2.507692
    18  C    5.553564   3.636026   5.264772   4.221193   2.507404
    19  H    7.271204   4.337841   5.895973   5.883479   1.087861
    20  H    5.683744   2.575297   4.175331   4.142029   1.088201
    21  H    7.056421   3.787956   5.501159   5.200825   1.087869
    22  H    7.311602   5.076531   6.774792   6.092146   2.142645
    23  H    4.982953   3.725003   4.957149   4.584648   2.761001
    24  H    6.744000   5.096055   6.466505   6.198793   2.746063
    25  H    6.104709   5.145804   6.497965   5.788982   3.459003
    26  H    6.173099   3.895401   5.566340   4.482564   2.749412
    27  H    4.517529   2.712389   4.244930   3.162832   2.756832
    28  H    5.726877   4.476275   5.976716   4.755423   3.458730
                   16         17         18         19         20
    16  C    0.000000
    17  C    1.526596   0.000000
    18  C    1.526604   2.508562   0.000000
    19  H    2.165293   2.746733   3.459200   0.000000
    20  H    2.159952   2.760071   2.760856   1.764232   0.000000
    21  H    2.165337   3.459459   2.745298   1.764502   1.764225
    22  H    1.096296   2.143245   2.143335   2.481807   3.051362
    23  H    2.160780   1.087780   2.763238   3.102097   2.566837
    24  H    2.164519   1.087881   3.459538   2.535894   3.101536
    25  H    2.164697   1.087890   2.746925   3.744008   3.761227
    26  H    2.164520   3.459423   1.087835   3.745571   3.108577
    27  H    2.160730   2.767055   1.087741   3.759600   2.563449
    28  H    2.164578   2.743054   1.087798   4.299703   3.759753
                   21         22         23         24         25
    21  H    0.000000
    22  H    2.482745   0.000000
    23  H    3.762205   3.052173   0.000000
    24  H    3.743803   2.481073   1.763965   0.000000
    25  H    4.299889   2.482191   1.764739   1.764105   0.000000
    26  H    2.538322   2.478136   3.766120   4.299112   3.741620
    27  H    3.094190   3.052166   2.576313   3.767064   3.110271
    28  H    3.744808   2.485246   3.098499   3.740889   2.531966
                   26         27         28
    26  H    0.000000
    27  H    1.763901   0.000000
    28  H    1.764003   1.764667   0.000000
 Framework group  C1[X(C8H20)]
 Deg. of freedom    78
                         Standard orientation:                         
 ---------------------------------------------------------------------
 Center     Atomic      Atomic             Coordinates (Angstroms)
 Number     Number       Type             X           Y           Z
 ---------------------------------------------------------------------
      1          6           0       -1.860920   -1.251008    0.721537
      2          6           0       -1.993214    0.000749   -0.142476
      3          6           0       -3.325597   -0.005137   -0.887320
      4          6           0       -1.867670    1.257949    0.714607
      5          1           0       -0.906649   -1.261812    1.244175
      6          1           0       -1.925850   -2.148477    0.109922
      7          1           0       -2.656334   -1.283431    1.463417
      8          1           0       -1.184767    0.000984   -0.883384
      9          1           0       -4.153437   -0.004881   -0.181014
     10          1           0       -3.410510   -0.889552   -1.514984
     11          1           0       -3.414904    0.874708   -1.520750
     12          1           0       -0.913394    1.276975    1.237033
     13          1           0       -2.663163    1.290027    1.456405
     14          1           0       -1.937715    2.151623    0.098048
     15          6           0        2.382222    0.005341    1.331085
     16          6           0        2.658407   -0.002058   -0.170228
     17          6           0        2.074536   -1.257330   -0.813562
     18          6           0        2.081911    1.251199   -0.824077
     19          1           0        2.809606   -0.875515    1.805299
     20          1           0        1.310048    0.008119    1.517143
     21          1           0        2.812760    0.888966    1.797241
     22          1           0        3.743981   -0.005962   -0.323125
     23          1           0        0.995654   -1.285347   -0.677567
     24          1           0        2.499640   -2.152047   -0.363835
     25          1           0        2.286996   -1.276221   -1.880337
     26          1           0        2.518451    2.146958   -0.387689
     27          1           0        1.004344    1.290949   -0.681075
     28          1           0        2.287191    1.255716   -1.892320
 ---------------------------------------------------------------------
 Rotational constants (GHZ):           2.5211318           0.6893509           0.6706396
   152 basis functions,   280 primitive gaussians,   160 cartesian basis functions
    34 alpha electrons       34 beta electrons
       nuclear repulsion energy       397.2174879028 Hartrees.
 NAtoms=   28 NActive=   28 NUniq=   28 SFac= 1.00D+00 NAtFMM=   60 NAOKFM=F Big=F
 Nuclear repulsion after empirical dispersion term =      397.1992760438 Hartrees.
   1 Symmetry operations used in ECPInt.
 ECPInt:  NShTT=    3916 NPrTT=   15740 LenC2=    3872 LenP2D=   11878.
 LDataN:  DoStor=T MaxTD1= 4 Len=   56
 ExpMin= 1.22D-01 ExpMax= 1.24D+03 ExpMxC= 1.86D+02 IAcc=3 IRadAn=         5 AccDes= 0.00D+00
 Harris functional with IExCor= 4639 and IRadAn=       5 diagonalized for initial guess.
 HarFok:  IExCor= 4639 AccDes= 0.00D+00 IRadAn=         5 IDoV= 1 UseB2=F ITyADJ=14
 ICtDFT=  3500011 ScaDFX=  1.000000  1.000000  1.000000  1.000000
 FoFCou: FMM=F IPFlag=           0 FMFlag=      100000 FMFlg1=           0
         NFxFlg=           0 DoJE=T BraDBF=F KetDBF=T FulRan=T
         wScrn=  0.000000 ICntrl=       500 IOpCl=  0 I1Cent=   200000004 NGrid=           0
         NMat0=    1 NMatS0=      1 NMatT0=    0 NMatD0=    1 NMtDS0=    0 NMtDT0=    0
 Petite list used in FoFCou.
     Accept linear search using points  2 and  3.
     Accept linear search using points  1 and  2.
     Accept linear search using points  1 and  2.
     Minimum is close to point  2 DX= -1.29D-04 DF= -1.71D-13 DXR=  1.29D-04 DFR=  1.59D-08 which will be used.
 SCF Done:  E(RwB97XD) =  -316.550559296     a.u. after    7 cycles
            Convg  =    0.2388D-09                    28 Fock formations.
              S**2 =  0.0000                  -V/T =  2.0108

 **********************************************************************

            Population analysis using the SCF Density.

 **********************************************************************

 Orbital symmetries:
       Occupied  (A) (A) (A) (A) (A) (A) (A) (A) (A) (A) (A) (A)
                 (A) (A) (A) (A) (A) (A) (A) (A) (A) (A) (A) (A)
                 (A) (A) (A) (A) (A) (A) (A) (A) (A) (A)
       Virtual   (A) (A) (A) (A) (A) (A) (A) (A) (A) (A) (A) (A)
                 (A) (A) (A) (A) (A) (A) (A) (A) (A) (A) (A) (A)
                 (A) (A) (A) (A) (A) (A) (A) (A) (A) (A) (A) (A)
                 (A) (A) (A) (A) (A) (A) (A) (A) (A) (A) (A) (A)
                 (A) (A) (A) (A) (A) (A) (A) (A) (A) (A) (A) (A)
                 (A) (A) (A) (A) (A) (A) (A) (A) (A) (A) (A) (A)
                 (A) (A) (A) (A) (A) (A) (A) (A) (A) (A) (A) (A)
                 (A) (A) (A) (A) (A) (A) (A) (A) (A) (A) (A) (A)
                 (A) (A) (A) (A) (A) (A) (A) (A) (A) (A) (A) (A)
                 (A) (A) (A) (A) (A) (A) (A) (A) (A) (A)
 The electronic state is 1-A.
 Alpha  occ. eigenvalues --  -10.29199 -10.29101 -10.27215 -10.27213 -10.27212
 Alpha  occ. eigenvalues --  -10.27170 -10.27134 -10.27133  -0.89824  -0.89643
 Alpha  occ. eigenvalues --   -0.77309  -0.77219  -0.77173  -0.77083  -0.64770
 Alpha  occ. eigenvalues --   -0.64560  -0.55793  -0.55009  -0.51963  -0.51958
 Alpha  occ. eigenvalues --   -0.51854  -0.51839  -0.47471  -0.47017  -0.46843
 Alpha  occ. eigenvalues --   -0.46377  -0.44638  -0.44598  -0.41012  -0.40709
 Alpha  occ. eigenvalues --   -0.40653  -0.40618  -0.40478  -0.39929
 Alpha virt. eigenvalues --    0.11803   0.14687   0.17065   0.17304   0.17346
 Alpha virt. eigenvalues --    0.19243   0.20097   0.20484   0.20753   0.21284
 Alpha virt. eigenvalues --    0.22307   0.22409   0.23180   0.24892   0.25325
 Alpha virt. eigenvalues --    0.26439   0.27453   0.27556   0.27964   0.29001
 Alpha virt. eigenvalues --    0.29356   0.31457   0.31930   0.33594   0.33835
 Alpha virt. eigenvalues --    0.36624   0.47535   0.48722   0.50557   0.50959
 Alpha virt. eigenvalues --    0.51686   0.52085   0.52816   0.54165   0.57863
 Alpha virt. eigenvalues --    0.59422   0.67813   0.68238   0.69470   0.70288
 Alpha virt. eigenvalues --    0.71382   0.71922   0.72537   0.72598   0.76561
 Alpha virt. eigenvalues --    0.76968   0.77073   0.77443   0.77652   0.77825
 Alpha virt. eigenvalues --    0.78538   0.79623   0.80882   0.80940   0.81283
 Alpha virt. eigenvalues --    0.81743   0.81899   0.83189   0.83346   0.84367
 Alpha virt. eigenvalues --    0.85506   0.86055   0.86401   0.87474   0.88450
 Alpha virt. eigenvalues --    0.88904   0.89155   0.90242   0.91377   0.98834
 Alpha virt. eigenvalues --    0.99023   1.05780   1.16632   1.17986   1.18880
 Alpha virt. eigenvalues --    1.19159   1.20988   1.22220   1.49780   1.49860
 Alpha virt. eigenvalues --    1.50025   1.50259   1.80895   1.80982   1.84903
 Alpha virt. eigenvalues --    1.85049   1.85074   1.86830   2.01005   2.01691
 Alpha virt. eigenvalues --    2.01738   2.02267   2.02754   2.03294   2.12752
 Alpha virt. eigenvalues --    2.12822   2.13462   2.13994   2.18685   2.19534
 Alpha virt. eigenvalues --    2.24594   2.24835   2.25855   2.26033   2.26553
 Alpha virt. eigenvalues --    2.27385   2.27398   2.28004   2.52786   2.53543
 Alpha virt. eigenvalues --    2.55282   2.55314   2.55386   2.55683   2.76187
 Alpha virt. eigenvalues --    2.76263   2.76722   2.76910
          Condensed to atoms (all electrons):
 Mulliken charges:
               1
     1  C   -0.298617
     2  C   -0.251505
     3  C   -0.280424
     4  C   -0.298600
     5  H    0.125936
     6  H    0.113653
     7  H    0.106255
     8  H    0.111022
     9  H    0.104221
    10  H    0.112483
    11  H    0.112469
    12  H    0.125923
    13  H    0.106210
    14  H    0.113611
    15  C   -0.307589
    16  C   -0.221027
    17  C   -0.300684
    18  C   -0.300442
    19  H    0.112846
    20  H    0.123056
    21  H    0.112839
    22  H    0.093431
    23  H    0.118048
    24  H    0.112212
    25  H    0.112273
    26  H    0.112248
    27  H    0.117938
    28  H    0.112216
 Sum of Mulliken charges =   0.00000
 Mulliken charges with hydrogens summed into heavy atoms:
               1
     1  C    0.047227
     2  C   -0.140484
     3  C    0.048749
     4  C    0.047144
    15  C    0.041151
    16  C   -0.127595
    17  C    0.041848
    18  C    0.041960
 Electronic spatial extent (au):  <R**2>=           1963.0348
 Charge=              0.0000 electrons
 Dipole moment (field-independent basis, Debye):
    X=              0.1153    Y=             -0.0001    Z=             -0.0617  Tot=              0.1307
 Evaluate density.
 Using the total density.
 Monte-Carlo method of calculating molar volume:
 based on  0.001 e/bohr**3 density envelope.
 Number of points per bohr**3 =  100 CutOff= 1.00D-04
 Using the SCF density.
 There are      1952 points.  Will hold      1952 in memory.
 LenV=  1048231364 MDV=  1048576000.
 Box volume = 7448.718 fraction occupied=0.212
 Integrated density= 5.2595800976065775D+01 error=-1.5404199023934225D+01
 Molar volume = 1575.984 bohr**3/mol (140.639 cm**3/mol)
 Recommended a0 for SCRF calculation =  4.70 angstrom (  8.89 bohr)
   1 Symmetry operations used in ECPInt.
 ECPInt:  NShTT=    3916 NPrTT=   15740 LenC2=    3872 LenP2D=   11878.
 LDataN:  DoStor=T MaxTD1= 5 Len=  102
 Calling FoFJK, ICntrl=      2127 FMM=F ISym2X=0 I1Cent= 0 IOpClX= 0 NMat=1 NMatS=1 NMatT=0.

 GradGradGradGradGradGradGradGradGradGradGradGradGradGradGradGradGradGrad
 FormGI is forming the generalized inverse of G from B-inverse, IUseBI=4.
 Internal  Forces:  Max     0.011975650 RMS     0.003803335
 Step number   1 out of a maximum of  168
 All quantities printed in internal units (Hartrees-Bohrs-Radians)
 Mixed Optimization -- RFO/linear search
 Second derivative matrix not updated -- first step.
 ITU=  0
     Eigenvalues ---    0.00299   0.00362   0.00376   0.00416   0.00461
     Eigenvalues ---    0.00651   0.00739   0.01221   0.01278   0.01644
     Eigenvalues ---    0.01728   0.02045   0.02608   0.03386   0.03450
     Eigenvalues ---    0.03557   0.03719   0.04114   0.04259   0.04530
     Eigenvalues ---    0.04591   0.04883   0.04979   0.05621   0.05631
     Eigenvalues ---    0.05659   0.05761   0.05816   0.06100   0.06203
     Eigenvalues ---    0.06800   0.07645   0.08060   0.08998   0.09406
     Eigenvalues ---    0.10064   0.11128   0.11212   0.11224   0.11248
     Eigenvalues ---    0.11364   0.11559   0.11895   0.12466   0.12744
     Eigenvalues ---    0.14593   0.15188   0.15303   0.15823   0.16000
     Eigenvalues ---    0.16000   0.16000   0.26195   0.27466   0.28343
     Eigenvalues ---    0.28346   0.29173   0.29753   0.29816   0.30631
     Eigenvalues ---    0.31988   0.33919   0.34095   0.34944   0.35021
     Eigenvalues ---    0.35025   0.35026   0.35045   0.35047   0.35057
     Eigenvalues ---    0.35058   0.35059   0.35060   0.35061   0.35064
     Eigenvalues ---    0.35065   0.35067   0.35068
 Linear search not attempted -- first point.
 Iteration  1 RMS(Cart)=  0.01858040 RMS(Int)=  0.00012296
 Iteration  2 RMS(Cart)=  0.00008902 RMS(Int)=  0.00005603
 Iteration  3 RMS(Cart)=  0.00000001 RMS(Int)=  0.00005603
 Variable       Old X    -DE/DX   Delta X   Delta X   Delta X     New X
                                 (Linear)    (Quad)   (Total)
    R1        2.88511   0.00360   0.00000   0.01238   0.01238   2.89749
    R2        2.05616   0.01063   0.00000   0.03042   0.03043   2.08659
    R3        2.05602   0.01102   0.00000   0.03075   0.03075   2.08677
    R4        2.05635   0.01160   0.00000   0.03240   0.03240   2.08875
    R5        2.88459   0.00444   0.00000   0.01453   0.01453   2.89912
    R6        2.88510   0.00360   0.00000   0.01238   0.01238   2.89748
    R7        2.07227   0.00616   0.00000   0.01741   0.01739   2.08966
    R8        2.05641   0.01154   0.00000   0.03223   0.03223   2.08864
    R9        2.05569   0.01115   0.00000   0.03112   0.03112   2.08681
   R10        2.05567   0.01117   0.00000   0.03116   0.03116   2.08683
   R11        2.05619   0.01064   0.00000   0.03040   0.03041   2.08660
   R12        2.05633   0.01160   0.00000   0.03241   0.03241   2.08875
   R13        2.05599   0.01103   0.00000   0.03079   0.03079   2.08678
   R14        4.85516  -0.00031   0.00000  -0.00756  -0.00755   4.84760
   R15        4.79977   0.00037   0.00000  -0.00021  -0.00023   4.79954
   R16        4.81682   0.00038   0.00000   0.00015   0.00013   4.81695
   R17        4.86661  -0.00029   0.00000  -0.00723  -0.00722   4.85939
   R18        2.88471   0.00413   0.00000   0.01279   0.01280   2.89751
   R19        2.05576   0.01112   0.00000   0.03102   0.03102   2.08678
   R20        2.05640   0.01063   0.00000   0.03067   0.03070   2.08710
   R21        2.05577   0.01111   0.00000   0.03101   0.03101   2.08678
   R22        2.88485   0.00378   0.00000   0.01293   0.01294   2.89779
   R23        2.88486   0.00378   0.00000   0.01296   0.01297   2.89784
   R24        2.07170   0.00625   0.00000   0.01791   0.01791   2.08961
   R25        2.05561   0.01195   0.00000   0.03285   0.03283   2.08844
   R26        2.05580   0.01113   0.00000   0.03105   0.03105   2.08685
   R27        2.05581   0.01111   0.00000   0.03100   0.03100   2.08682
   R28        2.05571   0.01116   0.00000   0.03113   0.03113   2.08684
   R29        2.05553   0.01198   0.00000   0.03295   0.03293   2.08847
   R30        2.05564   0.01118   0.00000   0.03119   0.03119   2.08683
    A1        1.93475   0.00033   0.00000   0.00676   0.00674   1.94149
    A2        1.93158   0.00137   0.00000   0.01163   0.01162   1.94320
    A3        1.92508   0.00055   0.00000   0.00276   0.00278   1.92785
    A4        1.89038  -0.00088   0.00000  -0.00714  -0.00720   1.88317
    A5        1.88947  -0.00070   0.00000  -0.00784  -0.00785   1.88161
    A6        1.89131  -0.00076   0.00000  -0.00706  -0.00712   1.88419
    A7        1.92689   0.00079   0.00000   0.01418   0.01393   1.94083
    A8        1.92871   0.00016   0.00000   0.00847   0.00816   1.93687
    A9        1.89511  -0.00053   0.00000  -0.01302  -0.01294   1.88216
   A10        1.92717   0.00077   0.00000   0.01390   0.01365   1.94083
   A11        1.89001  -0.00073   0.00000  -0.01208  -0.01195   1.87806
   A12        1.89494  -0.00052   0.00000  -0.01285  -0.01278   1.88216
   A13        1.92549   0.00062   0.00000   0.00290   0.00288   1.92838
   A14        1.93137   0.00176   0.00000   0.01087   0.01082   1.94219
   A15        1.93123   0.00179   0.00000   0.01107   0.01102   1.94225
   A16        1.89158  -0.00133   0.00000  -0.00871  -0.00872   1.88286
   A17        1.89157  -0.00134   0.00000  -0.00871  -0.00872   1.88284
   A18        1.89146  -0.00166   0.00000  -0.00839  -0.00847   1.88299
   A19        1.93484   0.00031   0.00000   0.00667   0.00665   1.94149
   A20        1.92501   0.00057   0.00000   0.00285   0.00287   1.92788
   A21        1.93153   0.00137   0.00000   0.01168   0.01167   1.94320
   A22        1.88948  -0.00070   0.00000  -0.00789  -0.00791   1.88157
   A23        1.89040  -0.00088   0.00000  -0.00712  -0.00718   1.88322
   A24        1.89129  -0.00076   0.00000  -0.00708  -0.00713   1.88416
   A25        2.50279  -0.00065   0.00000  -0.00011  -0.00011   2.50268
   A26        2.18710  -0.00029   0.00000   0.00014   0.00013   2.18723
   A27        2.18908  -0.00028   0.00000   0.00019   0.00018   2.18926
   A28        1.06169   0.00112   0.00000   0.00803   0.00802   1.06971
   A29        2.49943  -0.00064   0.00000  -0.00010  -0.00010   2.49934
   A30        1.93233   0.00118   0.00000   0.01301   0.01293   1.94526
   A31        1.92455  -0.00044   0.00000  -0.00973  -0.00962   1.91493
   A32        1.93238   0.00117   0.00000   0.01291   0.01283   1.94522
   A33        1.89085  -0.00063   0.00000  -0.00559  -0.00557   1.88528
   A34        1.89170  -0.00073   0.00000  -0.00574  -0.00588   1.88581
   A35        1.89083  -0.00063   0.00000  -0.00556  -0.00554   1.88529
   A36        1.92756   0.00090   0.00000   0.00880   0.00868   1.93625
   A37        1.92722   0.00093   0.00000   0.00896   0.00884   1.93607
   A38        1.89266  -0.00100   0.00000  -0.00886  -0.00881   1.88385
   A39        1.92849  -0.00050   0.00000   0.00612   0.00602   1.93451
   A40        1.89339  -0.00019   0.00000  -0.00794  -0.00791   1.88547
   A41        1.89350  -0.00020   0.00000  -0.00802  -0.00799   1.88551
   A42        1.92605  -0.00029   0.00000  -0.00491  -0.00487   1.92118
   A43        1.93114   0.00140   0.00000   0.01339   0.01333   1.94448
   A44        1.93138   0.00148   0.00000   0.01165   0.01160   1.94299
   A45        1.89094  -0.00056   0.00000  -0.00610  -0.00609   1.88484
   A46        1.89214  -0.00111   0.00000  -0.00826  -0.00825   1.88390
   A47        1.89102  -0.00103   0.00000  -0.00657  -0.00671   1.88431
   A48        1.93118   0.00140   0.00000   0.01330   0.01325   1.94443
   A49        1.92601  -0.00031   0.00000  -0.00501  -0.00497   1.92104
   A50        1.93130   0.00150   0.00000   0.01185   0.01181   1.94311
   A51        1.89095  -0.00055   0.00000  -0.00627  -0.00626   1.88469
   A52        1.89104  -0.00104   0.00000  -0.00658  -0.00673   1.88431
   A53        1.89220  -0.00111   0.00000  -0.00810  -0.00809   1.88411
   A54        1.03221   0.00146   0.00000   0.00773   0.00764   1.03984
   A55        2.55107  -0.00085   0.00000  -0.00732  -0.00732   2.54375
   A56        2.55588  -0.00084   0.00000  -0.00731  -0.00731   2.54857
   A57        2.54679  -0.00028   0.00000  -0.00341  -0.00341   2.54338
   A58        2.53548  -0.00027   0.00000  -0.00302  -0.00302   2.53246
    D1        3.12634  -0.00058   0.00000  -0.00921  -0.00923   3.11711
    D2       -1.01972   0.00104   0.00000   0.02376   0.02381  -0.99591
    D3        1.05685   0.00017   0.00000   0.00509   0.00511   1.06196
    D4        1.02842  -0.00059   0.00000  -0.01237  -0.01242   1.01600
    D5       -3.11764   0.00103   0.00000   0.02059   0.02062  -3.09702
    D6       -1.04107   0.00016   0.00000   0.00193   0.00192  -1.03915
    D7       -1.06434  -0.00089   0.00000  -0.01283  -0.01287  -1.07722
    D8        1.07278   0.00073   0.00000   0.02013   0.02017   1.09295
    D9       -3.13383  -0.00014   0.00000   0.00147   0.00147  -3.13236
   D10       -0.06083  -0.00017   0.00000  -0.00720  -0.00719  -0.06802
   D11        2.06145   0.00115   0.00000   0.00677   0.00671   2.06816
   D12       -2.17449  -0.00060   0.00000  -0.00973  -0.00967  -2.18416
   D13        1.06962   0.00063   0.00000   0.01469   0.01476   1.08439
   D14       -1.02361   0.00075   0.00000   0.01667   0.01676  -1.00685
   D15       -3.12043   0.00051   0.00000   0.01283   0.01288  -3.10755
   D16       -1.06840  -0.00064   0.00000  -0.01507  -0.01514  -1.08354
   D17        3.12154  -0.00051   0.00000  -0.01308  -0.01314   3.10841
   D18        1.02473  -0.00076   0.00000  -0.01693  -0.01702   1.00771
   D19       -3.14096  -0.00000   0.00000  -0.00021  -0.00021  -3.14117
   D20        1.04899   0.00012   0.00000   0.00178   0.00180   1.05078
   D21       -1.04783  -0.00012   0.00000  -0.00207  -0.00209  -1.04992
   D22        1.01995  -0.00104   0.00000  -0.02382  -0.02388   0.99607
   D23       -1.07259  -0.00073   0.00000  -0.02013  -0.02016  -1.09275
   D24        3.11792  -0.00103   0.00000  -0.02066  -0.02068   3.09724
   D25       -3.12627   0.00060   0.00000   0.00931   0.00933  -3.11694
   D26        1.06437   0.00090   0.00000   0.01301   0.01305   1.07742
   D27       -1.02830   0.00060   0.00000   0.01248   0.01252  -1.01577
   D28       -1.05672  -0.00016   0.00000  -0.00506  -0.00508  -1.06180
   D29        3.13392   0.00014   0.00000  -0.00136  -0.00136   3.13256
   D30        1.04125  -0.00016   0.00000  -0.00189  -0.00188   1.03937
   D31       -0.37524   0.00081   0.00000   0.00785   0.00785  -0.36739
   D32       -1.71486  -0.00039   0.00000  -0.00317  -0.00316  -1.71801
   D33       -2.46787   0.00058   0.00000   0.00528   0.00527  -2.46260
   D34        2.47570  -0.00061   0.00000  -0.00574  -0.00573   2.46997
   D35        1.72245   0.00039   0.00000   0.00295   0.00294   1.72539
   D36        0.38283  -0.00081   0.00000  -0.00806  -0.00806   0.37476
   D37        0.05605   0.00017   0.00000   0.00725   0.00723   0.06328
   D38        2.16969   0.00061   0.00000   0.00979   0.00973   2.17942
   D39       -2.06625  -0.00115   0.00000  -0.00674  -0.00668  -2.07293
   D40        0.66565   0.00002   0.00000  -0.00360  -0.00360   0.66205
   D41       -1.92504   0.00022   0.00000   0.00745   0.00746  -1.91758
   D42       -2.39918  -0.00024   0.00000  -0.00013  -0.00012  -2.39929
   D43       -0.39703   0.00008   0.00000   0.00426   0.00428  -0.39275
   D44        2.40145   0.00023   0.00000  -0.00039  -0.00041   2.40104
   D45        0.40237  -0.00008   0.00000  -0.00475  -0.00477   0.39760
   D46       -0.66185  -0.00002   0.00000   0.00354   0.00355  -0.65830
   D47        1.92438  -0.00023   0.00000  -0.00756  -0.00756   1.91682
   D48        1.02446  -0.00062   0.00000  -0.01481  -0.01490   1.00956
   D49       -3.12050  -0.00001   0.00000   0.00499   0.00499  -3.11551
   D50       -1.04805  -0.00032   0.00000  -0.00491  -0.00495  -1.05300
   D51       -1.06788  -0.00031   0.00000  -0.00990  -0.00994  -1.07782
   D52        1.07035   0.00030   0.00000   0.00991   0.00995   1.08030
   D53       -3.14039  -0.00000   0.00000   0.00000   0.00000  -3.14038
   D54        3.12297   0.00001   0.00000  -0.00496  -0.00496   3.11801
   D55       -1.02199   0.00062   0.00000   0.01485   0.01493  -1.00706
   D56        1.05046   0.00031   0.00000   0.00494   0.00499   1.05544
   D57        1.09651   0.00005   0.00000  -0.00797  -0.00795   1.08856
   D58       -1.09601  -0.00005   0.00000   0.00820   0.00819  -1.08782
   D59       -1.02071  -0.00073   0.00000  -0.01446  -0.01446  -1.03517
   D60        3.06996  -0.00082   0.00000   0.00171   0.00169   3.07165
   D61       -3.06941   0.00082   0.00000  -0.00158  -0.00156  -3.07096
   D62        1.02126   0.00073   0.00000   0.01459   0.01459   1.03585
   D63        1.06746   0.00117   0.00000   0.01580   0.01581   1.08327
   D64       -1.02519   0.00115   0.00000   0.01796   0.01802  -1.00717
   D65       -3.12141   0.00056   0.00000   0.00981   0.00980  -3.11162
   D66       -1.07003  -0.00028   0.00000  -0.00569  -0.00571  -1.07574
   D67        3.12051  -0.00030   0.00000  -0.00353  -0.00350   3.11700
   D68        1.02428  -0.00089   0.00000  -0.01167  -0.01173   1.01256
   D69        3.13953   0.00038   0.00000   0.00533   0.00532  -3.13833
   D70        1.04688   0.00035   0.00000   0.00750   0.00753   1.05441
   D71       -1.04935  -0.00024   0.00000  -0.00065  -0.00069  -1.05004
   D72        1.03334  -0.00117   0.00000  -0.01882  -0.01887   1.01446
   D73       -1.05933  -0.00118   0.00000  -0.01632  -0.01633  -1.07566
   D74        3.12955  -0.00057   0.00000  -0.01061  -0.01059   3.11896
   D75       -3.11216   0.00027   0.00000   0.00258   0.00256  -3.10961
   D76        1.07836   0.00026   0.00000   0.00507   0.00509   1.08346
   D77       -1.01594   0.00086   0.00000   0.01079   0.01084  -1.00510
   D78       -1.03860  -0.00038   0.00000  -0.00840  -0.00843  -1.04704
   D79       -3.13126  -0.00039   0.00000  -0.00590  -0.00590  -3.13716
   D80        1.05762   0.00022   0.00000  -0.00019  -0.00015   1.05747
   D81        0.86179   0.00009   0.00000  -0.00501  -0.00499   0.85680
   D82        2.97852   0.00129   0.00000   0.00457   0.00455   2.98308
   D83       -1.25600  -0.00084   0.00000  -0.01107  -0.01104  -1.26704
   D84       -0.87349  -0.00011   0.00000   0.00601   0.00598  -0.86750
   D85       -2.99025  -0.00129   0.00000  -0.00330  -0.00329  -2.99353
   D86        1.24422   0.00085   0.00000   0.01236   0.01233   1.25655
         Item               Value     Threshold  Converged?
 Maximum Force            0.011976     0.000015     NO 
 RMS     Force            0.003803     0.000010     NO 
 Maximum Displacement     0.069903     0.000060     NO 
 RMS     Displacement     0.018565     0.000040     NO 
 GradGradGradGradGradGradGradGradGradGradGradGradGradGradGradGradGradGrad

                    Distance matrix (angstroms):
                    1          2          3          4          5
     1  C    0.000000
     2  C    1.533287   0.000000
     3  C    2.531000   1.534149   0.000000
     4  C    2.526849   1.533280   2.530995   0.000000
     5  H    1.104173   2.190158   3.498405   2.769026   0.000000
     6  H    1.104271   2.191465   2.784492   3.495688   1.785511
     7  H    1.105317   2.181147   2.799556   2.802109   1.785342
     8  H    2.147704   1.105802   2.145368   2.147696   2.504786
     9  H    2.803544   2.182244   1.105260   2.803147   3.819963
    10  H    2.779747   2.191515   1.104292   3.498545   3.794721
    11  H    3.498571   2.191560   1.104301   2.780178   4.354051
    12  H    2.769099   2.190156   3.498404   1.104181   2.551992
    13  H    2.802032   2.181157   2.799663   1.105316   3.143640
    14  H    3.495697   2.191462   2.784387   1.104275   3.781279
    15  C    4.488543   4.652836   6.164031   4.495054   3.533241
    16  C    4.773427   4.667166   6.040750   4.781546   4.029656
    17  C    4.228590   4.333170   5.562169   4.932231   3.622505
    18  C    4.931654   4.339844   5.570327   4.243390   4.427405
    19  H    4.836339   5.301714   6.807182   5.288719   3.789260
    20  H    3.513853   3.721574   5.253969   3.518374   2.565241
    21  H    5.284930   5.303702   6.809963   4.845455   4.351002
    22  H    5.845450   5.764361   7.113238   5.854899   5.067167
    23  H    3.169283   3.304662   4.514392   4.076947   2.694246
    24  H    4.589828   5.016918   6.256095   5.669822   3.871950
    25  H    4.906409   4.820004   5.855086   5.535396   4.479749
    26  H    5.677554   5.032086   6.273360   4.615697   5.120760
    27  H    4.081217   3.314932   4.527124   3.182003   3.728514
    28  H    5.527721   4.819706   5.856012   4.915733   5.158008
                    6          7          8          9         10
     6  H    0.000000
     7  H    1.787097   0.000000
     8  H    2.497726   3.075865   0.000000
     9  H    3.158646   2.618350   3.074489   0.000000
    10  H    2.576368   3.146224   2.498391   1.786205   0.000000
    11  H    3.796211   3.819228   2.498118   1.786200   1.785511
    12  H    3.781268   3.143889   2.504718   3.819714   4.354022
    13  H    3.823095   2.623771   3.075870   2.618031   3.819094
    14  H    4.353425   3.823101   2.497803   3.157884   3.796330
    15  C    4.992619   5.234657   4.228047   6.770722   6.567770
    16  C    5.071455   5.721950   3.916264   6.848450   6.302893
    17  C    4.199975   5.269127   3.508687   6.424361   5.565835
    18  C    5.356250   5.871764   3.512797   6.433568   5.964644
    19  H    5.213866   5.523935   4.935366   7.364491   7.112093
    20  H    4.153018   4.190573   3.484569   5.772780   5.727493
    21  H    5.914930   5.936781   4.935681   7.368198   7.335478
    22  H    6.084597   6.791544   4.975649   7.943524   7.335984
    23  H    3.129963   4.237215   2.539807   5.352732   4.511137
    24  H    4.444493   5.555188   4.322407   7.040125   6.180220
    25  H    4.740449   5.994063   3.848495   6.818789   5.737846
    26  H    6.234295   6.520509   4.332292   7.060028   6.795649
    27  H    4.599162   4.983794   2.549020   5.365362   5.010488
    28  H    5.799422   6.533060   3.845449   6.820940   6.124416
                   11         12         13         14         15
    11  H    0.000000
    12  H    3.795016   0.000000
    13  H    3.147016   1.785322   0.000000
    14  H    2.576722   1.785552   1.787079   0.000000
    15  C    6.570866   3.541548   5.240312   5.002896   0.000000
    16  C    6.307011   4.039276   5.728885   5.084828   1.533298
    17  C    5.960698   4.430780   5.869930   5.361642   2.526455
    18  C    5.577759   3.636403   5.283914   4.220394   2.526317
    19  H    7.336086   4.357086   5.938701   5.922660   1.104275
    20  H    5.729482   2.571477   4.194358   4.159782   1.104448
    21  H    7.117799   3.799291   5.533606   5.226683   1.104277
    22  H    7.341047   5.078081   6.799889   6.100450   2.148966
    23  H    4.999538   3.728399   4.978239   4.596700   2.791215
    24  H    6.783923   5.116821   6.508798   6.232625   2.776228
    25  H    6.128519   5.167219   6.538190   5.812861   3.495581
    26  H    6.201167   3.896498   5.582723   4.476348   2.779281
    27  H    4.526307   2.702783   4.249227   3.146641   2.787348
    28  H    5.743455   4.488771   6.003658   4.756481   3.495628
                   16         17         18         19         20
    16  C    0.000000
    17  C    1.533444   0.000000
    18  C    1.533468   2.525081   0.000000
    19  H    2.192962   2.777937   3.496563   0.000000
    20  H    2.171059   2.782896   2.783885   1.787104   0.000000
    21  H    2.192929   3.496662   2.776589   1.787313   1.787111
    22  H    1.105775   2.150306   2.150355   2.506173   3.069512
    23  H    2.176295   1.105155   2.785903   3.144147   2.591423
    24  H    2.192552   1.104311   3.495377   2.569897   3.134061
    25  H    2.191468   1.104296   2.775506   3.792466   3.801611
    26  H    2.192537   3.495259   1.104307   3.794734   3.140732
    27  H    2.176223   2.789423   1.105168   3.806447   2.588388
    28  H    2.191586   2.772277   1.104302   4.355445   3.800645
                   21         22         23         24         25
    21  H    0.000000
    22  H    2.507048   0.000000
    23  H    3.808789   3.074274   0.000000
    24  H    3.793159   2.507607   1.787423   0.000000
    25  H    4.355285   2.504687   1.786795   1.786380   0.000000
    26  H    2.571921   2.504859   3.806386   4.355412   3.789620
    27  H    3.136594   3.074251   2.593862   3.807277   3.142874
    28  H    3.793318   2.507641   3.132227   3.789188   2.564284
                   26         27         28
    26  H    0.000000
    27  H    1.787329   0.000000
    28  H    1.786382   1.786953   0.000000
 Framework group  C1[X(C8H20)]
 Deg. of freedom    78
                         Standard orientation:                         
 ---------------------------------------------------------------------
 Center     Atomic      Atomic             Coordinates (Angstroms)
 Number     Number       Type             X           Y           Z
 ---------------------------------------------------------------------
      1          6           0       -1.857608   -1.260199    0.728231
      2          6           0       -2.009677    0.000741   -0.130765
      3          6           0       -3.340778   -0.004738   -0.893493
      4          6           0       -1.864501    1.266633    0.722106
      5          1           0       -0.888915   -1.268806    1.258096
      6          1           0       -1.915864   -2.175139    0.112678
      7          1           0       -2.658938   -1.309048    1.487975
      8          1           0       -1.195467    0.001151   -0.879002
      9          1           0       -4.191177   -0.004912   -0.187504
     10          1           0       -3.431856   -0.899526   -1.534212
     11          1           0       -3.436401    0.885972   -1.539225
     12          1           0       -0.895798    1.283169    1.251782
     13          1           0       -2.665966    1.314707    1.481756
     14          1           0       -1.927969    2.178257    0.102156
     15          6           0        2.405888    0.004764    1.336085
     16          6           0        2.657264   -0.001993   -0.176452
     17          6           0        2.076209   -1.265291   -0.822907
     18          6           0        2.083786    1.259760   -0.832674
     19          1           0        2.838793   -0.887651    1.821481
     20          1           0        1.319177    0.007560    1.533205
     21          1           0        2.842041    0.899643    1.813986
     22          1           0        3.750885   -0.005933   -0.339899
     23          1           0        0.980453   -1.293904   -0.681954
     24          1           0        2.501892   -2.180086   -0.374078
     25          1           0        2.280381   -1.291473   -1.907848
     26          1           0        2.520566    2.175231   -0.396061
     27          1           0        0.989259    1.299942   -0.685050
     28          1           0        2.281410    1.272787   -1.919071
 ---------------------------------------------------------------------
 Rotational constants (GHZ):           2.4776786           0.6840823           0.6654207
   152 basis functions,   280 primitive gaussians,   160 cartesian basis functions
    34 alpha electrons       34 beta electrons
       nuclear repulsion energy       394.3184102514 Hartrees.
 NAtoms=   28 NActive=   28 NUniq=   28 SFac= 1.00D+00 NAtFMM=   60 NAOKFM=F Big=F
 Nuclear repulsion after empirical dispersion term =      394.3002879160 Hartrees.
   1 Symmetry operations used in ECPInt.
 ECPInt:  NShTT=    3916 NPrTT=   15740 LenC2=    3872 LenP2D=   11850.
 LDataN:  DoStor=T MaxTD1= 4 Len=   56
 Initial guess from the checkpoint file:  "5.chk"
 B after Tr=    -0.000000   -0.000000    0.000000
         Rot=    0.999999   -0.000196   -0.001298    0.000006 Ang=  -0.15 deg.
 ExpMin= 1.22D-01 ExpMax= 1.24D+03 ExpMxC= 1.86D+02 IAcc=3 IRadAn=         5 AccDes= 0.00D+00
 Harris functional with IExCor= 4639 and IRadAn=       5 diagonalized for initial guess.
 HarFok:  IExCor= 4639 AccDes= 0.00D+00 IRadAn=         5 IDoV= 1 UseB2=F ITyADJ=14
 ICtDFT=  3500011 ScaDFX=  1.000000  1.000000  1.000000  1.000000
 FoFCou: FMM=F IPFlag=           0 FMFlag=      100000 FMFlg1=           0
         NFxFlg=           0 DoJE=T BraDBF=F KetDBF=T FulRan=T
         wScrn=  0.000000 ICntrl=       500 IOpCl=  0 I1Cent=   200000004 NGrid=           0
         NMat0=    1 NMatS0=      1 NMatT0=    0 NMatD0=    1 NMtDS0=    0 NMtDT0=    0
 Petite list used in FoFCou.
     Minimum is close to point  3 DX=  9.22D-02 DF= -8.15D-07 DXR=  8.44D-02 DFR=  7.18D-03 which will be used.
     Accept linear search using points  1 and  2.
     Minimum is close to point  2 DX= -2.77D-04 DF= -3.69D-12 DXR=  2.77D-04 DFR=  7.72D-08 which will be used.
 SCF Done:  E(RwB97XD) =  -316.554390691     a.u. after    5 cycles
            Convg  =    0.7636D-09                    25 Fock formations.
              S**2 =  0.0000                  -V/T =  2.0124
   1 Symmetry operations used in ECPInt.
 ECPInt:  NShTT=    3916 NPrTT=   15740 LenC2=    3872 LenP2D=   11850.
 LDataN:  DoStor=T MaxTD1= 5 Len=  102
 Calling FoFJK, ICntrl=      2127 FMM=F ISym2X=0 I1Cent= 0 IOpClX= 0 NMat=1 NMatS=1 NMatT=0.

 GradGradGradGradGradGradGradGradGradGradGradGradGradGradGradGradGradGrad
 Using GEDIIS/GDIIS optimizer.
 FormGI is forming the generalized inverse of G from B-inverse, IUseBI=4.
 Internal  Forces:  Max     0.002178678 RMS     0.000372496
 Step number   2 out of a maximum of  168
 All quantities printed in internal units (Hartrees-Bohrs-Radians)
 Mixed Optimization -- En-DIIS/RFO-DIIS
 Trust test= 9.54D-01 RLast= 1.82D-01 DXMaxT set to 5.05D-01
 ITU=  1  0
 Use linear search instead of GDIIS.
     Eigenvalues ---    0.00299   0.00362   0.00376   0.00416   0.00461
     Eigenvalues ---    0.00656   0.00755   0.01231   0.01286   0.01630
     Eigenvalues ---    0.01734   0.02035   0.02612   0.03362   0.03414
     Eigenvalues ---    0.03548   0.03562   0.04139   0.04266   0.04467
     Eigenvalues ---    0.04621   0.04873   0.04973   0.05509   0.05585
     Eigenvalues ---    0.05599   0.05690   0.05746   0.06124   0.06173
     Eigenvalues ---    0.06753   0.07708   0.08039   0.08990   0.09436
     Eigenvalues ---    0.10043   0.11168   0.11288   0.11299   0.11309
     Eigenvalues ---    0.11389   0.11628   0.11985   0.12483   0.12773
     Eigenvalues ---    0.14666   0.15218   0.15279   0.15819   0.15961
     Eigenvalues ---    0.16000   0.16024   0.26248   0.27542   0.28371
     Eigenvalues ---    0.28415   0.29130   0.29678   0.29910   0.30680
     Eigenvalues ---    0.32023   0.33953   0.34042   0.34738   0.34966
     Eigenvalues ---    0.35022   0.35025   0.35040   0.35046   0.35049
     Eigenvalues ---    0.35058   0.35059   0.35061   0.35063   0.35065
     Eigenvalues ---    0.35066   0.35068   0.36204
 Quartic linear search produced a step of  0.00132.
 Iteration  1 RMS(Cart)=  0.00461776 RMS(Int)=  0.00003551
 Iteration  2 RMS(Cart)=  0.00002314 RMS(Int)=  0.00001438
 Iteration  3 RMS(Cart)=  0.00000000 RMS(Int)=  0.00001438
 Variable       Old X    -DE/DX   Delta X   Delta X   Delta X     New X
                                 (Linear)    (Quad)   (Total)
    R1        2.89749  -0.00147   0.00002  -0.00572  -0.00572   2.89177
    R2        2.08659   0.00006   0.00004   0.00057   0.00062   2.08720
    R3        2.08677  -0.00001   0.00004   0.00041   0.00045   2.08722
    R4        2.08875   0.00042   0.00004   0.00166   0.00170   2.09045
    R5        2.89912  -0.00218   0.00002  -0.00712  -0.00710   2.89202
    R6        2.89748  -0.00146   0.00002  -0.00570  -0.00570   2.89178
    R7        2.08966   0.00037   0.00002   0.00110   0.00112   2.09078
    R8        2.08864   0.00044   0.00004   0.00172   0.00176   2.09040
    R9        2.08681  -0.00001   0.00004   0.00044   0.00048   2.08729
   R10        2.08683  -0.00001   0.00004   0.00042   0.00046   2.08729
   R11        2.08660   0.00006   0.00004   0.00059   0.00063   2.08723
   R12        2.08875   0.00041   0.00004   0.00166   0.00170   2.09044
   R13        2.08678  -0.00002   0.00004   0.00040   0.00044   2.08722
   R14        4.84760  -0.00034  -0.00001  -0.01369  -0.01368   4.83392
   R15        4.79954  -0.00023  -0.00000  -0.01444  -0.01444   4.78510
   R16        4.81695  -0.00024   0.00000  -0.01372  -0.01371   4.80323
   R17        4.85939  -0.00035  -0.00001  -0.01393  -0.01392   4.84546
   R18        2.89751  -0.00169   0.00002  -0.00521  -0.00519   2.89232
   R19        2.08678  -0.00008   0.00004   0.00023   0.00027   2.08705
   R20        2.08710   0.00059   0.00004   0.00227   0.00232   2.08942
   R21        2.08678  -0.00007   0.00004   0.00024   0.00028   2.08706
   R22        2.89779  -0.00155   0.00002  -0.00531  -0.00530   2.89249
   R23        2.89784  -0.00156   0.00002  -0.00531  -0.00530   2.89253
   R24        2.08961   0.00043   0.00002   0.00152   0.00155   2.09116
   R25        2.08844   0.00041   0.00004   0.00153   0.00157   2.09001
   R26        2.08685  -0.00004   0.00004   0.00033   0.00037   2.08721
   R27        2.08682  -0.00003   0.00004   0.00037   0.00041   2.08723
   R28        2.08684  -0.00004   0.00004   0.00034   0.00038   2.08722
   R29        2.08847   0.00040   0.00004   0.00160   0.00164   2.09011
   R30        2.08683  -0.00003   0.00004   0.00036   0.00040   2.08723
    A1        1.94149   0.00024   0.00001   0.00103   0.00103   1.94252
    A2        1.94320  -0.00002   0.00002  -0.00005  -0.00004   1.94316
    A3        1.92785   0.00041   0.00000   0.00433   0.00433   1.93219
    A4        1.88317  -0.00017  -0.00001  -0.00128  -0.00128   1.88189
    A5        1.88161  -0.00029  -0.00001  -0.00189  -0.00191   1.87970
    A6        1.88419  -0.00021  -0.00001  -0.00242  -0.00244   1.88175
    A7        1.94083  -0.00016   0.00002   0.00001   0.00004   1.94087
    A8        1.93687   0.00035   0.00001   0.00196   0.00195   1.93882
    A9        1.88216  -0.00011  -0.00002  -0.00105  -0.00106   1.88110
   A10        1.94083  -0.00015   0.00002   0.00003   0.00006   1.94088
   A11        1.87806   0.00018  -0.00002   0.00007   0.00004   1.87810
   A12        1.88216  -0.00011  -0.00002  -0.00117  -0.00117   1.88098
   A13        1.92838   0.00063   0.00000   0.00417   0.00418   1.93255
   A14        1.94219  -0.00005   0.00001  -0.00025  -0.00024   1.94195
   A15        1.94225  -0.00006   0.00001  -0.00030  -0.00029   1.94196
   A16        1.88286  -0.00029  -0.00001  -0.00178  -0.00179   1.88107
   A17        1.88284  -0.00029  -0.00001  -0.00177  -0.00178   1.88106
   A18        1.88299   0.00003  -0.00001  -0.00026  -0.00027   1.88271
   A19        1.94149   0.00024   0.00001   0.00106   0.00106   1.94255
   A20        1.92788   0.00041   0.00000   0.00431   0.00432   1.93220
   A21        1.94320  -0.00002   0.00002  -0.00006  -0.00005   1.94315
   A22        1.88157  -0.00029  -0.00001  -0.00187  -0.00189   1.87968
   A23        1.88322  -0.00017  -0.00001  -0.00131  -0.00130   1.88192
   A24        1.88416  -0.00021  -0.00001  -0.00242  -0.00243   1.88173
   A25        2.50268  -0.00035  -0.00000   0.00037   0.00041   2.50308
   A26        2.18723  -0.00018   0.00000  -0.00068  -0.00067   2.18656
   A27        2.18926  -0.00019   0.00000  -0.00086  -0.00084   2.18842
   A28        1.06971   0.00011   0.00001   0.00477   0.00479   1.07449
   A29        2.49934  -0.00035  -0.00000   0.00041   0.00044   2.49978
   A30        1.94526   0.00002   0.00002  -0.00044  -0.00044   1.94482
   A31        1.91493   0.00024  -0.00001   0.00702   0.00707   1.92200
   A32        1.94522   0.00002   0.00002  -0.00043  -0.00043   1.94478
   A33        1.88528  -0.00016  -0.00001  -0.00256  -0.00259   1.88269
   A34        1.88581   0.00002  -0.00001  -0.00126  -0.00126   1.88455
   A35        1.88529  -0.00016  -0.00001  -0.00259  -0.00262   1.88267
   A36        1.93625  -0.00020   0.00001  -0.00031  -0.00029   1.93596
   A37        1.93607  -0.00020   0.00001  -0.00035  -0.00033   1.93574
   A38        1.88385   0.00025  -0.00001   0.00097   0.00095   1.88480
   A39        1.93451   0.00027   0.00001   0.00089   0.00089   1.93540
   A40        1.88547  -0.00006  -0.00001  -0.00062  -0.00063   1.88484
   A41        1.88551  -0.00006  -0.00001  -0.00060  -0.00060   1.88490
   A42        1.92118   0.00056  -0.00001   0.00500   0.00499   1.92617
   A43        1.94448   0.00004   0.00002   0.00034   0.00036   1.94483
   A44        1.94299  -0.00006   0.00002   0.00008   0.00010   1.94309
   A45        1.88484  -0.00037  -0.00001  -0.00254  -0.00254   1.88230
   A46        1.88390  -0.00022  -0.00001  -0.00230  -0.00232   1.88158
   A47        1.88431   0.00002  -0.00001  -0.00086  -0.00088   1.88343
   A48        1.94443   0.00004   0.00002   0.00026   0.00028   1.94471
   A49        1.92104   0.00056  -0.00001   0.00524   0.00522   1.92626
   A50        1.94311  -0.00006   0.00002   0.00006   0.00008   1.94320
   A51        1.88469  -0.00037  -0.00001  -0.00266  -0.00266   1.88203
   A52        1.88431   0.00002  -0.00001  -0.00089  -0.00090   1.88340
   A53        1.88411  -0.00022  -0.00001  -0.00229  -0.00231   1.88181
   A54        1.03984   0.00000   0.00001   0.00162   0.00160   1.04145
   A55        2.54375  -0.00008  -0.00001  -0.00565  -0.00574   2.53800
   A56        2.54857  -0.00009  -0.00001  -0.00570  -0.00579   2.54277
   A57        2.54338  -0.00065  -0.00000  -0.00340  -0.00343   2.53995
   A58        2.53246  -0.00063  -0.00000  -0.00281  -0.00284   2.52962
    D1        3.11711  -0.00003  -0.00001   0.00247   0.00247   3.11957
    D2       -0.99591  -0.00009   0.00003   0.00396   0.00400  -0.99191
    D3        1.06196  -0.00009   0.00001   0.00302   0.00304   1.06500
    D4        1.01600   0.00003  -0.00002   0.00343   0.00341   1.01941
    D5       -3.09702  -0.00002   0.00003   0.00491   0.00495  -3.09207
    D6       -1.03915  -0.00003   0.00000   0.00398   0.00399  -1.03516
    D7       -1.07722   0.00003  -0.00002   0.00363   0.00362  -1.07360
    D8        1.09295  -0.00002   0.00003   0.00512   0.00515   1.09810
    D9       -3.13236  -0.00002   0.00000   0.00418   0.00419  -3.12817
   D10       -0.06802   0.00007  -0.00001   0.00030   0.00029  -0.06773
   D11        2.06816   0.00008   0.00001   0.00003   0.00004   2.06820
   D12       -2.18416  -0.00040  -0.00001  -0.00445  -0.00446  -2.18861
   D13        1.08439   0.00011   0.00002   0.00099   0.00100   1.08538
   D14       -1.00685   0.00009   0.00002   0.00062   0.00064  -1.00621
   D15       -3.10755   0.00013   0.00002   0.00133   0.00135  -3.10621
   D16       -1.08354  -0.00012  -0.00002  -0.00159  -0.00161  -1.08515
   D17        3.10841  -0.00014  -0.00002  -0.00196  -0.00197   3.10644
   D18        1.00771  -0.00009  -0.00002  -0.00125  -0.00126   1.00644
   D19       -3.14117   0.00000  -0.00000  -0.00024  -0.00024  -3.14141
   D20        1.05078  -0.00002   0.00000  -0.00060  -0.00060   1.05018
   D21       -1.04992   0.00002  -0.00000   0.00011   0.00011  -1.04981
   D22        0.99607   0.00009  -0.00003  -0.00373  -0.00377   0.99230
   D23       -1.09275   0.00002  -0.00003  -0.00492  -0.00495  -1.09770
   D24        3.09724   0.00003  -0.00003  -0.00471  -0.00474   3.09250
   D25       -3.11694   0.00003   0.00001  -0.00225  -0.00225  -3.11919
   D26        1.07742  -0.00003   0.00002  -0.00345  -0.00343   1.07399
   D27       -1.01577  -0.00003   0.00002  -0.00323  -0.00322  -1.01899
   D28       -1.06180   0.00009  -0.00001  -0.00286  -0.00289  -1.06468
   D29        3.13256   0.00002  -0.00000  -0.00406  -0.00406   3.12850
   D30        1.03937   0.00003  -0.00000  -0.00384  -0.00385   1.03552
   D31       -0.36739  -0.00018   0.00001   0.00198   0.00200  -0.36539
   D32       -1.71801  -0.00012  -0.00000  -0.00360  -0.00361  -1.72162
   D33       -2.46260  -0.00003   0.00001   0.00251   0.00252  -2.46007
   D34        2.46997   0.00003  -0.00001  -0.00307  -0.00309   2.46688
   D35        1.72539   0.00011   0.00000   0.00308   0.00309   1.72847
   D36        0.37476   0.00018  -0.00001  -0.00250  -0.00253   0.37224
   D37        0.06328  -0.00006   0.00001  -0.00072  -0.00071   0.06257
   D38        2.17942   0.00040   0.00001   0.00405   0.00405   2.18347
   D39       -2.07293  -0.00008  -0.00001  -0.00044  -0.00045  -2.07338
   D40        0.66205  -0.00021  -0.00000  -0.00274  -0.00275   0.65930
   D41       -1.91758   0.00008   0.00001   0.01356   0.01357  -1.90401
   D42       -2.39929   0.00013  -0.00000   0.01032   0.01031  -2.38898
   D43       -0.39275  -0.00000   0.00001   0.01195   0.01196  -0.38079
   D44        2.40104  -0.00013  -0.00000  -0.01174  -0.01173   2.38931
   D45        0.39760  -0.00001  -0.00001  -0.01365  -0.01366   0.38394
   D46       -0.65830   0.00021   0.00000   0.00302   0.00303  -0.65527
   D47        1.91682  -0.00007  -0.00001  -0.01334  -0.01335   1.90347
   D48        1.00956  -0.00006  -0.00002   0.00064   0.00063   1.01019
   D49       -3.11551   0.00000   0.00001   0.00132   0.00133  -3.11418
   D50       -1.05300  -0.00003  -0.00001   0.00098   0.00098  -1.05202
   D51       -1.07782  -0.00003  -0.00001  -0.00048  -0.00050  -1.07832
   D52        1.08030   0.00003   0.00001   0.00020   0.00021   1.08051
   D53       -3.14038  -0.00000   0.00000  -0.00014  -0.00014  -3.14052
   D54        3.11801  -0.00000  -0.00001  -0.00158  -0.00159   3.11642
   D55       -1.00706   0.00006   0.00002  -0.00090  -0.00089  -1.00795
   D56        1.05544   0.00003   0.00001  -0.00123  -0.00123   1.05421
   D57        1.08856  -0.00023  -0.00001  -0.01265  -0.01264   1.07592
   D58       -1.08782   0.00024   0.00001   0.01390   0.01389  -1.07393
   D59       -1.03517  -0.00030  -0.00002  -0.01475  -0.01475  -1.04991
   D60        3.07165   0.00016   0.00000   0.01180   0.01178   3.08343
   D61       -3.07096  -0.00016  -0.00000  -0.01055  -0.01053  -3.08150
   D62        1.03585   0.00031   0.00002   0.01600   0.01599   1.05184
   D63        1.08327  -0.00020   0.00002   0.00284   0.00287   1.08615
   D64       -1.00717  -0.00013   0.00002   0.00249   0.00252  -1.00465
   D65       -3.11162  -0.00014   0.00001   0.00330   0.00332  -3.10829
   D66       -1.07574   0.00001  -0.00001   0.00287   0.00287  -1.07287
   D67        3.11700   0.00008  -0.00000   0.00252   0.00252   3.11952
   D68        1.01256   0.00007  -0.00002   0.00333   0.00332   1.01587
   D69       -3.13833  -0.00004   0.00001   0.00346   0.00348  -3.13486
   D70        1.05441   0.00003   0.00001   0.00312   0.00312   1.05753
   D71       -1.05004   0.00002  -0.00000   0.00393   0.00393  -1.04611
   D72        1.01446   0.00012  -0.00002  -0.00392  -0.00396   1.01051
   D73       -1.07566   0.00018  -0.00002  -0.00422  -0.00425  -1.07992
   D74        3.11896   0.00013  -0.00001  -0.00484  -0.00486   3.11411
   D75       -3.10961  -0.00009   0.00000  -0.00393  -0.00393  -3.11353
   D76        1.08346  -0.00002   0.00001  -0.00422  -0.00422   1.07923
   D77       -1.00510  -0.00008   0.00001  -0.00484  -0.00483  -1.00993
   D78       -1.04704  -0.00004  -0.00001  -0.00454  -0.00455  -1.05159
   D79       -3.13716   0.00003  -0.00001  -0.00483  -0.00485   3.14118
   D80        1.05747  -0.00003  -0.00000  -0.00545  -0.00545   1.05201
   D81        0.85680  -0.00011  -0.00001  -0.01121  -0.01121   0.84559
   D82        2.98308   0.00005   0.00001  -0.00935  -0.00934   2.97374
   D83       -1.26704  -0.00024  -0.00001  -0.01289  -0.01290  -1.27994
   D84       -0.86750   0.00012   0.00001   0.01410   0.01410  -0.85340
   D85       -2.99353  -0.00004  -0.00000   0.01228   0.01227  -2.98126
   D86        1.25655   0.00025   0.00002   0.01591   0.01592   1.27247
         Item               Value     Threshold  Converged?
 Maximum Force            0.002179     0.000015     NO 
 RMS     Force            0.000372     0.000010     NO 
 Maximum Displacement     0.015333     0.000060     NO 
 RMS     Displacement     0.004624     0.000040     NO 
 GradGradGradGradGradGradGradGradGradGradGradGradGradGradGradGradGradGrad

                    Distance matrix (angstroms):
                    1          2          3          4          5
     1  C    0.000000
     2  C    1.530259   0.000000
     3  C    2.525437   1.530393   0.000000
     4  C    2.523560   1.530262   2.525454   0.000000
     5  H    1.104500   2.188476   3.493635   2.765889   0.000000
     6  H    1.104508   2.188945   2.781098   3.492117   1.785135
     7  H    1.106218   2.182311   2.797007   2.806154   1.785091
     8  H    2.144705   1.106394   2.142559   2.144618   2.503596
     9  H    2.802823   2.182674   1.106191   2.802735   3.819389
    10  H    2.774160   2.188219   1.104545   3.493248   3.790365
    11  H    3.493235   2.188224   1.104545   2.774292   4.349416
    12  H    2.766094   2.188508   3.493668   1.104513   2.548295
    13  H    2.805975   2.182318   2.797215   1.106216   3.146456
    14  H    3.492122   2.188941   2.780920   1.104509   3.777448
    15  C    4.479427   4.644273   6.151900   4.485860   3.524631
    16  C    4.763100   4.658170   6.028707   4.770740   4.020684
    17  C    4.218790   4.324775   5.551163   4.921372   3.614528
    18  C    4.921460   4.331765   5.559710   4.232933   4.418602
    19  H    4.828436   5.294134   6.795938   5.280855   3.781622
    20  H    3.507230   3.717018   5.245833   3.511650   2.558001
    21  H    5.277244   5.296526   6.799167   4.837893   4.343546
    22  H    5.835923   5.756034   7.101751   5.844920   5.059026
    23  H    3.160400   3.297307   4.502906   4.069371   2.689469
    24  H    4.578419   5.007248   6.243813   5.658067   3.861790
    25  H    4.898581   4.814356   5.847187   5.526931   4.473918
    26  H    5.665343   5.021933   6.260829   4.602631   5.109433
    27  H    4.074350   3.307826   4.515720   3.172745   3.725013
    28  H    5.521343   4.815657   5.849912   4.908062   5.153036
                    6          7          8          9         10
     6  H    0.000000
     7  H    1.786433   0.000000
     8  H    2.492914   3.076521   0.000000
     9  H    3.160195   2.619704   3.075168   0.000000
    10  H    2.571959   3.141578   2.494997   1.785995   0.000000
    11  H    3.792256   3.817919   2.494866   1.785992   1.785734
    12  H    3.777494   3.147035   2.503403   3.819435   4.349443
    13  H    3.827793   2.635279   3.076462   2.619817   3.818024
    14  H    4.348999   3.827827   2.492940   3.159749   3.792187
    15  C    4.981033   5.227703   4.220141   6.762576   6.555826
    16  C    5.058184   5.713746   3.907535   6.839888   6.291003
    17  C    4.186930   5.259943   3.500376   6.416458   5.554922
    18  C    5.343592   5.864997   3.505142   6.425961   5.954351
    19  H    5.203150   5.516933   4.928288   7.357297   7.100793
    20  H    4.145619   4.184523   3.483300   5.767284   5.720359
    21  H    5.904912   5.932001   4.929131   7.361420   7.324934
    22  H    6.071651   6.784008   4.967216   7.935605   7.324410
[...]
 ,-0.00001648,0.00001173,0.00000914,-0.00000571,-0.00000707,0.04475999,
 0.08953076,-0.09478749,0.01472670,0.02689456,-0.01185043,-0.00202736,-
 0.00158023,-0.00672140,0.00034863,0.00143849,0.00124872,-0.00712299,-0
 .01113736,0.00618805,-0.00233037,-0.00619097,0.00225680,-0.04822755,-0
 .09925766,0.10310988,0.00001432,0.00001424,-0.00004147,0.00011022,-0.0
 0000036,0.00008916,-0.00000928,0.00000018,-0.00004430,0.00001432,-0.00
 001391,-0.00004157,-0.00001331,0.00001099,0.00007758,0.00002309,0.0000
 0798,0.00000564,-0.00004495,0.00000382,-0.00001459,-0.00001787,0.00000
 048,-0.00012513,-0.00003372,0.,-0.00000165,0.00000109,-0.00001071,0.00
 000913,0.00000109,0.00001064,0.00000922,-0.00001331,-0.00001160,0.0000
 7748,-0.00004494,-0.00000369,-0.00001463,0.00002308,-0.00000802,0.0000
 0558,-0.00467299,0.00000235,-0.00052348,-0.29687375,0.00016275,-0.0370
 5607,-0.01209917,-0.00035717,-0.00159148,-0.01209528,0.00037110,-0.001
 58832,0.00045917,-0.00034542,-0.00032092,0.00138891,0.00000447,-0.0011
 3785,0.00045925,0.00034790,-0.00031818,0.32050447,0.00002310,-0.000008
 65,-0.00005548,0.00000038,-0.00004302,0.00000034,-0.00000013,0.0000297
 7,-0.00000014,-0.00002417,-0.00000949,0.00005601,-0.00002674,-0.000037
 10,0.00010396,0.00007888,0.00006887,-0.00001110,-0.00005781,0.00004830
 ,0.00000933,-0.00000017,-0.00017869,-0.00000105,-0.00000012,0.00000328
 ,0.00000004,0.00002310,0.00001302,-0.00001867,-0.00002298,0.00001281,0
 .00001872,0.00002692,-0.00003551,-0.00010422,0.00005786,0.00004839,-0.
 00000920,-0.00007827,0.00006854,0.00001133,0.00013561,-0.00027686,0.00
 002917,0.00016254,-0.04910737,0.00002461,-0.02926540,-0.00202108,-0.00
 339313,0.02914549,-0.00204427,0.00336556,-0.00056887,0.00009274,-0.000
 01092,0.00000529,0.00068462,0.00002968,0.00056642,0.00008935,0.0000024
 6,-0.00017245,0.05806527,0.00013298,-0.00004973,-0.00007497,-0.0000936
 7,0.00000034,-0.00012344,0.00003161,-0.00000014,0.00006296,0.00013282,
 0.00005021,-0.00007417,-0.00001965,0.00009877,-0.00000216,-0.00007753,
 -0.00003215,0.00004029,-0.00000497,0.00000146,0.00003237,0.00004385,-0
 .00000103,0.00008313,0.00002827,0.00000003,-0.00000583,-0.00001569,-0.
 00000903,0.00000604,-0.00001586,0.00000909,0.00000625,-0.00001944,-0.0
 0009904,-0.00000375,-0.00000453,-0.00000133,0.00003229,-0.00007816,0.0
 0003238,0.00004064,-0.03417371,0.00003129,-0.00764275,-0.03702441,0.00
 002456,-0.05472650,0.01518124,0.00095872,0.00150709,0.01541232,-0.0009
 8877,0.00152641,0.00029950,-0.00040831,0.00116091,-0.00135007,0.000029
 76,-0.00679437,0.00030407,0.00039978,0.00116415,0.03928055,-0.00002514
 ,0.06374947,-0.00040056,0.00030711,-0.00034177,-0.00087301,0.00020179,
 -0.00023727,0.00000817,-0.00000658,-0.00001895,0.00007586,-0.00008011,
 0.00008082,-0.00033835,-0.00008009,-0.00009560,0.00009080,-0.00008973,
 0.00000862,-0.00014771,0.00004766,0.00004091,-0.00095832,0.00059554,-0
 .00006212,-0.00004261,-0.00000248,0.00001236,0.00001971,-0.00000355,0.
 00000319,0.00000734,0.00000841,0.00001422,0.00003569,-0.00004769,0.000
 00123,0.00000267,0.00001008,-0.00002895,-0.00001708,0.00001738,0.00001
 652,0.00074858,0.00053042,-0.00060772,-0.01271628,-0.00019198,-0.00172
 435,-0.30794728,-0.00991156,-0.03500297,0.00085725,0.00079047,0.000036
 88,-0.00008177,-0.00003711,-0.00000756,0.00027953,-0.00015315,0.000827
 31,0.00035410,0.00000156,0.00004378,0.00048653,-0.00248762,0.00138265,
 0.33239106,0.00012450,0.00022879,-0.00000535,0.00067514,0.00010419,0.0
 0068526,-0.00011946,-0.00001713,-0.00026089,-0.00009440,-0.00008675,-0
 .00011959,0.00002180,0.00015836,-0.00003814,-0.00017223,-0.00014746,0.
 00009550,-0.00001875,-0.00017545,-0.00003477,0.00059689,-0.00040497,-0
 .00039699,-0.00010211,-0.00000064,0.00003109,-0.00001155,-0.00000838,0
 .00004228,0.00002312,-0.00001503,0.00000485,0.00000137,-0.00001178,0.0
 0005077,-0.00004960,0.00006014,-0.00004921,0.00000973,-0.00002626,0.00
 000955,-0.00014790,0.00091862,-0.00132167,-0.02846466,-0.00133607,-0.0
 0410035,-0.00905483,-0.04871436,-0.00188702,-0.00120123,0.00167113,-0.
 00027225,0.00014332,-0.00004548,0.00008829,0.00055017,0.00013112,0.000
 34587,0.00021910,-0.00000840,-0.00024592,-0.00238198,-0.00450781,0.002
 66426,0.01299843,0.05069459,-0.00045445,-0.00000708,0.00031009,0.00024
 205,0.00022090,0.00032158,-0.00004178,-0.00011912,-0.00008889,-0.00013
 852,-0.00008612,-0.00008584,-0.00026050,0.00005292,-0.00057532,0.00002
 840,0.00006261,0.00001950,0.00012465,-0.00005247,-0.00016194,-0.000080
 00,-0.00015054,0.00003776,-0.00004624,0.00001627,-0.00000839,0.0000445
 1,0.00003480,0.00000250,0.00005048,-0.00002575,-0.00002238,0.00003196,
 0.00005292,-0.00003585,0.00000492,0.00004710,-0.00004778,0.00003170,-0
 .00003642,0.00000043,0.00133060,-0.00043855,0.00100865,0.01473261,0.00
 030806,0.00131631,-0.03577074,-0.00205116,-0.05410141,-0.00030701,-0.0
 0071852,0.00006590,0.00003387,-0.00005508,-0.00004031,-0.00037833,0.00
 024790,-0.00008119,-0.00025306,-0.00014662,0.00010827,0.00137100,0.002
 66900,-0.00065169,0.03732225,-0.00061491,0.05219866,-0.00003056,0.0000
 7237,0.00006989,0.00028243,0.00011351,0.00038113,-0.00006728,-0.000028
 35,-0.00017240,-0.00009645,-0.00009143,-0.00006512,0.00004043,0.000098
 97,-0.00001046,-0.00003093,-0.00000281,0.00006568,-0.00001249,-0.00004
 829,-0.00005350,-0.00006096,-0.00016739,-0.00026934,-0.00008083,0.0000
 0721,0.00001970,0.00001118,0.00000083,0.00001975,0.00001428,-0.0000032
 1,0.00000282,0.00001957,-0.00000566,0.00001655,-0.00002248,0.00005630,
 -0.00004659,0.00000192,-0.00000359,0.00000953,0.00016089,0.00015317,-0
 .00045218,0.00521877,-0.01165529,-0.00606299,-0.09393426,0.09008002,0.
 04434804,-0.00047813,-0.00194769,0.00122266,0.00016165,0.00019749,-0.0
 0005663,-0.00008439,0.00011410,0.00010761,-0.00007584,-0.00006824,-0.0
 0021748,0.00062246,0.00016368,-0.00067143,-0.00961123,0.02542525,0.013
 76697,0.09474968,0.00003341,0.00000347,-0.00001360,-0.00008168,-0.0000
 2688,-0.00004812,0.00001171,0.00002391,0.00002150,0.00000030,0.0000088
 7,0.00003038,0.00000861,-0.00004245,0.00001275,0.00001255,0.00001657,-
 0.00001079,-0.00000744,0.00001147,0.00001034,0.00002374,-0.00003746,0.
 00006393,0.00001123,-0.00000100,-0.00000101,0.00000695,0.00000571,-0.0
 0001153,-0.00001427,0.00000667,0.00000956,0.00000157,-0.00001839,-0.00
 005184,0.00002997,0.00001204,0.00000242,-0.00003559,0.00003158,0.00001
 042,0.00055107,0.00083031,-0.00132462,0.01248153,-0.02033655,-0.012248
 13,0.08870098,-0.22559027,-0.08855335,-0.00357174,-0.00385973,0.003801
 14,-0.00015714,0.00025688,0.00102307,-0.00003843,-0.00003763,0.0000516
 8,-0.00027101,0.00037220,-0.00005747,-0.00033680,0.00077772,-0.0003713
 2,-0.00175713,0.00262862,0.00179480,-0.09478021,0.24401174,-0.00001688
 ,-0.00002039,0.00005900,-0.00004074,0.00001665,-0.00001768,-0.00000654
 ,-0.00000871,-0.00000337,0.00000418,0.00000131,0.00000920,0.00002168,0
 .00000692,-0.00001957,0.00000609,-0.00000034,-0.00000909,0.00001685,0.
 00000232,-0.00000460,0.00001592,0.00000137,-0.00001836,0.00000404,0.00
 000019,0.00000794,-0.00000528,-0.00000264,-0.00000481,-0.00000298,0.00
 000438,-0.00000507,0.00000183,0.00000615,0.00000164,0.00000246,-0.0000
 0200,0.00000612,0.00000297,0.00000037,-0.00000690,-0.00060699,0.000961
 49,0.00107012,-0.00725558,0.01191721,0.00503110,0.04458260,-0.09023751
 ,-0.09416562,0.00103602,0.00202420,-0.00110052,0.00029330,-0.00001935,
 -0.00027742,-0.00003701,-0.00003193,-0.00004541,-0.00001833,-0.0001861
 4,0.00018051,-0.00022733,-0.00072178,0.00033997,-0.00218612,0.00526817
 ,0.00176921,-0.04938964,0.09505557,0.09592662,0.00007356,0.00004690,-0
 .00022446,-0.00008141,-0.00012422,-0.00009769,-0.00000045,0.00006705,-
 0.00001207,0.00002955,0.00000146,0.00004433,-0.00006173,-0.00003157,0.
 00027344,0.00007867,0.00002740,-0.00002613,-0.00013841,0.00005041,0.00
 005107,0.00011005,-0.00004756,-0.00008731,-0.00000555,-0.00000838,0.00
 002157,-0.00002010,-0.00002833,-0.00000422,-0.00003394,0.00002853,0.00
 002034,-0.00000808,-0.00003705,0.00002392,-0.00000484,-0.00000236,0.00
 000406,-0.00001269,0.00003559,0.00000076,-0.00060823,-0.00225666,0.000
 78928,0.00194849,0.00041498,0.01364513,-0.05913312,0.00105302,-0.05065
 132,0.00008358,0.00056780,-0.00020915,-0.00006293,-0.00010865,-0.00031
 970,0.00028374,-0.00014708,0.00030569,0.00050672,-0.00024917,0.0007405
 4,0.00035050,0.00065268,0.00029763,-0.00284377,0.00000620,-0.03107097,
 0.00260754,-0.00140119,0.01370623,0.05693317,-0.00001506,0.00004085,-0
 .00004635,0.00003473,-0.00003001,0.00003585,-0.00000241,0.00002827,-0.
 00001740,-0.00004397,-0.00000332,0.00001873,0.00000333,-0.00006057,0.0
 0005110,0.00003195,0.00000646,-0.00002018,-0.00002670,0.00000303,-0.00
 000102,-0.00002687,0.00001207,-0.00001900,-0.00001166,-0.00000403,-0.0
 0000128,0.00000340,-0.00000151,0.00000012,0.00000102,-0.00000218,0.000
 00622,0.00000087,0.00000818,0.00000002,-0.00000152,0.00000071,-0.00001
 401,0.00001572,-0.00000210,-0.00000505,-0.00250947,-0.00492006,0.00134
 858,0.00720702,0.00025423,0.02704779,0.00060695,-0.04871127,0.00052121
 ,0.00037523,0.00131859,0.00130251,-0.00020881,0.00016625,0.00006694,0.
 00004452,-0.00007161,-0.00023368,0.00008599,0.00012306,0.00178740,0.00
 009750,0.00098466,-0.00059452,0.00004102,-0.00102795,-0.00087091,-0.00
 680206,0.00190303,-0.02483297,0.00130562,0.05028920,0.00009565,0.00001
 952,-0.00006110,-0.00004907,-0.00001702,-0.00003165,0.00000696,0.00002
 359,-0.00000256,0.00005353,0.00000845,-0.00001488,-0.00002878,0.000004
 15,0.00008274,0.00000597,-0.00000491,-0.00000097,-0.00003536,0.0000161
 2,0.00002382,0.00000977,-0.00001175,-0.00007185,-0.00000162,-0.0000031
 4,0.00001011,-0.00001800,-0.00002273,0.00000573,-0.00001787,0.00001847
 ,0.00000953,-0.00001300,-0.00002861,0.00002973,-0.00001315,-0.00000535
 ,0.00000832,-0.00001322,0.00001483,0.00000990,0.00207015,0.00335609,0.
 00007649,-0.00310659,-0.00189912,-0.01225465,-0.04988681,0.00249859,-0
 .30599048,-0.00018119,-0.00106234,0.00068633,-0.00006887,-0.00007133,0
 .00037079,-0.00002685,-0.00012835,0.00024846,-0.00022576,0.00018376,-0
 .00094894,0.00047874,-0.00006937,0.00034395,0.00064197,-0.00007184,-0.
 00126172,-0.00269459,0.00135109,-0.00956716,0.05297694,-0.00467806,0.3
 2753304,-0.00009642,0.00009194,-0.00006440,0.00028235,-0.00011654,0.00
 038014,-0.00006725,0.00002970,-0.00017214,-0.00003049,-0.00007288,0.00
 006923,0.00001956,0.00000552,0.00001659,0.00000192,0.00000351,0.000009
 55,-0.00002249,-0.00005593,-0.00004703,-0.00006092,0.00016956,-0.00026
 795,-0.00008082,-0.00000736,0.00001963,0.00001427,0.00000318,0.0000028
 5,0.00001118,-0.00000099,0.00001974,0.00004030,-0.00009889,-0.00001120
 ,-0.00001252,0.00004868,-0.00005311,-0.00003092,0.00000229,0.00006570,
 0.00016073,-0.00014951,-0.00045320,0.00521912,0.01169998,-0.00596834,-
 0.00047746,0.00193761,0.00123763,-0.09396623,-0.09045453,0.04364473,-0
 .00007578,0.00007002,-0.00021693,-0.00008440,-0.00011493,0.00010669,0.
 00016166,-0.00019703,-0.00005837,0.00062260,-0.00015825,-0.00067266,0.
 00029703,0.00032828,0.00006665,0.00055558,0.00067270,-0.00008870,-0.00
 015749,-0.00012359,0.00016106,0.09478418,-0.00000032,0.00000911,-0.000
 03037,0.00008195,-0.00002711,0.00004799,-0.00001164,0.00002400,-0.0000
 2126,-0.00003325,0.00000323,0.00001313,-0.00000159,-0.00001875,0.00005
 168,0.00003557,0.00003166,-0.00001011,-0.00002999,0.00001205,-0.000002
 37,-0.00002386,-0.00003699,-0.00006404,-0.00001125,-0.00000100,0.00000
 094,0.00001429,0.00000678,-0.00000947,-0.00000691,0.00000560,0.0000116
 1,-0.00000879,-0.00004228,-0.00001291,0.00000730,0.00001156,-0.0000102
 0,-0.00001260,0.00001648,0.00001099,-0.00054607,0.00082745,0.00132268,
 -0.01242781,-0.02033756,0.01204720,0.00356284,-0.00381416,-0.00382293,
 -0.08907716,-0.22697328,0.08748690,0.00027121,0.00037019,0.00005898,0.
 00003875,-0.00003745,-0.00005160,0.00015478,0.00026483,-0.00101873,0.0
 0033860,0.00076904,0.00037486,-0.00001841,0.00028452,-0.00009821,-0.00
 067222,-0.00157430,0.00066153,0.00011071,0.00034142,-0.00003063,0.0951
 9721,0.24548203,0.00000418,-0.00000130,0.00000894,-0.00004010,-0.00001
 673,-0.00001743,-0.00000663,0.00000893,-0.00000347,-0.00001712,0.00001
 996,0.00005925,0.00000181,-0.00000631,0.00000200,0.00000325,-0.0000000
 6,-0.00000698,0.00000222,0.00000205,0.00000612,0.00001573,-0.00000150,
 -0.00001888,0.00000395,-0.00000026,0.00000795,-0.00000287,-0.00000428,
 -0.00000517,-0.00000534,0.00000272,-0.00000470,0.00002159,-0.00000712,
 -0.00001972,0.00001690,-0.00000219,-0.00000470,0.00000598,0.00000054,-
 0.00000899,-0.00061150,-0.00096324,0.00107298,-0.00735637,-0.01211704,
 0.00503161,0.00106395,-0.00204573,-0.00114682,0.04389045,0.08917089,-0
 .09274971,-0.00001613,0.00018766,0.00018244,-0.00003668,0.00003197,-0.
 00004557,0.00029452,0.00002363,-0.00028537,-0.00022458,0.00072521,0.00
 034873,0.00007969,0.00008115,-0.00013484,-0.00009408,-0.00067931,0.000
 67397,0.00010901,-0.00021351,0.00030285,-0.04864983,-0.09385514,0.0944
 2120,0.00007593,0.00007944,0.00008144,-0.00087292,-0.00019980,-0.00023
 930,0.00000829,0.00000675,-0.00001873,-0.00039974,-0.00030427,-0.00034
 400,0.00003566,0.00004766,0.00000160,-0.00001708,-0.00001750,0.0000163
 8,0.00000267,-0.00000984,-0.00002901,-0.00095663,-0.00059316,-0.000066
 57,-0.00004255,0.00000239,0.00001234,0.00000733,-0.00000852,0.00001415
 ,0.00001971,0.00000352,0.00000321,-0.00034013,0.00008064,-0.00009620,-
 0.00014776,-0.00004796,0.00004055,0.00009074,0.00008973,0.00000933,0.0
 0074875,-0.00052561,-0.00061181,-0.01271222,0.00020727,-0.00172249,0.0
 0085723,-0.00079056,0.00003067,-0.30793992,0.01023056,-0.03493480,0.00
 035405,-0.00000199,0.00004376,0.00027948,0.00014663,0.00082832,-0.0000
 8181,0.00003716,-0.00000724,0.00048716,0.00247597,0.00140188,0.0003782
 9,0.00065029,-0.00022748,0.00029698,0.00001780,0.00007982,-0.00005465,
 0.00003386,0.00003392,-0.00961559,0.00177642,-0.00217346,0.33238086,0.
 00009550,-0.00008839,0.00011954,-0.00067672,0.00011142,-0.00068679,0.0
 0011977,-0.00002011,0.00026141,-0.00012074,0.00022877,0.00000502,-0.00
 000163,-0.00001098,-0.00005054,-0.00000997,-0.00002645,-0.00000977,0.0
 0004955,0.00006012,0.00005007,-0.00059434,-0.00040744,0.00039327,0.000
 10247,-0.00000028,-0.00003102,-0.00002350,-0.00001519,-0.00000481,0.00
 001118,-0.00000777,-0.00004236,-0.00002006,0.00015834,0.00004341,0.000
 01782,-0.00017610,0.00003461,0.00017195,-0.00014622,-0.00009682,0.0001
 3735,0.00090481,0.00132091,0.02834808,-0.00137018,0.00408057,0.0012037
 1,0.00166304,0.00028486,0.00938001,-0.04874953,0.00193564,-0.00021712,
 -0.00001147,0.00024500,-0.00054709,0.00013580,-0.00034434,-0.00014359,
 -0.00004519,-0.00008834,0.00237033,-0.00446591,-0.00269456,-0.00064850
 ,-0.00029131,-0.00009753,-0.00032882,0.00028436,-0.00007785,-0.0000438
 9,-0.00005468,0.00004188,-0.02553167,0.00268838,-0.00526175,-0.0133410
 0,0.05068767,-0.00013775,0.00008613,-0.00008423,0.00023664,-0.00022262
 ,0.00031454,-0.00004083,0.00011968,-0.00008593,-0.00045508,0.00000648,
 0.00031052,0.00003194,-0.00005273,-0.00003664,0.00003162,0.00003620,0.
 00000064,0.00000530,-0.00004625,-0.00004776,-0.00008505,0.00014686,0.0
 0004193,-0.00004545,-0.00001620,-0.00000875,0.00005029,0.00002579,-0.0
 0002222,0.00004460,-0.00003489,0.00000189,-0.00026155,-0.00004736,-0.0
 0057618,0.00012482,0.00005236,-0.00016129,0.00002969,-0.00006389,0.000
 01827,0.00133178,0.00043747,0.00102261,0.01495768,-0.00033175,0.001346
 71,-0.00029740,0.00073120,0.00007372,-0.03570976,0.00209995,-0.0540731
 6,-0.00025472,0.00014574,0.00011138,-0.00038271,-0.00024616,-0.0000858
 1,0.00003275,0.00005508,-0.00004058,0.00138955,-0.00269951,-0.00069423
 ,-0.00023262,0.00009381,0.00019168,0.00006407,0.00010151,-0.00013465,-
 0.00015388,-0.00006171,-0.00005309,0.01356378,-0.00178952,0.00171375,0
 .03723217,0.00059675,0.05221250,0.00002956,-0.00000182,0.00004433,-0.0
 0008148,0.00012496,-0.00009677,-0.00000044,-0.00006694,-0.00001256,0.0
 0007365,-0.00004510,-0.00022482,-0.00000808,0.00003685,0.00002419,-0.0
 0001270,-0.00003559,0.00000048,-0.00000484,0.00000234,0.00000409,0.000
 11003,0.00004820,-0.00008684,-0.00000553,0.00000821,0.00002163,-0.0000
 3394,-0.00002868,0.00002011,-0.00002010,0.00002836,-0.00000400,-0.0000
 6186,0.00002944,0.00027362,-0.00013841,-0.00005081,0.00005068,0.000078
 67,-0.00002720,-0.00002635,-0.00060756,0.00224967,0.00080688,0.0019470
 4,-0.00052379,0.01363763,0.00008358,-0.00056598,-0.00021378,-0.0591288
 7,-0.00064893,-0.05064619,0.00050675,0.00024324,0.00074223,0.00028372,
 0.00014462,0.00030686,-0.00006291,0.00011122,-0.00031884,0.00035031,-0
 .00065496,0.00029244,-0.00005467,0.00004512,-0.00015354,-0.00015752,-0
 .00011151,0.00010814,0.00022183,-0.00011661,-0.00015395,0.00260830,0.0
 0129223,0.01372144,-0.00284211,0.00024090,-0.03106987,0.05692758,0.000
 04354,-0.00000311,-0.00001863,-0.00003434,-0.00002987,-0.00003583,0.00
 000237,0.00002832,0.00001765,0.00001432,0.00004063,0.00004715,-0.00000
 077,0.00000795,-0.00000020,-0.00001561,-0.00000201,0.00000496,0.000001
 63,0.00000056,0.00001395,0.00002678,0.00001181,0.00001968,0.00001167,-
 0.00000406,0.00000116,-0.00000088,-0.00000198,-0.00000631,-0.00000326,
 -0.00000170,-0.00000018,-0.00000310,-0.00006013,-0.00005225,0.00002699
 ,0.00000315,0.00000086,-0.00003202,0.00000628,0.00002025,0.00249255,-0
 .00488313,-0.00138805,-0.00718123,0.00045428,-0.02694923,-0.00037363,0
 .00132060,-0.00129743,-0.00020908,-0.04870327,0.00152991,-0.00008427,0
 .00013857,-0.00177891,-0.00004436,-0.00007446,0.00023108,0.00020937,0.
 00016618,-0.00006851,-0.00010120,0.00097939,0.00059955,-0.00003417,-0.
 00005483,0.00006172,0.00012235,0.00033950,0.00021377,0.00011779,-0.000
 59071,0.00056801,0.00682191,0.00171457,0.02492078,-0.00004589,-0.00103
 550,0.00087760,-0.00172744,0.05023297,0.00005387,-0.00000837,-0.000015
 09,-0.00004936,0.00001706,-0.00003183,0.00000698,-0.00002335,-0.000002
 60,0.00009577,-0.00001872,-0.00006089,-0.00001300,0.00002844,0.0000299
 5,-0.00001334,-0.00001493,0.00000982,-0.00001313,0.00000529,0.00000848
 ,0.00001001,0.00001242,-0.00007158,-0.00000152,0.00000303,0.00001014,-
 0.00001788,-0.00001856,0.00000933,-0.00001802,0.00002267,0.00000590,-0
 .00002881,-0.00000526,0.00008231,-0.00003515,-0.00001629,0.00002371,0.
 00000573,0.00000496,-0.00000078,0.00208957,-0.00339558,0.00003893,-0.0
 0316291,0.00200038,-0.01245309,-0.00018410,0.00106750,0.00068454,-0.04
 987861,-0.00044758,-0.30600281,-0.00022646,-0.00017511,-0.00096448,-0.
 00002719,0.00012579,0.00025131,-0.00006720,0.00006971,0.00037082,0.000
 47794,0.00007430,0.00034921,0.00003362,-0.00004195,-0.00005297,0.00016
 204,0.00003092,0.00030480,-0.00015307,-0.00057681,0.00051726,-0.002640
 12,-0.00126100,-0.00937944,0.00064156,0.00007355,-0.00125563,0.0529527
 8,0.00246747,0.32759468\\-0.00000003,0.00000005,0.00000027,-0.00000064
 ,0.00000011,-0.00000019,0.00000097,0.00000004,0.00000004,0.00000014,-0
 .00000043,0.00000059,0.00000009,0.00000016,0.00000008,0.00000002,-0.00
 000018,0.00000029,-0.00000036,0.00000007,0.00000013,0.00000027,0.00000
 011,0.00000071,-0.00000036,0.,0.00000031,0.00000007,-0.00000020,0.0000
 0053,0.00000007,0.00000019,0.00000053,-0.00000018,0.00000040,-0.000000
 33,-0.00000037,-0.00000009,0.00000013,0.00000004,0.00000017,0.00000031
 ,0.00000008,0.,-0.00000031,0.00000004,0.00000003,-0.00000089,0.0000003
 3,0.00000024,-0.00000021,0.00000026,0.00000037,-0.00000039,-0.00000010
 ,-0.00000010,-0.00000039,-0.00000051,-0.00000014,0.00000049,-0.0000000
 7,0.00000007,-0.00000039,0.00000019,-0.00000002,-0.00000009,-0.0000003
 7,-0.00000043,-0.00000032,0.00000009,-0.00000014,-0.00000040,0.0000002
 2,0.00000007,-0.00000002,0.00000008,0.00000014,-0.00000042,-0.00000027
 ,-0.00000046,-0.00000002,0.00000029,-0.00000003,-0.00000004\\\@


 Make no judgements where you have no compassion.
                               -- Anne McCaffrey
 File lengths (MBytes):  RWF=     82 Int=      0 D2E=      0 Chk=      4 Scr=      1
 Normal termination of Gaussian 16 at Sun Feb  5 15:50:06 2023.
real 1589.14
user 6034.27
sys 40.64
