 Entering Gaussian System, Link 0=g16
 Input=gaussian_test.inp
 Output=gaussian_test.log
 Initial command:
 /sw/restricted/lms/sw/Gaussian/g16_B01/g16/l1.exe "/scratch/user/peterchao1/peterchao1/6949353_1675442988000000997808256/Gau-210112.inp" -scrdir="/scratch/user/peterchao1/peterchao1/6949353_1675442988000000997808256/"
 Entering Link 1 = /sw/restricted/lms/sw/Gaussian/g16_B01/g16/l1.exe PID=    210116.
  
 Copyright (c) 1988-2017, Gaussian, Inc.  All Rights Reserved.
  
 This is part of the Gaussian(R) 16 program.  It is based on
 the Gaussian(R) 09 system (copyright 2009, Gaussian, Inc.),
 the Gaussian(R) 03 system (copyright 2003, Gaussian, Inc.),
 the Gaussian(R) 98 system (copyright 1998, Gaussian, Inc.),
 the Gaussian(R) 94 system (copyright 1995, Gaussian, Inc.),
 the Gaussian 92(TM) system (copyright 1992, Gaussian, Inc.),
 the Gaussian 90(TM) system (copyright 1990, Gaussian, Inc.),
 the Gaussian 88(TM) system (copyright 1988, Gaussian, Inc.),
 the Gaussian 86(TM) system (copyright 1986, Carnegie Mellon
 University), and the Gaussian 82(TM) system (copyright 1983,
 Carnegie Mellon University). Gaussian is a federally registered
 trademark of Gaussian, Inc.
  
 This software contains proprietary and confidential information,
 including trade secrets, belonging to Gaussian, Inc.
  
 This software is provided under written license and may be
 used, copied, transmitted, or stored only in accord with that
 written license.
  
 The following legend is applicable only to US Government
 contracts under FAR:
  
                    RESTRICTED RIGHTS LEGEND
  
 Use, reproduction and disclosure by the US Government is
 subject to restrictions as set forth in subparagraphs (a)
 and (c) of the Commercial Computer Software - Restricted
 Rights clause in FAR 52.227-19.
  
 Gaussian, Inc.
 340 Quinnipiac St., Bldg. 40, Wallingford CT 06492
  
  
 ---------------------------------------------------------------
 Warning -- This program may not be used in any manner that
 competes with the business of Gaussian, Inc. or will provide
 assistance to any competitor of Gaussian, Inc.  The licensee
 of this program is prohibited from giving any competitor of
 Gaussian, Inc. access to this program.  By using this program,
 the user acknowledges that Gaussian, Inc. is engaged in the
 business of creating and licensing software in the field of
 computational chemistry and represents and warrants to the
 licensee that it is not a competitor of Gaussian, Inc. and that
 it will not use this program in any manner prohibited above.
 ---------------------------------------------------------------
  

 Cite this work as:
 Gaussian 16, Revision B.01,
 M. J. Frisch, G. W. Trucks, H. B. Schlegel, G. E. Scuseria, 
 M. A. Robb, J. R. Cheeseman, G. Scalmani, V. Barone, 
 G. A. Petersson, H. Nakatsuji, X. Li, M. Caricato, A. V. Marenich, 
 J. Bloino, B. G. Janesko, R. Gomperts, B. Mennucci, H. P. Hratchian, 
 J. V. Ortiz, A. F. Izmaylov, J. L. Sonnenberg, D. Williams-Young, 
 F. Ding, F. Lipparini, F. Egidi, J. Goings, B. Peng, A. Petrone, 
 T. Henderson, D. Ranasinghe, V. G. Zakrzewski, J. Gao, N. Rega, 
 G. Zheng, W. Liang, M. Hada, M. Ehara, K. Toyota, R. Fukuda, 
 J. Hasegawa, M. Ishida, T. Nakajima, Y. Honda, O. Kitao, H. Nakai, 
 T. Vreven, K. Throssell, J. A. Montgomery, Jr., J. E. Peralta, 
 F. Ogliaro, M. J. Bearpark, J. J. Heyd, E. N. Brothers, K. N. Kudin, 
 V. N. Staroverov, T. A. Keith, R. Kobayashi, J. Normand, 
 K. Raghavachari, A. P. Rendell, J. C. Burant, S. S. Iyengar, 
 J. Tomasi, M. Cossi, J. M. Millam, M. Klene, C. Adamo, R. Cammi, 
 J. W. Ochterski, R. L. Martin, K. Morokuma, O. Farkas, 
 J. B. Foresman, and D. J. Fox, Gaussian, Inc., Wallingford CT, 2016.
 
 ******************************************
 Gaussian 16:  ES64L-G16RevB.01 20-Dec-2017
                 3-Feb-2023 
 ******************************************
 %nprocshared=4
 Will use up to    4 processors via shared memory.
 %mem=8000mb
 %chk=32.chk
 %nprocshared=4
 Will use up to    4 processors via shared memory.
 %mem=8000mb
 ----------------------------------------------------------------------
 #T wB97XD/def2svpp opt=tight freq int(grid=ultrafine) scf=(verytight,q
 c) Volume=tight
 ----------------------------------------------------------------------
 -----
 Dimer
 -----
 Symbolic Z-matrix:
 Charge =  0 Multiplicity = 1
 C                    -5.69909  -0.222    -0.01498 
 C                    -4.2156   -0.56429   0.00182 
 C                    -3.35351   0.69391  -0.00411 
 C                    -1.87688   0.38811   0.00454 
 O                    -1.13256   1.46604   0.00465 
 O                    -1.4258   -0.74228   0.00988 
 H                    -5.95058   0.34989  -0.90557 
 H                    -5.96616   0.36924   0.85827 
 H                    -6.29764  -1.12927  -0.01035 
 H                    -3.96473  -1.17242  -0.86878 
 H                    -3.98033  -1.15376   0.88944 
 H                    -3.56773   1.31641   0.86793 
 H                    -3.55936   1.30142  -0.88876 
 H                    -0.1486    1.25504   0.00733 
 C                     5.69912   0.22176  -0.01366 
 C                     4.21569   0.56415   0.00589 
 C                     3.35345  -0.69389  -0.00883 
 C                     1.87685  -0.388     0.00209 
 O                     1.13253  -1.46592   0.00665 
 O                     1.4258    0.74241   0.00545 
 H                     5.96628  -0.3757    0.85532 
 H                     6.2978    1.12888  -0.0027 
 H                     5.95035  -0.34383  -0.90836 
 H                     3.96464   1.17852  -0.86025 
 H                     3.98075   1.1473    0.89779 
 H                     3.56796  -1.32323   0.85816 
 H                     3.55887  -1.29446  -0.89836 
 H                     0.14856  -1.2549    0.01068 
 
 Add virtual bond connecting atoms O20        and H14        Dist= 3.13D+00.
 Add virtual bond connecting atoms H28        and O6         Dist= 3.13D+00.

 GradGradGradGradGradGradGradGradGradGradGradGradGradGradGradGradGradGrad
 Initialization pass.
                           ----------------------------
                           !    Initial Parameters    !
                           ! (Angstroms and Degrees)  !
 --------------------------                            --------------------------
 ! Name  Definition              Value          Derivative Info.                !
 --------------------------------------------------------------------------------
 ! R1    R(1,2)                  1.5226         estimate D2E/DX2                !
 ! R2    R(1,7)                  1.0879         estimate D2E/DX2                !
 ! R3    R(1,8)                  1.0879         estimate D2E/DX2                !
 ! R4    R(1,9)                  1.0869         estimate D2E/DX2                !
 ! R5    R(2,3)                  1.5252         estimate D2E/DX2                !
 ! R6    R(2,10)                 1.0912         estimate D2E/DX2                !
 ! R7    R(2,11)                 1.0912         estimate D2E/DX2                !
 ! R8    R(3,4)                  1.508          estimate D2E/DX2                !
 ! R9    R(3,12)                 1.0926         estimate D2E/DX2                !
 ! R10   R(3,13)                 1.0927         estimate D2E/DX2                !
 ! R11   R(4,5)                  1.3099         estimate D2E/DX2                !
 ! R12   R(4,6)                  1.2171         estimate D2E/DX2                !
 ! R13   R(5,14)                 1.0063         estimate D2E/DX2                !
 ! R14   R(6,28)                 1.6557         estimate D2E/DX2                !
 ! R15   R(14,20)                1.6558         estimate D2E/DX2                !
 ! R16   R(15,16)                1.5226         estimate D2E/DX2                !
 ! R17   R(15,21)                1.0879         estimate D2E/DX2                !
 ! R18   R(15,22)                1.0869         estimate D2E/DX2                !
 ! R19   R(15,23)                1.0879         estimate D2E/DX2                !
 ! R20   R(16,17)                1.5252         estimate D2E/DX2                !
 ! R21   R(16,24)                1.0912         estimate D2E/DX2                !
 ! R22   R(16,25)                1.0912         estimate D2E/DX2                !
 ! R23   R(17,18)                1.508          estimate D2E/DX2                !
 ! R24   R(17,26)                1.0926         estimate D2E/DX2                !
 ! R25   R(17,27)                1.0928         estimate D2E/DX2                !
 ! R26   R(18,19)                1.3099         estimate D2E/DX2                !
 ! R27   R(18,20)                1.2171         estimate D2E/DX2                !
 ! R28   R(19,28)                1.0063         estimate D2E/DX2                !
 ! A1    A(2,1,7)              110.6378         estimate D2E/DX2                !
 ! A2    A(2,1,8)              110.642          estimate D2E/DX2                !
 ! A3    A(2,1,9)              110.4165         estimate D2E/DX2                !
 ! A4    A(7,1,8)              108.3424         estimate D2E/DX2                !
 ! A5    A(7,1,9)              108.3596         estimate D2E/DX2                !
 ! A6    A(8,1,9)              108.3634         estimate D2E/DX2                !
 ! A7    A(1,2,3)              111.4212         estimate D2E/DX2                !
 ! A8    A(1,2,10)             109.9075         estimate D2E/DX2                !
 ! A9    A(1,2,11)             109.9073         estimate D2E/DX2                !
 ! A10   A(3,2,10)             109.0678         estimate D2E/DX2                !
 ! A11   A(3,2,11)             109.0821         estimate D2E/DX2                !
 ! A12   A(10,2,11)            107.3593         estimate D2E/DX2                !
 ! A13   A(2,3,4)              112.716          estimate D2E/DX2                !
 ! A14   A(2,3,12)             110.8583         estimate D2E/DX2                !
 ! A15   A(2,3,13)             110.8113         estimate D2E/DX2                !
 ! A16   A(4,3,12)             107.6342         estimate D2E/DX2                !
 ! A17   A(4,3,13)             107.5693         estimate D2E/DX2                !
 ! A18   A(12,3,13)            107.0049         estimate D2E/DX2                !
 ! A19   A(3,4,5)              112.9245         estimate D2E/DX2                !
 ! A20   A(3,4,6)              123.4551         estimate D2E/DX2                !
 ! A21   A(5,4,6)              123.6203         estimate D2E/DX2                !
 ! A22   A(4,5,14)             112.5215         estimate D2E/DX2                !
 ! A23   A(4,6,28)             129.7893         estimate D2E/DX2                !
 ! A24   A(16,15,21)           110.6411         estimate D2E/DX2                !
 ! A25   A(16,15,22)           110.4158         estimate D2E/DX2                !
 ! A26   A(16,15,23)           110.6388         estimate D2E/DX2                !
 ! A27   A(21,15,22)           108.3628         estimate D2E/DX2                !
 ! A28   A(21,15,23)           108.3432         estimate D2E/DX2                !
 ! A29   A(22,15,23)           108.3601         estimate D2E/DX2                !
 ! A30   A(15,16,17)           111.4185         estimate D2E/DX2                !
 ! A31   A(15,16,24)           109.9121         estimate D2E/DX2                !
 ! A32   A(15,16,25)           109.9037         estimate D2E/DX2                !
 ! A33   A(17,16,24)           109.0667         estimate D2E/DX2                !
 ! A34   A(17,16,25)           109.0851         estimate D2E/DX2                !
 ! A35   A(24,16,25)           107.3592         estimate D2E/DX2                !
 ! A36   A(16,17,18)           112.7163         estimate D2E/DX2                !
 ! A37   A(16,17,26)           110.8824         estimate D2E/DX2                !
 ! A38   A(16,17,27)           110.7871         estimate D2E/DX2                !
 ! A39   A(18,17,26)           107.6586         estimate D2E/DX2                !
 ! A40   A(18,17,27)           107.5441         estimate D2E/DX2                !
 ! A41   A(26,17,27)           107.0055         estimate D2E/DX2                !
 ! A42   A(17,18,19)           112.923          estimate D2E/DX2                !
 ! A43   A(17,18,20)           123.4565         estimate D2E/DX2                !
 ! A44   A(19,18,20)           123.6204         estimate D2E/DX2                !
 ! A45   A(18,19,28)           112.5221         estimate D2E/DX2                !
 ! A46   A(14,20,18)           129.7879         estimate D2E/DX2                !
 ! A47   L(5,14,20,6,-1)       174.0686         estimate D2E/DX2                !
 ! A48   L(6,28,19,20,-1)      174.0685         estimate D2E/DX2                !
 ! A49   L(5,14,20,6,-2)       179.7632         estimate D2E/DX2                !
 ! A50   L(6,28,19,20,-2)      180.2591         estimate D2E/DX2                !
 ! D1    D(7,1,2,3)             60.0526         estimate D2E/DX2                !
 ! D2    D(7,1,2,10)           -60.9654         estimate D2E/DX2                !
 ! D3    D(7,1,2,11)          -178.9114         estimate D2E/DX2                !
 ! D4    D(8,1,2,3)            -60.0285         estimate D2E/DX2                !
 ! D5    D(8,1,2,10)           178.9534         estimate D2E/DX2                !
 ! D6    D(8,1,2,11)            61.0075         estimate D2E/DX2                !
 ! D7    D(9,1,2,3)           -179.9917         estimate D2E/DX2                !
 ! D8    D(9,1,2,10)            58.9903         estimate D2E/DX2                !
 ! D9    D(9,1,2,11)           -58.9557         estimate D2E/DX2                !
 ! D10   D(1,2,3,4)           -179.6835         estimate D2E/DX2                !
 ! D11   D(1,2,3,12)            59.5888         estimate D2E/DX2                !
 ! D12   D(1,2,3,13)           -59.0726         estimate D2E/DX2                !
 ! D13   D(10,2,3,4)           -58.176          estimate D2E/DX2                !
 ! D14   D(10,2,3,12)         -178.9037         estimate D2E/DX2                !
 ! D15   D(10,2,3,13)           62.4349         estimate D2E/DX2                !
 ! D16   D(11,2,3,4)            58.7997         estimate D2E/DX2                !
 ! D17   D(11,2,3,12)          -61.9281         estimate D2E/DX2                !
 ! D18   D(11,2,3,13)          179.4105         estimate D2E/DX2                !
 ! D19   D(2,3,4,5)           -179.7548         estimate D2E/DX2                !
 ! D20   D(2,3,4,6)              0.295          estimate D2E/DX2                !
 ! D21   D(12,3,4,5)           -57.1999         estimate D2E/DX2                !
 ! D22   D(12,3,4,6)           122.8499         estimate D2E/DX2                !
 ! D23   D(13,3,4,5)            57.795          estimate D2E/DX2                !
 ! D24   D(13,3,4,6)          -122.1552         estimate D2E/DX2                !
 ! D25   D(3,4,5,14)          -179.8078         estimate D2E/DX2                !
 ! D26   D(6,4,5,14)             0.1423         estimate D2E/DX2                !
 ! D27   D(3,4,6,28)           179.5984         estimate D2E/DX2                !
 ! D28   D(5,4,6,28)            -0.3465         estimate D2E/DX2                !
 ! D29   D(4,5,20,18)            0.2136         estimate D2E/DX2                !
 ! D30   D(4,6,19,18)            0.1836         estimate D2E/DX2                !
 ! D31   D(21,15,16,17)        -60.0313         estimate D2E/DX2                !
 ! D32   D(21,15,16,24)        178.9507         estimate D2E/DX2                !
 ! D33   D(21,15,16,25)         61.0042         estimate D2E/DX2                !
 ! D34   D(22,15,16,17)       -179.9926         estimate D2E/DX2                !
 ! D35   D(22,15,16,24)         58.9894         estimate D2E/DX2                !
 ! D36   D(22,15,16,25)        -58.957          estimate D2E/DX2                !
 ! D37   D(23,15,16,17)         60.0509         estimate D2E/DX2                !
 ! D38   D(23,15,16,24)        -60.9671         estimate D2E/DX2                !
 ! D39   D(23,15,16,25)       -178.9136         estimate D2E/DX2                !
 ! D40   D(15,16,17,18)       -179.6736         estimate D2E/DX2                !
 ! D41   D(15,16,17,26)         59.5499         estimate D2E/DX2                !
 ! D42   D(15,16,17,27)        -59.1122         estimate D2E/DX2                !
 ! D43   D(24,16,17,18)        -58.1628         estimate D2E/DX2                !
 ! D44   D(24,16,17,26)       -178.9393         estimate D2E/DX2                !
 ! D45   D(24,16,17,27)         62.3986         estimate D2E/DX2                !
 ! D46   D(25,16,17,18)         58.8137         estimate D2E/DX2                !
 ! D47   D(25,16,17,26)        -61.9628         estimate D2E/DX2                !
 ! D48   D(25,16,17,27)        179.3751         estimate D2E/DX2                !
 ! D49   D(16,17,18,19)       -179.1854         estimate D2E/DX2                !
 ! D50   D(16,17,18,20)          0.8576         estimate D2E/DX2                !
 ! D51   D(26,17,18,19)        -56.5829         estimate D2E/DX2                !
 ! D52   D(26,17,18,20)        123.4601         estimate D2E/DX2                !
 ! D53   D(27,17,18,19)         58.4122         estimate D2E/DX2                !
 ! D54   D(27,17,18,20)       -121.5447         estimate D2E/DX2                !
 ! D55   D(17,18,19,28)       -179.7998         estimate D2E/DX2                !
 ! D56   D(20,18,19,28)          0.1571         estimate D2E/DX2                !
 ! D57   D(17,18,20,14)        179.5603         estimate D2E/DX2                !
 ! D58   D(19,18,20,14)         -0.3921         estimate D2E/DX2                !
 --------------------------------------------------------------------------------
 Number of steps in this run=    146 maximum allowed number of steps=    168.
 GradGradGradGradGradGradGradGradGradGradGradGradGradGradGradGradGradGrad

                    Distance matrix (angstroms):
                    1          2          3          4          5
     1  C    0.000000
     2  C    1.522561   0.000000
     3  C    2.518092   1.525230   0.000000
     4  C    3.870653   2.525218   1.507987   0.000000
     5  O    4.868581   3.691534   2.351353   1.309941   0.000000
     6  O    4.304922   2.795487   2.403936   1.217082   2.227719
     7  H    1.087870   2.160843   2.770524   4.174312   5.028685
     8  H    1.087865   2.160892   2.770395   4.177496   5.029448
     9  H    1.086928   2.157362   3.462936   4.673948   5.780474
    10  H    2.154140   1.091193   2.145799   2.749015   3.968068
    11  H    2.154139   1.091195   2.145982   2.754074   3.969384
    12  H    2.772889   2.169544   1.092632   2.113329   2.587989
    13  H    2.768167   2.169025   1.092726   2.112556   2.591265
    14  H    5.743705   4.455394   3.253681   1.933526   1.006339
    15  C   11.406850   9.945848   9.064938   7.577846   6.944097
    16  C    9.945920   8.506471   7.570311   6.095105   5.423759
    17  C    9.064835   7.570169   6.849034   5.341086   4.978933
    18  C    7.577784   6.095006   5.341089   3.833124   3.534695
    19  O    6.943978   5.423601   4.978904   3.534677   3.705004
    20  O    7.189900   5.790765   4.779565   3.321630   2.658735
    21  H   11.698804  10.219336   9.420252   7.926056   7.383037
    22  H   12.072713  10.648871   9.661100   8.208171   7.438007
    23  H   11.684282  10.208995   9.405119   7.914199   7.367280
    24  H    9.801203   8.408142   7.383970   5.957841   5.178044
    25  H    9.818736   8.420962   7.403402   5.973783   5.200507
    26  H    9.373017   7.867226   7.260795   5.770931   5.532042
    27  H    9.361644   7.860398   7.248048   5.761387   5.517726
    28  H    5.938235   4.418480   4.007815   2.608051   3.007468
                    6          7          8          9         10
     6  O    0.000000
     7  H    4.743900   0.000000
     8  H    4.750804   1.764021   0.000000
     9  H    4.887226   1.763452   1.763490   0.000000
    10  H    2.720886   2.502483   3.060259   2.486211   0.000000
    11  H    2.732864   3.060221   2.502808   2.485992   1.758390
    12  H    3.092301   3.123692   2.578700   3.768963   3.060726
    13  H    3.088105   2.573644   3.116692   3.765368   2.506917
    14  H    2.370769   5.942706   5.945824   6.595144   4.606841
    15  C    7.189884  11.684502  11.698756  12.072594   9.801272
    16  C    5.790782  10.209297  10.219325  10.648846   8.408323
    17  C    4.779530   9.405246   9.420046   9.660903   7.384050
    18  C    3.321610   7.914361   7.925867   8.208041   5.958001
    19  O    2.658701   7.368838   7.381359   7.437806   5.180202
    20  O    3.214963   7.442791   7.450351   7.947011   5.786941
    21  H    7.449296  12.068096  11.955676  12.317507  10.110995
    22  H    7.947035  12.306293  12.317591  12.796260  10.552984
    23  H    7.443755  11.921134  12.067836  12.305954   9.949715
    24  H    5.788213   9.949887  10.110836  10.552841   8.270536
    25  H    5.795665  10.125190   9.977380  10.566590   8.463602
    26  H    5.098505   9.824097   9.683184   9.905658   7.729586
    27  H    5.096736   9.650575   9.827505   9.897806   7.524641
    28  H    1.655716   6.372948   6.383269   6.447460   4.207066
                   11         12         13         14         15
    11  H    0.000000
    12  H    2.504485   0.000000
    13  H    3.060578   1.756769   0.000000
    14  H    4.611139   3.526314   3.526820   0.000000
    15  C    9.818319   9.372836   9.362212   5.938343   0.000000
    16  C    8.420601   7.867058   7.861003   4.418629   1.522563
    17  C    7.402881   7.260354   7.248621   4.007854   2.518057
    18  C    5.973303   5.770460   5.761962   2.608073   3.870632
    19  O    5.197888   5.529520   5.520306   3.007473   4.868519
    20  O    5.796825   5.099876   5.095487   1.655754   4.304962
    21  H    9.977052   9.683017   9.828147   6.385149   1.087874
    22  H   10.566278   9.905646   9.898407   6.447635   1.086928
    23  H   10.124544   9.823716   9.651001   6.371182   1.087876
    24  H    8.463060   7.729306   7.525056   4.204429   2.154195
    25  H    8.286966   7.550439   7.750411   4.225643   2.154105
    26  H    7.550259   7.608283   7.793545   4.602631   2.772888
    27  H    7.749548   7.792612   7.576799   4.589714   2.768082
    28  H    4.222580   4.599713   4.592657   2.527470   5.743676
                   16         17         18         19         20
    16  C    0.000000
    17  C    1.525233   0.000000
    18  C    2.525223   1.507986   0.000000
    19  O    3.691488   2.351335   1.309946   0.000000
    20  O    2.795572   2.403952   1.217085   2.227726   0.000000
    21  H    2.160889   2.770361   4.177510   5.027328   4.752727
    22  H    2.157355   3.462906   4.673939   5.780409   4.887304
    23  H    2.160862   2.770483   4.174232   5.030681   4.741989
    24  H    1.091185   2.145781   2.748899   3.970570   2.717589
    25  H    1.091207   2.146032   2.754241   3.966798   2.736417
    26  H    2.169822   1.092597   2.113618   2.583950   3.095621
    27  H    2.168758   1.092769   2.112259   2.595300   3.084748
    28  H    4.455387   3.253677   1.933540   1.006344   2.370789
                   21         22         23         24         25
    21  H    0.000000
    22  H    1.763489   0.000000
    23  H    1.764041   1.763462   0.000000
    24  H    3.060294   2.486262   2.502578   0.000000
    25  H    2.502732   2.485942   3.060215   1.758392   0.000000
    26  H    2.578711   3.769079   3.123392   3.060892   2.505099
    27  H    3.116917   3.765170   2.573514   2.506331   3.060446
    28  H    5.944095   6.595126   5.944359   4.608955   4.609039
                   26         27         28
    26  H    0.000000
    27  H    1.756784   0.000000
    28  H    3.523521   3.529604   0.000000
 Framework group  C1[X(C8H16O4)]
 Deg. of freedom    78
                         Standard orientation:                         
 ---------------------------------------------------------------------
 Center     Atomic      Atomic             Coordinates (Angstroms)
 Number     Number       Type             X           Y           Z
 ---------------------------------------------------------------------
      1          6           0        5.699590   -0.208862    0.014472
      2          6           0        4.216892   -0.554575   -0.002322
      3          6           0        3.351899    0.701640    0.003605
      4          6           0        1.875977    0.392437   -0.005051
      5          8           0        1.129180    1.468653   -0.005161
      6          8           0        1.427506   -0.738993   -0.010390
      7          1           0        5.949763    0.363601    0.905068
      8          1           0        5.965297    0.382988   -0.858778
      9          1           0        6.300224   -1.114749    0.009846
     10          1           0        3.967417   -1.163282    0.868276
     11          1           0        3.982975   -1.144585   -0.889946
     12          1           0        3.564690    1.324629   -0.868433
     13          1           0        3.556355    1.309624    0.888253
     14          1           0        0.145704    1.255380   -0.007835
     15          6           0       -5.699618    0.208629    0.013156
     16          6           0       -4.216975    0.554441   -0.006400
     17          6           0       -3.351841   -0.701609    0.008324
     18          6           0       -1.875954   -0.392321   -0.002592
     19          8           0       -1.129145   -1.468524   -0.007154
     20          8           0       -1.427510    0.739130   -0.005955
     21          1           0       -5.965400   -0.389443   -0.855831
     22          1           0       -6.300381    1.114375    0.002198
     23          1           0       -5.949540   -0.357530    0.907850
     24          1           0       -3.967339    1.169384    0.859747
     25          1           0       -3.983387    1.138133   -0.898293
     26          1           0       -3.564906   -1.331447   -0.858667
     27          1           0       -3.555876   -1.302647    0.897857
     28          1           0       -0.145671   -1.255237   -0.011186
 ---------------------------------------------------------------------
 Rotational constants (GHZ):           3.6523272           0.2509534           0.2368826
   200 basis functions,   364 primitive gaussians,   212 cartesian basis functions
    48 alpha electrons       48 beta electrons
       nuclear repulsion energy       710.3424317594 Hartrees.
 NAtoms=   28 NActive=   28 NUniq=   28 SFac= 1.00D+00 NAtFMM=   60 NAOKFM=F Big=F
 Nuclear repulsion after empirical dispersion term =      710.3277895354 Hartrees.
   1 Symmetry operations used in ECPInt.
 ECPInt:  NShTT=    5460 NPrTT=   21940 LenC2=    4944 LenP2D=   13949.
 LDataN:  DoStor=T MaxTD1= 4 Len=   56
 ExpMin= 1.22D-01 ExpMax= 2.27D+03 ExpMxC= 3.41D+02 IAcc=3 IRadAn=         5 AccDes= 0.00D+00
 Harris functional with IExCor= 4639 and IRadAn=       5 diagonalized for initial guess.
 HarFok:  IExCor= 4639 AccDes= 0.00D+00 IRadAn=         5 IDoV= 1 UseB2=F ITyADJ=14
 ICtDFT=  3500011 ScaDFX=  1.000000  1.000000  1.000000  1.000000
 FoFCou: FMM=F IPFlag=           0 FMFlag=      100000 FMFlg1=           0
         NFxFlg=           0 DoJE=T BraDBF=F KetDBF=T FulRan=T
         wScrn=  0.000000 ICntrl=       500 IOpCl=  0 I1Cent=   200000004 NGrid=           0
         NMat0=    1 NMatS0=      1 NMatT0=    0 NMatD0=    1 NMtDS0=    0 NMtDT0=    0
 Petite list used in FoFCou.
     Accept linear search using points  2 and  3.
     Minimum is close to point  2 DX=  3.77D-02 DF= -3.27D-06 DXR=  5.11D-02 DFR=  2.62D-03 which will be used.
     Accept linear search using points  1 and  2.
     Minimum is close to point  2 DX=  9.47D-05 DF= -2.27D-13 DXR=  9.47D-05 DFR=  1.24D-08 which will be used.
 SCF Done:  E(RwB97XD) =  -614.778083920     a.u. after    8 cycles
            Convg  =    0.1501D-09                    38 Fock formations.
              S**2 =  0.0000                  -V/T =  2.0085

 **********************************************************************

            Population analysis using the SCF Density.

 **********************************************************************

 Orbital symmetries:
       Occupied  (A) (A) (A) (A) (A) (A) (A) (A) (A) (A) (A) (A)
                 (A) (A) (A) (A) (A) (A) (A) (A) (A) (A) (A) (A)
                 (A) (A) (A) (A) (A) (A) (A) (A) (A) (A) (A) (A)
                 (A) (A) (A) (A) (A) (A) (A) (A) (A) (A) (A) (A)
       Virtual   (A) (A) (A) (A) (A) (A) (A) (A) (A) (A) (A) (A)
                 (A) (A) (A) (A) (A) (A) (A) (A) (A) (A) (A) (A)
                 (A) (A) (A) (A) (A) (A) (A) (A) (A) (A) (A) (A)
                 (A) (A) (A) (A) (A) (A) (A) (A) (A) (A) (A) (A)
                 (A) (A) (A) (A) (A) (A) (A) (A) (A) (A) (A) (A)
                 (A) (A) (A) (A) (A) (A) (A) (A) (A) (A) (A) (A)
                 (A) (A) (A) (A) (A) (A) (A) (A) (A) (A) (A) (A)
                 (A) (A) (A) (A) (A) (A) (A) (A) (A) (A) (A) (A)
                 (A) (A) (A) (A) (A) (A) (A) (A) (A) (A) (A) (A)
                 (A) (A) (A) (A) (A) (A) (A) (A) (A) (A) (A) (A)
                 (A) (A) (A) (A) (A) (A) (A) (A) (A) (A) (A) (A)
                 (A) (A) (A) (A) (A) (A) (A) (A) (A) (A) (A) (A)
                 (A) (A) (A) (A) (A) (A) (A) (A)
 The electronic state is 1-A.
 Alpha  occ. eigenvalues --  -19.28742 -19.28740 -19.25757 -19.25754 -10.43823
 Alpha  occ. eigenvalues --  -10.43823 -10.30470 -10.30470 -10.29114 -10.29114
 Alpha  occ. eigenvalues --  -10.28055 -10.28055  -1.20879  -1.19742  -1.11533
 Alpha  occ. eigenvalues --   -1.10252  -0.90063  -0.89819  -0.81983  -0.81285
 Alpha  occ. eigenvalues --   -0.72730  -0.71967  -0.67360  -0.66835  -0.61731
 Alpha  occ. eigenvalues --   -0.58926  -0.58589  -0.58373  -0.57760  -0.56719
 Alpha  occ. eigenvalues --   -0.53554  -0.53166  -0.51469  -0.50728  -0.49586
 Alpha  occ. eigenvalues --   -0.47411  -0.47191  -0.46982  -0.43944  -0.43444
 Alpha  occ. eigenvalues --   -0.43048  -0.42920  -0.42359  -0.42283  -0.41223
 Alpha  occ. eigenvalues --   -0.40367  -0.38088  -0.36718
 Alpha virt. eigenvalues --    0.08205   0.08609   0.13612   0.13771   0.18122
 Alpha virt. eigenvalues --    0.18225   0.18550   0.18570   0.19447   0.19913
 Alpha virt. eigenvalues --    0.22399   0.22540   0.24285   0.24336   0.24343
 Alpha virt. eigenvalues --    0.24383   0.25029   0.25092   0.28799   0.29999
 Alpha virt. eigenvalues --    0.31071   0.31140   0.33881   0.35215   0.37546
 Alpha virt. eigenvalues --    0.37623   0.44074   0.47129   0.51449   0.51458
 Alpha virt. eigenvalues --    0.52693   0.53143   0.53678   0.54283   0.54429
 Alpha virt. eigenvalues --    0.55834   0.55993   0.58426   0.60438   0.62203
 Alpha virt. eigenvalues --    0.62803   0.64394   0.64821   0.65058   0.70925
 Alpha virt. eigenvalues --    0.71789   0.72442   0.72711   0.73172   0.75484
 Alpha virt. eigenvalues --    0.75905   0.78182   0.78456   0.78638   0.79718
 Alpha virt. eigenvalues --    0.79949   0.80713   0.80744   0.80896   0.80990
 Alpha virt. eigenvalues --    0.81309   0.81778   0.81803   0.82047   0.82152
 Alpha virt. eigenvalues --    0.84465   0.86479   0.87958   0.89331   0.89528
 Alpha virt. eigenvalues --    0.91297   0.96042   1.02021   1.05339   1.07137
 Alpha virt. eigenvalues --    1.08980   1.12154   1.12452   1.15303   1.16804
 Alpha virt. eigenvalues --    1.18305   1.23611   1.23727   1.26594   1.43041
 Alpha virt. eigenvalues --    1.44648   1.44879   1.45263   1.45688   1.49679
 Alpha virt. eigenvalues --    1.55374   1.55489   1.60775   1.64152   1.65090
 Alpha virt. eigenvalues --    1.68186   1.75515   1.76467   1.80776   1.81067
 Alpha virt. eigenvalues --    1.83405   1.83819   1.88203   1.89035   1.96960
 Alpha virt. eigenvalues --    1.97488   1.99708   1.99806   2.00777   2.00933
 Alpha virt. eigenvalues --    2.10817   2.11665   2.13628   2.13651   2.16008
 Alpha virt. eigenvalues --    2.17019   2.23728   2.23792   2.29434   2.31784
 Alpha virt. eigenvalues --    2.35804   2.35826   2.38958   2.39002   2.39044
 Alpha virt. eigenvalues --    2.42912   2.54267   2.56538   2.64766   2.64956
 Alpha virt. eigenvalues --    2.65835   2.66440   2.71117   2.71316   2.72585
 Alpha virt. eigenvalues --    2.75100   2.78434   2.79394   2.97197   3.02021
 Alpha virt. eigenvalues --    3.02471   3.02983   3.17912   3.19744   3.26333
 Alpha virt. eigenvalues --    3.26397   3.40933   3.41773   3.67206   3.68616
 Alpha virt. eigenvalues --    3.74104   3.74339
          Condensed to atoms (all electrons):
 Mulliken charges:
               1
     1  C   -0.293834
     2  C   -0.227747
     3  C   -0.258105
     4  C    0.259250
     5  O   -0.365971
     6  O   -0.324924
     7  H    0.110643
     8  H    0.110636
     9  H    0.122988
    10  H    0.116805
    11  H    0.116545
    12  H    0.139458
    13  H    0.139451
    14  H    0.354808
    15  C   -0.293842
    16  C   -0.227759
    17  C   -0.258095
    18  C    0.259246
    19  O   -0.365974
    20  O   -0.324927
    21  H    0.110652
    22  H    0.122987
    23  H    0.110633
    24  H    0.116954
    25  H    0.116406
    26  H    0.139370
    27  H    0.139538
    28  H    0.354805
 Sum of Mulliken charges =   0.00000
 Mulliken charges with hydrogens summed into heavy atoms:
               1
     1  C    0.050433
     2  C    0.005603
     3  C    0.020805
     4  C    0.259250
     5  O   -0.011162
     6  O   -0.324924
    15  C    0.050430
    16  C    0.005600
    17  C    0.020813
    18  C    0.259246
    19  O   -0.011169
    20  O   -0.324927
 Electronic spatial extent (au):  <R**2>=           4626.6306
 Charge=              0.0000 electrons
 Dipole moment (field-independent basis, Debye):
    X=              0.0001    Y=             -0.0000    Z=              0.0209  Tot=              0.0209
 Evaluate density.
 Using the total density.
 Monte-Carlo method of calculating molar volume:
 based on  0.001 e/bohr**3 density envelope.
 Number of points per bohr**3 =  100 CutOff= 1.00D-04
 Using the SCF density.
 There are      1920 points.  Will hold      1920 in memory.
 LenV=  1048118602 MDV=  1048576000.
 Box volume = 7080.079 fraction occupied=0.226
 Integrated density= 7.1055947515301753D+01 error=-2.4944052484698247D+01
 Molar volume = 1596.705 bohr**3/mol (142.488 cm**3/mol)
 Recommended a0 for SCRF calculation =  4.72 angstrom (  8.93 bohr)
   1 Symmetry operations used in ECPInt.
 ECPInt:  NShTT=    5460 NPrTT=   21940 LenC2=    4944 LenP2D=   13949.
 LDataN:  DoStor=T MaxTD1= 5 Len=  102
 Calling FoFJK, ICntrl=      2127 FMM=F ISym2X=0 I1Cent= 0 IOpClX= 0 NMat=1 NMatS=1 NMatT=0.

 GradGradGradGradGradGradGradGradGradGradGradGradGradGradGradGradGradGrad
 FormGI is forming the generalized inverse of G from B-inverse, IUseBI=4.
 Internal  Forces:  Max     0.011110066 RMS     0.003382394
 Step number   1 out of a maximum of  146
 All quantities printed in internal units (Hartrees-Bohrs-Radians)
 Mixed Optimization -- RFO/linear search
 Second derivative matrix not updated -- first step.
 ITU=  0
     Eigenvalues ---    0.00432   0.00432   0.00467   0.00468   0.00516
     Eigenvalues ---    0.00660   0.00660   0.01334   0.01721   0.01895
     Eigenvalues ---    0.02079   0.03234   0.03611   0.03739   0.03739
     Eigenvalues ---    0.04127   0.04127   0.04914   0.04941   0.04941
     Eigenvalues ---    0.05320   0.05320   0.05382   0.05658   0.05658
     Eigenvalues ---    0.05682   0.05683   0.08098   0.08152   0.08153
     Eigenvalues ---    0.09366   0.09531   0.09531   0.12056   0.12057
     Eigenvalues ---    0.12862   0.12862   0.16000   0.16000   0.16000
     Eigenvalues ---    0.16000   0.16000   0.16000   0.16000   0.21250
     Eigenvalues ---    0.21910   0.21910   0.21948   0.21948   0.22986
     Eigenvalues ---    0.25000   0.25000   0.29868   0.29868   0.30121
     Eigenvalues ---    0.30121   0.31554   0.31554   0.34495   0.34500
     Eigenvalues ---    0.34510   0.34514   0.34674   0.34675   0.34675
     Eigenvalues ---    0.34676   0.35059   0.35060   0.35060   0.35060
     Eigenvalues ---    0.35170   0.35170   0.44301   0.46590   0.62587
     Eigenvalues ---    0.64506   0.92336   0.96687
 Linear search not attempted -- first point.
 Iteration  1 RMS(Cart)=  0.02676636 RMS(Int)=  0.00023955
 Iteration  2 RMS(Cart)=  0.00063954 RMS(Int)=  0.00004644
 Iteration  3 RMS(Cart)=  0.00000005 RMS(Int)=  0.00004644
 Variable       Old X    -DE/DX   Delta X   Delta X   Delta X     New X
                                 (Linear)    (Quad)   (Total)
    R1        2.87722   0.00483   0.00000   0.01574   0.01574   2.89296
    R2        2.05578   0.01111   0.00000   0.03118   0.03118   2.08696
    R3        2.05577   0.01111   0.00000   0.03119   0.03119   2.08696
    R4        2.05400   0.01087   0.00000   0.03043   0.03043   2.08443
    R5        2.88227   0.00208   0.00000   0.00683   0.00683   2.88909
    R6        2.06206   0.00777   0.00000   0.02205   0.02205   2.08410
    R7        2.06206   0.00780   0.00000   0.02215   0.02215   2.08421
    R8        2.84968   0.00177   0.00000   0.00552   0.00552   2.85521
    R9        2.06477   0.00799   0.00000   0.02279   0.02279   2.08757
   R10        2.06495   0.00798   0.00000   0.02278   0.02278   2.08773
   R11        2.47543   0.00088   0.00000   0.00128   0.00129   2.47672
   R12        2.29995   0.00524   0.00000   0.00542   0.00542   2.30537
   R13        1.90171  -0.00256   0.00000  -0.00561  -0.00560   1.89611
   R14        3.12885  -0.00109   0.00000  -0.01167  -0.01169   3.11716
   R15        3.12892  -0.00109   0.00000  -0.01354  -0.01353   3.11539
   R16        2.87723   0.00483   0.00000   0.01574   0.01574   2.89296
   R17        2.05578   0.01110   0.00000   0.03118   0.03118   2.08696
   R18        2.05400   0.01087   0.00000   0.03043   0.03043   2.08443
   R19        2.05579   0.01110   0.00000   0.03117   0.03117   2.08696
   R20        2.88227   0.00208   0.00000   0.00682   0.00682   2.88910
   R21        2.06204   0.00776   0.00000   0.02202   0.02202   2.08406
   R22        2.06208   0.00781   0.00000   0.02217   0.02217   2.08425
   R23        2.84968   0.00177   0.00000   0.00552   0.00552   2.85521
   R24        2.06471   0.00797   0.00000   0.02274   0.02274   2.08745
   R25        2.06503   0.00800   0.00000   0.02281   0.02281   2.08785
   R26        2.47544   0.00087   0.00000   0.00140   0.00140   2.47684
   R27        2.29996   0.00523   0.00000   0.00535   0.00535   2.30531
   R28        1.90172  -0.00257   0.00000  -0.00527  -0.00528   1.89644
    A1        1.93099   0.00156   0.00000   0.00933   0.00929   1.94028
    A2        1.93107   0.00157   0.00000   0.00941   0.00937   1.94043
    A3        1.92713   0.00172   0.00000   0.01053   0.01048   1.93761
    A4        1.89093  -0.00167   0.00000  -0.01040  -0.01044   1.88049
    A5        1.89123  -0.00168   0.00000  -0.00999  -0.01004   1.88119
    A6        1.89130  -0.00169   0.00000  -0.01005  -0.01010   1.88120
    A7        1.94467   0.00222   0.00000   0.01480   0.01472   1.95939
    A8        1.91825  -0.00024   0.00000   0.00264   0.00260   1.92085
    A9        1.91824  -0.00026   0.00000   0.00232   0.00228   1.92053
   A10        1.90359  -0.00057   0.00000  -0.00072  -0.00080   1.90280
   A11        1.90384  -0.00057   0.00000  -0.00088  -0.00095   1.90289
   A12        1.87377  -0.00070   0.00000  -0.01949  -0.01949   1.85428
   A13        1.96726   0.00425   0.00000   0.02353   0.02341   1.99068
   A14        1.93484  -0.00016   0.00000   0.00420   0.00419   1.93903
   A15        1.93402  -0.00015   0.00000   0.00455   0.00453   1.93855
   A16        1.87857  -0.00180   0.00000  -0.00776  -0.00792   1.87065
   A17        1.87744  -0.00177   0.00000  -0.00728  -0.00745   1.86999
   A18        1.86759  -0.00070   0.00000  -0.02005  -0.02011   1.84748
   A19        1.97090   0.00072   0.00000   0.00630   0.00630   1.97721
   A20        2.15470  -0.00222   0.00000  -0.00523  -0.00523   2.14947
   A21        2.15758   0.00150   0.00000  -0.00107  -0.00107   2.15651
   A22        1.96387  -0.00414   0.00000  -0.04216  -0.04214   1.92174
   A23        2.26525  -0.00068   0.00000  -0.01919  -0.01922   2.24603
   A24        1.93105   0.00158   0.00000   0.00945   0.00941   1.94046
   A25        1.92712   0.00172   0.00000   0.01055   0.01050   1.93762
   A26        1.93101   0.00155   0.00000   0.00928   0.00924   1.94025
   A27        1.89129  -0.00169   0.00000  -0.01003  -0.01008   1.88120
   A28        1.89095  -0.00167   0.00000  -0.01041  -0.01045   1.88050
   A29        1.89124  -0.00168   0.00000  -0.01000  -0.01005   1.88119
   A30        1.94462   0.00223   0.00000   0.01484   0.01477   1.95939
   A31        1.91833  -0.00024   0.00000   0.00266   0.00262   1.92094
   A32        1.91818  -0.00026   0.00000   0.00229   0.00225   1.92043
   A33        1.90357  -0.00058   0.00000  -0.00076  -0.00084   1.90274
   A34        1.90389  -0.00057   0.00000  -0.00088  -0.00095   1.90294
   A35        1.87377  -0.00070   0.00000  -0.01948  -0.01948   1.85429
   A36        1.96727   0.00425   0.00000   0.02352   0.02341   1.99068
   A37        1.93526  -0.00016   0.00000   0.00420   0.00419   1.93946
   A38        1.93360  -0.00015   0.00000   0.00454   0.00452   1.93812
   A39        1.87900  -0.00180   0.00000  -0.00782  -0.00798   1.87102
   A40        1.87700  -0.00176   0.00000  -0.00721  -0.00738   1.86962
   A41        1.86760  -0.00070   0.00000  -0.02004  -0.02010   1.84749
   A42        1.97088   0.00073   0.00000   0.00623   0.00623   1.97711
   A43        2.15472  -0.00223   0.00000  -0.00536  -0.00536   2.14936
   A44        2.15758   0.00150   0.00000  -0.00087  -0.00087   2.15672
   A45        1.96388  -0.00414   0.00000  -0.03958  -0.03960   1.92428
   A46        2.26523  -0.00068   0.00000  -0.02076  -0.02074   2.24448
   A47        3.03807   0.00332   0.00000   0.06429   0.06431   3.10238
   A48        3.03807   0.00332   0.00000   0.05935   0.05933   3.09739
   A49        3.13746   0.00006   0.00000   0.00627   0.00627   3.14373
   A50        3.14611  -0.00008   0.00000  -0.00614  -0.00613   3.13999
    D1        1.04812  -0.00002   0.00000  -0.00019  -0.00019   1.04793
    D2       -1.06405  -0.00060   0.00000  -0.01081  -0.01083  -1.07488
    D3       -3.12259   0.00055   0.00000   0.01002   0.01004  -3.11256
    D4       -1.04769   0.00003   0.00000   0.00059   0.00059  -1.04710
    D5        3.12333  -0.00056   0.00000  -0.01003  -0.01005   3.11328
    D6        1.06478   0.00060   0.00000   0.01080   0.01082   1.07560
    D7       -3.14145   0.00001   0.00000   0.00021   0.00021  -3.14124
    D8        1.02957  -0.00058   0.00000  -0.01041  -0.01043   1.01914
    D9       -1.02897   0.00058   0.00000   0.01042   0.01044  -1.01853
   D10       -3.13607  -0.00003   0.00000  -0.00170  -0.00170  -3.13777
   D11        1.04002  -0.00055   0.00000  -0.01099  -0.01104   1.02898
   D12       -1.03101   0.00052   0.00000   0.00841   0.00846  -1.02255
   D13       -1.01536   0.00072   0.00000   0.01069   0.01068  -1.00468
   D14       -3.12246   0.00021   0.00000   0.00139   0.00134  -3.12112
   D15        1.08969   0.00128   0.00000   0.02079   0.02084   1.11053
   D16        1.02625  -0.00076   0.00000  -0.01358  -0.01358   1.01267
   D17       -1.08085  -0.00128   0.00000  -0.02287  -0.02292  -1.10377
   D18        3.13130  -0.00021   0.00000  -0.00348  -0.00342   3.12788
   D19       -3.13731   0.00002   0.00000   0.00074   0.00074  -3.13657
   D20        0.00515   0.00000   0.00000  -0.00004  -0.00004   0.00511
   D21       -0.99833   0.00130   0.00000   0.01576   0.01569  -0.98263
   D22        2.14414   0.00128   0.00000   0.01498   0.01491   2.15905
   D23        1.00871  -0.00129   0.00000  -0.01501  -0.01494   0.99377
   D24       -2.13201  -0.00131   0.00000  -0.01579  -0.01572  -2.14773
   D25       -3.13824  -0.00004   0.00000  -0.00098  -0.00097  -3.13921
   D26        0.00248  -0.00002   0.00000  -0.00021  -0.00019   0.00229
   D27        3.13458   0.00004   0.00000   0.00133   0.00134   3.13593
   D28       -0.00605   0.00002   0.00000   0.00047   0.00048  -0.00557
   D29        0.00373   0.00000   0.00000   0.00160   0.00162   0.00535
   D30        0.00320   0.00001   0.00000   0.00207   0.00209   0.00530
   D31       -1.04774   0.00003   0.00000   0.00062   0.00062  -1.04712
   D32        3.12328  -0.00055   0.00000  -0.01000  -0.01002   3.11326
   D33        1.06472   0.00060   0.00000   0.01083   0.01085   1.07558
   D34       -3.14146   0.00000   0.00000   0.00018   0.00018  -3.14128
   D35        1.02956  -0.00058   0.00000  -0.01043  -0.01045   1.01911
   D36       -1.02899   0.00058   0.00000   0.01040   0.01041  -1.01858
   D37        1.04809  -0.00002   0.00000  -0.00018  -0.00018   1.04790
   D38       -1.06408  -0.00060   0.00000  -0.01079  -0.01082  -1.07489
   D39       -3.12263   0.00055   0.00000   0.01004   0.01005  -3.11258
   D40       -3.13590  -0.00004   0.00000  -0.00159  -0.00159  -3.13749
   D41        1.03934  -0.00055   0.00000  -0.01084  -0.01089   1.02846
   D42       -1.03170   0.00052   0.00000   0.00856   0.00861  -1.02309
   D43       -1.01513   0.00072   0.00000   0.01082   0.01082  -1.00432
   D44       -3.12308   0.00021   0.00000   0.00157   0.00152  -3.12156
   D45        1.08906   0.00128   0.00000   0.02097   0.02102   1.11008
   D46        1.02649  -0.00077   0.00000  -0.01346  -0.01346   1.01304
   D47       -1.08145  -0.00128   0.00000  -0.02270  -0.02275  -1.10421
   D48        3.13069  -0.00021   0.00000  -0.00331  -0.00325   3.12743
   D49       -3.12738   0.00000   0.00000  -0.00026  -0.00025  -3.12763
   D50        0.01497   0.00001   0.00000   0.00025   0.00025   0.01522
   D51       -0.98756   0.00128   0.00000   0.01475   0.01468  -0.97288
   D52        2.15479   0.00129   0.00000   0.01526   0.01519   2.16997
   D53        1.01949  -0.00130   0.00000  -0.01600  -0.01593   1.00355
   D54       -2.12136  -0.00130   0.00000  -0.01550  -0.01543  -2.13679
   D55       -3.13810  -0.00001   0.00000  -0.00025  -0.00023  -3.13833
   D56        0.00274  -0.00002   0.00000  -0.00076  -0.00074   0.00200
   D57        3.13392   0.00002   0.00000   0.00042   0.00043   3.13435
   D58       -0.00684   0.00003   0.00000   0.00097   0.00099  -0.00586
         Item               Value     Threshold  Converged?
 Maximum Force            0.011110     0.000015     NO 
 RMS     Force            0.003382     0.000010     NO 
 Maximum Displacement     0.097424     0.000060     NO 
 RMS     Displacement     0.026367     0.000040     NO 
 GradGradGradGradGradGradGradGradGradGradGradGradGradGradGradGradGradGrad

                    Distance matrix (angstroms):
                    1          2          3          4          5
     1  C    0.000000
     2  C    1.530888   0.000000
     3  C    2.540575   1.528842   0.000000
     4  C    3.904415   2.550200   1.510910   0.000000
     5  O    4.899506   3.714019   2.359280   1.310622   0.000000
     6  O    4.343800   2.826315   2.405683   1.219949   2.230182
     7  H    1.104371   2.187322   2.811065   4.223573   5.073357
     8  H    1.104373   2.187433   2.810828   4.225693   5.072819
     9  H    1.103031   2.184383   3.500622   4.726149   5.829955
    10  H    2.172084   1.102860   2.157030   2.778245   3.997696
    11  H    2.171889   1.102914   2.157141   2.781853   3.997547
    12  H    2.801088   2.184862   1.104694   2.118780   2.588590
    13  H    2.797836   2.184579   1.104778   2.118343   2.592586
    14  H    5.753963   4.452606   3.241064   1.904906   1.003377
    15  C   11.471518  10.002640   9.099691   7.607953   6.975255
    16  C   10.002442   8.555275   7.597391   6.117236   5.446649
    17  C    9.100132   7.597929   6.850553   5.339666   4.976363
    18  C    7.608254   6.117613   5.339673   3.828797   3.532582
    19  O    6.976451   5.447830   4.977246   3.533306   3.706660
    20  O    7.215579   5.809022   4.776291   3.313260   2.651491
    21  H   11.773636  10.286703   9.466334   7.969051   7.428561
    22  H   12.156211  10.724748   9.715992   8.257482   7.487879
    23  H   11.767453  10.283293   9.457255   7.961481   7.415939
    24  H    9.861520   8.461033   7.414148   5.982196   5.199909
    25  H    9.869286   8.465627   7.426005   5.992584   5.217996
    26  H    9.402117   7.888816   7.259504   5.768845   5.534015
    27  H    9.399390   7.889234   7.252870   5.763472   5.522274
    28  H    5.975681   4.448443   3.998166   2.593256   2.981952
                    6          7          8          9         10
     6  O    0.000000
     7  H    4.799195   0.000000
     8  H    4.804627   1.784010   0.000000
     9  H    4.945138   1.783382   1.783390   0.000000
    10  H    2.751724   2.538713   3.097387   2.515354   0.000000
    11  H    2.761295   3.097183   2.538861   2.514880   1.764415
    12  H    3.102483   3.164111   2.618915   3.814165   3.086039
    13  H    3.098806   2.615604   3.158853   3.811849   2.533473
    14  H    2.331128   5.971265   5.972662   6.620801   4.606242
    15  C    7.215939  11.767723  11.772874  12.156567   9.862703
    16  C    5.809244  10.283469  10.285710  10.724839   8.462073
    17  C    4.776813   9.458152   9.465975   9.716706   7.415770
    18  C    3.313656   7.962364   7.968544   8.257953   5.983704
    19  O    2.652472   7.419106   7.427663   7.489180   5.204080
    20  O    3.205426   7.484630   7.487468   7.992384   5.810858
    21  H    7.487413  12.163072  12.039441  12.410617  10.182407
    22  H    7.992602  12.407702  12.409502  12.899331  10.634715
    23  H    7.485626  12.022712  12.162073  12.407838  10.026658
    24  H    5.811524  10.025873  10.180445  10.633842   8.330100
    25  H    5.814330  10.192366  10.035681  10.637564   8.515429
    26  H    5.091494   9.872940   9.723408   9.952983   7.753094
    27  H    5.093500   9.706627   9.878049   9.954283   7.554493
    28  H    1.649532   6.424236   6.432256   6.509639   4.240968
                   11         12         13         14         15
    11  H    0.000000
    12  H    2.531377   0.000000
    13  H    3.086015   1.762852   0.000000
    14  H    4.608521   3.515961   3.517435   0.000000
    15  C    9.869131   9.400705   9.399281   5.974937   0.000000
    16  C    8.465145   7.887251   7.889156   4.447782   1.530891
    17  C    7.425921   7.258381   7.253538   3.996655   2.540580
    18  C    5.992144   5.767668   5.764350   2.591421   3.904417
    19  O    5.216314   5.531910   5.525945   2.979682   4.899474
    20  O    5.814891   5.091615   5.092022   1.648595   4.343682
    21  H   10.036353   9.722722   9.878683   6.433405   1.104372
    22  H   10.637190   9.951355   9.953783   6.509314   1.103032
    23  H   10.191840   9.871150   9.706135   6.421151   1.104370
    24  H    8.513910   7.750572   7.553375   4.237461   2.172138
    25  H    8.329761   7.563097   7.771817   4.256107   2.171838
    26  H    7.564119   7.605632   7.798981   4.594230   2.801206
    27  H    7.771378   7.797333   7.587061   4.582102   2.797721
    28  H    4.253156   4.592818   4.586952   2.458675   5.755354
                   16         17         18         19         20
    16  C    0.000000
    17  C    1.528844   0.000000
    18  C    2.550199   1.510909   0.000000
    19  O    3.713992   2.359256   1.310687   0.000000
    20  O    2.826226   2.405584   1.219918   2.230339   0.000000
    21  H    2.187452   2.810864   4.225807   5.070992   4.806565
    22  H    2.184392   3.500631   4.726156   5.829925   4.945040
    23  H    2.187299   2.811030   4.223454   5.075108   4.796986
    24  H    1.102836   2.156969   2.778021   3.999873   2.748032
    25  H    1.102937   2.157198   2.782066   3.995314   2.764861
    26  H    2.185120   1.104629   2.119009   2.584866   3.105748
    27  H    2.184314   1.104841   2.118111   2.596246   3.095313
    28  H    4.454339   3.242247   1.906744   1.003550   2.333863
                   21         22         23         24         25
    21  H    0.000000
    22  H    1.783390   0.000000
    23  H    1.784012   1.783380   0.000000
    24  H    3.097429   2.515422   2.538761   0.000000
    25  H    2.538804   2.514833   3.097137   1.764419   0.000000
    26  H    2.619112   3.814388   3.163943   3.086143   2.531921
    27  H    3.159025   3.811633   2.615401   2.532906   3.085901
    28  H    5.972498   6.622441   5.973666   4.609810   4.608896
                   26         27         28
    26  H    0.000000
    27  H    1.762861   0.000000
    28  H    3.514351   3.520388   0.000000
 Framework group  C1[X(C8H16O4)]
 Deg. of freedom    78
                         Standard orientation:                         
 ---------------------------------------------------------------------
 Center     Atomic      Atomic             Coordinates (Angstroms)
 Number     Number       Type             X           Y           Z
 ---------------------------------------------------------------------
      1          6           0        5.732244   -0.202794    0.002217
      2          6           0        4.241911   -0.552722   -0.006511
      3          6           0        3.354533    0.692197    0.003297
      4          6           0        1.873551    0.392977    0.000404
      5          8           0        1.127287    1.470387    0.002858
      6          8           0        1.421826   -0.740250   -0.003706
      7          1           0        5.999871    0.379784    0.901447
      8          1           0        6.005986    0.398928   -0.882450
      9          1           0        6.352767   -1.114699   -0.005435
     10          1           0        3.994886   -1.177136    0.868351
     11          1           0        4.001248   -1.158846   -0.895958
     12          1           0        3.559554    1.333587   -0.872451
     13          1           0        3.558496    1.318373    0.890335
     14          1           0        0.156315    1.217451    0.003024
     15          6           0       -5.732056    0.204061    0.001277
     16          6           0       -4.241574    0.553260   -0.010934
     17          6           0       -3.354730   -0.691947    0.007314
     18          6           0       -1.873621   -0.393395    0.001697
     19          8           0       -1.127917   -1.471275    0.000696
     20          8           0       -1.421521    0.739654   -0.000283
     21          1           0       -6.006657   -0.403905   -0.878841
     22          1           0       -6.352192    1.116157   -0.012529
     23          1           0       -5.999319   -0.371896    0.904869
     24          1           0       -3.993617    1.183861    0.859185
     25          1           0       -4.001312    1.152834   -0.904945
     26          1           0       -3.560628   -1.340091   -0.863157
     27          1           0       -3.558357   -1.311042    0.899463
     28          1           0       -0.155997   -1.221306    0.000003
 ---------------------------------------------------------------------
 Rotational constants (GHZ):           3.6507238           0.2487456           0.2349310
   200 basis functions,   364 primitive gaussians,   212 cartesian basis functions
    48 alpha electrons       48 beta electrons
       nuclear repulsion energy       707.6607229028 Hartrees.
 NAtoms=   28 NActive=   28 NUniq=   28 SFac= 1.00D+00 NAtFMM=   60 NAOKFM=F Big=F
 Nuclear repulsion after empirical dispersion term =      707.6461522028 Hartrees.
   1 Symmetry operations used in ECPInt.
 ECPInt:  NShTT=    5460 NPrTT=   21940 LenC2=    4936 LenP2D=   13901.
 LDataN:  DoStor=T MaxTD1= 4 Len=   56
 Initial guess from the checkpoint file:  "32.chk"
 B after Tr=     0.000000   -0.000000    0.000000
         Rot=    1.000000   -0.000001    0.000013   -0.000267 Ang=  -0.03 deg.
 ExpMin= 1.22D-01 ExpMax= 2.27D+03 ExpMxC= 3.41D+02 IAcc=3 IRadAn=         5 AccDes= 0.00D+00
 Harris functional with IExCor= 4639 and IRadAn=       5 diagonalized for initial guess.
 HarFok:  IExCor= 4639 AccDes= 0.00D+00 IRadAn=         5 IDoV= 1 UseB2=F ITyADJ=14
 ICtDFT=  3500011 ScaDFX=  1.000000  1.000000  1.000000  1.000000
 FoFCou: FMM=F IPFlag=           0 FMFlag=      100000 FMFlg1=           0
         NFxFlg=           0 DoJE=T BraDBF=F KetDBF=T FulRan=T
         wScrn=  0.000000 ICntrl=       500 IOpCl=  0 I1Cent=   200000004 NGrid=           0
         NMat0=    1 NMatS0=      1 NMatT0=    0 NMatD0=    1 NMtDS0=    0 NMtDT0=    0
 Petite list used in FoFCou.
     Accept linear search using points  3 and  4.
     Accept linear search using points  2 and  3.
     Accept linear search using points  1 and  2.
     Minimum is close to point  2 DX= -1.36D-04 DF= -1.48D-12 DXR=  1.36D-04 DFR=  1.85D-08 which will be used.
 SCF Done:  E(RwB97XD) =  -614.780857253     a.u. after    5 cycles
            Convg  =    0.2125D-09                    33 Fock formations.
              S**2 =  0.0000                  -V/T =  2.0090
   1 Symmetry operations used in ECPInt.
 ECPInt:  NShTT=    5460 NPrTT=   21940 LenC2=    4936 LenP2D=   13901.
 LDataN:  DoStor=T MaxTD1= 5 Len=  102
 Calling FoFJK, ICntrl=      2127 FMM=F ISym2X=0 I1Cent= 0 IOpClX= 0 NMat=1 NMatS=1 NMatT=0.

 GradGradGradGradGradGradGradGradGradGradGradGradGradGradGradGradGradGrad
 Using GEDIIS/GDIIS optimizer.
 FormGI is forming the generalized inverse of G from B-inverse, IUseBI=4.
 Internal  Forces:  Max     0.002502729 RMS     0.000593706
 Step number   2 out of a maximum of  146
 All quantities printed in internal units (Hartrees-Bohrs-Radians)
 Mixed Optimization -- En-DIIS/RFO-DIIS
 Trust test= 9.66D-01 RLast= 1.83D-01 DXMaxT set to 5.05D-01
 ITU=  1  0
 Use linear search instead of GDIIS.
     Eigenvalues ---    0.00432   0.00432   0.00467   0.00468   0.00511
     Eigenvalues ---    0.00660   0.00660   0.01281   0.01711   0.01892
     Eigenvalues ---    0.02052   0.03217   0.03612   0.03620   0.03620
     Eigenvalues ---    0.03951   0.03951   0.04831   0.04850   0.04891
     Eigenvalues ---    0.05176   0.05250   0.05385   0.05561   0.05562
     Eigenvalues ---    0.05577   0.05577   0.08045   0.08331   0.08336
     Eigenvalues ---    0.09325   0.09692   0.09783   0.12189   0.12189
     Eigenvalues ---    0.13024   0.13024   0.15795   0.16000   0.16000
     Eigenvalues ---    0.16000   0.16000   0.16000   0.16340   0.21241
     Eigenvalues ---    0.21885   0.21889   0.21928   0.22132   0.22831
     Eigenvalues ---    0.24884   0.25000   0.29562   0.29868   0.30121
     Eigenvalues ---    0.30200   0.31424   0.31554   0.34496   0.34500
     Eigenvalues ---    0.34510   0.34513   0.34674   0.34675   0.34676
     Eigenvalues ---    0.34730   0.35059   0.35060   0.35060   0.35115
     Eigenvalues ---    0.35170   0.36893   0.44256   0.46921   0.62575
     Eigenvalues ---    0.64491   0.92301   0.96198
 Quartic linear search produced a step of  0.00756.
 Iteration  1 RMS(Cart)=  0.01049164 RMS(Int)=  0.00002140
 Iteration  2 RMS(Cart)=  0.00009554 RMS(Int)=  0.00000378
 Iteration  3 RMS(Cart)=  0.00000000 RMS(Int)=  0.00000378
 Variable       Old X    -DE/DX   Delta X   Delta X   Delta X     New X
                                 (Linear)    (Quad)   (Total)
    R1        2.89296  -0.00250   0.00012  -0.00791  -0.00779   2.88517
    R2        2.08696   0.00013   0.00024   0.00126   0.00149   2.08845
    R3        2.08696   0.00012   0.00024   0.00124   0.00148   2.08844
    R4        2.08443  -0.00010   0.00023   0.00059   0.00082   2.08525
    R5        2.88909  -0.00236   0.00005  -0.00777  -0.00772   2.88137
    R6        2.08410   0.00023   0.00017   0.00129   0.00145   2.08556
    R7        2.08421   0.00022   0.00017   0.00127   0.00144   2.08565
    R8        2.85521  -0.00140   0.00004  -0.00430  -0.00426   2.85095
    R9        2.08757   0.00039   0.00017   0.00180   0.00197   2.08954
   R10        2.08773   0.00039   0.00017   0.00178   0.00195   2.08968
   R11        2.47672   0.00043   0.00001   0.00075   0.00076   2.47748
   R12        2.30537   0.00158   0.00004   0.00177   0.00181   2.30718
   R13        1.89611   0.00105  -0.00004   0.00225   0.00220   1.89831
   R14        3.11716  -0.00077  -0.00009  -0.01062  -0.01071   3.10645
   R15        3.11539  -0.00078  -0.00010  -0.00927  -0.00938   3.10602
   R16        2.89296  -0.00250   0.00012  -0.00792  -0.00780   2.88516
   R17        2.08696   0.00012   0.00024   0.00124   0.00147   2.08843
   R18        2.08443  -0.00010   0.00023   0.00059   0.00082   2.08524
   R19        2.08696   0.00013   0.00024   0.00126   0.00150   2.08845
   R20        2.88910  -0.00236   0.00005  -0.00778  -0.00772   2.88137
   R21        2.08406   0.00023   0.00017   0.00129   0.00145   2.08551
   R22        2.08425   0.00022   0.00017   0.00127   0.00144   2.08569
   R23        2.85521  -0.00140   0.00004  -0.00431  -0.00427   2.85094
   R24        2.08745   0.00040   0.00017   0.00181   0.00198   2.08943
   R25        2.08785   0.00038   0.00017   0.00177   0.00194   2.08979
   R26        2.47684   0.00033   0.00001   0.00051   0.00052   2.47736
   R27        2.30531   0.00163   0.00004   0.00188   0.00192   2.30723
   R28        1.89644   0.00086  -0.00004   0.00157   0.00153   1.89796
    A1        1.94028   0.00028   0.00007   0.00206   0.00213   1.94241
    A2        1.94043   0.00027   0.00007   0.00197   0.00204   1.94247
    A3        1.93761  -0.00009   0.00008  -0.00033  -0.00025   1.93737
    A4        1.88049  -0.00027  -0.00008  -0.00186  -0.00194   1.87855
    A5        1.88119  -0.00011  -0.00008  -0.00103  -0.00110   1.88009
    A6        1.88120  -0.00010  -0.00008  -0.00104  -0.00111   1.88009
    A7        1.95939  -0.00033   0.00011  -0.00006   0.00005   1.95943
    A8        1.92085   0.00010   0.00002   0.00066   0.00067   1.92152
    A9        1.92053   0.00011   0.00002   0.00073   0.00075   1.92127
   A10        1.90280   0.00023  -0.00001   0.00202   0.00201   1.90481
   A11        1.90289   0.00022  -0.00001   0.00196   0.00196   1.90485
   A12        1.85428  -0.00033  -0.00015  -0.00559  -0.00573   1.84855
   A13        1.99068  -0.00030   0.00018   0.00072   0.00089   1.99157
   A14        1.93903   0.00035   0.00003   0.00301   0.00304   1.94207
   A15        1.93855   0.00035   0.00003   0.00303   0.00307   1.94162
   A16        1.87065   0.00005  -0.00006   0.00034   0.00028   1.87093
   A17        1.86999   0.00006  -0.00006   0.00051   0.00044   1.87043
   A18        1.84748  -0.00055  -0.00015  -0.00848  -0.00863   1.83885
   A19        1.97721   0.00026   0.00005   0.00102   0.00107   1.97828
   A20        2.14947  -0.00071  -0.00004  -0.00320  -0.00323   2.14624
   A21        2.15651   0.00045  -0.00001   0.00218   0.00216   2.15867
   A22        1.92174   0.00109  -0.00032   0.00750   0.00716   1.92890
   A23        2.24603  -0.00136  -0.00015  -0.00896  -0.00912   2.23691
   A24        1.94046   0.00027   0.00007   0.00197   0.00204   1.94250
   A25        1.93762  -0.00009   0.00008  -0.00035  -0.00027   1.93735
   A26        1.94025   0.00028   0.00007   0.00207   0.00214   1.94239
   A27        1.88120  -0.00010  -0.00008  -0.00103  -0.00110   1.88010
   A28        1.88050  -0.00027  -0.00008  -0.00186  -0.00194   1.87856
   A29        1.88119  -0.00011  -0.00008  -0.00103  -0.00111   1.88008
   A30        1.95939  -0.00034   0.00011  -0.00008   0.00003   1.95941
   A31        1.92094   0.00011   0.00002   0.00066   0.00067   1.92162
   A32        1.92043   0.00011   0.00002   0.00074   0.00075   1.92118
   A33        1.90274   0.00023  -0.00001   0.00201   0.00201   1.90474
   A34        1.90294   0.00022  -0.00001   0.00198   0.00198   1.90492
   A35        1.85429  -0.00033  -0.00015  -0.00559  -0.00573   1.84856
   A36        1.99068  -0.00032   0.00018   0.00067   0.00084   1.99151
   A37        1.93946   0.00035   0.00003   0.00300   0.00303   1.94249
   A38        1.93812   0.00036   0.00003   0.00306   0.00310   1.94121
   A39        1.87102   0.00007  -0.00006   0.00051   0.00045   1.87146
   A40        1.86962   0.00005  -0.00006   0.00038   0.00032   1.86993
   A41        1.84749  -0.00055  -0.00015  -0.00848  -0.00864   1.83886
   A42        1.97711   0.00018   0.00005   0.00077   0.00082   1.97792
   A43        2.14936  -0.00072  -0.00004  -0.00319  -0.00323   2.14613
   A44        2.15672   0.00053  -0.00001   0.00242   0.00241   2.15913
   A45        1.92428   0.00090  -0.00030   0.00432   0.00401   1.92829
   A46        2.24448  -0.00135  -0.00016  -0.00755  -0.00771   2.23677
   A47        3.10238  -0.00029   0.00049  -0.00268  -0.00221   3.10017
   A48        3.09739   0.00003   0.00045   0.00284   0.00328   3.10067
   A49        3.14373  -0.00008   0.00005  -0.01343  -0.01338   3.13035
   A50        3.13999   0.00006  -0.00005   0.01070   0.01066   3.15065
    D1        1.04793   0.00001  -0.00000   0.00010   0.00010   1.04803
    D2       -1.07488  -0.00013  -0.00008  -0.00290  -0.00298  -1.07786
    D3       -3.11256   0.00014   0.00008   0.00308   0.00316  -3.10940
    D4       -1.04710  -0.00001   0.00000  -0.00025  -0.00025  -1.04735
    D5        3.11328  -0.00015  -0.00008  -0.00325  -0.00333   3.10995
    D6        1.07560   0.00012   0.00008   0.00273   0.00281   1.07841
    D7       -3.14124   0.00000   0.00000  -0.00004  -0.00004  -3.14127
    D8        1.01914  -0.00013  -0.00008  -0.00304  -0.00312   1.01603
    D9       -1.01853   0.00013   0.00008   0.00295   0.00303  -1.01551
   D10       -3.13777  -0.00001  -0.00001  -0.00197  -0.00198  -3.13975
   D11        1.02898  -0.00012  -0.00008  -0.00522  -0.00530   1.02367
   D12       -1.02255   0.00011   0.00006   0.00150   0.00157  -1.02098
   D13       -1.00468   0.00006   0.00008   0.00024   0.00032  -1.00436
   D14       -3.12112  -0.00005   0.00001  -0.00301  -0.00300  -3.12412
   D15        1.11053   0.00018   0.00016   0.00371   0.00387   1.11441
   D16        1.01267  -0.00008  -0.00010  -0.00423  -0.00434   1.00833
   D17       -1.10377  -0.00020  -0.00017  -0.00748  -0.00766  -1.11143
   D18        3.12788   0.00004  -0.00003  -0.00076  -0.00078   3.12710
   D19       -3.13657  -0.00001   0.00001  -0.00052  -0.00051  -3.13709
   D20        0.00511   0.00000  -0.00000  -0.00002  -0.00002   0.00509
   D21       -0.98263   0.00028   0.00012   0.00407   0.00419  -0.97844
   D22        2.15905   0.00029   0.00011   0.00457   0.00469   2.16373
   D23        0.99377  -0.00030  -0.00011  -0.00525  -0.00536   0.98841
   D24       -2.14773  -0.00029  -0.00012  -0.00475  -0.00487  -2.15260
   D25       -3.13921  -0.00003  -0.00001  -0.00186  -0.00186  -3.14107
   D26        0.00229  -0.00004  -0.00000  -0.00236  -0.00236  -0.00007
   D27        3.13593   0.00002   0.00001  -0.00003  -0.00002   3.13591
   D28       -0.00557   0.00003   0.00000   0.00052   0.00053  -0.00503
   D29        0.00535  -0.00000   0.00001  -0.00284  -0.00283   0.00252
   D30        0.00530  -0.00001   0.00002  -0.00364  -0.00362   0.00167
   D31       -1.04712  -0.00001   0.00000  -0.00026  -0.00026  -1.04738
   D32        3.11326  -0.00015  -0.00008  -0.00325  -0.00332   3.10994
   D33        1.07558   0.00012   0.00008   0.00273   0.00281   1.07839
   D34       -3.14128   0.00000   0.00000  -0.00005  -0.00005  -3.14133
   D35        1.01911  -0.00013  -0.00008  -0.00303  -0.00311   1.01600
   D36       -1.01858   0.00013   0.00008   0.00295   0.00303  -1.01555
   D37        1.04790   0.00001  -0.00000   0.00010   0.00010   1.04800
   D38       -1.07489  -0.00012  -0.00008  -0.00288  -0.00296  -1.07786
   D39       -3.11258   0.00014   0.00008   0.00310   0.00317  -3.10941
   D40       -3.13749  -0.00000  -0.00001  -0.00157  -0.00159  -3.13907
   D41        1.02846  -0.00012  -0.00008  -0.00500  -0.00509   1.02337
   D42       -1.02309   0.00011   0.00007   0.00171   0.00178  -1.02131
   D43       -1.00432   0.00007   0.00008   0.00062   0.00070  -1.00362
   D44       -3.12156  -0.00006   0.00001  -0.00281  -0.00280  -3.12436
   D45        1.11008   0.00018   0.00016   0.00390   0.00407   1.11415
   D46        1.01304  -0.00008  -0.00010  -0.00385  -0.00395   1.00909
   D47       -1.10421  -0.00020  -0.00017  -0.00728  -0.00745  -1.11166
   D48        3.12743   0.00004  -0.00002  -0.00056  -0.00058   3.12685
   D49       -3.12763   0.00000  -0.00000  -0.00065  -0.00066  -3.12829
   D50        0.01522  -0.00001   0.00000  -0.00132  -0.00132   0.01390
   D51       -0.97288   0.00029   0.00011   0.00402   0.00413  -0.96875
   D52        2.16997   0.00027   0.00011   0.00335   0.00346   2.17344
   D53        1.00355  -0.00029  -0.00012  -0.00529  -0.00541   0.99814
   D54       -2.13679  -0.00030  -0.00012  -0.00596  -0.00608  -2.14286
   D55       -3.13833  -0.00003  -0.00000  -0.00052  -0.00052  -3.13885
   D56        0.00200  -0.00002  -0.00001   0.00015   0.00015   0.00215
   D57        3.13435   0.00004   0.00000   0.00159   0.00160   3.13595
   D58       -0.00586   0.00003   0.00001   0.00085   0.00086  -0.00499
         Item               Value     Threshold  Converged?
 Maximum Force            0.002503     0.000015     NO 
 RMS     Force            0.000594     0.000010     NO 
 Maximum Displacement     0.039878     0.000060     NO 
 RMS     Displacement     0.010467     0.000040     NO 
 GradGradGradGradGradGradGradGradGradGradGradGradGradGradGradGradGradGrad

                    Distance matrix (angstroms):
                    1          2          3          4          5
     1  C    0.000000
     2  C    1.526765   0.000000
     3  C    2.533801   1.524757   0.000000
     4  C    3.896123   2.545617   1.508658   0.000000
     5  O    4.891973   3.710015   2.358494   1.311024   0.000000
     6  O    4.333590   2.819953   2.402383   1.220907   2.232667
     7  H    1.105160   2.185818   2.807092   4.218443   5.068352
     8  H    1.105154   2.185854   2.806836   4.219360   5.067058
     9  H    1.103465   2.180898   3.494233   4.718252   5.822949
    10  H    2.169529   1.103629   2.155510   2.776053   3.996016
    11  H    2.169383   1.103676   2.155576   2.777846   3.994875
    12  H    2.795635   2.184240   1.105736   2.117799   2.586786
    13  H    2.794071   2.183970   1.105811   2.117481   2.590439
    14  H    5.750628   4.453717   3.243781   1.910781   1.004542
    15  C   11.453273   9.988804   9.086821   7.597469   6.962904
    16  C    9.988891   8.546211   7.589193   6.111516   5.438583
    17  C    9.086690   7.589010   6.841106   5.332514   4.965966
    18  C    7.597413   6.111419   5.332526   3.823914   3.523407
    19  O    6.963067   5.438707   4.966221   3.523698   3.694033
    20  O    7.210083   5.808730   4.775306   3.315703   2.647605
    21  H   11.760482  10.277509   9.457126   7.961143   7.417867
    22  H   12.139341  10.712322   9.704839   8.248743   7.477238
    23  H   11.747306  10.267866   9.443682   7.951321   7.405278
    24  H    9.845050   8.449677   7.404399   5.976468   5.192625
    25  H    9.861046   8.461742   7.421756   5.989818   5.210694
    26  H    9.393722   7.884322   7.254081   5.764327   5.526175
    27  H    9.379855   7.874284   7.239188   5.753282   5.511759
    28  H    5.961392   4.438405   3.986698   2.583273   2.970642
                    6          7          8          9         10
     6  O    0.000000
     7  H    4.793008   0.000000
     8  H    4.796590   1.784013   0.000000
     9  H    4.934393   1.783652   1.783646   0.000000
    10  H    2.746323   2.539273   3.097025   2.511431   0.000000
    11  H    2.752761   3.096908   2.539333   2.511049   1.761837
    12  H    3.102269   3.158904   2.614713   3.809955   3.087210
    13  H    3.098751   2.613260   3.156326   3.808848   2.536507
    14  H    2.341424   5.970436   5.970078   6.618448   4.610274
    15  C    7.209774  11.747923  11.760057  12.139214   9.845523
    16  C    5.808450  10.268628  10.277086  10.712304   8.450346
    17  C    4.774985   9.444261   9.456429   9.704610   7.404991
    18  C    3.315425   7.951958   7.960482   8.248631   5.977229
    19  O    2.647677   7.407457   7.416115   7.477328   5.195503
    20  O    3.216336   7.479173   7.484175   7.988677   5.811378
    21  H    7.483383  12.148535  12.031483  12.398695  10.169809
    22  H    7.988392  12.388697  12.398433  12.883392  10.618762
    23  H    7.479313  12.001247  12.147528  12.387974  10.007552
    24  H    5.811663  10.007787  10.168835  10.618239   8.316542
    25  H    5.817362  10.182216  10.032109  10.631097   8.509223
    26  H    5.090599   9.864255   9.719127   9.945866   7.745960
    27  H    5.086951   9.687318   9.862805   9.935036   7.537056
    28  H    1.643864   6.413072   6.418822   6.496647   4.233292
                   11         12         13         14         15
    11  H    0.000000
    12  H    2.535779   0.000000
    13  H    3.087133   1.758738   0.000000
    14  H    4.610270   3.516590   3.518769   0.000000
    15  C    9.860164   9.393461   9.380636   5.961013   0.000000
    16  C    8.460862   7.884000   7.875204   4.438049   1.526763
    17  C    7.420613   7.253422   7.240050   3.986391   2.533782
    18  C    5.988746   5.763585   5.754181   2.582996   3.896071
    19  O    5.207912   5.523853   5.514719   2.970832   4.891613
    20  O    5.818137   5.091780   5.086459   1.643634   4.333424
    21  H   10.031762   9.719376   9.864088   6.420271   1.105151
    22  H   10.630358   9.945792   9.935844   6.496263   1.103464
    23  H   10.180672   9.863345   9.687446   6.410866   1.105163
    24  H    8.507678   7.744950   7.537261   4.230155   2.169580
    25  H    8.331683   7.563460   7.760603   4.244581   2.169334
    26  H    7.562876   7.605650   7.789982   4.585427   2.795817
    27  H    7.758823   7.788582   7.570711   4.574585   2.793858
    28  H    4.242124   4.583157   4.577463   2.454049   5.749946
                   16         17         18         19         20
    16  C    0.000000
    17  C    1.524757   0.000000
    18  C    2.545561   1.508650   0.000000
    19  O    3.709710   2.358167   1.310964   0.000000
    20  O    2.819806   2.402331   1.220933   2.232909   0.000000
    21  H    2.185871   2.806851   4.219547   5.065022   4.798439
    22  H    2.180887   3.494212   4.718186   5.822599   4.934205
    23  H    2.185802   2.807039   4.218172   5.069648   4.790845
    24  H    1.103605   2.155445   2.775594   3.997794   2.742655
    25  H    1.103699   2.155644   2.778179   3.992575   2.756128
    26  H    2.184494   1.105677   2.118154   2.582925   3.105352
    27  H    2.183720   1.105867   2.117142   2.593629   3.095569
    28  H    4.453048   3.243128   1.910195   1.004358   2.341197
                   21         22         23         24         25
    21  H    0.000000
    22  H    1.783650   0.000000
    23  H    1.784016   1.783648   0.000000
    24  H    3.097064   2.511479   2.539323   0.000000
    25  H    2.539283   2.510986   3.096872   1.761839   0.000000
    26  H    2.614982   3.810213   3.158861   3.087309   2.536255
    27  H    3.156344   3.808553   2.612956   2.536030   3.087037
    28  H    5.968474   6.617761   5.970706   4.610775   4.608486
                   26         27         28
    26  H    0.000000
    27  H    1.758743   0.000000
    28  H    3.514183   3.519963   0.000000
 Framework group  C1[X(C8H16O4)]
 Deg. of freedom    78
                         Standard orientation:                         
 ---------------------------------------------------------------------
 Center     Atomic      Atomic             Coordinates (Angstroms)
 Number     Number       Type             X           Y           Z
 ---------------------------------------------------------------------
      1          6           0        5.723201   -0.199597    0.015092
      2          6           0        4.237463   -0.550883    0.001187
      3          6           0        3.350465    0.689321    0.005080
      4          6           0        1.871933    0.389535   -0.005798
      5          8           0        1.123550    1.465966   -0.007718
      6          8           0        1.424321   -0.746346   -0.011543
      7          1           0        5.988827    0.385546    0.914219
      8          1           0        6.001894    0.401134   -0.869678
      9          1           0        6.345162   -1.111072    0.011681
     10          1           0        3.987690   -1.177086    0.874961
     11          1           0        4.000902   -1.162181   -0.886763
     12          1           0        3.559572    1.334827   -0.867988
     13          1           0        3.548897    1.321130    0.890665
     14          1           0        0.150117    1.218001   -0.014539
     15          6           0       -5.723125    0.199253    0.014689
     16          6           0       -4.237458    0.550676   -0.002604
     17          6           0       -3.350279   -0.689351    0.008814
     18          6           0       -1.871818   -0.389339   -0.004178
     19          8           0       -1.123712   -1.465874   -0.010152
     20          8           0       -1.424478    0.746685   -0.008014
     21          1           0       -6.002396   -0.407307   -0.865908
     22          1           0       -6.345226    1.110595    0.005785
     23          1           0       -5.987977   -0.380018    0.917841
     24          1           0       -3.987054    1.182628    0.866808
     25          1           0       -4.001730    1.156171   -0.894771
     26          1           0       -3.559809   -1.341038   -0.859473
     27          1           0       -3.548067   -1.314911    0.899037
     28          1           0       -0.150552   -1.217558   -0.016145
 ---------------------------------------------------------------------
 Rotational constants (GHZ):           3.6612158           0.2493657           0.2355249
   200 basis functions,   364 primitive gaussians,   212 cartesian basis functions
    48 alpha electrons       48 beta electrons
       nuclear repulsion energy       708.2903798566 Hartrees.
 NAtoms=   28 NActive=   28 NUniq=   28 SFac= 1.00D+00 NAtFMM=   60 NAOKFM=F Big=F
 Nuclear repulsion after empirical dispersion term =      708.2758012938 Hartrees.
   1 Symmetry operations used in ECPInt.
 ECPInt:  NShTT=    5460 NPrTT=   21940 LenC2=    4936 LenP2D=   13911.
 LDataN:  DoStor=T MaxTD1= 4 Len=   56
 Initial guess from the checkpoint file:  "32.chk"
 B after Tr=     0.000000    0.000000   -0.000000
         Rot=    1.000000   -0.000086   -0.000018   -0.000112 Ang=  -0.02 deg.
 ExpMin= 1.22D-01 ExpMax= 2.27D+03 ExpMxC= 3.41D+02 IAcc=3 IRadAn=         5 AccDes= 0.00D+00
 Harris functional with IExCor= 4639 and IRadAn=       5 diagonalized for initial guess.
 HarFok:  IExCor= 4639 AccDes= 0.00D+00 IRadAn=         5 IDoV= 1 UseB2=F ITyADJ=14
 ICtDFT=  3500011 ScaDFX=  1.000000  1.000000  1.000000  1.000000
 FoFCou: FMM=F IPFlag=           0 FMFlag=      100000 FMFlg1=           0
         NFxFlg=           0 DoJE=T BraDBF=F KetDBF=T FulRan=T
         wScrn=  0.000000 ICntrl=       500 IOpCl=  0 I1Cent=   200000004 NGrid=           0
         NMat0=    1 NMatS0=      1 NMatT0=    0 NMatD0=    1 NMtDS0=    0 NMtDT0=    0
 Petite list used in FoFCou.
     Minimum is close to point  4 DX=  8.22D-02 DF= -3.77D-07 DXR=  6.41D-02 DFR=  4.13D-03 which will be used.
     Minimum is close to point  2 DX=  4.83D-05 DF= -2.27D-13 DXR=  4.83D-05 DFR=  5.88D-09 which will be used.
 SCF Done:  E(RwB97XD) =  -614.780986870     a.u. after    4 cycles
            Convg  =    0.1611D-09                    31 Fock formations.
              S**2 =  0.0000                  -V/T =  2.0090
   1 Symmetry operations used in ECPInt.
 ECPInt:  NShTT=    5460 NPrTT=   21940 LenC2=    4936 LenP2D=   13911.
 LDataN:  DoStor=T MaxTD1= 5 Len=  102
 Calling FoFJK, ICntrl=      2127 FMM=F ISym2X=0 I1Cent= 0 IOpClX= 0 NMat=1 NMatS=1 NMatT=0.

[...]
 .22487392,0.00077970,-0.00108279,0.00175485,0.00039153,-0.00020017,0.0
 0053192,-0.00000508,0.00007633,0.00014441,-0.00015433,-0.00009333,0.00
 000322,0.00008005,-0.00024872,-0.00005469,0.05521630,-0.12622977,0.236
 10861,0.00000243,-0.00000994,-0.00000003,-0.00000079,0.00001767,0.0000
 0004,-0.00003073,0.00002123,0.00000005,0.00016883,-0.00015569,-0.00000
 039,-0.00022576,0.00009371,0.00000023,-0.00034350,0.00017498,0.0000004
 3,-0.00000146,0.00000329,-0.00000230,-0.00000146,0.00000328,0.00000232
 ,-0.00000759,-0.00000310,0.,0.00000426,-0.00000034,0.00000391,0.000004
 26,-0.00000032,-0.00000391,-0.00000904,-0.00000220,0.00000265,-0.00000
 904,-0.00000219,-0.00000266,0.00035894,-0.00015135,-0.00000037,-0.1308
 6235,-0.12413194,-0.00030965,-0.01614262,-0.02801076,-0.00006993,-0.00
 618372,0.00378375,0.00000961,0.00081958,-0.00220227,-0.00000548,-0.001
 59910,-0.00007466,-0.00000016,-0.00046937,0.00063515,0.00000158,0.0046
 9100,0.00771682,0.00087697,0.14223901,0.00000107,-0.00000415,-0.000000
 01,-0.00000009,0.00000617,0.00000002,-0.00001320,0.00000370,0.,0.00007
 969,-0.00000914,-0.00000003,-0.00011207,0.00001275,0.00000005,-0.00007
 839,0.00002180,0.00000006,-0.00000052,0.00000159,-0.00000124,-0.000000
 52,0.00000158,0.00000125,-0.00000310,-0.00000166,0.,0.00000142,-0.0000
 0024,0.00000175,0.00000142,-0.00000023,-0.00000175,-0.00000186,-0.0000
 0140,0.00000100,-0.00000185,-0.00000140,-0.00000101,0.00015020,-0.0000
 5015,-0.00000013,-0.12646273,-0.23798047,-0.00046986,0.00694620,0.0091
 6487,0.00002626,0.00145908,0.00019831,-0.00000106,0.00060218,0.0004565
 0,-0.00000039,0.00000760,-0.00005401,0.,-0.00034328,0.00014446,0.00000
 069,-0.00812006,-0.01166134,-0.00202557,0.13453500,0.25006405,0.,-0.00
 000001,0.00000046,0.,0.00000001,0.00000010,-0.00000003,0.,0.00000088,0
 .00000019,-0.00000003,0.00000438,-0.00000027,0.00000005,-0.00000668,-0
 .00000019,0.00000005,-0.00000074,-0.00000021,0.00000032,-0.00000031,0.
 00000021,-0.00000031,-0.00000030,0.,0.,0.00000014,-0.00000002,-0.00000
 057,-0.00000024,0.00000003,0.00000057,-0.00000025,0.00000064,-0.000000
 40,-0.00000012,-0.00000065,0.00000039,-0.00000012,0.00000037,-0.000000
 13,0.00000265,-0.00031551,-0.00046993,-0.04958398,0.00001783,0.0000271
 4,-0.00137016,0.00000386,-0.00000112,0.00060545,0.00000150,-0.00000032
 ,0.00060932,0.00000006,0.00000001,-0.00005831,-0.00000085,0.00000067,-
 0.00013040,0.01568688,0.02116439,0.00191454,0.00033536,0.00050933,0.04
 587156,-0.00000027,-0.00000203,-0.00000008,-0.00000058,0.00000357,0.00
 000109,-0.00000317,-0.00000422,0.00000189,0.00004351,0.00008295,0.0000
 0847,-0.00007683,-0.00003626,-0.00001539,0.00001681,-0.00005351,-0.000
 01171,0.,0.00000072,0.00000003,0.00000067,-0.00000004,-0.00000059,-0.0
 0000146,-0.00000052,0.00000021,-0.00000045,-0.00000120,-0.00000117,0.0
 0000007,0.00000019,0.00000028,0.00000146,-0.00000120,-0.00000112,0.000
 00002,0.00000010,0.00000078,0.00006777,-0.00000213,0.00002532,-0.06288
 443,0.03207812,0.04949684,-0.00750037,0.01754211,0.02840217,0.00183792
 ,0.00115356,0.00084455,-0.00019042,0.00097716,-0.00026447,0.00008578,-
 0.00022250,0.00000077,-0.00011309,-0.00068182,-0.00013511,0.00103636,-
 0.00503708,-0.00596463,0.00469016,-0.00804108,-0.01572761,0.06853457,-
 0.00000087,0.00000424,-0.00000029,-0.00000002,-0.00000721,-0.00000102,
 0.00001165,-0.00000449,-0.00000209,-0.00007839,0.00000439,-0.00000820,
 0.00010745,-0.00000457,0.00001506,0.00009564,-0.00002511,0.00000937,0.
 00000072,-0.00000204,0.00000112,-0.00000004,-0.00000094,-0.00000024,0.
 00000328,0.00000158,-0.00000031,-0.00000116,0.00000142,-0.00000070,-0.
 00000145,-0.00000036,0.00000173,0.00000131,0.00000158,-0.00000003,0.00
 000295,0.00000010,0.00000041,-0.00013691,0.00003591,-0.00002131,0.0327
 4650,-0.12521527,-0.11479206,0.00136284,-0.00459650,-0.00584472,-0.000
 65358,0.00061769,0.00094307,-0.00026589,-0.00009072,0.00007228,0.00028
 708,0.00009234,-0.00000265,0.00018102,0.00001315,0.00003790,-0.0050662
 3,0.01106325,0.01485712,0.00772006,-0.01156487,-0.02123245,-0.03802183
 ,0.12884833,-0.00000004,0.00000223,-0.00000002,-0.00000067,-0.00000435
 ,-0.00000121,0.00000487,-0.00000191,-0.00000132,-0.00004584,-0.0000383
 9,-0.00000566,0.00005307,0.00002523,0.00000916,0.00002800,0.00001797,0
 .00000826,-0.00000002,-0.00000114,0.00000017,-0.00000059,-0.00000024,0
 .00000046,0.00000232,0.00000125,-0.00000030,-0.00000018,0.00000082,0.0
 0000112,-0.00000040,-0.00000035,-0.00000024,-0.00000036,0.00000139,0.0
 0000067,0.00000053,0.00000022,-0.00000045,-0.00004603,0.00000019,-0.00
 001495,0.05080800,-0.11497751,-0.22603521,-0.00077246,0.00105002,0.001
 72956,-0.00039486,0.00020055,0.00053763,0.00000377,-0.00007754,0.00014
 443,0.00015576,0.00009378,0.00000367,-0.00007912,0.00024909,-0.0000532
 7,0.00593833,-0.01471302,-0.01758479,-0.00083834,0.00195829,0.00181893
 ,-0.05539943,0.12569299,0.23737914,0.00000005,0.00000640,-0.00000025,0
 .00000267,-0.00001065,0.00000057,0.00001503,0.00000796,0.00000169,-0.0
 0012906,-0.00015117,0.00000914,0.00024706,0.00004283,-0.00001819,0.000
 01251,0.00008571,-0.00000829,-0.00000045,-0.00000116,0.00000018,0.0000
 0007,-0.00000145,-0.00000040,0.00000426,0.00000142,0.00000003,-0.00000
 090,0.00000033,-0.00000005,-0.00000011,0.00000144,-0.00000054,0.000001
 28,0.00000153,0.00000054,-0.00000050,0.00000260,-0.00000089,-0.0002746
 4,0.00007690,0.00002582,-0.00787053,0.01827127,-0.02735644,-0.05993455
 ,0.03189709,-0.04657280,0.00335577,-0.01142231,0.01686174,0.00103937,-
 0.00213787,0.00135325,0.00004189,0.00057058,-0.00013447,-0.00051557,0.
 00093816,-0.00041058,-0.00646081,0.00164291,0.00042963,0.00108294,-0.0
 0054855,-0.00022847,0.00133205,-0.00007087,0.00042646,0.06893433,0.000
 00046,-0.00000073,-0.00000043,0.00000028,0.00000157,0.00000308,-0.0000
 0385,0.00000706,0.00000406,-0.00000973,-0.00008561,0.00001729,0.000014
 22,0.00002631,-0.00002430,-0.00009613,0.00007613,-0.00002768,-0.000001
 20,0.00000142,-0.00000082,0.00000019,-0.00000036,-0.00000035,-0.000000
 32,-0.00000023,0.00000057,0.00000033,-0.00000189,0.00000054,0.00000144
 ,0.00000089,-0.00000263,-0.00000136,-0.00000012,-0.00000036,-0.0000037
 4,0.00000288,-0.00000022,0.00001227,0.00001590,0.00004052,0.00141604,-
 0.00353406,0.00472591,0.03112729,-0.13143496,0.11670361,0.00451938,-0.
 01621647,0.02280527,0.00154248,-0.00137534,0.00048351,-0.00024922,0.00
 034558,-0.00016804,-0.00010242,0.00129427,-0.00051708,0.00115594,0.000
 61886,-0.00016753,-0.00008221,0.00056486,-0.00044782,-0.00015590,-0.00
 021340,0.00023139,-0.03227954,0.14219867,-0.00000059,-0.00000539,-0.00
 000025,-0.00000108,0.00000935,-0.00000085,-0.00001076,-0.00000920,-0.0
 0000294,0.00010859,0.00019411,-0.00001149,-0.00019059,-0.00009229,0.00
 002506,0.00002450,-0.00012542,0.00001171,0.00000116,0.00000070,0.00000
 112,0.00000028,0.00000173,-0.00000024,-0.00000391,-0.00000175,-0.00000
 025,0.00000006,-0.00000054,-0.00000067,-0.00000054,-0.00000263,0.00000
 172,0.00000019,0.00000014,-0.00000254,0.00000260,-0.00000151,0.0000030
 2,0.00017746,0.00000635,-0.00004100,0.00084734,-0.00185005,0.00205794,
 -0.04556855,0.11845088,-0.22325161,0.00080733,-0.00169531,0.00140163,-
 0.00128555,0.00244016,0.00021544,0.00030975,-0.00067513,-0.00012755,-0
 .00027337,-0.00169632,0.00046654,0.00045780,-0.00044407,0.00145281,-0.
 00052724,-0.00009788,0.00005436,-0.00035009,-0.00008092,0.00080030,0.0
 5072046,-0.12867142,0.23326100,0.00000005,0.00000640,0.00000029,0.0000
 0267,-0.00001065,-0.00000062,0.00001503,0.00000797,-0.00000165,-0.0001
 2905,-0.00015112,-0.00000988,0.00024704,0.00004274,0.00001840,0.000012
 49,0.00008567,0.00000872,0.00000007,-0.00000145,0.00000039,-0.00000045
 ,-0.00000116,-0.00000018,0.00000426,0.00000142,-0.00000002,-0.00000011
 ,0.00000144,0.00000055,-0.00000090,0.00000033,0.00000006,-0.00000050,0
 .00000260,0.00000090,0.00000128,0.00000153,-0.00000054,-0.00027461,0.0
 0007702,-0.00002545,-0.00786918,0.01813402,0.02744829,-0.05992969,0.03
 165686,0.04672293,0.00335474,-0.01133763,-0.01691884,0.00103943,-0.002
 13113,-0.00136388,0.00004182,0.00056983,0.00013731,-0.00051541,0.00093
 619,0.00041522,0.00133203,-0.00006873,-0.00042685,0.00108297,-0.000549
 67,0.00022567,-0.00646086,0.00164511,-0.00042098,0.00103743,-0.0041779
 7,-0.00547788,0.06892897,0.00000046,-0.00000076,0.00000043,0.00000027,
 0.00000163,-0.00000307,-0.00000391,0.00000704,-0.00000401,-0.00000917,
 -0.00008455,-0.00001765,0.00001325,0.00002573,0.00002430,-0.00009601,0
 .00007536,0.00002799,0.00000019,-0.00000035,0.00000035,-0.00000120,0.0
 0000142,0.00000082,-0.00000034,-0.00000024,-0.00000057,0.00000144,0.00
 000086,0.00000262,0.00000033,-0.00000189,-0.00000055,-0.00000373,0.000
 00287,0.00000022,-0.00000136,-0.00000012,0.00000037,0.00001318,0.00001
 612,-0.00004024,0.00142000,-0.00351951,-0.00475398,0.03089231,-0.13025
 877,-0.11623904,0.00452219,-0.01611026,-0.02289317,0.00153602,-0.00136
 056,-0.00049131,-0.00024769,0.00034129,0.00017040,-0.00010390,0.001283
 09,0.00052100,-0.00015767,-0.00021263,-0.00023646,-0.00008483,0.000562
 13,0.00045037,0.00115822,0.00061581,0.00016329,-0.00420457,0.01096372,
 0.01461072,-0.03201794,0.14091133,0.00000059,0.00000538,-0.00000022,0.
 00000108,-0.00000933,-0.00000091,0.00001074,0.00000925,-0.00000292,-0.
 00010862,-0.00019446,-0.00001253,0.00019063,0.00009230,0.00002564,-0.0
 0002499,0.00012573,0.00001247,-0.00000027,-0.00000173,-0.00000025,-0.0
 0000117,-0.00000070,0.00000112,0.00000391,0.00000175,-0.00000024,0.000
 00055,0.00000262,0.00000175,-0.00000005,0.00000054,-0.00000067,-0.0000
 0262,0.00000151,0.00000302,-0.00000020,-0.00000012,-0.00000254,-0.0001
 7736,-0.00000608,-0.00004125,-0.00083967,0.00182108,0.00204188,0.04571
 500,-0.11798640,-0.22443220,-0.00078471,0.00160829,0.00129643,0.001293
 15,-0.00244784,0.00020088,-0.00031103,0.00067740,-0.00012337,0.0002727
 4,0.00170028,0.00047759,0.00034928,0.00007584,0.00079951,0.00052677,0.
 00010046,0.00005708,-0.00045155,0.00043978,0.00145590,0.00545588,-0.01
 446281,-0.01852334,-0.05087249,0.12821020,0.23455324,-0.00000202,-0.00
 001631,0.00000102,-0.00001437,0.00002715,-0.00000317,-0.00004445,-0.00
 004891,0.00001119,0.00030864,0.00053400,-0.00000648,-0.00095790,-0.000
 08093,-0.00010677,0.00011616,-0.00032028,-0.00003816,0.00000146,0.0000
 0131,0.00000036,0.00000002,0.00000295,0.00000053,-0.00000904,-0.000001
 85,-0.00000065,0.00000128,-0.00000136,-0.00000019,-0.00000050,-0.00000
 374,0.00000260,-0.00000251,-0.00000243,-0.00000245,0.00000414,-0.00000
 779,0.00000328,0.00126096,-0.00037739,0.00035412,0.00145572,-0.0004396
 2,0.00118702,0.00349435,-0.01096513,0.01696865,-0.05895396,0.02742759,
 -0.04237461,-0.00259912,0.01945898,-0.03183444,-0.00056975,-0.00144945
 ,0.00280798,-0.00575127,0.00202700,0.00384647,-0.00034539,0.00021083,-
 0.00059503,0.00014766,0.00018221,-0.00016258,-0.00005078,0.00005774,0.
 00002162,-0.00253568,-0.00351172,-0.00020254,0.00064696,0.00075897,-0.
 00044176,0.06276904,0.00000133,-0.00000052,0.00000012,0.00000425,0.000
 00227,0.00000155,-0.00000027,0.00002858,-0.00000237,0.00001302,-0.0002
 4135,0.00001456,0.00022354,0.00004775,0.00000756,-0.00017552,0.0001645
 8,0.00001797,-0.00000121,0.00000159,-0.00000139,0.00000010,0.00000010,
 0.00000022,-0.00000219,-0.00000140,0.00000039,0.00000153,-0.00000012,-
 0.00000012,0.00000260,0.00000288,-0.00000151,-0.00000244,-0.00000279,0
 .00000202,-0.00000779,0.00000051,-0.00000244,-0.00022988,0.00005191,-0
 .00004163,0.00119922,0.00093612,-0.00012769,0.00510656,-0.01509401,0.0
 2169638,0.02726654,-0.13061324,0.12181567,0.00317101,-0.00694706,0.006
 70172,-0.00225685,-0.00017056,-0.00054921,0.00200062,0.00050065,-0.001
 00239,-0.00073658,0.00040080,-0.00023331,0.00021155,0.00006089,-0.0003
 1598,-0.00003806,-0.00000034,-0.00011116,-0.00337240,-0.00383510,-0.00
 048559,0.00064909,0.00059989,-0.00013096,-0.02905067,0.14338982,-0.000
 00048,-0.00000272,0.00000021,-0.00000029,0.00000512,-0.00000079,-0.000
 00398,-0.00001053,0.00000015,0.00007695,0.00016482,-0.00001030,-0.0001
 0739,-0.00007171,0.00003208,0.00005540,-0.00012156,0.00001147,0.000001
 11,0.00000004,0.00000066,0.00000078,0.00000041,-0.00000045,-0.00000266
 ,-0.00000101,-0.00000012,-0.00000054,0.00000037,-0.00000254,-0.0000008
 9,-0.00000022,0.00000302,0.00000243,-0.00000203,-0.00000064,0.00000328
 ,-0.00000244,0.00000070,0.00009797,0.00000637,-0.00009707,0.00007934,-
 0.00028593,0.00045710,0.00062382,-0.00119588,0.00205318,-0.04198076,0.
 12102356,-0.21445003,0.00254269,-0.00003379,0.00121692,-0.00019294,-0.
 00073254,0.00074296,0.00037094,-0.00130020,-0.00078291,0.00045991,0.00
 015179,-0.00000869,0.00013741,-0.00018712,0.00012138,-0.00002197,0.000
 08619,-0.00016667,-0.00017021,-0.00045542,0.00139437,0.00035975,0.0000
 3797,0.00082323,0.04391153,-0.13197418,0.22713550,-0.00000202,-0.00001
 630,-0.00000110,-0.00001437,0.00002714,0.00000331,-0.00004445,-0.00004
 885,-0.00001143,0.00030863,0.00053391,0.00000910,-0.00095787,-0.000081
 44,0.00010638,0.00011611,-0.00032042,0.00003659,0.00000002,0.00000296,
 -0.00000052,0.00000146,0.00000131,-0.00000036,-0.00000904,-0.00000186,
 0.00000064,-0.00000050,-0.00000373,-0.00000262,0.00000128,-0.00000136,
 0.00000019,0.00000413,-0.00000778,-0.00000332,-0.00000251,-0.00000244,
 0.00000243,0.00126092,-0.00037563,-0.00035598,0.00145566,-0.00043366,-
 0.00118928,0.00349366,-0.01088015,-0.01702334,-0.05895083,0.02721168,0
 .04250612,-0.00259829,0.01929966,0.03193152,-0.00057002,-0.00143548,-0
 .00281513,-0.00575101,0.00204593,-0.00383637,-0.00005078,0.00005786,-0
 .00002135,0.00014767,0.00018140,0.00016348,-0.00034537,0.00020782,0.00
 059611,0.00064696,0.00075673,0.00044556,-0.00253563,-0.00351273,0.0001
 8513,0.00155394,-0.00447304,-0.00596473,0.06276578,0.00000133,-0.00000
 053,-0.00000012,0.00000425,0.00000230,-0.00000154,-0.00000029,0.000028
 51,0.00000251,0.00001341,-0.00024043,-0.00001569,0.00022299,0.00004742
 ,-0.00000749,-0.00017523,0.00016405,-0.00001722,0.00000011,0.00000010,
 -0.00000021,-0.00000120,0.00000158,0.00000139,-0.00000220,-0.00000140,
 -0.00000040,0.00000260,0.00000287,0.00000151,0.00000153,-0.00000012,0.
 00000014,-0.00000778,0.00000049,0.00000244,-0.00000243,-0.00000279,-0.
 00000203,-0.00022939,0.00005173,0.00004237,0.00119965,0.00093410,0.000
 13001,0.00510869,-0.01499118,-0.02178192,0.02705212,-0.12940066,-0.121
 39111,0.00318345,-0.00691343,-0.00674255,-0.00225766,-0.00017700,0.000
 54472,0.00200242,0.00048910,0.00100885,-0.00003817,-0.00000047,0.00011
 199,0.00021227,0.00005837,0.00031566,-0.00073428,0.00040037,0.00023541
 ,0.00065087,0.00059942,0.00012981,-0.00337317,-0.00383969,0.00045958,-
 0.00450227,0.01084499,0.01498831,-0.02882614,0.14207171,0.00000049,0.0
 0000272,0.00000022,0.00000031,-0.00000510,-0.00000082,0.00000397,0.000
 01067,0.00000022,-0.00007688,-0.00016597,-0.00001118,0.00010851,0.0000
 7178,0.00003239,-0.00005627,0.00012232,0.00001199,-0.00000078,-0.00000
 040,-0.00000045,-0.00000112,-0.00000003,0.00000067,0.00000265,0.000001
 00,-0.00000011,0.00000090,0.00000022,0.00000302,0.00000055,-0.00000036
 ,-0.00000254,-0.00000332,0.00000244,0.00000073,-0.00000245,0.00000202,
 -0.00000064,-0.00009913,-0.00000563,-0.00009688,-0.00007335,0.00028836
 ,0.00045929,-0.00059834,0.00111096,0.00195077,0.04211084,-0.12059892,-
 0.21566469,-0.00252647,-0.00000742,0.00118247,0.00018182,0.00072792,0.
 00074943,-0.00036080,0.00130648,-0.00077138,0.00002177,-0.00008536,-0.
 00016656,-0.00013635,0.00018680,0.00012389,-0.00046357,-0.00014975,-0.
 00000828,-0.00035648,-0.00003913,0.00082367,0.00015348,0.00042932,0.00
 139893,0.00594158,-0.01484107,-0.01857930,-0.04405051,0.13154964,0.228
 45595,-0.00009310,0.00038560,0.00000099,-0.00051544,-0.00107188,-0.000
 00274,0.00105972,-0.00505751,-0.00001247,0.00448226,0.04187176,0.00010
 294,-0.01506713,-0.01508778,-0.00003709,0.00663468,-0.03096057,-0.0000
 7624,0.00006777,-0.00013714,0.00004534,0.00006777,-0.00013691,-0.00004
 603,0.00035894,0.00015020,0.00000038,-0.00027460,0.00001319,-0.0001773
 7,-0.00027466,0.00001225,0.00017746,0.00126086,-0.00022937,-0.00009909
 ,0.00126103,-0.00022989,0.00009801,0.01665640,-0.00215520,-0.00000538,
 0.00003925,0.00071415,0.00000180,0.00067861,-0.00081695,-0.00000204,0.
 00327759,0.00048959,0.00000112,-0.04075285,-0.04027911,-0.00009868,-0.
 29329809,0.07461656,0.00018772,-0.00621956,0.02534773,0.00006251,-0.00
 001908,-0.00013414,0.00003885,0.00044684,0.00012949,0.00000031,-0.0000
 1908,-0.00013394,-0.00003952,-0.00003087,0.00012827,-0.00001039,-0.000
 03084,0.00012822,0.00001104,0.00007643,0.00049591,-0.00027647,0.000076
 47,0.00049452,0.00027894,0.32015066,-0.00001373,-0.00020453,-0.0000004
 4,0.00009959,0.00053221,0.00000111,-0.00072304,0.00138296,-0.00000249,
 0.00706194,-0.01288896,-0.00003338,0.00228360,0.00315222,0.00001148,-0
 .01187093,-0.00237063,0.00002663,-0.00000201,0.00003580,0.00000007,-0.
 00000213,0.00003591,0.00000019,-0.00015135,-0.00005015,-0.00000013,0.0
 0007702,0.00001612,-0.00000608,0.00007690,0.00001591,0.00000635,-0.000
 37562,0.00005173,-0.00000564,-0.00037741,0.00005191,0.00000636,-0.0021
 5524,-0.00293125,-0.00000963,-0.00012860,-0.00055861,-0.00000139,-0.00
 123025,0.00100006,0.00000041,-0.00215499,-0.00484439,-0.00002424,-0.04
 322432,0.02262917,0.00004776,0.09430353,-0.08543903,-0.00013572,0.0070
 0629,-0.00414176,0.00000561,0.00003711,0.00002557,-0.00000129,-0.00021
 696,0.00000704,0.00000011,0.00003698,0.00002566,0.00000150,0.00000253,
 -0.00001928,0.00009149,0.00000239,-0.00001897,-0.00009154,0.00009113,-
 0.00012685,-0.00008765,0.00009461,-0.00012944,0.00008647,-0.04854705,0
 .08476161,-0.00000003,-0.00000043,-0.00003357,0.00000028,0.00000109,0.
 00009581,-0.00000179,-0.00000250,0.00240354,0.00001727,-0.00003375,0.0
 0065748,0.00000576,0.00001163,-0.00151364,-0.00002936,0.00002688,-0.01
 315772,-0.00002533,0.00002156,-0.00001484,0.00002532,-0.00002131,-0.00
 001495,-0.00000038,-0.00000013,0.00000265,-0.00002545,-0.00004024,-0.0
 0004125,0.00002583,0.00004052,-0.00004100,-0.00035601,0.00004239,-0.00
 009690,0.00035410,-0.00004161,-0.00009706,-0.00000546,-0.00000962,0.00
 098390,-0.00000032,-0.00000137,-0.00000292,-0.00000298,0.00000031,0.00
 085086,-0.00000526,-0.00002410,0.00499994,-0.00010592,0.00004760,0.003
 54394,0.00023636,-0.00013544,-0.03096733,0.00001724,0.00000540,-0.0064
 5808,-0.00002593,0.00002049,-0.00001692,-0.00000054,0.00000010,-0.0000
 3351,0.00002612,-0.00002027,-0.00001702,-0.00002731,-0.00002972,-0.000
 00796,0.00002732,0.00002966,-0.00000826,0.00071088,-0.00043717,0.00010
 656,-0.00071052,0.00043592,0.00010918,-0.00012390,0.00011410,0.0387690
 6\\0.00000037,0.00000022,-0.00000003,-0.00000026,0.00000067,-0.0000000
 5,0.00000025,-0.00000031,-0.00000013,-0.00000051,0.00000029,-0.0000000
 5,0.00000033,0.00000004,-0.00000009,0.00000024,-0.00000007,0.00000005,
 0.,0.00000028,0.00000014,0.00000002,0.00000032,-0.00000015,-0.00000003
 ,0.00000058,0.00000003,-0.00000004,0.00000024,0.00000014,-0.00000011,0
 .00000022,-0.00000009,0.00000010,0.00000024,-0.00000006,0.00000003,0.0
 0000035,0.00000020,-0.00000019,0.00000018,0.00000005,-0.00000038,-0.00
 000022,-0.00000002,0.00000027,-0.00000070,-0.00000007,-0.00000016,0.00
 000034,-0.00000017,0.00000035,-0.00000049,0.00000018,0.00000002,0.0000
 0006,0.,0.00000020,0.00000008,0.,-0.00000001,-0.00000032,-0.00000015,0
 .00000003,-0.00000057,0.00000002,-0.00000001,-0.00000028,0.00000014,0.
 00000004,-0.00000023,0.00000015,0.00000011,-0.00000022,-0.00000009,-0.
 00000012,-0.00000028,-0.00000011,0.,-0.00000031,0.00000014,-0.00000053
 ,-0.00000010,0.00000002\\\@


 SOME THINGS ARE EASY, THEY ARE ONLY HARD TO DO.
            -- A. EINSTEIN TO J. O. HIRSCHFELDER
 THE ONLY TROUBLE WITH A SURE THING IS THE UNCERTAINTY.
     -- FROM A TEABAG (BELONGING TO W.H.?)
 Job cpu time:       0 days  0 hours 13 minutes 50.8 seconds.
 Elapsed time:       0 days  0 hours  3 minutes 34.9 seconds.
 File lengths (MBytes):  RWF=    143 Int=      0 D2E=      0 Chk=      5 Scr=      1
 Normal termination of Gaussian 16 at Fri Feb  3 11:10:01 2023.
real 1210.57
user 4269.68
sys 33.07
