 Entering Gaussian System, Link 0=g16
 Input=gaussian_test.inp
 Output=gaussian_test.log
 Initial command:
 /sw/restricted/lms/sw/Gaussian/g16_B01/g16/l1.exe "/scratch/user/peterchao1/peterchao1/9982550_1711744408000000744314583/Gau-10490.inp" -scrdir="/scratch/user/peterchao1/peterchao1/9982550_1711744408000000744314583/"
 Entering Link 1 = /sw/restricted/lms/sw/Gaussian/g16_B01/g16/l1.exe PID=     10493.
  
 Copyright (c) 1988-2017, Gaussian, Inc.  All Rights Reserved.
  
 This is part of the Gaussian(R) 16 program.  It is based on
 the Gaussian(R) 09 system (copyright 2009, Gaussian, Inc.),
 the Gaussian(R) 03 system (copyright 2003, Gaussian, Inc.),
 the Gaussian(R) 98 system (copyright 1998, Gaussian, Inc.),
 the Gaussian(R) 94 system (copyright 1995, Gaussian, Inc.),
 the Gaussian 92(TM) system (copyright 1992, Gaussian, Inc.),
 the Gaussian 90(TM) system (copyright 1990, Gaussian, Inc.),
 the Gaussian 88(TM) system (copyright 1988, Gaussian, Inc.),
 the Gaussian 86(TM) system (copyright 1986, Carnegie Mellon
 University), and the Gaussian 82(TM) system (copyright 1983,
 Carnegie Mellon University). Gaussian is a federally registered
 trademark of Gaussian, Inc.
  
 This software contains proprietary and confidential information,
 including trade secrets, belonging to Gaussian, Inc.
  
 This software is provided under written license and may be
 used, copied, transmitted, or stored only in accord with that
 written license.
  
 The following legend is applicable only to US Government
 contracts under FAR:
  
                    RESTRICTED RIGHTS LEGEND
  
 Use, reproduction and disclosure by the US Government is
 subject to restrictions as set forth in subparagraphs (a)
 and (c) of the Commercial Computer Software - Restricted
 Rights clause in FAR 52.227-19.
  
 Gaussian, Inc.
 340 Quinnipiac St., Bldg. 40, Wallingford CT 06492
  
  
 ---------------------------------------------------------------
 Warning -- This program may not be used in any manner that
 competes with the business of Gaussian, Inc. or will provide
 assistance to any competitor of Gaussian, Inc.  The licensee
 of this program is prohibited from giving any competitor of
 Gaussian, Inc. access to this program.  By using this program,
 the user acknowledges that Gaussian, Inc. is engaged in the
 business of creating and licensing software in the field of
 computational chemistry and represents and warrants to the
 licensee that it is not a competitor of Gaussian, Inc. and that
 it will not use this program in any manner prohibited above.
 ---------------------------------------------------------------
  

 Cite this work as:
 Gaussian 16, Revision B.01,
 M. J. Frisch, G. W. Trucks, H. B. Schlegel, G. E. Scuseria, 
 M. A. Robb, J. R. Cheeseman, G. Scalmani, V. Barone, 
 G. A. Petersson, H. Nakatsuji, X. Li, M. Caricato, A. V. Marenich, 
 J. Bloino, B. G. Janesko, R. Gomperts, B. Mennucci, H. P. Hratchian, 
 J. V. Ortiz, A. F. Izmaylov, J. L. Sonnenberg, D. Williams-Young, 
 F. Ding, F. Lipparini, F. Egidi, J. Goings, B. Peng, A. Petrone, 
 T. Henderson, D. Ranasinghe, V. G. Zakrzewski, J. Gao, N. Rega, 
 G. Zheng, W. Liang, M. Hada, M. Ehara, K. Toyota, R. Fukuda, 
 J. Hasegawa, M. Ishida, T. Nakajima, Y. Honda, O. Kitao, H. Nakai, 
 T. Vreven, K. Throssell, J. A. Montgomery, Jr., J. E. Peralta, 
 F. Ogliaro, M. J. Bearpark, J. J. Heyd, E. N. Brothers, K. N. Kudin, 
 V. N. Staroverov, T. A. Keith, R. Kobayashi, J. Normand, 
 K. Raghavachari, A. P. Rendell, J. C. Burant, S. S. Iyengar, 
 J. Tomasi, M. Cossi, J. M. Millam, M. Klene, C. Adamo, R. Cammi, 
 J. W. Ochterski, R. L. Martin, K. Morokuma, O. Farkas, 
 J. B. Foresman, and D. J. Fox, Gaussian, Inc., Wallingford CT, 2016.
 
 ******************************************
 Gaussian 16:  ES64L-G16RevB.01 20-Dec-2017
                29-Mar-2024 
 ******************************************
 %nprocshared=4
 Will use up to    4 processors via shared memory.
 %mem=8000mb
 %chk=monomer.chk
 %nprocshared=4
 Will use up to    4 processors via shared memory.
 %mem=8000mb
 ----------------------------------------------------------------------
 #T wB97XD/def2svpp opt=tight freq int(grid=ultrafine) scf=(verytight,q
 c) Volume=tight
 ----------------------------------------------------------------------
 -------
 Monomer
 -------
 Symbolic Z-matrix:
 Charge =  0 Multiplicity = 1
 O                    -0.00361   1.57199   1.64409 
 C                    -0.00178   1.51932   0.31969 
 O                    -0.00233   2.48549  -0.38867 
 C                    -0.00003   0.08434  -0.23534 
 C                     1.24714  -0.04933  -1.11781 
 Cl                    2.71124   0.29235  -0.16371 
 C                     0.00105  -0.9435    0.89335 
 Cl                    0.00322  -2.6012    0.24199 
 C                    -1.24678  -0.05243  -1.11797 
 Cl                   -2.71159   0.28727  -0.16431 
 H                    -0.00531   2.49468   1.94945 
 H                     1.21935   0.67946  -1.92749 
 H                     1.33965  -1.06102  -1.51072 
 H                    -0.8918   -0.83982   1.50835 
 H                     0.89338  -0.83762   1.50874 
 H                    -1.33729  -1.06466  -1.51002 
 H                    -1.22023   0.67569  -1.9283 
 

 GradGradGradGradGradGradGradGradGradGradGradGradGradGradGradGradGradGrad
 Initialization pass.
                           ----------------------------
                           !    Initial Parameters    !
                           ! (Angstroms and Degrees)  !
 --------------------------                            --------------------------
 ! Name  Definition              Value          Derivative Info.                !
 --------------------------------------------------------------------------------
 ! R1    R(1,2)                  1.3254         estimate D2E/DX2                !
 ! R2    R(1,11)                 0.9719         estimate D2E/DX2                !
 ! R3    R(2,3)                  1.198          estimate D2E/DX2                !
 ! R4    R(2,4)                  1.5386         estimate D2E/DX2                !
 ! R5    R(4,5)                  1.5336         estimate D2E/DX2                !
 ! R6    R(4,7)                  1.5266         estimate D2E/DX2                !
 ! R7    R(4,9)                  1.5337         estimate D2E/DX2                !
 ! R8    R(5,6)                  1.7806         estimate D2E/DX2                !
 ! R9    R(5,12)                 1.0897         estimate D2E/DX2                !
 ! R10   R(5,13)                 1.0892         estimate D2E/DX2                !
 ! R11   R(7,8)                  1.7811         estimate D2E/DX2                !
 ! R12   R(7,14)                 1.0891         estimate D2E/DX2                !
 ! R13   R(7,15)                 1.0891         estimate D2E/DX2                !
 ! R14   R(9,10)                 1.7806         estimate D2E/DX2                !
 ! R15   R(9,16)                 1.0893         estimate D2E/DX2                !
 ! R16   R(9,17)                 1.0897         estimate D2E/DX2                !
 ! A1    A(2,1,11)             110.5894         estimate D2E/DX2                !
 ! A2    A(1,2,3)              123.9702         estimate D2E/DX2                !
 ! A3    A(1,2,4)              113.4233         estimate D2E/DX2                !
 ! A4    A(3,2,4)              122.6064         estimate D2E/DX2                !
 ! A5    A(2,4,5)              106.8456         estimate D2E/DX2                !
 ! A6    A(2,4,7)              111.1768         estimate D2E/DX2                !
 ! A7    A(2,4,9)              106.8496         estimate D2E/DX2                !
 ! A8    A(5,4,7)              111.48           estimate D2E/DX2                !
 ! A9    A(5,4,9)              108.7931         estimate D2E/DX2                !
 ! A10   A(7,4,9)              111.4714         estimate D2E/DX2                !
 ! A11   A(4,5,6)              110.0967         estimate D2E/DX2                !
 ! A12   A(4,5,12)             110.3958         estimate D2E/DX2                !
 ! A13   A(4,5,13)             110.9519         estimate D2E/DX2                !
 ! A14   A(6,5,12)             106.9038         estimate D2E/DX2                !
 ! A15   A(6,5,13)             107.5584         estimate D2E/DX2                !
 ! A16   A(12,5,13)            110.8126         estimate D2E/DX2                !
 ! A17   A(4,7,8)              110.8711         estimate D2E/DX2                !
 ! A18   A(4,7,14)             110.6606         estimate D2E/DX2                !
 ! A19   A(4,7,15)             110.6642         estimate D2E/DX2                !
 ! A20   A(8,7,14)             107.2243         estimate D2E/DX2                !
 ! A21   A(8,7,15)             107.225          estimate D2E/DX2                !
 ! A22   A(14,7,15)            110.0815         estimate D2E/DX2                !
 ! A23   A(4,9,10)             110.0908         estimate D2E/DX2                !
 ! A24   A(4,9,16)             110.9505         estimate D2E/DX2                !
 ! A25   A(4,9,17)             110.399          estimate D2E/DX2                !
 ! A26   A(10,9,16)            107.5594         estimate D2E/DX2                !
 ! A27   A(10,9,17)            106.9081         estimate D2E/DX2                !
 ! A28   A(16,9,17)            110.8114         estimate D2E/DX2                !
 ! D1    D(11,1,2,3)            -0.0075         estimate D2E/DX2                !
 ! D2    D(11,1,2,4)          -179.9593         estimate D2E/DX2                !
 ! D3    D(1,2,4,5)           -121.9199         estimate D2E/DX2                !
 ! D4    D(1,2,4,7)             -0.0763         estimate D2E/DX2                !
 ! D5    D(1,2,4,9)            121.7593         estimate D2E/DX2                !
 ! D6    D(3,2,4,5)             58.1275         estimate D2E/DX2                !
 ! D7    D(3,2,4,7)            179.9711         estimate D2E/DX2                !
 ! D8    D(3,2,4,9)            -58.1933         estimate D2E/DX2                !
 ! D9    D(2,4,5,6)             58.4049         estimate D2E/DX2                !
 ! D10   D(2,4,5,12)           -59.3937         estimate D2E/DX2                !
 ! D11   D(2,4,5,13)           177.357          estimate D2E/DX2                !
 ! D12   D(7,4,5,6)            -63.2474         estimate D2E/DX2                !
 ! D13   D(7,4,5,12)           178.954          estimate D2E/DX2                !
 ! D14   D(7,4,5,13)            55.7047         estimate D2E/DX2                !
 ! D15   D(9,4,5,6)            173.4257         estimate D2E/DX2                !
 ! D16   D(9,4,5,12)            55.6271         estimate D2E/DX2                !
 ! D17   D(9,4,5,13)           -67.6223         estimate D2E/DX2                !
 ! D18   D(2,4,7,8)           -179.9948         estimate D2E/DX2                !
 ! D19   D(2,4,7,14)            61.1586         estimate D2E/DX2                !
 ! D20   D(2,4,7,15)           -61.1451         estimate D2E/DX2                !
 ! D21   D(5,4,7,8)            -60.889          estimate D2E/DX2                !
 ! D22   D(5,4,7,14)          -179.7356         estimate D2E/DX2                !
 ! D23   D(5,4,7,15)            57.9608         estimate D2E/DX2                !
 ! D24   D(9,4,7,8)             60.9            estimate D2E/DX2                !
 ! D25   D(9,4,7,14)           -57.9465         estimate D2E/DX2                !
 ! D26   D(9,4,7,15)           179.7498         estimate D2E/DX2                !
 ! D27   D(2,4,9,10)           -58.3499         estimate D2E/DX2                !
 ! D28   D(2,4,9,16)          -177.2985         estimate D2E/DX2                !
 ! D29   D(2,4,9,17)            59.4523         estimate D2E/DX2                !
 ! D30   D(5,4,9,10)          -173.3681         estimate D2E/DX2                !
 ! D31   D(5,4,9,16)            67.6834         estimate D2E/DX2                !
 ! D32   D(5,4,9,17)           -55.5658         estimate D2E/DX2                !
 ! D33   D(7,4,9,10)            63.2998         estimate D2E/DX2                !
 ! D34   D(7,4,9,16)           -55.6487         estimate D2E/DX2                !
 ! D35   D(7,4,9,17)          -178.8979         estimate D2E/DX2                !
 --------------------------------------------------------------------------------
 Number of steps in this run=     89 maximum allowed number of steps=    102.
 GradGradGradGradGradGradGradGradGradGradGradGradGradGradGradGradGradGrad

                    Distance matrix (angstroms):
                    1          2          3          4          5
     1  O    0.000000
     2  C    1.325447   0.000000
     3  O    2.228585   1.198020   0.000000
     4  C    2.396948   1.538577   2.406033   0.000000
     5  C    3.438193   2.467162   2.918580   1.533642   0.000000
     6  Cl   3.503717   3.016555   3.496267   2.720179   1.780630
     7  C    2.625134   2.528752   3.660812   1.526569   2.529241
     8  Cl   4.402445   4.121262   5.125639   2.727641   3.147766
     9  C    3.437031   2.467244   2.919170   1.533665   2.493923
    10  Cl   3.500569   3.015839   3.496084   2.720069   4.085828
    11  H    0.971907   1.899331   2.338144   3.253162   4.177170
    12  H    3.879231   2.691903   2.668740   2.168967   1.089722
    13  H    4.323190   3.436281   3.954442   2.175594   1.089246
    14  H    2.573742   2.787580   3.930335   2.165593   3.478025
    15  H    2.574711   2.787529   3.930074   2.165643   2.765017
    16  H    4.321931   3.436339   3.955139   2.175618   2.804288
    17  H    3.878854   2.692547   2.670038   2.169035   2.696382
                    6          7          8          9         10
     6  Cl   0.000000
     7  C    3.160670   0.000000
     8  Cl   3.983792   1.781087   0.000000
     9  C    4.086000   2.529131   3.147735   0.000000
    10  Cl   5.422830   3.160990   3.984790   1.780594   0.000000
    11  H    4.085996   3.596731   5.374344   4.175893   4.082231
    12  H    2.342335   3.474969   4.116836   2.696806   4.326066
    13  H    2.351028   2.754134   2.688901   2.803770   4.476966
    14  H    4.130311   1.089104   2.346746   2.764698   2.716576
    15  H    2.716347   1.089110   2.346760   3.477988   4.130408
    16  H    4.477127   2.753554   2.688396   1.089274   2.351028
    17  H    4.326337   3.474919   4.116437   1.089730   2.342368
                   11         12         13         14         15
    11  H    0.000000
    12  H    4.452584   0.000000
    13  H    5.140503   1.793723   0.000000
    14  H    3.478410   4.309311   3.760732   0.000000
    15  H    3.479382   3.770342   3.060433   1.785177   0.000000
    16  H    5.139170   3.122923   2.676944   3.059347   3.760369
    17  H    4.452160   2.439578   3.121462   3.770312   4.309377
                   16         17
    16  H    0.000000
    17  H    1.793740   0.000000
 Framework group  C1[X(C5H7Cl3O2)]
 Deg. of freedom    45
                         Standard orientation:                         
 ---------------------------------------------------------------------
 Center     Atomic      Atomic             Coordinates (Angstroms)
 Number     Number       Type             X           Y           Z
 ---------------------------------------------------------------------
      1          8           0        0.003816   -1.579309    1.631857
      2          6           0        0.001935   -1.509188    0.308267
      3          8           0        0.002571   -2.465933   -0.412767
      4          6           0       -0.000002   -0.067021   -0.227802
      5          6           0       -1.247216    0.078127   -1.108398
      6         17           0       -2.711243   -0.276272   -0.158836
      7          6           0       -0.001165    0.945858    0.914339
      8         17           0       -0.003554    2.612004    0.284874
      9          6           0        1.246705    0.081520   -1.108591
     10         17           0        2.711584   -0.270544   -0.159541
     11          1           0        0.005635   -2.505943    1.925032
     12          1           0       -1.219361   -0.639927   -1.927614
     13          1           0       -1.339854    1.094897   -1.487942
     14          1           0        0.891714    0.834189    1.527890
     15          1           0       -0.893461    0.831771    1.528305
     16          1           0        1.337087    1.098844   -1.487273
     17          1           0        1.220213   -0.635863   -1.928451
 ---------------------------------------------------------------------
 Rotational constants (GHZ):           0.9328036           0.7528956           0.5105157
   166 basis functions,   314 primitive gaussians,   176 cartesian basis functions
    52 alpha electrons       52 beta electrons
       nuclear repulsion energy       867.2684879716 Hartrees.
 NAtoms=   17 NActive=   17 NUniq=   17 SFac= 1.00D+00 NAtFMM=   60 NAOKFM=F Big=F
 Nuclear repulsion after empirical dispersion term =      867.2564803447 Hartrees.
   1 Symmetry operations used in ECPInt.
 ECPInt:  NShTT=    3240 NPrTT=   14042 LenC2=    3152 LenP2D=   10108.
 LDataN:  DoStor=T MaxTD1= 4 Len=   56
 ExpMin= 1.22D-01 ExpMax= 1.04D+04 ExpMxC= 1.57D+03 IAcc=3 IRadAn=         5 AccDes= 0.00D+00
 Harris functional with IExCor= 4639 and IRadAn=       5 diagonalized for initial guess.
 HarFok:  IExCor= 4639 AccDes= 0.00D+00 IRadAn=         5 IDoV= 1 UseB2=F ITyADJ=14
 ICtDFT=  3500011 ScaDFX=  1.000000  1.000000  1.000000  1.000000
 FoFCou: FMM=F IPFlag=           0 FMFlag=      100000 FMFlg1=           0
         NFxFlg=           0 DoJE=T BraDBF=F KetDBF=T FulRan=T
         wScrn=  0.000000 ICntrl=       500 IOpCl=  0 I1Cent=   200000004 NGrid=           0
         NMat0=    1 NMatS0=      1 NMatT0=    0 NMatD0=    1 NMtDS0=    0 NMtDT0=    0
 Petite list used in FoFCou.
     Accept linear search using points  1 and  2.
     Accept linear search using points  2 and  3.
     Minimum is close to point  2 DX=  1.19D-03 DF= -4.91D-11 DXR=  1.19D-03 DFR=  1.41D-06 which will be used.
 SCF Done:  E(RwB97XD) =  -1725.00196032     a.u. after    8 cycles
            Convg  =    0.6773D-09                    39 Fock formations.
              S**2 =  0.0000                  -V/T =  2.0033

 **********************************************************************

            Population analysis using the SCF Density.

 **********************************************************************

 Orbital symmetries:
       Occupied  (A) (A) (A) (A) (A) (A) (A) (A) (A) (A) (A) (A)
                 (A) (A) (A) (A) (A) (A) (A) (A) (A) (A) (A) (A)
                 (A) (A) (A) (A) (A) (A) (A) (A) (A) (A) (A) (A)
                 (A) (A) (A) (A) (A) (A) (A) (A) (A) (A) (A) (A)
                 (A) (A) (A) (A)
       Virtual   (A) (A) (A) (A) (A) (A) (A) (A) (A) (A) (A) (A)
                 (A) (A) (A) (A) (A) (A) (A) (A) (A) (A) (A) (A)
                 (A) (A) (A) (A) (A) (A) (A) (A) (A) (A) (A) (A)
                 (A) (A) (A) (A) (A) (A) (A) (A) (A) (A) (A) (A)
                 (A) (A) (A) (A) (A) (A) (A) (A) (A) (A) (A) (A)
                 (A) (A) (A) (A) (A) (A) (A) (A) (A) (A) (A) (A)
                 (A) (A) (A) (A) (A) (A) (A) (A) (A) (A) (A) (A)
                 (A) (A) (A) (A) (A) (A) (A) (A) (A) (A) (A) (A)
                 (A) (A) (A) (A) (A) (A) (A) (A) (A) (A) (A) (A)
                 (A) (A) (A) (A) (A) (A)
 The electronic state is 1-A.
 Alpha  occ. eigenvalues -- -101.67827-101.67826-101.67532 -19.32612 -19.26350
 Alpha  occ. eigenvalues --  -10.45374 -10.36885 -10.36882 -10.36259 -10.35918
 Alpha  occ. eigenvalues --   -9.58614  -9.58613  -9.58329  -7.34002  -7.34001
 Alpha  occ. eigenvalues --   -7.33699  -7.33025  -7.33024  -7.32994  -7.32993
 Alpha  occ. eigenvalues --   -7.32752  -7.32716  -1.22969  -1.13221  -1.01086
 Alpha  occ. eigenvalues --   -0.96749  -0.95624  -0.89045  -0.80029  -0.76520
 Alpha  occ. eigenvalues --   -0.75907  -0.68371  -0.63042  -0.61049  -0.58978
 Alpha  occ. eigenvalues --   -0.57521  -0.55487  -0.53598  -0.52843  -0.51190
 Alpha  occ. eigenvalues --   -0.50597  -0.49130  -0.48077  -0.47592  -0.42783
 Alpha  occ. eigenvalues --   -0.40882  -0.39284  -0.39279  -0.39019  -0.38469
 Alpha  occ. eigenvalues --   -0.37985  -0.37747
 Alpha virt. eigenvalues --    0.06710   0.08103   0.11576   0.12984   0.14599
 Alpha virt. eigenvalues --    0.15012   0.17945   0.18392   0.18808   0.20194
 Alpha virt. eigenvalues --    0.23253   0.25228   0.26097   0.28056   0.28208
 Alpha virt. eigenvalues --    0.36758   0.40689   0.46552   0.47013   0.48796
 Alpha virt. eigenvalues --    0.51200   0.51817   0.55946   0.56720   0.58486
 Alpha virt. eigenvalues --    0.60248   0.61636   0.64127   0.65940   0.66140
 Alpha virt. eigenvalues --    0.68804   0.69610   0.71297   0.72155   0.73393
 Alpha virt. eigenvalues --    0.74415   0.74506   0.76289   0.76445   0.78066
 Alpha virt. eigenvalues --    0.78329   0.79986   0.80433   0.81590   0.84237
 Alpha virt. eigenvalues --    0.85657   0.86481   0.87477   0.88296   0.89279
 Alpha virt. eigenvalues --    0.89862   0.90327   0.90637   0.90833   0.91656
 Alpha virt. eigenvalues --    0.94493   0.95574   0.97345   1.02191   1.03234
 Alpha virt. eigenvalues --    1.05676   1.09005   1.10672   1.10977   1.12443
 Alpha virt. eigenvalues --    1.16906   1.19255   1.20353   1.21341   1.22782
 Alpha virt. eigenvalues --    1.24782   1.28701   1.33063   1.42897   1.46449
 Alpha virt. eigenvalues --    1.47654   1.52537   1.55208   1.55277   1.62466
 Alpha virt. eigenvalues --    1.67906   1.76091   1.81348   1.83012   1.85417
 Alpha virt. eigenvalues --    1.89773   1.90278   1.94201   2.06892   2.08064
 Alpha virt. eigenvalues --    2.09895   2.12810   2.15884   2.21051   2.21338
 Alpha virt. eigenvalues --    2.23771   2.26914   2.29124   2.32078   2.53305
 Alpha virt. eigenvalues --    2.54629   2.61677   2.65467   2.71377   2.72485
 Alpha virt. eigenvalues --    2.74836   2.78878   2.95912   3.01275   3.13926
 Alpha virt. eigenvalues --    3.28024   3.36609   3.64536   3.74377
          Condensed to atoms (all electrons):
 Mulliken charges:
               1
     1  O   -0.339653
     2  C    0.273348
     3  O   -0.214860
     4  C   -0.393799
     5  C   -0.110964
     6  Cl  -0.136726
     7  C   -0.073107
     8  Cl  -0.148327
     9  C   -0.111007
    10  Cl  -0.136717
    11  H    0.351076
    12  H    0.175569
    13  H    0.172850
    14  H    0.171949
    15  H    0.171931
    16  H    0.172884
    17  H    0.175553
 Sum of Mulliken charges =   0.00000
 Mulliken charges with hydrogens summed into heavy atoms:
               1
     1  O    0.011424
     2  C    0.273348
     3  O   -0.214860
     4  C   -0.393799
     5  C    0.237455
     6  Cl  -0.136726
     7  C    0.270773
     8  Cl  -0.148327
     9  C    0.237430
    10  Cl  -0.136717
 Electronic spatial extent (au):  <R**2>=           2176.3695
 Charge=              0.0000 electrons
 Dipole moment (field-independent basis, Debye):
    X=              0.0030    Y=             -0.2663    Z=              0.2385  Tot=              0.3575
 Evaluate density.
 Using the total density.
 Monte-Carlo method of calculating molar volume:
 based on  0.001 e/bohr**3 density envelope.
 Number of points per bohr**3 =  100 CutOff= 1.00D-04
 Using the SCF density.
 There are      2183 points.  Will hold      2183 in memory.
 LenV=  1048153623 MDV=  1048576000.
 Box volume =10414.040 fraction occupied=0.123
 Integrated density= 1.7109778999455943D+02 error= 6.7097789994559434D+01
 Molar volume = 1283.269 bohr**3/mol (114.518 cm**3/mol)
 Recommended a0 for SCRF calculation =  4.43 angstrom (  8.36 bohr)
   1 Symmetry operations used in ECPInt.
 ECPInt:  NShTT=    3240 NPrTT=   14042 LenC2=    3152 LenP2D=   10108.
 LDataN:  DoStor=T MaxTD1= 5 Len=  102
 Calling FoFJK, ICntrl=      2127 FMM=F ISym2X=0 I1Cent= 0 IOpClX= 0 NMat=1 NMatS=1 NMatT=0.

 GradGradGradGradGradGradGradGradGradGradGradGradGradGradGradGradGradGrad
 FormGI is forming the generalized inverse of G from B-inverse, IUseBI=4.
 Internal  Forces:  Max     0.010437172 RMS     0.003606189
 Step number   1 out of a maximum of   89
 All quantities printed in internal units (Hartrees-Bohrs-Radians)
 Mixed Optimization -- RFO/linear search
 Second derivative matrix not updated -- first step.
 ITU=  0
     Eigenvalues ---    0.00256   0.00321   0.00321   0.00414   0.00876
     Eigenvalues ---    0.02678   0.04395   0.05080   0.05664   0.05679
     Eigenvalues ---    0.05680   0.05757   0.05757   0.05810   0.06062
     Eigenvalues ---    0.15016   0.15165   0.16000   0.16000   0.16000
     Eigenvalues ---    0.16000   0.16000   0.16000   0.16000   0.22362
     Eigenvalues ---    0.22394   0.22394   0.25000   0.25000   0.27665
     Eigenvalues ---    0.27704   0.27707   0.28645   0.29088   0.29090
     Eigenvalues ---    0.29743   0.34844   0.34845   0.34897   0.34900
     Eigenvalues ---    0.34916   0.34916   0.52989   0.60594   1.05824
 Linear search not attempted -- first point.
 Iteration  1 RMS(Cart)=  0.05701337 RMS(Int)=  0.00198820
 Iteration  2 RMS(Cart)=  0.00247804 RMS(Int)=  0.00010744
 Iteration  3 RMS(Cart)=  0.00000442 RMS(Int)=  0.00010742
 Iteration  4 RMS(Cart)=  0.00000000 RMS(Int)=  0.00010742
 Variable       Old X    -DE/DX   Delta X   Delta X   Delta X     New X
                                 (Linear)    (Quad)   (Total)
    R1        2.50473   0.00481   0.00000   0.00788   0.00788   2.51262
    R2        1.83664   0.00112   0.00000   0.00209   0.00209   1.83873
    R3        2.26393   0.00367   0.00000   0.00346   0.00346   2.26739
    R4        2.90749   0.00160   0.00000   0.00548   0.00548   2.91297
    R5        2.89816   0.00473   0.00000   0.01600   0.01600   2.91417
    R6        2.88480   0.00776   0.00000   0.02569   0.02569   2.91049
    R7        2.89821   0.00474   0.00000   0.01603   0.01603   2.91424
    R8        3.36490   0.00725   0.00000   0.02572   0.02572   3.39062
    R9        2.05928   0.00618   0.00000   0.01750   0.01750   2.07678
   R10        2.05838   0.00639   0.00000   0.01806   0.01806   2.07643
   R11        3.36577   0.00858   0.00000   0.03051   0.03051   3.39627
   R12        2.05811   0.00528   0.00000   0.01492   0.01492   2.07303
   R13        2.05812   0.00528   0.00000   0.01491   0.01491   2.07304
   R14        3.36483   0.00727   0.00000   0.02579   0.02579   3.39062
   R15        2.05843   0.00637   0.00000   0.01800   0.01800   2.07643
   R16        2.05929   0.00618   0.00000   0.01750   0.01750   2.07679
    A1        1.93015  -0.00789   0.00000  -0.04790  -0.04790   1.88225
    A2        2.16369  -0.00072   0.00000  -0.00284  -0.00284   2.16085
    A3        1.97961   0.00034   0.00000   0.00133   0.00133   1.98094
    A4        2.13989   0.00038   0.00000   0.00151   0.00151   2.14139
    A5        1.86481   0.00051   0.00000  -0.00028  -0.00051   1.86430
    A6        1.94040  -0.00091   0.00000   0.00651   0.00644   1.94684
    A7        1.86488   0.00050   0.00000  -0.00029  -0.00052   1.86436
    A8        1.94569   0.00164   0.00000   0.01316   0.01323   1.95892
    A9        1.89880  -0.00355   0.00000  -0.03427  -0.03429   1.86451
   A10        1.94554   0.00165   0.00000   0.01323   0.01330   1.95885
   A11        1.92155   0.01038   0.00000   0.05012   0.05002   1.97157
   A12        1.92677  -0.00152   0.00000  -0.00850  -0.00880   1.91797
   A13        1.93648  -0.00201   0.00000  -0.01395  -0.01409   1.92238
   A14        1.86582  -0.00296   0.00000  -0.00100  -0.00123   1.86460
   A15        1.87725  -0.00355   0.00000  -0.00991  -0.00988   1.86737
   A16        1.93404  -0.00023   0.00000  -0.01537  -0.01570   1.91834
   A17        1.93506   0.00777   0.00000   0.03782   0.03769   1.97275
   A18        1.93139  -0.00066   0.00000  -0.00446  -0.00458   1.92681
   A19        1.93146  -0.00067   0.00000  -0.00450  -0.00463   1.92682
   A20        1.87142  -0.00276   0.00000  -0.00569  -0.00582   1.86560
   A21        1.87143  -0.00276   0.00000  -0.00572  -0.00584   1.86559
   A22        1.92128  -0.00102   0.00000  -0.01759  -0.01771   1.90358
   A23        1.92145   0.01044   0.00000   0.05038   0.05028   1.97173
   A24        1.93645  -0.00204   0.00000  -0.01409  -0.01424   1.92222
   A25        1.92683  -0.00152   0.00000  -0.00849  -0.00879   1.91804
   A26        1.87727  -0.00357   0.00000  -0.00999  -0.00995   1.86732
   A27        1.86590  -0.00298   0.00000  -0.00102  -0.00125   1.86464
   A28        1.93402  -0.00022   0.00000  -0.01540  -0.01572   1.91830
    D1       -0.00013   0.00002   0.00000   0.00147   0.00147   0.00134
    D2       -3.14088  -0.00002   0.00000  -0.00167  -0.00167   3.14064
    D3       -2.12790  -0.00178   0.00000  -0.01794  -0.01797  -2.14588
    D4       -0.00133   0.00002   0.00000   0.00191   0.00192   0.00059
    D5        2.12510   0.00183   0.00000   0.02186   0.02189   2.14699
    D6        1.01452  -0.00182   0.00000  -0.02103  -0.02106   0.99345
    D7        3.14109  -0.00002   0.00000  -0.00117  -0.00117   3.13991
    D8       -1.01566   0.00179   0.00000   0.01877   0.01880  -0.99686
    D9        1.01936   0.00101   0.00000   0.06213   0.06216   1.08151
   D10       -1.03662  -0.00078   0.00000   0.03780   0.03779  -0.99883
   D11        3.09546   0.00198   0.00000   0.07310   0.07296  -3.11476
   D12       -1.10388   0.00082   0.00000   0.04643   0.04647  -1.05740
   D13        3.12334  -0.00097   0.00000   0.02210   0.02210  -3.13775
   D14        0.97223   0.00178   0.00000   0.05740   0.05728   1.02951
   D15        3.02685   0.00011   0.00000   0.04474   0.04488   3.07173
   D16        0.97088  -0.00169   0.00000   0.02042   0.02051   0.99139
   D17       -1.18023   0.00107   0.00000   0.05572   0.05569  -1.12454
   D18       -3.14150   0.00000   0.00000   0.00006   0.00006  -3.14144
   D19        1.06742  -0.00111   0.00000  -0.01420  -0.01420   1.05321
   D20       -1.06718   0.00110   0.00000   0.01426   0.01427  -1.05292
   D21       -1.06271   0.00112   0.00000   0.01276   0.01275  -1.04997
   D22       -3.13698   0.00002   0.00000  -0.00151  -0.00152  -3.13850
   D23        1.01161   0.00223   0.00000   0.02696   0.02695   1.03856
   D24        1.06291  -0.00112   0.00000  -0.01267  -0.01266   1.05025
   D25       -1.01136  -0.00223   0.00000  -0.02693  -0.02693  -1.03828
   D26        3.13723  -0.00002   0.00000   0.00153   0.00154   3.13877
   D27       -1.01840  -0.00102   0.00000  -0.06276  -0.06279  -1.08119
   D28       -3.09444  -0.00198   0.00000  -0.07371  -0.07357   3.11517
   D29        1.03764   0.00079   0.00000  -0.03829  -0.03828   0.99936
   D30       -3.02584  -0.00012   0.00000  -0.04538  -0.04552  -3.07136
   D31        1.18130  -0.00108   0.00000  -0.05633  -0.05630   1.12499
   D32       -0.96981   0.00169   0.00000  -0.02091  -0.02101  -0.99082
   D33        1.10479  -0.00083   0.00000  -0.04702  -0.04707   1.05772
   D34       -0.97125  -0.00179   0.00000  -0.05798  -0.05785  -1.02910
   D35       -3.12236   0.00098   0.00000  -0.02256  -0.02256   3.13827
         Item               Value     Threshold  Converged?
 Maximum Force            0.010437     0.000015     NO 
 RMS     Force            0.003606     0.000010     NO 
 Maximum Displacement     0.168052     0.000060     NO 
 RMS     Displacement     0.058126     0.000040     NO 
 GradGradGradGradGradGradGradGradGradGradGradGradGradGradGradGradGradGrad

                    Distance matrix (angstroms):
                    1          2          3          4          5
     1  O    0.000000
     2  C    1.329619   0.000000
     3  O    2.232229   1.199849   0.000000
     4  C    2.403858   1.541477   2.411180   0.000000
     5  C    3.458779   2.475823   2.918645   1.542111   0.000000
     6  Cl   3.647397   3.137012   3.606961   2.785018   1.794239
     7  C    2.645866   2.547945   3.681828   1.540165   2.558897
     8  Cl   4.441492   4.174541   5.187811   2.787106   3.227215
     9  C    3.459342   2.475908   2.920199   1.542148   2.476554
    10  Cl   3.648633   3.137075   3.609497   2.785190   4.123399
    11  H    0.973013   1.872845   2.296486   3.240887   4.170828
    12  H    3.875753   2.678329   2.639146   2.176954   1.098983
    13  H    4.361481   3.447450   3.946871   2.180041   1.098801
    14  H    2.584832   2.801294   3.946936   2.180200   3.508669
    15  H    2.584105   2.801172   3.946071   2.180213   2.808185
    16  H    4.361756   3.447448   3.948129   2.179951   2.744417
    17  H    3.876611   2.678744   2.641200   2.177037   2.675201
                    6          7          8          9         10
     6  Cl   0.000000
     7  C    3.229360   0.000000
     8  Cl   4.021121   1.797230   0.000000
     9  C    4.123338   2.558861   3.227323   0.000000
    10  Cl   5.565343   3.229699   4.021826   1.794240   0.000000
    11  H    4.222271   3.618763   5.413861   4.171813   4.224382
    12  H    2.359896   3.505901   4.217568   2.675405   4.351893
    13  H    2.361990   2.801447   2.789286   2.744321   4.448742
    14  H    4.218161   1.097001   2.362018   2.807986   2.801724
    15  H    2.801495   1.097003   2.362009   3.508665   4.218385
    16  H    4.448609   2.801067   2.789046   1.098799   2.361946
    17  H    4.351888   3.505917   4.217468   1.098988   2.359940
                   11         12         13         14         15
    11  H    0.000000
    12  H    4.408256   0.000000
    13  H    5.154377   1.799362   0.000000
    14  H    3.498178   4.336050   3.804278   0.000000
    15  H    3.497153   3.809056   3.148099   1.786917   0.000000
    16  H    5.155054   3.061728   2.553629   3.147436   3.804024
    17  H    4.409591   2.402321   3.061112   3.809052   4.336122
                   16         17
    16  H    0.000000
    17  H    1.799337   0.000000
 Framework group  C1[X(C5H7Cl3O2)]
 Deg. of freedom    45
                         Standard orientation:                         
 ---------------------------------------------------------------------
 Center     Atomic      Atomic             Coordinates (Angstroms)
 Number     Number       Type             X           Y           Z
 ---------------------------------------------------------------------
      1          8           0       -0.001216   -1.588101    1.696632
      2          6           0       -0.000351   -1.541840    0.367818
      3          8           0       -0.002305   -2.514973   -0.334071
      4          6           0        0.000195   -0.107678   -0.197274
      5          6           0       -1.237922    0.013230   -1.108623
      6         17           0       -2.782434   -0.219478   -0.225660
      7          6           0        0.000437    0.943718    0.928192
      8         17           0        0.000823    2.632339    0.312890
      9          6           0        1.238632    0.012504   -1.108345
     10         17           0        2.782909   -0.221671   -0.225356
     11          1           0       -0.002392   -2.524114    1.962397
     12          1           0       -1.201053   -0.755246   -1.893383
     13          1           0       -1.276061    1.012230   -1.564590
     14          1           0        0.893871    0.832665    1.554973
     15          1           0       -0.893046    0.833092    1.554982
     16          1           0        1.277567    1.011681   -1.563854
     17          1           0        1.201267   -0.755557   -1.893496
 ---------------------------------------------------------------------
 Rotational constants (GHZ):           0.9102571           0.7181378           0.4936462
   166 basis functions,   314 primitive gaussians,   176 cartesian basis functions
    52 alpha electrons       52 beta electrons
       nuclear repulsion energy       855.1773108603 Hartrees.
 NAtoms=   17 NActive=   17 NUniq=   17 SFac= 1.00D+00 NAtFMM=   60 NAOKFM=F Big=F
 Nuclear repulsion after empirical dispersion term =      855.1651769667 Hartrees.
   1 Symmetry operations used in ECPInt.
 ECPInt:  NShTT=    3240 NPrTT=   14042 LenC2=    3147 LenP2D=   10078.
 LDataN:  DoStor=T MaxTD1= 4 Len=   56
 Initial guess from the checkpoint file:  "monomer.chk"
 B after Tr=     0.000000   -0.000000    0.000000
         Rot=    0.999989    0.004628    0.000149    0.000827 Ang=   0.54 deg.
 ExpMin= 1.22D-01 ExpMax= 1.04D+04 ExpMxC= 1.57D+03 IAcc=3 IRadAn=         5 AccDes= 0.00D+00
 Harris functional with IExCor= 4639 and IRadAn=       5 diagonalized for initial guess.
 HarFok:  IExCor= 4639 AccDes= 0.00D+00 IRadAn=         5 IDoV= 1 UseB2=F ITyADJ=14
 ICtDFT=  3500011 ScaDFX=  1.000000  1.000000  1.000000  1.000000
 FoFCou: FMM=F IPFlag=           0 FMFlag=      100000 FMFlg1=           0
         NFxFlg=           0 DoJE=T BraDBF=F KetDBF=T FulRan=T
         wScrn=  0.000000 ICntrl=       500 IOpCl=  0 I1Cent=   200000004 NGrid=           0
         NMat0=    1 NMatS0=      1 NMatT0=    0 NMatD0=    1 NMtDS0=    0 NMtDT0=    0
 Petite list used in FoFCou.
     Accept linear search using points  1 and  2.
     Minimum is close to point  2 DX= -3.01D-02 DF= -4.15D-07 DXR=  2.81D-02 DFR=  9.36D-04 which will be used.
     Accept linear search using points  1 and  2.
     Accept linear search using points  1 and  2.
     Accept linear search using points  1 and  2.
     Minimum is close to point  2 DX= -7.66D-05 DF= -4.55D-13 DXR=  7.66D-05 DFR=  5.07D-09 which will be used.
 SCF Done:  E(RwB97XD) =  -1725.00384388     a.u. after    9 cycles
            Convg  =    0.7243D-09                    42 Fock formations.
              S**2 =  0.0000                  -V/T =  2.0034
   1 Symmetry operations used in ECPInt.
 ECPInt:  NShTT=    3240 NPrTT=   14042 LenC2=    3147 LenP2D=   10078.
 LDataN:  DoStor=T MaxTD1= 5 Len=  102
 Calling FoFJK, ICntrl=      2127 FMM=F ISym2X=0 I1Cent= 0 IOpClX= 0 NMat=1 NMatS=1 NMatT=0.

 GradGradGradGradGradGradGradGradGradGradGradGradGradGradGradGradGradGrad
 Using GEDIIS/GDIIS optimizer.
 FormGI is forming the generalized inverse of G from B-inverse, IUseBI=4.
 Internal  Forces:  Max     0.004857835 RMS     0.001210817
 Step number   2 out of a maximum of   89
 All quantities printed in internal units (Hartrees-Bohrs-Radians)
 Mixed Optimization -- RFO/linear search
 Trust test= 7.46D-01 RLast= 2.56D-01 DXMaxT set to 5.05D-01
 ITU=  1  0
 Use linear search instead of GDIIS.
     Eigenvalues ---    0.00256   0.00321   0.00333   0.00414   0.00873
     Eigenvalues ---    0.02678   0.04322   0.04878   0.05396   0.05400
     Eigenvalues ---    0.05408   0.05845   0.05854   0.05995   0.06445
     Eigenvalues ---    0.14533   0.14969   0.15881   0.16000   0.16000
     Eigenvalues ---    0.16000   0.16000   0.16000   0.16013   0.22183
     Eigenvalues ---    0.22371   0.24275   0.25000   0.25075   0.27582
     Eigenvalues ---    0.27705   0.27830   0.28684   0.29089   0.29367
     Eigenvalues ---    0.33300   0.34746   0.34844   0.34898   0.34909
     Eigenvalues ---    0.34916   0.35640   0.53013   0.60280   1.05845
 Quartic linear search produced a step of -0.16205.
 Iteration  1 RMS(Cart)=  0.01749883 RMS(Int)=  0.00013982
 Iteration  2 RMS(Cart)=  0.00016074 RMS(Int)=  0.00002151
 Iteration  3 RMS(Cart)=  0.00000002 RMS(Int)=  0.00002151
 Variable       Old X    -DE/DX   Delta X   Delta X   Delta X     New X
                                 (Linear)    (Quad)   (Total)
    R1        2.51262   0.00241  -0.00128   0.00490   0.00362   2.51624
    R2        1.83873   0.00146  -0.00034   0.00272   0.00238   1.84110
    R3        2.26739  -0.00053  -0.00056   0.00027  -0.00029   2.26710
    R4        2.91297  -0.00153  -0.00089  -0.00337  -0.00426   2.90871
    R5        2.91417  -0.00283  -0.00259  -0.00492  -0.00752   2.90665
    R6        2.91049  -0.00486  -0.00416  -0.00851  -0.01267   2.89782
    R7        2.91424  -0.00285  -0.00260  -0.00497  -0.00756   2.90667
    R8        3.39062  -0.00180  -0.00417  -0.00027  -0.00444   3.38618
    R9        2.07678  -0.00018  -0.00284   0.00307   0.00023   2.07701
   R10        2.07643   0.00036  -0.00293   0.00448   0.00156   2.07799
   R11        3.39627  -0.00132  -0.00494   0.00212  -0.00282   3.39345
   R12        2.07303   0.00019  -0.00242   0.00344   0.00102   2.07405
   R13        2.07304   0.00018  -0.00242   0.00342   0.00100   2.07404
   R14        3.39062  -0.00181  -0.00418  -0.00028  -0.00446   3.38616
   R15        2.07643   0.00037  -0.00292   0.00448   0.00156   2.07799
   R16        2.07679  -0.00018  -0.00284   0.00307   0.00024   2.07702
    A1        1.88225   0.00007   0.00776  -0.00924  -0.00148   1.88077
    A2        2.16085  -0.00132   0.00046  -0.00498  -0.00454   2.15632
    A3        1.98094   0.00080  -0.00022   0.00294   0.00271   1.98365
    A4        2.14139   0.00052  -0.00024   0.00206   0.00179   2.14319
    A5        1.86430   0.00078   0.00008   0.00823   0.00837   1.87267
    A6        1.94684  -0.00080  -0.00104  -0.00140  -0.00242   1.94442
    A7        1.86436   0.00077   0.00008   0.00818   0.00833   1.87269
    A8        1.95892   0.00013  -0.00214  -0.00029  -0.00248   1.95645
    A9        1.86451  -0.00095   0.00556  -0.01411  -0.00859   1.85592
   A10        1.95885   0.00013  -0.00216  -0.00030  -0.00250   1.95635
   A11        1.97157  -0.00294  -0.00811  -0.00213  -0.01023   1.96135
   A12        1.91797   0.00058   0.00143   0.00112   0.00259   1.92056
   A13        1.92238   0.00048   0.00228  -0.00000   0.00230   1.92468
   A14        1.86460   0.00082   0.00020  -0.00001   0.00022   1.86481
   A15        1.86737   0.00103   0.00160   0.00029   0.00189   1.86926
   A16        1.91834   0.00006   0.00254   0.00076   0.00334   1.92169
   A17        1.97275  -0.00414  -0.00611  -0.00925  -0.01535   1.95741
   A18        1.92681   0.00062   0.00074   0.00211   0.00286   1.92966
   A19        1.92682   0.00061   0.00075   0.00210   0.00285   1.92968
   A20        1.86560   0.00147   0.00094   0.00209   0.00304   1.86864
   A21        1.86559   0.00148   0.00095   0.00211   0.00307   1.86865
   A22        1.90358   0.00009   0.00287   0.00107   0.00394   1.90752
   A23        1.97173  -0.00299  -0.00815  -0.00229  -0.01043   1.96130
   A24        1.92222   0.00052   0.00231   0.00019   0.00251   1.92473
   A25        1.91804   0.00058   0.00142   0.00106   0.00253   1.92056
   A26        1.86732   0.00105   0.00161   0.00039   0.00200   1.86931
   A27        1.86464   0.00084   0.00020  -0.00010   0.00014   1.86478
   A28        1.91830   0.00005   0.00255   0.00077   0.00335   1.92165
    D1        0.00134  -0.00007  -0.00024  -0.00555  -0.00577  -0.00444
    D2        3.14064   0.00006   0.00027   0.00517   0.00542  -3.13713
    D3       -2.14588  -0.00024   0.00291  -0.00775  -0.00481  -2.15069
    D4        0.00059  -0.00005  -0.00031  -0.00348  -0.00380  -0.00321
    D5        2.14699   0.00013  -0.00355   0.00074  -0.00284   2.14415
    D6        0.99345  -0.00012   0.00341   0.00282   0.00627   0.99972
    D7        3.13991   0.00007   0.00019   0.00709   0.00729  -3.13598
    D8       -0.99686   0.00025  -0.00305   0.01132   0.00825  -0.98862
    D9        1.08151  -0.00038  -0.01007   0.02790   0.01784   1.09935
   D10       -0.99883   0.00009  -0.00612   0.02854   0.02243  -0.97640
   D11       -3.11476  -0.00068  -0.01182   0.02686   0.01507  -3.09969
   D12       -1.05740   0.00001  -0.00753   0.02425   0.01672  -1.04069
   D13       -3.13775   0.00048  -0.00358   0.02488   0.02131  -3.11643
   D14        1.02951  -0.00028  -0.00928   0.02321   0.01395   1.04346
   D15        3.07173   0.00042  -0.00727   0.03453   0.02722   3.09895
   D16        0.99139   0.00089  -0.00332   0.03516   0.03181   1.02320
   D17       -1.12454   0.00013  -0.00902   0.03349   0.02445  -1.10010
   D18       -3.14144  -0.00000  -0.00001  -0.00027  -0.00028   3.14146
   D19        1.05321   0.00046   0.00230   0.00179   0.00409   1.05730
   D20       -1.05292  -0.00046  -0.00231  -0.00231  -0.00462  -1.05754
   D21       -1.04997   0.00052  -0.00207   0.00910   0.00704  -1.04292
   D22       -3.13850   0.00098   0.00025   0.01116   0.01141  -3.12708
   D23        1.03856   0.00006  -0.00437   0.00707   0.00270   1.04126
   D24        1.05025  -0.00052   0.00205  -0.00958  -0.00753   1.04271
   D25       -1.03828  -0.00006   0.00436  -0.00752  -0.00316  -1.04145
   D26        3.13877  -0.00098  -0.00025  -0.01161  -0.01187   3.12690
   D27       -1.08119   0.00039   0.01017  -0.02765  -0.01748  -1.09866
   D28        3.11517   0.00068   0.01192  -0.02676  -0.01487   3.10030
   D29        0.99936  -0.00010   0.00620  -0.02853  -0.02234   0.97702
   D30       -3.07136  -0.00041   0.00738  -0.03430  -0.02689  -3.09825
   D31        1.12499  -0.00013   0.00912  -0.03342  -0.02428   1.10072
   D32       -0.99082  -0.00090   0.00340  -0.03519  -0.03175  -1.02257
   D33        1.05772  -0.00000   0.00763  -0.02403  -0.01640   1.04132
   D34       -1.02910   0.00028   0.00937  -0.02314  -0.01379  -1.04290
   D35        3.13827  -0.00049   0.00366  -0.02491  -0.02127   3.11700
         Item               Value     Threshold  Converged?
 Maximum Force            0.004858     0.000015     NO 
 RMS     Force            0.001211     0.000010     NO 
 Maximum Displacement     0.075443     0.000060     NO 
 RMS     Displacement     0.017544     0.000040     NO 
 GradGradGradGradGradGradGradGradGradGradGradGradGradGradGradGradGradGrad

                    Distance matrix (angstroms):
                    1          2          3          4          5
     1  O    0.000000
     2  C    1.331536   0.000000
     3  O    2.231112   1.199698   0.000000
     4  C    2.405584   1.539224   2.410162   0.000000
     5  C    3.465829   2.478475   2.928434   1.538133   0.000000
     6  Cl   3.652408   3.140804   3.630191   2.770422   1.791888
     7  C    2.641365   2.538443   3.672907   1.533459   2.547905
     8  Cl   4.434782   4.156023   5.167174   2.766355   3.191972
     9  C    3.463019   2.478500   2.923749   1.538146   2.462248
    10  Cl   3.645962   3.140296   3.620873   2.770379   4.104741
    11  H    0.974270   1.874462   2.292845   3.242038   4.179885
    12  H    3.874212   2.674811   2.642801   2.175435   1.099106
    13  H    4.371344   3.449951   3.952866   2.178826   1.099624
    14  H    2.581915   2.795862   3.939642   2.176764   3.500491
    15  H    2.584830   2.795978   3.942310   2.176769   2.800924
    16  H    4.368961   3.450007   3.949493   2.178876   2.719341
    17  H    3.872094   2.675139   2.638046   2.175454   2.677054
                    6          7          8          9         10
     6  Cl   0.000000
     7  C    3.194906   0.000000
     8  Cl   3.965030   1.795735   0.000000
     9  C    4.104798   2.547832   3.191732   0.000000
    10  Cl   5.538957   3.195144   3.965359   1.791879   0.000000
    11  H    4.238387   3.615427   5.408022   4.175314   4.227608
    12  H    2.358050   3.496606   4.189348   2.677351   4.354984
    13  H    2.361955   2.799611   2.756331   2.718983   4.414895
    14  H    4.190177   1.097541   2.363476   2.800901   2.764589
    15  H    2.764259   1.097535   2.363482   3.500442   4.190376
    16  H    4.414975   2.799307   2.755787   1.099626   2.361993
    17  H    4.355068   3.496570   4.188962   1.099113   2.358022
                   11         12         13         14         15
    11  H    0.000000
    12  H    4.406161   0.000000
    13  H    5.165418   1.802246   0.000000
    14  H    3.496347   4.330638   3.799923   0.000000
    15  H    3.500508   3.797492   3.153200   1.790297   0.000000
    16  H    5.161566   3.054543   2.511796   3.152849   3.799662
    17  H    4.402317   2.420297   3.053602   3.797610   4.330642
                   16         17
    16  H    0.000000
    17  H    1.802232   0.000000
 Framework group  C1[X(C5H7Cl3O2)]
 Deg. of freedom    45
                         Standard orientation:                         
 ---------------------------------------------------------------------
 Center     Atomic      Atomic             Coordinates (Angstroms)
 Number     Number       Type             X           Y           Z
 ---------------------------------------------------------------------
      1          8           0        0.008768   -1.623209    1.677641
      2          6           0        0.004280   -1.556659    0.347777
      3          8           0        0.012866   -2.522071   -0.364390
      4          6           0       -0.000515   -0.117659   -0.198543
      5          6           0       -1.232292    0.021682   -1.109126
      6         17           0       -2.769794   -0.195545   -0.214831
      7          6           0       -0.003542    0.912315    0.937521
      8         17           0       -0.008943    2.599263    0.322019
      9          6           0        1.229943    0.029712   -1.109667
     10         17           0        2.769137   -0.178627   -0.216188
     11          1           0        0.015696   -2.564722    1.928057
     12          1           0       -1.209144   -0.747102   -1.894283
     13          1           0       -1.260236    1.023457   -1.561716
     14          1           0        0.892087    0.800144    1.561912
     15          1           0       -0.898202    0.794525    1.562254
     16          1           0        1.251546    1.031855   -1.561797
     17          1           0        1.211138   -0.738807   -1.895208
 ---------------------------------------------------------------------
 Rotational constants (GHZ):           0.9192230           0.7247321           0.4986220
   166 basis functions,   314 primitive gaussians,   176 cartesian basis functions
    52 alpha electrons       52 beta electrons
       nuclear repulsion energy       858.0782740314 Hartrees.
 NAtoms=   17 NActive=   17 NUniq=   17 SFac= 1.00D+00 NAtFMM=   60 NAOKFM=F Big=F
 Nuclear repulsion after empirical dispersion term =      858.0661747101 Hartrees.
   1 Symmetry operations used in ECPInt.
 ECPInt:  NShTT=    3240 NPrTT=   14042 LenC2=    3152 LenP2D=   10086.
 LDataN:  DoStor=T MaxTD1= 4 Len=   56
 Initial guess from the checkpoint file:  "monomer.chk"
 B after Tr=     0.000000   -0.000000    0.000000
         Rot=    0.999984   -0.005324   -0.000252   -0.001959 Ang=  -0.65 deg.
 ExpMin= 1.22D-01 ExpMax= 1.04D+04 ExpMxC= 1.57D+03 IAcc=3 IRadAn=         5 AccDes= 0.00D+00
 Harris functional with IExCor= 4639 and IRadAn=       5 diagonalized for initial guess.
 HarFok:  IExCor= 4639 AccDes= 0.00D+00 IRadAn=         5 IDoV= 1 UseB2=F ITyADJ=14
 ICtDFT=  3500011 ScaDFX=  1.000000  1.000000  1.000000  1.000000
 FoFCou: FMM=F IPFlag=           0 FMFlag=      100000 FMFlg1=           0
         NFxFlg=           0 DoJE=T BraDBF=F KetDBF=T FulRan=T
         wScrn=  0.000000 ICntrl=       500 IOpCl=  0 I1Cent=   200000004 NGrid=           0
         NMat0=    1 NMatS0=      1 NMatT0=    0 NMatD0=    1 NMtDS0=    0 NMtDT0=    0
 Petite list used in FoFCou.
     Minimum is close to point  4 DX=  8.46D-02 DF= -1.40D-06 DXR=  6.59D-02 DFR=  4.36D-03 which will be used.
     Accept linear search using points  2 and  3.
     Accept linear search using points  1 and  2.
     Minimum is close to point  2 DX= -1.75D-04 DF= -2.05D-12 DXR=  1.75D-04 DFR=  3.19D-08 which will be used.
 SCF Done:  E(RwB97XD) =  -1725.00402457     a.u. after    5 cycles
            Convg  =    0.4661D-09                    32 Fock formations.
              S**2 =  0.0000                  -V/T =  2.0034
   1 Symmetry operations used in ECPInt.
 ECPInt:  NShTT=    3240 NPrTT=   14042 LenC2=    3152 LenP2D=   10086.
 LDataN:  DoStor=T MaxTD1= 5 Len=  102
 Calling FoFJK, ICntrl=      2127 FMM=F ISym2X=0 I1Cent= 0 IOpClX= 0 NMat=1 NMatS=1 NMatT=0.

 GradGradGradGradGradGradGradGradGradGradGradGradGradGradGradGradGradGrad
 Using GEDIIS/GDIIS optimizer.
 FormGI is forming the generalized inverse of G from B-inverse, IUseBI=4.
 Internal  Forces:  Max     0.000986357 RMS     0.000274487
 Step number   3 out of a maximum of   89
 All quantities printed in internal units (Hartrees-Bohrs-Radians)
 Mixed Optimization -- En-DIIS/RFO-DIIS
 Trust test= 8.15D-01 RLast= 1.02D-01 DXMaxT set to 5.05D-01
 ITU=  1  1  0
 Use linear search instead of GDIIS.
     Eigenvalues ---    0.00256   0.00321   0.00404   0.00415   0.00933
     Eigenvalues ---    0.02678   0.04698   0.04849   0.05461   0.05504
     Eigenvalues ---    0.05512   0.05821   0.05830   0.05898   0.06617
     Eigenvalues ---    0.13384   0.14890   0.15909   0.16000   0.16000
     Eigenvalues ---    0.16000   0.16000   0.16002   0.16022   0.22346
     Eigenvalues ---    0.22380   0.24484   0.24695   0.25229   0.27417
     Eigenvalues ---    0.27705   0.27820   0.28377   0.29089   0.29354
     Eigenvalues ---    0.34168   0.34578   0.34844   0.34898   0.34907
     Eigenvalues ---    0.34916   0.35549   0.52691   0.59083   1.05856
 Quartic linear search produced a step of -0.14320.
 Iteration  1 RMS(Cart)=  0.01134921 RMS(Int)=  0.00010628
 Iteration  2 RMS(Cart)=  0.00011799 RMS(Int)=  0.00005142
 Iteration  3 RMS(Cart)=  0.00000001 RMS(Int)=  0.00005142
 Variable       Old X    -DE/DX   Delta X   Delta X   Delta X     New X
                                 (Linear)    (Quad)   (Total)
    R1        2.51624   0.00086  -0.00052   0.00265   0.00213   2.51837
    R2        1.84110   0.00017  -0.00034   0.00116   0.00082   1.84193
    R3        2.26710   0.00012   0.00004   0.00006   0.00010   2.26720
    R4        2.90871  -0.00099   0.00061  -0.00429  -0.00368   2.90503
    R5        2.90665   0.00019   0.00108  -0.00184  -0.00077   2.90588
    R6        2.89782   0.00036   0.00181  -0.00306  -0.00124   2.89657
    R7        2.90667   0.00017   0.00108  -0.00191  -0.00082   2.90585
    R8        3.38618  -0.00006   0.00064  -0.00127  -0.00063   3.38555
    R9        2.07701  -0.00020  -0.00003  -0.00005  -0.00009   2.07692
   R10        2.07799  -0.00045  -0.00022  -0.00016  -0.00038   2.07760
   R11        3.39345   0.00020   0.00040   0.00020   0.00060   3.39405
   R12        2.07405  -0.00031  -0.00015  -0.00006  -0.00021   2.07384
   R13        2.07404  -0.00029  -0.00014  -0.00002  -0.00017   2.07387
   R14        3.38616  -0.00005   0.00064  -0.00126  -0.00062   3.38554
   R15        2.07799  -0.00046  -0.00022  -0.00018  -0.00041   2.07758
   R16        2.07702  -0.00022  -0.00003  -0.00009  -0.00013   2.07690
    A1        1.88077  -0.00009   0.00021  -0.00196  -0.00175   1.87902
    A2        2.15632  -0.00019   0.00065  -0.00222  -0.00183   2.15448
    A3        1.98365  -0.00017  -0.00039   0.00055  -0.00010   1.98355
    A4        2.14319   0.00037  -0.00026   0.00200   0.00148   2.14466
    A5        1.87267  -0.00010  -0.00120   0.00017  -0.00104   1.87163
    A6        1.94442  -0.00027   0.00035  -0.00309  -0.00274   1.94168
    A7        1.87269  -0.00012  -0.00119   0.00004  -0.00116   1.87153
    A8        1.95645   0.00034   0.00035   0.00333   0.00369   1.96014
    A9        1.85592  -0.00026   0.00123  -0.00420  -0.00297   1.85295
   A10        1.95635   0.00037   0.00036   0.00348   0.00384   1.96019
   A11        1.96135   0.00010   0.00146  -0.00228  -0.00082   1.96053
   A12        1.92056  -0.00014  -0.00037  -0.00088  -0.00125   1.91931
   A13        1.92468   0.00015  -0.00033   0.00220   0.00188   1.92655
   A14        1.86481  -0.00017  -0.00003  -0.00235  -0.00239   1.86242
   A15        1.86926   0.00008  -0.00027   0.00266   0.00239   1.87165
   A16        1.92169  -0.00002  -0.00048   0.00063   0.00015   1.92184
   A17        1.95741   0.00072   0.00220  -0.00207   0.00013   1.95753
   A18        1.92966  -0.00000  -0.00041   0.00111   0.00070   1.93036
   A19        1.92968   0.00000  -0.00041   0.00109   0.00069   1.93036
   A20        1.86864  -0.00035  -0.00044  -0.00037  -0.00080   1.86784
   A21        1.86865  -0.00036  -0.00044  -0.00045  -0.00089   1.86777
   A22        1.90752  -0.00005  -0.00056   0.00065   0.00009   1.90761
   A23        1.96130   0.00019   0.00149  -0.00200  -0.00051   1.96078
   A24        1.92473   0.00008  -0.00036   0.00177   0.00141   1.92614
   A25        1.92056  -0.00014  -0.00036  -0.00075  -0.00111   1.91945
   A26        1.86931   0.00006  -0.00029   0.00242   0.00213   1.87145
   A27        1.86478  -0.00019  -0.00002  -0.00218  -0.00220   1.86258
   A28        1.92165   0.00001  -0.00048   0.00074   0.00026   1.92192
    D1       -0.00444   0.00024   0.00083   0.02026   0.02105   0.01661
    D2       -3.13713  -0.00023  -0.00078  -0.01991  -0.02065   3.12540
    D3       -2.15069   0.00001   0.00069   0.01184   0.01253  -2.13816
    D4       -0.00321   0.00020   0.00054   0.01416   0.01471   0.01150
    D5        2.14415   0.00041   0.00041   0.01658   0.01700   2.16115
    D6        0.99972  -0.00045  -0.00090  -0.02797  -0.02888   0.97084
    D7       -3.13598  -0.00026  -0.00104  -0.02565  -0.02670   3.12050
    D8       -0.98862  -0.00005  -0.00118  -0.02323  -0.02441  -1.01303
    D9        1.09935  -0.00021  -0.00255  -0.01089  -0.01344   1.08591
   D10       -0.97640   0.00004  -0.00321  -0.00586  -0.00908  -0.98548
   D11       -3.09969   0.00006  -0.00216  -0.00752  -0.00968  -3.10937
   D12       -1.04069  -0.00003  -0.00239  -0.00924  -0.01163  -1.05232
   D13       -3.11643   0.00023  -0.00305  -0.00422  -0.00727  -3.12371
   D14        1.04346   0.00025  -0.00200  -0.00587  -0.00787   1.03559
   D15        3.09895  -0.00052  -0.00390  -0.01277  -0.01666   3.08229
   D16        1.02320  -0.00026  -0.00456  -0.00774  -0.01230   1.01090
   D17       -1.10010  -0.00024  -0.00350  -0.00940  -0.01289  -1.11299
   D18        3.14146   0.00000   0.00004   0.00061   0.00065  -3.14107
   D19        1.05730  -0.00003  -0.00059   0.00170   0.00111   1.05842
   D20       -1.05754   0.00003   0.00066  -0.00058   0.00008  -1.05746
   D21       -1.04292  -0.00007  -0.00101   0.00097  -0.00005  -1.04297
   D22       -3.12708  -0.00011  -0.00163   0.00205   0.00041  -3.12667
   D23        1.04126  -0.00005  -0.00039  -0.00023  -0.00062   1.04064
   D24        1.04271   0.00009   0.00108   0.00032   0.00140   1.04412
   D25       -1.04145   0.00005   0.00045   0.00140   0.00186  -1.03959
   D26        3.12690   0.00011   0.00170  -0.00088   0.00083   3.12773
   D27       -1.09866   0.00018   0.00250   0.00769   0.01019  -1.08847
   D28        3.10030  -0.00007   0.00213   0.00474   0.00687   3.10717
   D29        0.97702  -0.00003   0.00320   0.00314   0.00635   0.98336
   D30       -3.09825   0.00047   0.00385   0.00948   0.01332  -3.08493
   D31        1.10072   0.00022   0.00348   0.00653   0.01000   1.11072
   D32       -1.02257   0.00026   0.00455   0.00494   0.00948  -1.01309
   D33        1.04132  -0.00000   0.00235   0.00604   0.00840   1.04972
   D34       -1.04290  -0.00025   0.00198   0.00309   0.00507  -1.03783
   D35        3.11700  -0.00021   0.00305   0.00150   0.00455   3.12156
         Item               Value     Threshold  Converged?
 Maximum Force            0.000986     0.000015     NO 
 RMS     Force            0.000274     0.000010     NO 
 Maximum Displacement     0.057807     0.000060     NO 
 RMS     Displacement     0.011377     0.000040     NO 
 GradGradGradGradGradGradGradGradGradGradGradGradGradGradGradGradGradGrad

                    Distance matrix (angstroms):
                    1          2          3          4          5
     1  O    0.000000
     2  C    1.332662   0.000000
     3  O    2.231068   1.199750   0.000000
     4  C    2.404743   1.537277   2.409388   0.000000
     5  C    3.458685   2.475635   2.914326   1.537727   0.000000
     6  Cl   3.630267   3.127893   3.590045   2.769055   1.791554
     7  C    2.635647   2.533918   3.669397   1.532800   2.550182
     8  Cl   4.429554   4.152661   5.165752   2.766217   3.195773
     9  C    3.468551   2.475523   2.932066   1.537710   2.458832
    10  Cl   3.653137   3.129831   3.625512   2.769278   4.101241
    11  H    0.974706   1.874606   2.290736   3.240530   4.167295
    12  H    3.871964   2.675286   2.631390   2.174134   1.099061
    13  H    4.363869   3.448004   3.944429   2.179681   1.099420
    14  H    2.582764   2.792145   3.942278   2.176607   3.502120
    15  H    2.572228   2.791712   3.932257   2.176619   2.804358
    16  H    4.372194   3.447699   3.957249   2.179358   2.721500
    17  H    3.879475   2.674265   2.649489   2.174208   2.667436
                    6          7          8          9         10
     6  Cl   0.000000
     7  C    3.204587   0.000000
     8  Cl   3.982340   1.796053   0.000000
     9  C    4.101005   2.550217   3.196562   0.000000
    10  Cl   5.534966   3.203300   3.980903   1.791552   0.000000
    11  H    4.201533   3.610090   5.403160   4.183607   4.240309
    12  H    2.355809   3.497383   4.190103   2.666267   4.340709
    13  H    2.363418   2.800837   2.759834   2.722994   4.421351
    14  H    4.197820   1.097431   2.363044   2.803926   2.775328
    15  H    2.777351   1.097446   2.362999   3.502160   4.196628
    16  H    4.420864   2.801521   2.761490   1.099410   2.363250
    17  H    4.340472   3.497440   4.191451   1.099046   2.355922
                   11         12         13         14         15
    11  H    0.000000
    12  H    4.398885   0.000000
    13  H    5.153734   1.802137   0.000000
    14  H    3.500499   4.330085   3.801742   0.000000
    15  H    3.485403   3.801903   3.152509   1.790189   0.000000
    16  H    5.167481   3.048516   2.522302   3.153132   3.802380
    17  H    4.412652   2.401214   3.052083   3.801089   4.330167
                   16         17
    16  H    0.000000
    17  H    1.802164   0.000000
 Framework group  C1[X(C5H7Cl3O2)]
 Deg. of freedom    45
                         Standard orientation:                         
 ---------------------------------------------------------------------
 Center     Atomic      Atomic             Coordinates (Angstroms)
 Number     Number       Type             X           Y           Z
 ---------------------------------------------------------------------
      1          8           0       -0.031805   -1.606292    1.685557
      2          6           0       -0.016016   -1.545077    0.354396
      3          8           0       -0.048531   -2.513931   -0.352475
      4          6           0        0.001871   -0.110108   -0.196753
      5          6           0       -1.225078    0.042147   -1.111094
      6         17           0       -2.766368   -0.171904   -0.223247
      7          6           0        0.013562    0.920616    0.937685
      8         17           0        0.033690    2.607147    0.320422
      9          6           0        1.233569    0.012056   -1.109193
     10         17           0        2.768232   -0.235282   -0.218526
     11          1           0       -0.057321   -2.547394    1.937999
     12          1           0       -1.204411   -0.725047   -1.897809
     13          1           0       -1.245019    1.044938   -1.561356
     14          1           0        0.906977    0.796685    1.562828
     15          1           0       -0.883086    0.817842    1.562062
     16          1           0        1.277085    1.013395   -1.560999
     17          1           0        1.196604   -0.755782   -1.894662
 ---------------------------------------------------------------------
 Rotational constants (GHZ):           0.9181183           0.7250555           0.4989989
   166 basis functions,   314 primitive gaussians,   176 cartesian basis functions
    52 alpha electrons       52 beta electrons
       nuclear repulsion energy       858.2221862910 Hartrees.
 NAtoms=   17 NActive=   17 NUniq=   17 SFac= 1.00D+00 NAtFMM=   60 NAOKFM=F Big=F
 Nuclear repulsion after empirical dispersion term =      858.2100809767 Hartrees.
   1 Symmetry operations used in ECPInt.
 ECPInt:  NShTT=    3240 NPrTT=   14042 LenC2=    3149 LenP2D=   10086.
 LDataN:  DoStor=T MaxTD1= 4 Len=   56
 Initial guess from the checkpoint file:  "monomer.chk"
 B after Tr=    -0.000000   -0.000000   -0.000000
         Rot=    0.999964    0.001608    0.000865    0.008282 Ang=   0.97 deg.
 ExpMin= 1.22D-01 ExpMax= 1.04D+04 ExpMxC= 1.57D+03 IAcc=3 IRadAn=         5 AccDes= 0.00D+00
 Harris functional with IExCor= 4639 and IRadAn=       5 diagonalized for initial guess.
 HarFok:  IExCor= 4639 AccDes= 0.00D+00 IRadAn=         5 IDoV= 1 UseB2=F ITyADJ=14
 ICtDFT=  3500011 ScaDFX=  1.000000  1.000000  1.000000  1.000000
 FoFCou: FMM=F IPFlag=           0 FMFlag=      100000 FMFlg1=           0
         NFxFlg=           0 DoJE=T BraDBF=F KetDBF=T FulRan=T
         wScrn=  0.000000 ICntrl=       500 IOpCl=  0 I1Cent=   200000004 NGrid=           0
         NMat0=    1 NMatS0=      1 NMatT0=    0 NMatD0=    1 NMtDS0=    0 NMtDT0=    0
 Petite list used in FoFCou.
     Minimum is close to point  4 DX=  1.66D-03 DF= -7.54D-10 DXR=  1.38D-03 DFR=  1.91D-06 which will be used.
     Accept linear search using points  1 and  2.
     Minimum is close to point  2 DX= -1.66D-04 DF= -2.73D-12 DXR=  1.66D-04 DFR=  2.69D-08 which will be used.
 SCF Done:  E(RwB97XD) =  -1725.00398547     a.u. after    5 cycles
            Convg  =    0.2294D-08                    32 Fock formations.
              S**2 =  0.0000                  -V/T =  2.0034
   1 Symmetry operations used in ECPInt.
 ECPInt:  NShTT=    3240 NPrTT=   14042 LenC2=    3149 LenP2D=   10086.
 LDataN:  DoStor=T MaxTD1= 5 Len=  102
 Calling FoFJK, ICntrl=      2127 FMM=F ISym2X=0 I1Cent= 0 IOpClX= 0 NMat=1 NMatS=1 NMatT=0.

 GradGradGradGradGradGradGradGradGradGradGradGradGradGradGradGradGradGrad
 Using GEDIIS/GDIIS optimizer.
 FormGI is forming the generalized inverse of G from B-inverse, IUseBI=4.
 Internal  Forces:  Max     0.001069376 RMS     0.000326626
 Step number   4 out of a maximum of   89
 All quantities printed in internal units (Hartrees-Bohrs-Radians)
 Mixed Optimization -- En-DIIS/RFO-DIIS
 Swapping is turned off.
 Trust test=-9.88D-01 RLast= 7.53D-02 DXMaxT set to 2.52D-01
 ITU= -1  1  1  0
     Eigenvalues ---    0.00259   0.00322   0.00415   0.00424   0.02676
     Eigenvalues ---    0.03396   0.04743   0.04850   0.05374   0.05501
     Eigenvalues ---    0.05729   0.05795   0.05825   0.05849   0.06643
     Eigenvalues ---    0.11261   0.14870   0.15929   0.15998   0.16000
     Eigenvalues ---    0.16000   0.16001   0.16021   0.16042   0.22345
     Eigenvalues ---    0.22436   0.23057   0.24429   0.25196   0.26821
     Eigenvalues ---    0.27706   0.27808   0.27924   0.29090   0.29417
     Eigenvalues ---    0.32160   0.34810   0.34847   0.34899   0.34908
     Eigenvalues ---    0.34918   0.35565   0.52112   0.57513   1.05836
 En-DIIS/RFO-DIIS/Sim-DIIS IScMMF=       -3 using points:     4    3
 RFO step:  Lambda=-1.30668738D-04.
 DidBck=T Rises=T En-DIIS coefs:    0.41700    0.58300
 Iteration  1 RMS(Cart)=  0.00711349 RMS(Int)=  0.00006119
 Iteration  2 RMS(Cart)=  0.00008240 RMS(Int)=  0.00001173
 Iteration  3 RMS(Cart)=  0.00000000 RMS(Int)=  0.00001173
 Variable       Old X    -DE/DX   Delta X   Delta X   Delta X     New X
                                 (Linear)    (Quad)   (Total)
    R1        2.51837   0.00013  -0.00124   0.00179   0.00055   2.51892
    R2        1.84193  -0.00025  -0.00048   0.00055   0.00007   1.84200
    R3        2.26720   0.00004  -0.00006   0.00010   0.00005   2.26725
    R4        2.90503   0.00026   0.00214  -0.00273  -0.00058   2.90445
    R5        2.90588   0.00044   0.00045  -0.00017   0.00028   2.90616
    R6        2.89657   0.00037   0.00073  -0.00055   0.00017   2.89675
    R7        2.90585   0.00050   0.00048  -0.00016   0.00032   2.90617
    R8        3.38555   0.00017   0.00037  -0.00024   0.00013   3.38567
    R9        2.07692  -0.00024   0.00005  -0.00017  -0.00012   2.07681
   R10        2.07760  -0.00032   0.00022  -0.00047  -0.00024   2.07736
   R11        3.39405   0.00019  -0.00035   0.00078   0.00043   3.39448
   R12        2.07384  -0.00020   0.00012  -0.00025  -0.00013   2.07371
   R13        2.07387  -0.00026   0.00010  -0.00026  -0.00016   2.07371
   R14        3.38554   0.00016   0.00036  -0.00024   0.00012   3.38566
   R15        2.07758  -0.00027   0.00024  -0.00045  -0.00021   2.07737
   R16        2.07690  -0.00019   0.00007  -0.00016  -0.00009   2.07681
    A1        1.87902   0.00003   0.00102  -0.00155  -0.00053   1.87848
    A2        2.15448  -0.00004   0.00107  -0.00128  -0.00026   2.15422
    A3        1.98355  -0.00004   0.00006   0.00011   0.00011   1.98366
    A4        2.14466   0.00013  -0.00086   0.00154   0.00063   2.14529
    A5        1.87163  -0.00020   0.00060  -0.00128  -0.00067   1.87096
    A6        1.94168   0.00027   0.00160  -0.00192  -0.00033   1.94135
    A7        1.87153  -0.00014   0.00068  -0.00128  -0.00060   1.87093
    A8        1.96014  -0.00013  -0.00215   0.00293   0.00078   1.96092
    A9        1.85295   0.00038   0.00173  -0.00174  -0.00000   1.85295
   A10        1.96019  -0.00019  -0.00224   0.00296   0.00072   1.96091
   A11        1.96053   0.00042   0.00048   0.00006   0.00054   1.96107
   A12        1.91931  -0.00002   0.00073  -0.00093  -0.00020   1.91911
   A13        1.92655  -0.00023  -0.00109   0.00097  -0.00012   1.92643
   A14        1.86242  -0.00004   0.00139  -0.00160  -0.00021   1.86222
   A15        1.87165  -0.00019  -0.00139   0.00145   0.00006   1.87170
   A16        1.92184   0.00006  -0.00009   0.00002  -0.00007   1.92178
   A17        1.95753   0.00048  -0.00007   0.00087   0.00079   1.95832
   A18        1.93036  -0.00005  -0.00041   0.00047   0.00006   1.93042
   A19        1.93036  -0.00006  -0.00040   0.00046   0.00006   1.93042
   A20        1.86784  -0.00021   0.00047  -0.00090  -0.00043   1.86740
   A21        1.86777  -0.00017   0.00052  -0.00086  -0.00035   1.86742
   A22        1.90761  -0.00001  -0.00005  -0.00012  -0.00017   1.90743
   A23        1.96078   0.00008   0.00030  -0.00007   0.00023   1.96102
   A24        1.92614   0.00008  -0.00082   0.00116   0.00034   1.92648
   A25        1.91945  -0.00005   0.00065  -0.00101  -0.00036   1.91909
   A26        1.87145  -0.00008  -0.00124   0.00156   0.00032   1.87177
   A27        1.86258   0.00001   0.00128  -0.00170  -0.00041   1.86217
   A28        1.92192  -0.00004  -0.00015   0.00002  -0.00014   1.92178
    D1        0.01661  -0.00090  -0.01227  -0.00649  -0.01873  -0.00212
    D2        3.12540   0.00083   0.01204   0.00622   0.01823  -3.13955
    D3       -2.13816  -0.00064  -0.00731  -0.00577  -0.01309  -2.15124
    D4        0.01150  -0.00077  -0.00858  -0.00419  -0.01277  -0.00127
    D5        2.16115  -0.00093  -0.00991  -0.00256  -0.01249   2.14867
    D6        0.97084   0.00107   0.01684   0.00679   0.02364   0.99449
    D7        3.12050   0.00095   0.01557   0.00838   0.02396  -3.13873
    D8       -1.01303   0.00079   0.01423   0.01000   0.02424  -0.98879
    D9        1.08591   0.00022   0.00784  -0.00754   0.00030   1.08621
   D10       -0.98548   0.00001   0.00529  -0.00495   0.00035  -0.98513
   D11       -3.10937   0.00010   0.00564  -0.00500   0.00065  -3.10872
   D12       -1.05232   0.00009   0.00678  -0.00611   0.00068  -1.05164
   D13       -3.12371  -0.00011   0.00424  -0.00351   0.00073  -3.12298
   D14        1.03559  -0.00003   0.00459  -0.00357   0.00102   1.03661
   D15        3.08229   0.00015   0.00971  -0.01040  -0.00069   3.08159
   D16        1.01090  -0.00005   0.00717  -0.00781  -0.00064   1.01026
   D17       -1.11299   0.00003   0.00752  -0.00786  -0.00035  -1.11334
   D18       -3.14107  -0.00002  -0.00038  -0.00034  -0.00072   3.14140
   D19        1.05842  -0.00004  -0.00065  -0.00008  -0.00073   1.05768
   D20       -1.05746   0.00004  -0.00005  -0.00055  -0.00059  -1.05805
   D21       -1.04297  -0.00016   0.00003  -0.00130  -0.00127  -1.04424
   D22       -3.12667  -0.00019  -0.00024  -0.00105  -0.00128  -3.12795
   D23        1.04064  -0.00011   0.00036  -0.00151  -0.00115   1.03950
   D24        1.04412   0.00010  -0.00082   0.00061  -0.00021   1.04390
   D25       -1.03959   0.00008  -0.00109   0.00086  -0.00023  -1.03981
   D26        3.12773   0.00016  -0.00049   0.00040  -0.00009   3.12764
   D27       -1.08847  -0.00008  -0.00594   0.00884   0.00290  -1.08558
   D28        3.10717  -0.00008  -0.00400   0.00610   0.00210   3.10927
   D29        0.98336  -0.00005  -0.00370   0.00599   0.00229   0.98565
   D30       -3.08493   0.00002  -0.00777   0.01170   0.00394  -3.08099
   D31        1.11072   0.00002  -0.00583   0.00897   0.00314   1.11386
   D32       -1.01309   0.00006  -0.00553   0.00885   0.00333  -1.00976
   D33        1.04972   0.00004  -0.00489   0.00742   0.00253   1.05225
   D34       -1.03783   0.00004  -0.00296   0.00469   0.00173  -1.03609
   D35        3.12156   0.00008  -0.00265   0.00457   0.00192   3.12347
         Item               Value     Threshold  Converged?
 Maximum Force            0.001069     0.000015     NO 
 RMS     Force            0.000327     0.000010     NO 
 Maximum Displacement     0.034984     0.000060     NO 
 RMS     Displacement     0.007118     0.000040     NO 
 GradGradGradGradGradGradGradGradGradGradGradGradGradGradGradGradGradGrad

                    Distance matrix (angstroms):
                    1          2          3          4          5
     1  O    0.000000
     2  C    1.332954   0.000000
     3  O    2.231195   1.199775   0.000000
     4  C    2.404803   1.536968   2.409533   0.000000
     5  C    3.464051   2.474895   2.923865   1.537876   0.000000
     6  Cl   3.642745   3.128004   3.608415   2.769732   1.791622
     7  C    2.635123   2.533456   3.669331   1.532892   2.551049
     8  Cl   4.429352   4.152950   5.166808   2.767217   3.198756
     9  C    3.462908   2.474865   2.921411   1.537878   2.459085
    10  Cl   3.639912   3.127469   3.603226   2.769683   4.101536
    11  H    0.974746   1.874538   2.290245   3.240363   4.175866
    12  H    3.876119   2.674103   2.641109   2.174071   1.098998
    13  H    4.368314   3.447193   3.951362   2.179626   1.099293
    14  H    2.576111   2.791364   3.936314   2.176680   3.502770
    15  H    2.577492   2.791531   3.937763   2.176678   2.804879
    16  H    4.367294   3.447205   3.949638   2.179669   2.723545
    17  H    3.875378   2.674291   2.638712   2.174057   2.665722
                    6          7          8          9         10
     6  Cl   0.000000
     7  C    3.205929   0.000000
     8  Cl   3.985265   1.796282   0.000000
     9  C    4.101592   2.551046   3.198536   0.000000
    10  Cl   5.535771   3.206244   3.985528   1.791615   0.000000
    11  H    4.222212   3.609624   5.403044   4.173866   4.217210
    12  H    2.355661   3.497887   4.193073   2.665983   4.339150
    13  H    2.363436   2.802168   2.763945   2.723238   4.422858
    14  H    4.198796   1.097361   2.362856   2.805019   2.779199
    15  H    2.778669   1.097359   2.362867   3.502765   4.199117
    16  H    4.422935   2.801979   2.763478   1.099297   2.363484
    17  H    4.339217   3.497879   4.192735   1.098999   2.355617
                   11         12         13         14         15
    11  H    0.000000
    12  H    4.406065   0.000000
    13  H    5.160886   1.801940   0.000000
    14  H    3.491372   4.330250   3.803090   0.000000
    15  H    3.493378   3.802152   3.153416   1.789951   0.000000
    16  H    5.159161   3.050532   2.524683   3.153304   3.802892
    17  H    4.404524   2.398849   3.049741   3.802369   4.330236
                   16         17
    16  H    0.000000
    17  H    1.801947   0.000000
 Framework group  C1[X(C5H7Cl3O2)]
 Deg. of freedom    45
                         Standard orientation:                         
 ---------------------------------------------------------------------
 Center     Atomic      Atomic             Coordinates (Angstroms)
 Number     Number       Type             X           Y           Z
 ---------------------------------------------------------------------
      1          8           0        0.004206   -1.603393    1.687492
      2          6           0        0.002418   -1.543222    0.355898
      3          8           0        0.006996   -2.513660   -0.349573
      4          6           0       -0.000235   -0.108998   -0.196611
      5          6           0       -1.230086    0.024037   -1.110301
      6         17           0       -2.767986   -0.210669   -0.221660
      7          6           0       -0.002000    0.922644    0.937175
      8         17           0       -0.004796    2.609566    0.319993
      9          6           0        1.228995    0.028458   -1.110487
     10         17           0        2.767778   -0.201714   -0.222201
     11          1           0        0.007703   -2.544734    1.940461
     12          1           0       -1.198788   -0.744127   -1.895631
     13          1           0       -1.264551    1.025499   -1.562331
     14          1           0        0.893146    0.811230    1.562078
     15          1           0       -0.896802    0.808226    1.562023
     16          1           0        1.260128    1.030206   -1.562135
     17          1           0        1.200056   -0.739502   -1.896108
 ---------------------------------------------------------------------
 Rotational constants (GHZ):           0.9175271           0.7247884           0.4988154
   166 basis functions,   314 primitive gaussians,   176 cartesian basis functions
    52 alpha electrons       52 beta electrons
       nuclear repulsion energy       858.0930041197 Hartrees.
 NAtoms=   17 NActive=   17 NUniq=   17 SFac= 1.00D+00 NAtFMM=   60 NAOKFM=F Big=F
 Nuclear repulsion after empirical dispersion term =      858.0808966048 Hartrees.
   1 Symmetry operations used in ECPInt.
 ECPInt:  NShTT=    3240 NPrTT=   14042 LenC2=    3148 LenP2D=   10086.
 LDataN:  DoStor=T MaxTD1= 4 Len=   56
 Initial guess from the checkpoint file:  "monomer.chk"
 B after Tr=     0.000000    0.000000    0.000000
         Rot=    0.999972    0.000418   -0.000758   -0.007461 Ang=   0.86 deg.
 ExpMin= 1.22D-01 ExpMax= 1.04D+04 ExpMxC= 1.57D+03 IAcc=3 IRadAn=         5 AccDes= 0.00D+00
 Harris functional with IExCor= 4639 and IRadAn=       5 diagonalized for initial guess.
 HarFok:  IExCor= 4639 AccDes= 0.00D+00 IRadAn=         5 IDoV= 1 UseB2=F ITyADJ=14
 ICtDFT=  3500011 ScaDFX=  1.000000  1.000000  1.000000  1.000000
 FoFCou: FMM=F IPFlag=           0 FMFlag=      100000 FMFlg1=           0
         NFxFlg=           0 DoJE=T BraDBF=F KetDBF=T FulRan=T
         wScrn=  0.000000 ICntrl=       500 IOpCl=  0 I1Cent=   200000004 NGrid=           0
         NMat0=    1 NMatS0=      1 NMatT0=    0 NMatD0=    1 NMtDS0=    0 NMtDT0=    0
 Petite list used in FoFCou.
     Accept linear search using points  3 and  4.
     Accept linear search using points  2 and  3.
     Accept linear search using points  1 and  2.
     Minimum is close to point  2 DX= -9.22D-05 DF= -6.82D-13 DXR=  9.22D-05 DFR=  9.64D-09 which will be used.
 SCF Done:  E(RwB97XD) =  -1725.00404189     a.u. after    5 cycles
            Convg  =    0.1593D-08                    31 Fock formations.
              S**2 =  0.0000                  -V/T =  2.0034
   1 Symmetry operations used in ECPInt.
 ECPInt:  NShTT=    3240 NPrTT=   14042 LenC2=    3148 LenP2D=   10086.
 LDataN:  DoStor=T MaxTD1= 5 Len=  102
 Calling FoFJK, ICntrl=      2127 FMM=F ISym2X=0 I1Cent= 0 IOpClX= 0 NMat=1 NMatS=1 NMatT=0.

 GradGradGradGradGradGradGradGradGradGradGradGradGradGradGradGradGradGrad
 Using GEDIIS/GDIIS optimizer.
 FormGI is forming the generalized inverse of G from B-inverse, IUseBI=4.
 Internal  Forces:  Max     0.000433180 RMS     0.000154096
 Step number   5 out of a maximum of   89
 All quantities printed in internal units (Hartrees-Bohrs-Radians)
 Mixed Optimization -- En-DIIS/RFO-DIIS
 Swapping is turned off.
 Trust test= 8.61D-01 RLast= 5.46D-02 DXMaxT set to 2.52D-01
 ITU=  1 -1  1  1  0
     Eigenvalues ---    0.00259   0.00322   0.00415   0.00486   0.02677
[...]
   aniso      0.127054D+02      0.188275D+01      0.209484D+01
   xx         0.861545D+02      0.127668D+02      0.142050D+02
   yx         0.152108D-01      0.225401D-02      0.250793D-02
   yy         0.724110D+02      0.107302D+02      0.119390D+02
   zx        -0.227483D-02     -0.337096D-03     -0.375069D-03
   zy         0.198627D+01      0.294336D+00      0.327492D+00
   zz         0.820986D+02      0.121658D+02      0.135362D+02

 ----------------------------------------------------------------------
 1\1\GINC-C191\Freq\RwB97XD\def2SVPP\C5H7Cl3O2\PETERCHAO1\29-Mar-2024\0
 \\#T Geom=AllCheck Guess=TCheck SCRF=Check GenChk RwB97XD/def2SVPP Fre
 q\\Monomer\\0,1\O,-0.0025354771,1.5890749101,1.6708162283\C,-0.0021524
 297,1.5273450135,0.3394389026\O,-0.0031993911,2.4965545816,-0.36761650
 02\C,-0.0002351405,0.0915924588,-0.2110575945\C,1.2314114129,-0.043354
 6029,-1.1230669751\Cl,2.7687189713,0.1853233177,-0.2316547042\C,0.0007
 955301,-0.9402513724,0.9230021747\Cl,0.0030472099,-2.6275967253,0.3067
 378063\C,-1.2311259678,-0.0464289493,-1.1236270033\Cl,-2.7694048247,0.
 1784070221,-0.2329133347\H,-0.0037673251,2.5301836663,1.9234681167\H,1
 .203050575,0.7248918521,-1.9080635968\H,1.2640044947,-1.0445369475,-1.
 5751476864\H,-0.8942626769,-0.8283171473,1.5474645413\H,0.8952850628,-
 0.826079316,1.547874066\H,-1.26101291,-1.0476888042,-1.5757229672\H,-1
 .2043274184,0.7218873081,-1.9086101666\\Version=ES64L-G16RevB.01\State
 =1-A\HF=-1725.0040478\RMSD=5.235e-10\RMSF=9.809e-07\ZeroPoint=0.122545
 8\Thermal=0.1333928\Dipole=-0.0002593,0.1916956,0.0735189\DipoleDeriv=
 -0.3266219,0.0002192,0.0004979,0.0002455,-0.4810263,-0.2292161,0.00035
 61,-0.1155715,-1.2489195,0.3221896,-0.0013308,-0.0002172,-0.0013086,1.
 3815546,-0.0562346,-0.0003384,0.0408568,1.5712737,-0.369272,0.0008581,
 -0.0002898,0.0008093,-1.0733942,0.3025655,-0.0000239,0.0895538,-0.7509
 349,-0.1047812,0.000107,0.0001454,0.00009,-0.1557647,-0.1162645,0.0002
 402,-0.1921148,-0.1047394,0.6689444,0.047755,0.133866,0.0372913,0.0474
 651,0.0424842,0.1397961,0.0684888,0.1589299,-0.5461783,-0.0205865,-0.0
 526043,-0.0343774,-0.1383709,-0.0197454,-0.126708,-0.0167914,-0.193056
 6,-0.0032682,-0.0009662,-0.0001023,-0.0009518,0.7448554,0.0715278,-0.0
 001825,0.1354686,0.0527361,-0.1401367,0.0005512,0.0000356,0.0005381,-0
 .5667994,-0.0205436,0.0001067,-0.0772422,-0.1835764,0.6692778,-0.04623
 29,-0.1337396,-0.0357576,0.0472565,0.0421333,-0.1397346,0.0681181,0.15
 8806,-0.5463946,0.0195751,0.0524929,0.0333673,-0.1382362,-0.0195986,0.
 126589,-0.0164657,-0.1929751,0.3472597,0.0000969,-0.0000777,0.0001109,
 0.2476925,0.0577924,-0.0001542,0.1191307,0.3715608,-0.015304,-0.007745
 9,-0.0512156,-0.0172701,0.0507324,0.0692615,-0.047946,0.0346322,0.0258
 331,-0.0149625,-0.0083133,-0.0465247,-0.0014251,0.0186732,-0.0694671,-
 0.0574924,-0.0526622,0.0756272,0.0448358,-0.0052121,0.0666159,-0.00670
 79,-0.0270795,-0.0272892,0.0467346,-0.0337639,0.0789674,0.044857,0.005
 4072,-0.0665629,0.0069002,-0.0270497,-0.0274525,-0.0466655,-0.0338781,
 0.0789155,-0.015034,0.0082531,0.0466568,0.0013728,0.0186969,-0.06935,0
 .0575823,-0.0525146,0.0756741,-0.015411,0.0075648,0.0510237,0.0170734,
 0.0507943,0.0693969,0.0478405,0.0347553,0.0258781\Polar=86.1544882,0.0
 045443,82.1846042,0.0009178,1.7620868,72.3250074\Quadrupole=-4.1606195
 ,-2.1820448,6.3426643,-0.0036553,-0.0088463,5.1764877\PG=C01 [X(C5H7Cl
 3O2)]\NImag=0\\0.04532630,-0.00069784,0.58842950,-0.00021785,0.0887708
 4,0.51160828,-0.06546116,0.00010145,0.00007128,0.23716456,0.00009343,-
 0.13886041,-0.00816358,-0.00079888,0.91802138,0.00011474,-0.04300043,-
 0.33133541,0.00014350,-0.22048796,0.81030749,0.03136942,0.00000412,-0.
 00003077,-0.07866997,0.00056546,-0.00033873,0.03641007,0.00000860,0.01
 588702,0.04665847,0.00056686,-0.59192678,0.32018102,-0.00065775,0.6362
 5424,-0.00005505,0.06611568,-0.08807748,-0.00034641,0.32634034,-0.3433
 1226,0.00040686,-0.39491963,0.41025933,0.01143525,0.00002645,0.0000144
 1,-0.08821668,0.00008474,0.00004363,0.01694984,0.00007202,-0.00000247,
 0.45383793,0.00001983,-0.00342066,-0.00564243,0.00008671,-0.15147513,-
 0.03392069,0.00007710,-0.04542737,0.00307191,-0.00006534,0.50846869,0.
 00005021,-0.03436197,-0.02062990,0.00003289,-0.02531922,-0.09393543,-0
 .00003023,0.02532819,0.01104675,-0.00000383,-0.01250403,0.53899712,-0.
 00204697,-0.00330179,-0.00432515,0.00022983,0.01617481,0.00739713,-0.0
 0076936,-0.00526467,0.00091212,-0.12725102,0.00788248,0.05295096,0.359
 58117,-0.00149634,-0.00376872,-0.00274578,0.03148693,-0.00283878,-0.01
 867330,-0.00240156,-0.00210852,-0.00126536,0.01254403,-0.08729901,-0.0
 0607056,-0.01674549,0.62110763,-0.00099726,-0.00131603,-0.00160350,0.0
 1642108,-0.01143613,-0.01020835,-0.00055865,0.00329820,-0.00289301,0.0
 5362635,-0.00445550,-0.11638969,-0.02879446,-0.02430730,0.50136819,-0.
 00016952,0.00093989,0.00105639,-0.00053726,-0.00264482,-0.00138876,0.0
 0004998,0.00161649,0.00011203,-0.03248157,-0.00461016,-0.01870902,-0.1
 1096842,-0.01327079,-0.05256231,0.17633493,0.00068733,0.00043342,0.000
 18015,-0.00013279,-0.00196191,0.00045605,0.00126705,0.00068976,-0.0001
 9472,-0.00020748,0.00078876,0.00145235,-0.01187508,-0.03978918,-0.0082
 0634,0.02144667,0.02867504,0.00116913,0.00043937,0.00115588,-0.0011171
 5,-0.00113548,-0.00150634,0.00048473,0.00025494,0.00080692,0.00360885,
 0.00200930,0.00598694,-0.05014002,-0.00770744,-0.06983884,0.08056616,0
 .01193114,0.07880051,-0.00082896,0.00000329,-0.00000045,-0.00177519,0.
 00003357,-0.00003181,0.00152802,0.00000624,0.00000437,-0.08709072,0.00
 002493,-0.00005269,-0.00011407,-0.02129083,0.02348151,-0.00083732,-0.0
 0159466,0.00201560,0.63108067,0.00000274,-0.00316570,0.00072554,0.0000
 2851,-0.02862596,0.02201649,0.00000525,-0.00214373,-0.00292252,0.00002
 538,-0.11705320,0.05290346,-0.00775347,0.00321295,0.00157820,0.0009305
 0,-0.00022162,0.00101606,0.00034683,0.35551447,0.00000243,-0.00157622,
 -0.00287128,-0.00000419,-0.00010420,0.01722505,0.00000984,-0.00731662,
 -0.00165955,-0.00005504,0.05478336,-0.14594535,0.00618062,0.01586082,-
 0.01883178,-0.00050412,0.00051963,-0.00160598,0.00003862,-0.00951274,0
 .51429562,0.00029867,0.00000246,0.00000081,0.00008981,-0.00000513,-0.0
 0000457,0.00024508,0.00000695,-0.00000115,-0.00011160,0.00004017,0.000
 01193,-0.00049295,-0.00160950,0.00108511,0.00025632,-0.00002964,0.0000
 6636,-0.03845510,0.00011556,0.00005475,0.02670619,0.00000239,-0.001467
 63,-0.00079358,-0.00000576,0.00389195,0.00454386,0.00000689,-0.0054141
 2,0.00072080,0.00004510,-0.03422677,-0.01080584,0.00128736,-0.00058478
 ,-0.00025517,-0.00044135,0.00025610,-0.00003808,0.00011603,-0.12375102
 ,-0.04111199,-0.00023030,0.20062389,0.00000121,-0.00111826,0.00109781,
 -0.00000093,0.00163543,-0.00479115,-0.00000096,0.00056519,0.00134535,-
 0.00001518,0.01086531,0.00686152,0.00091724,0.00130633,-0.00167012,0.0
 0000805,0.00009039,0.00043733,0.00005205,-0.03896096,-0.05304099,-0.00
 007717,0.05619360,0.05675090,-0.00206141,0.00330665,0.00433178,0.00035
 961,-0.01616163,-0.00734569,-0.00078833,0.00526646,-0.00090799,-0.1271
 5129,-0.00797997,-0.05294055,-0.03314242,-0.00235927,-0.00845116,-0.00
 200109,0.00035521,0.00129939,-0.00017308,0.00774427,-0.00621172,-0.000
 49282,-0.00128702,-0.00091994,0.35947304,0.00150186,-0.00375670,-0.002
 73428,-0.03147045,-0.00295773,-0.01870599,0.00240545,-0.00208938,-0.00
 126652,-0.01264082,-0.08735028,-0.00620853,0.00227596,-0.00017221,0.00
 213415,0.00058673,0.00032338,0.00015861,0.02127514,0.00328548,0.015855
 03,0.00160908,-0.00058390,0.00130470,0.01610305,0.62118979,0.00100035,
 -0.00131202,-0.00160108,-0.01638771,-0.01148442,-0.01021915,0.00055139
 ,0.00330198,-0.00289315,-0.05361999,-0.00459303,-0.11643815,0.00842614
 ,0.00215416,0.01009184,0.00573571,0.00005427,-0.00026246,-0.02347686,0
 .00152307,-0.01884528,-0.00108388,-0.00025852,-0.00167098,0.02879056,-
 0.02422783,0.50139432,-0.00016444,-0.00094159,-0.00105745,-0.00054533,
 0.00264888,0.00138806,0.00005746,-0.00161818,-0.00011189,-0.03250028,0
 .00452610,0.01868784,-0.00199552,-0.00059260,-0.00573662,-0.00304876,-
 0.00004586,0.00007583,-0.00083831,-0.00093250,0.00050316,0.00025517,0.
 00044136,-0.00000836,-0.11107761,0.01309623,0.05256400,0.17651454,-0.0
 0068891,0.00042935,0.00017720,0.00013613,-0.00195495,0.00045957,-0.001
 26853,0.00068255,-0.00019557,0.00012368,0.00080058,0.00149913,-0.00036
 102,0.00032101,0.00003979,0.00003735,0.00037508,-0.00007717,0.00159291
 ,-0.00021997,0.00052162,0.00002960,0.00025728,0.00009038,0.01170073,-0
 .03972679,-0.00806966,-0.02108282,0.02856876,-0.00117084,0.00043601,0.
 00115487,0.00112042,-0.00113147,-0.00150521,-0.00048570,0.00025299,0.0
 0080665,-0.00363135,0.00200233,0.00599379,-0.00130057,0.00015510,-0.00
 026566,-0.00007722,-0.00007738,0.00042972,-0.00201781,0.00101061,-0.00
 160669,-0.00006635,-0.00003804,0.00043729,0.05014047,-0.00757617,-0.06
 979222,-0.08055142,0.01172021,0.07872735,-0.01948517,0.00054803,0.0001
 5549,0.00548357,0.00002590,0.00002291,-0.00686957,-0.00000568,-0.00001
 225,0.00664597,0.00000596,0.00000301,0.00021614,-0.00105397,-0.0003631
 7,-0.00039321,-0.00021780,-0.00021934,-0.00034176,-0.00000058,0.000000
 21,0.00005398,-0.00000057,-0.00000014,0.00021284,0.00105576,0.00036415
 ,-0.00039396,0.00021643,0.00021864,0.01434436,0.00055881,-0.44628550,-
 0.11524752,0.00001494,-0.00399639,-0.01359247,-0.00000604,-0.00332837,
 0.00706687,0.00000641,0.00155410,-0.00021360,-0.00015475,-0.00036733,-
 0.00029763,-0.00003115,0.00011663,0.00017896,-0.00000049,0.00007593,-0
 .00013675,-0.00000040,0.00036769,0.00004975,0.00015633,-0.00036431,-0.
 00029665,0.00002979,0.00011725,0.00017952,-0.00057412,0.45205513,0.000
 09705,-0.06837890,-0.07064885,0.00008233,-0.06124192,-0.02039490,-0.00
 001030,0.00550241,0.00808872,0.00000059,0.00173239,-0.00531649,-0.0002
 3364,-0.00074131,-0.00030713,-0.00007959,0.00020968,0.00016353,-0.0000
 0028,0.00025565,-0.00049376,-0.00000106,0.00079003,0.00038564,0.000235
 73,-0.00074023,-0.00030686,0.00007881,0.00020998,0.00016367,-0.0001701
 0,0.12263431,0.08890506,0.00019261,0.00027651,-0.00035342,0.00023381,-
 0.00196019,0.00104317,-0.00016841,0.00066395,-0.00094958,0.00084778,-0
 .01757373,0.01807557,-0.04153824,0.00598116,-0.00142694,-0.01370318,0.
 01244284,-0.02337310,-0.00461209,0.00211401,0.00242204,0.00010075,0.00
 023432,-0.00025708,0.00020548,-0.00110410,0.00165767,0.00044716,0.0001
 2109,-0.00039428,-0.00003466,0.00005644,0.00004089,0.05803546,0.000119
 42,-0.00015124,0.00068261,-0.00004817,0.00095937,-0.00185965,0.0001032
 8,-0.00087012,-0.00021705,0.00065312,0.00329241,-0.00411733,0.00431220
 ,-0.19530921,0.14485329,-0.00395469,0.00649305,-0.00813161,0.00092512,
 -0.00057422,-0.00083475,-0.00037383,0.00013052,0.00061300,-0.00008952,
 0.00028546,0.00024435,0.00007891,-0.00000844,-0.00028727,0.00004561,-0
 .00002815,-0.00010521,-0.00155803,0.19914193,0.00025451,-0.00039338,0.
 00119434,-0.00035684,0.00370158,-0.00308600,-0.00091656,-0.00101409,0.
 00219544,0.00121349,0.01313652,-0.01379987,0.00125711,0.14145206,-0.19
 090060,-0.00732748,0.00511669,-0.00911736,0.00361982,-0.00187411,-0.00
 140698,-0.00031875,-0.00018651,0.00059541,-0.00109765,0.00003472,0.000
 13587,-0.00028392,-0.00029809,0.00020794,-0.00000064,-0.00008917,-0.00
 017923,0.00298812,-0.15076041,0.20074963,0.00041647,0.00140442,0.00134
 937,-0.00448893,-0.00281644,0.00144511,0.00050207,0.00086789,0.0000663
 9,-0.00079754,0.02391299,0.01012406,-0.04275124,0.01021313,0.00737205,
 -0.01213385,-0.02150570,-0.01678849,0.00046430,0.00087493,-0.00044020,
 -0.00041356,-0.00125283,0.00025930,0.00078156,0.00117931,0.00090535,0.
 00026423,-0.00033635,-0.00029602,0.00015107,0.00000961,0.00018293,0.00
 125143,-0.00006320,0.00106573,0.05778907,0.00013330,-0.00001906,-0.000
 21412,-0.00001137,-0.00048682,0.00066220,0.00014707,0.00028885,-0.0006
 0678,0.00016650,0.00019667,-0.00024974,0.01147659,-0.28990888,-0.10455
 602,-0.00011902,0.00385855,0.00123859,0.00022386,-0.00013348,0.0001878
 8,-0.00143993,-0.00174291,0.00223838,0.00001915,0.00004671,-0.00020067
 ,-0.00010129,0.00016057,0.00019399,0.00005163,0.00007148,0.00005505,0.
 00131221,-0.01385144,-0.00944642,-0.01208672,0.30150876,-0.00017492,-0
 .00077511,-0.00029991,0.00343565,0.00272012,-0.00164051,-0.00079861,-0
 .00054086,0.00095701,0.00327901,-0.01862944,-0.00804826,0.00872594,-0.
 10264064,-0.09537966,-0.00758234,-0.01103475,-0.00742365,-0.00043606,-
 0.00198967,-0.00032180,-0.00001889,0.00138636,0.00018474,-0.00097785,-
 0.00000015,0.00009037,-0.00007095,0.00028774,-0.00003897,-0.00025351,-
 0.00007780,-0.00018337,-0.00028809,0.01993415,0.01302527,-0.00508507,0
 .11091881,0.09827155,0.00028156,0.00095772,-0.00074482,0.00019943,0.00
 005501,0.00239313,-0.00009164,0.00010820,-0.00073859,0.00291961,-0.000
 61339,-0.00172133,-0.00023693,0.00029844,-0.00089940,0.00004387,-0.000
 17301,0.00053927,-0.24705404,0.02153723,0.13539724,0.00612070,-0.00289
 627,-0.00443755,0.00029467,-0.00037044,-0.00036523,-0.00112392,0.00063
 151,-0.00112296,0.00014689,0.00008731,-0.00033208,0.00016858,0.0000727
 5,-0.00015168,-0.00003109,-0.00005034,0.00001963,0.25381327,-0.0001960
 5,-0.00205327,-0.00106068,-0.00095322,0.00086266,0.00156524,0.00008839
 ,0.00004608,-0.00045376,-0.01794698,0.00381683,0.01154651,0.00124439,-
 0.00332073,0.00331841,0.00027114,0.00001724,-0.00004443,0.02343118,-0.
 04268405,-0.01306661,0.01841076,-0.01805614,-0.01886408,-0.00073079,0.
 00049085,-0.00043045,0.00077830,-0.00020351,-0.00000368,-0.00007983,-0
 .00001552,-0.00006602,-0.00112677,0.00025421,0.00083451,-0.00002788,-0
 .00013526,0.00009191,-0.02147698,0.05935116,-0.00038569,-0.00118032,-0
 .00001912,0.00050906,-0.00015397,-0.00043374,-0.00026449,-0.00000071,0
 .00008759,0.01954037,-0.00115022,-0.01325593,-0.00191397,0.00382938,-0
 .00292758,-0.00027795,-0.00023954,0.00070662,0.13358459,-0.01077595,-0
 .14151847,0.00463590,-0.00566892,-0.00385147,0.00213717,-0.00064070,-0
 .00046934,-0.00067566,-0.00024968,0.00109696,-0.00014705,0.00000411,0.
 00024317,0.00112964,-0.00021891,-0.00066147,-0.00013819,-0.00017602,0.
 00024534,-0.14280207,0.01420889,0.14760358,0.00028293,-0.00095134,0.00
 074761,0.00019853,-0.00005660,-0.00239676,-0.00009161,-0.00010854,0.00
 073964,0.00288135,0.00061158,0.00169985,0.00029273,0.00037024,0.000366
 64,-0.00112125,-0.00063371,0.00112199,-0.24681725,-0.02204293,-0.13541
 234,0.00615942,0.00295943,0.00448930,-0.00023437,-0.00029247,0.0008923
 3,0.00004423,0.00017320,-0.00053946,0.00014669,-0.00008691,0.00033220,
 -0.00011405,-0.00009361,-0.00022271,-0.00008508,0.00004977,-0.00001470
 ,-0.01525135,-0.00183225,-0.01474814,0.25357401,0.00020240,-0.00205527
 ,-0.00105873,0.00095085,0.00086489,0.00155969,-0.00008853,0.00004558,-
 0.00045195,0.01793934,0.00386320,0.01155900,0.00073048,0.00049359,-0.0
 0042922,-0.00078060,-0.00020704,-0.00000122,-0.02393587,-0.04279783,-0
 .01341612,-0.01834156,-0.01809482,-0.01886135,-0.00123819,-0.00332457,
 0.00332009,-0.00027105,0.00001700,-0.00004590,0.00008027,-0.00001554,-
 0.00006514,-0.00001601,-0.00006391,-0.00008942,-0.00013076,-0.00006277
 ,0.00014026,0.00178863,0.00175565,0.00233669,0.02195633,0.05946005,0.0
 0038879,-0.00117983,-0.00001860,-0.00050839,-0.00015527,-0.00043506,0.
 00026441,-0.00000011,0.00008805,-0.01953005,-0.00119880,-0.01326409,-0
 .00213520,-0.00064587,-0.00047015,0.00067530,-0.00024826,0.00109775,-0
 .13360544,-0.01112005,-0.14164163,-0.00461713,-0.00567917,-0.00385155,
 0.00190563,0.00383401,-0.00292630,0.00027825,-0.00023877,0.00070650,0.
 00014699,0.00000444,0.00024339,0.00003017,0.00006144,0.00024462,0.0001
 5301,0.00001488,-0.00011771,0.01472930,0.00237274,0.01302694,0.1428145
 7,0.01457604,0.14773435,0.00042085,-0.00140297,-0.00134850,-0.00449375
 ,0.00280521,-0.00144806,0.00050427,-0.00086711,-0.00006507,-0.00073134
 ,-0.02390684,-0.01012012,0.00078451,-0.00117746,-0.00090453,0.00026298
 ,0.00033647,0.00029567,0.00046664,-0.00087251,0.00044009,-0.00042022,0
 .00125554,-0.00026519,-0.04269152,-0.00954898,-0.00708699,-0.01219885,
 0.02147060,0.01678321,0.00015119,-0.00000938,-0.00018291,0.00004800,0.
 00003103,0.00005111,-0.00096691,0.00020845,0.00012364,-0.00008522,0.00
 013064,-0.00015303,-0.00003134,0.00002809,0.00013851,0.05772588,-0.000
 13211,-0.00002290,-0.00021755,0.00000106,-0.00047978,0.00065859,-0.000
 14626,0.00028632,-0.00060702,-0.00016869,0.00013654,-0.00027508,-0.000
 01722,0.00004372,-0.00020293,0.00010145,0.00016167,0.00019477,-0.00022
 244,-0.00013623,0.00018888,0.00144225,-0.00173621,0.00223839,-0.010811
 57,-0.28996129,-0.10457930,0.00007835,0.00391248,0.00128057,-0.0000514
 5,0.00007132,0.00005456,-0.00001971,-0.00010135,-0.00011276,-0.0002116
 6,0.00031042,0.00005309,-0.00004983,-0.00006256,0.00001447,0.00005068,
 -0.00013506,-0.00017565,0.01142734,0.30156742,0.00017718,-0.00077530,-
 0.00030044,-0.00344372,0.00271281,-0.00164273,0.00079975,-0.00053927,0
 .00095735,-0.00322915,-0.01864843,-0.00805435,0.00097816,0.00000175,0.
 00009041,0.00007037,0.00028807,-0.00003881,0.00044140,-0.00198895,-0.0
 0032140,0.00001512,0.00138700,0.00018461,-0.00844564,-0.10266677,-0.09
 538710,0.00760771,-0.01100601,-0.00741258,0.00025386,-0.00007717,-0.00
 018333,-0.00011750,0.00015568,0.00001547,-0.00012452,0.00005288,0.0006
 6406,0.00001437,0.00014036,-0.00011777,-0.00001999,0.00009187,0.000245
 40,0.00478965,0.11093665,0.09827630,0.00019355,-0.00027547,0.00035126,
 0.00022912,0.00195668,-0.00103702,-0.00016734,-0.00066173,0.00094905,0
 .00081432,0.01756158,-0.01805855,0.00020276,0.00110387,-0.00165824,0.0
 0044735,-0.00011982,0.00039510,-0.00460173,-0.00212322,-0.00242141,0.0
 0010014,-0.00023431,0.00025532,-0.04151325,-0.00566130,0.00113300,-0.0
 1369581,-0.01249560,0.02339124,-0.00003439,-0.00005641,-0.00004057,-0.
 00136045,-0.00016040,0.00022634,0.00004800,0.00002013,0.00011712,-0.00
 011441,0.00001592,-0.00003048,0.00016639,0.00112617,-0.00112871,0.0012
 5483,-0.00127019,0.00023295,0.05803093,-0.00011888,-0.00015223,0.00068
 343,0.00004719,0.00096438,-0.00186223,-0.00010142,-0.00087201,-0.00021
 472,-0.00065744,0.00333464,-0.00416274,0.00008920,0.00028844,0.0002402
 5,-0.00007764,-0.00000893,-0.00028632,-0.00093479,-0.00058182,-0.00084
 122,0.00037346,0.00013088,0.00061380,-0.00399389,-0.19533451,0.1448546
 3,0.00390795,0.00647174,-0.00807140,-0.00004558,-0.00002841,-0.0001053
 3,0.00015601,0.00040113,-0.00001170,-0.00003073,-0.00010137,0.00015596
 ,0.00009346,-0.00006364,0.00006140,-0.00007287,0.00025684,-0.00022176,
 0.00009188,-0.01385450,0.01993481,0.00127409,0.19914939,-0.00025399,-0
 .00039413,0.00119438,0.00034911,0.00370334,-0.00308631,0.00091801,-0.0
 0101210,0.00219628,-0.00123965,0.01314145,-0.01380863,0.00109759,0.000
 03796,0.00013562,0.00028477,-0.00029743,0.00020824,-0.00361658,-0.0018
 8411,-0.00140973,0.00031899,-0.00018581,0.00059567,-0.00154253,0.14144
 595,-0.19090034,0.00731260,0.00512933,-0.00910341,0.00000093,-0.000089
 20,-0.00017925,-0.00022729,-0.00001234,0.00078752,-0.00005081,-0.00011
 288,0.00001550,0.00022277,-0.00008886,0.00024471,0.00014997,0.00083539
 ,-0.00066192,-0.00104748,-0.00944969,0.01302492,-0.00267641,-0.1507668
 6,0.20074675\\-0.00000005,0.00000163,-0.00000081,0.00000011,0.00000085
 ,-0.00000210,0.,-0.00000061,-0.00000191,-0.00000012,0.00000016,0.00000
 034,-0.00000003,-0.00000098,0.00000010,0.00000004,-0.00000008,0.,-0.00
 000004,0.00000064,0.00000088,0.00000007,0.00000052,0.00000260,0.000000
 05,-0.00000096,-0.00000003,0.00000001,-0.00000010,0.00000002,0.,0.0000
 0175,-0.00000226,0.,-0.00000160,-0.00000050,-0.00000005,-0.00000136,0.
 00000113,0.00000001,0.00000153,0.00000094,-0.00000002,0.00000151,0.000
 00093,0.00000003,-0.00000131,0.00000115,-0.00000003,-0.00000160,-0.000
 00048\\\@


 EDUCATION IS NOT TRAINING BUT RATHER THE PROCESS THAT EQUIPS YOU TO
 ENTERTAIN YOURSELF, A FRIEND, OR AN IDEA.  -- WALLACE STERLING
 File lengths (MBytes):  RWF=     72 Int=      0 D2E=      0 Chk=      3 Scr=      1
 Normal termination of Gaussian 16 at Fri Mar 29 15:43:22 2024.
real 592.61
user 2159.18
sys 14.90
