 Entering Gaussian System, Link 0=g16
 Input=gaussian_test.inp
 Output=gaussian_test.log
 Initial command:
 /sw/restricted/lms/sw/Gaussian/g16_B01/g16/l1.exe "/scratch/user/peterchao1/peterchao1/8496972_1687885243000000016746278/Gau-114971.inp" -scrdir="/scratch/user/peterchao1/peterchao1/8496972_1687885243000000016746278/"
 Entering Link 1 = /sw/restricted/lms/sw/Gaussian/g16_B01/g16/l1.exe PID=    114972.
  
 Copyright (c) 1988-2017, Gaussian, Inc.  All Rights Reserved.
  
 This is part of the Gaussian(R) 16 program.  It is based on
 the Gaussian(R) 09 system (copyright 2009, Gaussian, Inc.),
 the Gaussian(R) 03 system (copyright 2003, Gaussian, Inc.),
 the Gaussian(R) 98 system (copyright 1998, Gaussian, Inc.),
 the Gaussian(R) 94 system (copyright 1995, Gaussian, Inc.),
 the Gaussian 92(TM) system (copyright 1992, Gaussian, Inc.),
 the Gaussian 90(TM) system (copyright 1990, Gaussian, Inc.),
 the Gaussian 88(TM) system (copyright 1988, Gaussian, Inc.),
 the Gaussian 86(TM) system (copyright 1986, Carnegie Mellon
 University), and the Gaussian 82(TM) system (copyright 1983,
 Carnegie Mellon University). Gaussian is a federally registered
 trademark of Gaussian, Inc.
  
 This software contains proprietary and confidential information,
 including trade secrets, belonging to Gaussian, Inc.
  
 This software is provided under written license and may be
 used, copied, transmitted, or stored only in accord with that
 written license.
  
 The following legend is applicable only to US Government
 contracts under FAR:
  
                    RESTRICTED RIGHTS LEGEND
  
 Use, reproduction and disclosure by the US Government is
 subject to restrictions as set forth in subparagraphs (a)
 and (c) of the Commercial Computer Software - Restricted
 Rights clause in FAR 52.227-19.
  
 Gaussian, Inc.
 340 Quinnipiac St., Bldg. 40, Wallingford CT 06492
  
  
 ---------------------------------------------------------------
 Warning -- This program may not be used in any manner that
 competes with the business of Gaussian, Inc. or will provide
 assistance to any competitor of Gaussian, Inc.  The licensee
 of this program is prohibited from giving any competitor of
 Gaussian, Inc. access to this program.  By using this program,
 the user acknowledges that Gaussian, Inc. is engaged in the
 business of creating and licensing software in the field of
 computational chemistry and represents and warrants to the
 licensee that it is not a competitor of Gaussian, Inc. and that
 it will not use this program in any manner prohibited above.
 ---------------------------------------------------------------
  

 Cite this work as:
 Gaussian 16, Revision B.01,
 M. J. Frisch, G. W. Trucks, H. B. Schlegel, G. E. Scuseria, 
 M. A. Robb, J. R. Cheeseman, G. Scalmani, V. Barone, 
 G. A. Petersson, H. Nakatsuji, X. Li, M. Caricato, A. V. Marenich, 
 J. Bloino, B. G. Janesko, R. Gomperts, B. Mennucci, H. P. Hratchian, 
 J. V. Ortiz, A. F. Izmaylov, J. L. Sonnenberg, D. Williams-Young, 
 F. Ding, F. Lipparini, F. Egidi, J. Goings, B. Peng, A. Petrone, 
 T. Henderson, D. Ranasinghe, V. G. Zakrzewski, J. Gao, N. Rega, 
 G. Zheng, W. Liang, M. Hada, M. Ehara, K. Toyota, R. Fukuda, 
 J. Hasegawa, M. Ishida, T. Nakajima, Y. Honda, O. Kitao, H. Nakai, 
 T. Vreven, K. Throssell, J. A. Montgomery, Jr., J. E. Peralta, 
 F. Ogliaro, M. J. Bearpark, J. J. Heyd, E. N. Brothers, K. N. Kudin, 
 V. N. Staroverov, T. A. Keith, R. Kobayashi, J. Normand, 
 K. Raghavachari, A. P. Rendell, J. C. Burant, S. S. Iyengar, 
 J. Tomasi, M. Cossi, J. M. Millam, M. Klene, C. Adamo, R. Cammi, 
 J. W. Ochterski, R. L. Martin, K. Morokuma, O. Farkas, 
 J. B. Foresman, and D. J. Fox, Gaussian, Inc., Wallingford CT, 2016.
 
 ******************************************
 Gaussian 16:  ES64L-G16RevB.01 20-Dec-2017
                27-Jun-2023 
 ******************************************
 %chk=43.chk
 %nprocshared=4
 Will use up to    4 processors via shared memory.
 %mem=8000mb
 --------------------------------------------------------------
 #T wB97XD//def2svpp Volume=tight Geom=AllCheckpoint Guess=Read
 --------------------------------------------------------------
 Structure from the checkpoint file:  "43.chk"
 -------
 Monomer
 -------
 Charge =  0 Multiplicity = 1
 Redundant internal coordinates found in file.  (old form).
 C,0,-0.5924,1.693246,-0.483092
 C,0,-0.002441,0.36439,0.000999
 C,0,-0.008798,0.332414,1.536016
 C,0,-0.830957,-0.810207,-0.557237
 N,0,-2.193792,-0.833641,-0.03643
 C,0,1.443171,0.247075,-0.521832
 N,0,2.137152,-0.937904,-0.037825
 H,0,-1.663299,1.745395,-0.226625
 H,0,-0.500114,1.790538,-1.580679
 H,0,-0.074963,2.554415,-0.022392
 H,0,-1.020933,0.536216,1.926003
 H,0,0.666067,1.104569,1.950114
 H,0,0.314441,-0.651715,1.92174
 H,0,-0.264639,-1.745242,-0.371808
 H,0,-0.89515,-0.688786,-1.654132
 H,0,-2.21589,-1.236506,0.900091
 H,0,-2.788518,-1.420327,-0.619168
 H,0,1.973394,1.196149,-0.279692
 H,0,1.406991,0.186548,-1.624914
 H,0,2.426172,-0.822103,0.932947
 H,0,2.98147,-1.109846,-0.580828
 Recover connectivity data from disk.
                           ----------------------------
                           !    Current Parameters    !
                           ! (Angstroms and Degrees)  !
 --------------------------                            --------------------------
 ! Name  Definition              Value                                          !
 --------------------------------------------------------------------------------
 ! R1    R(1,2)                  1.5324                                         !
 ! R2    R(1,8)                  1.1024                                         !
 ! R3    R(1,9)                  1.1057                                         !
 ! R4    R(1,10)                 1.1053                                         !
 ! R5    R(2,3)                  1.5354                                         !
 ! R6    R(2,4)                  1.542                                          !
 ! R7    R(2,6)                  1.5417                                         !
 ! R8    R(3,11)                 1.1036                                         !
 ! R9    R(3,12)                 1.106                                          !
 ! R10   R(3,13)                 1.1053                                         !
 ! R11   R(4,5)                  1.4591                                         !
 ! R12   R(4,14)                 1.1088                                         !
 ! R13   R(4,15)                 1.1055                                         !
 ! R14   R(5,16)                 1.0197                                         !
 ! R15   R(5,17)                 1.0186                                         !
 ! R16   R(6,7)                  1.456                                          !
 ! R17   R(6,18)                 1.1138                                         !
 ! R18   R(6,19)                 1.1053                                         !
 ! R19   R(7,20)                 1.0195                                         !
 ! R20   R(7,21)                 1.0185                                         !
 ! A1    A(2,1,8)              109.9691                                         !
 ! A2    A(2,1,9)              110.9615                                         !
 ! A3    A(2,1,10)             111.3306                                         !
 ! A4    A(8,1,9)              107.9289                                         !
 ! A5    A(8,1,10)             108.7202                                         !
 ! A6    A(9,1,10)             107.8256                                         !
 ! A7    A(1,2,3)              109.4083                                         !
 ! A8    A(1,2,4)              109.8366                                         !
 ! A9    A(1,2,6)              108.6536                                         !
 ! A10   A(3,2,4)              110.1117                                         !
 ! A11   A(3,2,6)              109.9587                                         !
 ! A12   A(4,2,6)              108.8489                                         !
 ! A13   A(2,3,11)             110.6852                                         !
 ! A14   A(2,3,12)             110.9328                                         !
 ! A15   A(2,3,13)             111.4825                                         !
 ! A16   A(11,3,12)            107.3601                                         !
 ! A17   A(11,3,13)            108.0163                                         !
 ! A18   A(12,3,13)            108.2105                                         !
 ! A19   A(2,4,5)              112.6348                                         !
 ! A20   A(2,4,14)             107.9027                                         !
 ! A21   A(2,4,15)             107.8635                                         !
 ! A22   A(5,4,14)             113.8166                                         !
 ! A23   A(5,4,15)             107.559                                          !
 ! A24   A(14,4,15)            106.7518                                         !
 ! A25   A(4,5,16)             110.7557                                         !
 ! A26   A(4,5,17)             110.5113                                         !
 ! A27   A(16,5,17)            106.572                                          !
 ! A28   A(2,6,7)              113.3352                                         !
 ! A29   A(2,6,18)             107.9274                                         !
 ! A30   A(2,6,19)             108.1741                                         !
 ! A31   A(7,6,18)             113.2235                                         !
 ! A32   A(7,6,19)             107.6242                                         !
 ! A33   A(18,6,19)            106.2127                                         !
 ! A34   A(6,7,20)             111.0517                                         !
 ! A35   A(6,7,21)             110.8111                                         !
 ! A36   A(20,7,21)            106.968                                          !
 ! D1    D(8,1,2,3)            -66.8076                                         !
 ! D2    D(8,1,2,4)             54.1673                                         !
 ! D3    D(8,1,2,6)            173.1323                                         !
 ! D4    D(9,1,2,3)            173.8558                                         !
 ! D5    D(9,1,2,4)            -65.1693                                         !
 ! D6    D(9,1,2,6)             53.7957                                         !
 ! D7    D(10,1,2,3)            53.7552                                         !
 ! D8    D(10,1,2,4)           174.7301                                         !
 ! D9    D(10,1,2,6)           -66.305                                          !
 ! D10   D(1,2,3,11)            53.9755                                         !
 ! D11   D(1,2,3,12)           -65.0961                                         !
 ! D12   D(1,2,3,13)           174.2324                                         !
 ! D13   D(4,2,3,11)           -66.8322                                         !
 ! D14   D(4,2,3,12)           174.0961                                         !
 ! D15   D(4,2,3,13)            53.4246                                         !
 ! D16   D(6,2,3,11)           173.2328                                         !
 ! D17   D(6,2,3,12)            54.1612                                         !
 ! D18   D(6,2,3,13)           -66.5104                                         !
 ! D19   D(1,2,4,5)            -65.2493                                         !
 ! D20   D(1,2,4,14)           168.2757                                         !
 ! D21   D(1,2,4,15)            53.2928                                         !
 ! D22   D(3,2,4,5)             55.301                                          !
 ! D23   D(3,2,4,14)           -71.1739                                         !
 ! D24   D(3,2,4,15)           173.8432                                         !
 ! D25   D(6,2,4,5)            175.9058                                         !
 ! D26   D(6,2,4,14)            49.4308                                         !
 ! D27   D(6,2,4,15)           -65.5521                                         !
 ! D28   D(1,2,6,7)            175.7249                                         !
 ! D29   D(1,2,6,18)            49.5021                                         !
 ! D30   D(1,2,6,19)           -65.0214                                         !
 ! D31   D(3,2,6,7)             56.0073                                         !
 ! D32   D(3,2,6,18)           -70.2155                                         !
 ! D33   D(3,2,6,19)           175.261                                          !
 ! D34   D(4,2,6,7)            -64.6916                                         !
 ! D35   D(4,2,6,18)           169.0856                                         !
 ! D36   D(4,2,6,19)            54.5621                                         !
 ! D37   D(2,4,5,16)           -79.5674                                         !
 ! D38   D(2,4,5,17)           162.5643                                         !
 ! D39   D(14,4,5,16)           43.6698                                         !
 ! D40   D(14,4,5,17)          -74.1985                                         !
 ! D41   D(15,4,5,16)          161.7123                                         !
 ! D42   D(15,4,5,17)           43.844                                          !
 ! D43   D(2,6,7,20)           -75.9506                                         !
 ! D44   D(2,6,7,21)           165.3098                                         !
 ! D45   D(18,6,7,20)           47.4094                                         !
 ! D46   D(18,6,7,21)          -71.3302                                         !
 ! D47   D(19,6,7,20)          164.4806                                         !
 ! D48   D(19,6,7,21)           45.741                                          !
 --------------------------------------------------------------------------------
                    Distance matrix (angstroms):
                    1          2          3          4          5
     1  C    0.000000
     2  C    1.532401   0.000000
     3  C    2.503847   1.535363   0.000000
     4  C    2.515886   1.541994   2.522546   0.000000
     5  N    3.024751   2.497739   2.933678   1.459146   0.000000
     6  C    2.497291   1.541723   2.519967   2.508138   3.825057
     7  N    3.817285   2.505062   2.948862   3.015919   4.332199
     8  H    1.102415   2.171966   2.800141   2.707988   2.639891
     9  H    1.105748   2.187072   3.475817   2.814385   3.484188
    10  H    1.105259   2.191350   2.714830   3.489737   3.996068
    11  H    2.706676   2.184603   1.103650   2.831153   2.665192
    12  H    2.801923   2.189479   1.105958   3.492028   3.985199
    13  H    3.479141   2.195935   1.105340   2.735395   3.187281
    14  H    3.455866   2.158305   2.832296   1.108779   2.159890
    15  H    2.671529   2.155358   3.464897   1.105460   2.079522
    16  H    3.623860   2.875864   2.781576   2.055134   1.019735
    17  H    3.812583   3.366311   3.929855   2.051372   1.018569
    18  H    2.621407   2.162067   2.823459   3.459318   4.641623
    19  H    2.751629   2.159102   3.466585   2.672427   4.065674
    20  H    4.176592   2.859100   2.761463   3.581854   4.720582
    21  H    4.543063   3.378701   3.937365   3.824257   5.211141
                    6          7          8          9         10
     6  C    0.000000
     7  N    1.456038   0.000000
     8  H    3.461541   4.656089   0.000000
     9  H    2.698109   4.096336   1.785637   0.000000
    10  H    2.806776   4.134003   1.794167   1.786762   0.000000
    11  H    3.485299   4.000394   2.551187   3.760505   2.960444
    12  H    2.729415   3.207443   3.251891   3.781141   2.557725
    13  H    2.837763   2.691482   3.777971   4.346842   3.769689
    14  H    2.628393   2.555766   3.763227   3.744136   4.317999
    15  H    2.761464   3.445194   2.924563   2.511672   3.722047
    16  H    4.196618   4.462939   3.235209   4.273301   4.450351
    17  H    4.549384   4.983264   3.382603   4.058442   4.849546
    18  H    1.113782   2.153950   3.678318   2.857290   2.471205
    19  H    1.105334   2.077590   3.716436   2.492346   3.220413
    20  H    2.055679   1.019481   4.965927   4.659116   4.309202
    21  H    2.052091   1.018474   5.463675   4.640405   4.804211
                   11         12         13         14         15
    11  H    0.000000
    12  H    1.780330   0.000000
    13  H    1.787295   1.791362   0.000000
    14  H    3.325202   3.791960   2.606050   0.000000
    15  H    3.786003   4.317883   3.775095   1.777076   0.000000
    16  H    2.371278   3.858608   2.790757   2.384097   2.927184
    17  H    3.664739   4.991039   4.083544   2.556701   2.278408
    18  H    3.777115   2.586412   3.318588   3.697169   3.697379
    19  H    4.315796   3.764646   3.804616   2.845423   2.463111
    20  H    3.835847   2.800833   2.337980   3.129702   4.212117
    21  H    5.001295   4.082939   3.685889   3.314309   4.044435
                   16         17         18         19         20
    16  H    0.000000
    17  H    1.633965   0.000000
    18  H    4.985960   5.443987   0.000000
    19  H    4.639612   4.603897   1.774748   0.000000
    20  H    4.660638   5.473566   2.397674   2.932364   0.000000
    21  H    5.405711   5.778463   2.534662   2.291230   1.637885
                   21
    21  H    0.000000
 Framework group  C1[X(C5H14N2)]
 Deg. of freedom    57
                         Standard orientation:                         
 ---------------------------------------------------------------------
 Center     Atomic      Atomic             Coordinates (Angstroms)
 Number     Number       Type             X           Y           Z
 ---------------------------------------------------------------------
      1          6           0       -0.592401    1.693246   -0.483092
      2          6           0       -0.002441    0.364390    0.000999
      3          6           0       -0.008798    0.332414    1.536016
      4          6           0       -0.830957   -0.810207   -0.557237
      5          7           0       -2.193792   -0.833642   -0.036430
      6          6           0        1.443171    0.247076   -0.521832
      7          7           0        2.137152   -0.937903   -0.037825
      8          1           0       -1.663300    1.745394   -0.226625
      9          1           0       -0.500115    1.790538   -1.580679
     10          1           0       -0.074964    2.554415   -0.022392
     11          1           0       -1.020933    0.536216    1.926003
     12          1           0        0.666067    1.104569    1.950114
     13          1           0        0.314441   -0.651715    1.921740
     14          1           0       -0.264638   -1.745242   -0.371808
     15          1           0       -0.895150   -0.688786   -1.654132
     16          1           0       -2.215890   -1.236507    0.900091
     17          1           0       -2.788517   -1.420328   -0.619168
     18          1           0        1.973394    1.196150   -0.279692
     19          1           0        1.406991    0.186549   -1.624914
     20          1           0        2.426172   -0.822102    0.932947
     21          1           0        2.981470   -1.109845   -0.580828
 ---------------------------------------------------------------------
 Rotational constants (GHZ):           3.2953630           1.8855945           1.6774564
   126 basis functions,   231 primitive gaussians,   133 cartesian basis functions
    29 alpha electrons       29 beta electrons
       nuclear repulsion energy       344.0301549092 Hartrees.
 NAtoms=   21 NActive=   21 NUniq=   21 SFac= 1.00D+00 NAtFMM=   60 NAOKFM=F Big=F
 Nuclear repulsion after empirical dispersion term =      344.0154061410 Hartrees.
   1 Symmetry operations used in ECPInt.
 ECPInt:  NShTT=    2485 NPrTT=   10003 LenC2=    2479 LenP2D=    8164.
 LDataN:  DoStor=T MaxTD1= 4 Len=   56
 Initial guess from the checkpoint file:  "43.chk"
 B after Tr=     0.000000    0.000000    0.000000
         Rot=    1.000000   -0.000000    0.000000    0.000000 Ang=   0.00 deg.
 Skip diagonalization as Alpha Fock matrix is already diagonal.
 SCF Done:  E(RwB97XD) =  -308.108214407     A.U. after    1 cycles
            NFock=  1  Conv=0.00D+00     -V/T= 2.0107

 **********************************************************************

            Population analysis using the SCF Density.

 **********************************************************************

 Orbital symmetries:
       Occupied  (A) (A) (A) (A) (A) (A) (A) (A) (A) (A) (A) (A)
                 (A) (A) (A) (A) (A) (A) (A) (A) (A) (A) (A) (A)
                 (A) (A) (A) (A) (A)
       Virtual   (A) (A) (A) (A) (A) (A) (A) (A) (A) (A) (A) (A)
                 (A) (A) (A) (A) (A) (A) (A) (A) (A) (A) (A) (A)
                 (A) (A) (A) (A) (A) (A) (A) (A) (A) (A) (A) (A)
                 (A) (A) (A) (A) (A) (A) (A) (A) (A) (A) (A) (A)
                 (A) (A) (A) (A) (A) (A) (A) (A) (A) (A) (A) (A)
                 (A) (A) (A) (A) (A) (A) (A) (A) (A) (A) (A) (A)
                 (A) (A) (A) (A) (A) (A) (A) (A) (A) (A) (A) (A)
                 (A) (A) (A) (A) (A) (A) (A) (A) (A) (A) (A) (A)
                 (A)
 The electronic state is 1-A.
 Alpha  occ. eigenvalues --  -14.41249 -14.40604 -10.30687 -10.29618 -10.29201
 Alpha  occ. eigenvalues --  -10.27381 -10.26465  -0.97634  -0.95836  -0.87629
 Alpha  occ. eigenvalues --   -0.76665  -0.74511  -0.72624  -0.61165  -0.58341
 Alpha  occ. eigenvalues --   -0.56558  -0.54499  -0.53011  -0.51977  -0.48569
 Alpha  occ. eigenvalues --   -0.47714  -0.45738  -0.44462  -0.43413  -0.40344
 Alpha  occ. eigenvalues --   -0.39732  -0.39114  -0.32108  -0.29617
 Alpha virt. eigenvalues --    0.13015   0.15029   0.16490   0.17564   0.19707
 Alpha virt. eigenvalues --    0.20208   0.21219   0.22049   0.23480   0.24447
 Alpha virt. eigenvalues --    0.25557   0.26207   0.26582   0.27737   0.29306
 Alpha virt. eigenvalues --    0.32088   0.32775   0.34313   0.34980   0.37154
 Alpha virt. eigenvalues --    0.50377   0.51767   0.53853   0.56520   0.58273
 Alpha virt. eigenvalues --    0.60455   0.62872   0.66898   0.68980   0.69356
 Alpha virt. eigenvalues --    0.73204   0.73689   0.74368   0.74660   0.76952
 Alpha virt. eigenvalues --    0.77433   0.78379   0.79723   0.80644   0.81788
 Alpha virt. eigenvalues --    0.82476   0.83894   0.84760   0.85174   0.85547
 Alpha virt. eigenvalues --    0.86390   0.86739   0.87944   0.92594   0.95028
 Alpha virt. eigenvalues --    0.96103   0.96716   1.03854   1.06682   1.09892
 Alpha virt. eigenvalues --    1.14486   1.16419   1.26502   1.28338   1.29373
 Alpha virt. eigenvalues --    1.36003   1.41395   1.49364   1.51504   1.77370
 Alpha virt. eigenvalues --    1.78807   1.80597   1.89314   1.91646   1.94717
 Alpha virt. eigenvalues --    2.03203   2.07204   2.09347   2.12033   2.13850
 Alpha virt. eigenvalues --    2.15763   2.18525   2.21373   2.22935   2.26785
 Alpha virt. eigenvalues --    2.28043   2.29429   2.40417   2.43480   2.45557
 Alpha virt. eigenvalues --    2.49725   2.57785   2.60210   2.64113   2.66516
 Alpha virt. eigenvalues --    2.76693   2.77518   2.81576   2.86171   2.90649
 Alpha virt. eigenvalues --    3.07131   3.12494
          Condensed to atoms (all electrons):
 Mulliken charges:
               1
     1  C   -0.265884
     2  C   -0.218026
     3  C   -0.327920
     4  C   -0.056125
     5  N   -0.512928
     6  C   -0.045223
     7  N   -0.512962
     8  H    0.134958
     9  H    0.100914
    10  H    0.104079
    11  H    0.128183
    12  H    0.108995
    13  H    0.117328
    14  H    0.107246
    15  H    0.080755
    16  H    0.220110
    17  H    0.221030
    18  H    0.082142
    19  H    0.088185
    20  H    0.222422
    21  H    0.222719
 Sum of Mulliken charges =  -0.00000
 Mulliken charges with hydrogens summed into heavy atoms:
               1
     1  C    0.074068
     2  C   -0.218026
     3  C    0.026586
     4  C    0.131876
     5  N   -0.071788
     6  C    0.125104
     7  N   -0.067822
 Electronic spatial extent (au):  <R**2>=            896.1265
 Charge=             -0.0000 electrons
 Dipole moment (field-independent basis, Debye):
    X=              1.2426    Y=             -0.6922    Z=              0.1831  Tot=              1.4341
 Evaluate density.
 Using the total density.
 Monte-Carlo method of calculating molar volume:
 based on  0.001 e/bohr**3 density envelope.
 Number of points per bohr**3 =  100 CutOff= 1.00D-04
 Using the SCF density.
 There are      1794 points.  Will hold      1794 in memory.
 LenV=  1048313310 MDV=  1048576000.
 Box volume = 5774.407 fraction occupied=0.176
 Integrated density= 5.2284094278093555D+01 error=-5.7159057219064451D+00
 Molar volume = 1013.901 bohr**3/mol ( 90.479 cm**3/mol)
 Recommended a0 for SCRF calculation =  4.13 angstrom (  7.80 bohr)
 1\1\GINC-C358\SP\RwB97XD\def2SVPP\C5H14N2\PETERCHAO1\27-Jun-2023\0\\#T
  wB97XD//def2svpp Volume=tight Geom=AllCheckpoint Guess=Read\\Monomer\
 \0,1\C,0,-0.5924,1.693246,-0.483092\C,0,-0.002441,0.36439,0.000999\C,0
 ,-0.008798,0.332414,1.536016\C,0,-0.830957,-0.810207,-0.557237\N,0,-2.
 193792,-0.833641,-0.03643\C,0,1.443171,0.247075,-0.521832\N,0,2.137152
 ,-0.937904,-0.037825\H,0,-1.663299,1.745395,-0.226625\H,0,-0.500114,1.
 790538,-1.580679\H,0,-0.074963,2.554415,-0.022392\H,0,-1.020933,0.5362
 16,1.926003\H,0,0.666067,1.104569,1.950114\H,0,0.314441,-0.651715,1.92
 174\H,0,-0.264639,-1.745242,-0.371808\H,0,-0.89515,-0.688786,-1.654132
 \H,0,-2.21589,-1.236506,0.900091\H,0,-2.788518,-1.420327,-0.619168\H,0
 ,1.973394,1.196149,-0.279692\H,0,1.406991,0.186548,-1.624914\H,0,2.426
 172,-0.822103,0.932947\H,0,2.98147,-1.109846,-0.580828\\Version=ES64L-
 G16RevB.01\State=1-A\HF=-308.1082144\RMSD=0.000e+00\Dipole=0.4888672,-
 0.2723344,0.0720485\Quadrupole=1.9674204,-2.1544444,0.187024,2.8906842
 ,0.1922509,-0.052728\PG=C01 [X(C5H14N2)]\\@


 It is also a good rule not to put too much confidence in
 experimental results until they have been confirmed by
 Theory.
                             -- Sir Arthur Eddington
 File lengths (MBytes):  RWF=     10 Int=      0 D2E=      0 Chk=      3 Scr=      1
 Normal termination of Gaussian 16 at Tue Jun 27 12:10:28 2023.
