You are running Q-Chem version: 5.3.2

#
# job setting
#
local host:  tnxt-0325.cluster
current dir: /scratch/user/peterli3819/peterli3819/12613563_1663276865000000469923634
input file:  qchem_test.inp
output file: 
nprocs     : 0
nthreads   : 8
#
# qchem installation setting
#
QC:          /sw/restricted/qchem/sw/5.3.2
QCAUX:       /sw/restricted/qchem/sw/5.3.2/qcaux
QCPROG:      /sw/restricted/qchem/sw/5.3.2/exe/qcprog.exe_s
QCPROG_S:    /sw/restricted/qchem/sw/5.3.2/exe/qcprog.exe_s
PARALLEL:    -DSERIAL
QCMPI:       seq
#
# qchem directory setting
#
qcrun:       qchem39894
QCSCRATCH:   /scratch/user/peterli3819/peterli3819/12613563_1663276865000000469923634
QCLOCALSCR:  
QCTMPDIR:    /scratch/user/peterli3819/peterli3819/12613563_1663276865000000469923634
QCFILEPREF:  /scratch/user/peterli3819/peterli3819/12613563_1663276865000000469923634/qchem39894
QCSAVEDIR:   
workdirs:    /scratch/user/peterli3819/peterli3819/12613563_1663276865000000469923634/qchem39894
workdir0:    /scratch/user/peterli3819/peterli3819/12613563_1663276865000000469923634/qchem39894
partmpdirs =  
#
# parallel setting
#
QCRSH:           ssh
QCMPI:           seq
QCMPIRUN:        
QCMACHINEFILE:   /scratch/user/peterli3819/peterli3819/12613563_1663276865000000469923634/qchem39894/hostfile

#
# env setting
#
exported envs:   QC QCAUX QCSCRATCH QCRUNNAME QCFILEPREF QCPROG QCPROG_S GUIFILE

Running Job 1 of 1 qchem_test.inp
qchem qchem_test.inp_39894.0 /scratch/user/peterli3819/peterli3819/12613563_1663276865000000469923634/qchem39894/ 0
/sw/restricted/qchem/sw/5.3.2/exe/qcprog.exe_s qchem_test.inp_39894.0 /scratch/user/peterli3819/peterli3819/12613563_1663276865000000469923634/qchem39894/
                  Welcome to Q-Chem
     A Quantum Leap Into The Future Of Chemistry


 Q-Chem 5.3, Q-Chem, Inc., Pleasanton, CA (2020)

 License issued to: MRG Daniel Tabor and Mike Hall, Texas A&M University

 Yihan Shao,  Zhengting Gan,  E. Epifanovsky,  A. T. B. Gilbert,  M. Wormit,  
 J. Kussmann,  A. W. Lange,  A. Behn,  Jia Deng,  Xintian Feng,  D. Ghosh,  
 M. Goldey,  P. R. Horn,  L. D. Jacobson,  I. Kaliman,  T. Kus,  A. Landau,  
 Jie Liu,  E. I. Proynov,  R. M. Richard,  R. P. Steele,  E. J. Sundstrom,  
 H. L. Woodcock III,  P. M. Zimmerman,  D. Zuev,  B. Alam,  B. Albrecht,  
 A. Aldossary,  E. Alguire,  S. A. Baeppler,  D. Barton,  Z. Benda,  
 Y. A. Bernard,  E. J. Berquist,  K. B. Bravaya,  H. Burton,  K. Carter-Fenk,  
 D. Casanova,  Chun-Min Chang,  Yunqing Chen,  A. Chien,  K. D. Closser,  
 M. P. Coons,  S. Coriani,  S. Dasgupta,  A. L. Dempwolff,  M. Diedenhofen,  
 Hainam Do,  R. G. Edgar,  Po-Tung Fang,  S. Faraji,  S. Fatehi,  
 Qingguo Feng,  J. Fosso-Tande,  J. Gayvert,  Qinghui Ge,  A. Ghysels,  
 G. Gidofalvi,  J. Gomes,  J. Gonthier,  S. Gulania,  A. Gunina,  D. Hait,  
 M. W. D. Hanson-Heine,  S. Hammes-Schiffer,  P. H. P. Harbach,  
 A. W. Hauser,  M. F. Herbst,  J. E. Herr,  E. G. Hohenstein,  Z. C. Holden,  
 S. Houck,  Kerwin Hui,  B. C. Huynh,  M. Ivanov,  T.-C. Jagau,  Hyunjun Ji,  
 B. Kaduk,  K. Khistyaev,  Jaehoon Kim,  P. Klunzinger,  K. Koh,  
 D. Kosenkov,  L. Koulias,  T. Kowalczyk,  C. M. Krauter,  A. Kunitsa,  
 Ka Un Lao,  A. Laurent,  K. V. Lawler,  Joonho Lee,  D. Lefrancois,  
 S. Lehtola,  D. S. Levine,  Yi-Pei Li,  You-Sheng Lin,  Fenglai Liu,  
 Kuan-Yu Liu,  E. Livshits,  M. Loipersberger,  A. Luenser,  A. Manjanath,  
 P. Manohar,  E. Mansoor,  S. F. Manzer,  Shan-Ping Mao,  Yuezhi Mao,  
 N. Mardirossian,  A. V. Marenich,  T. Markovich,  L. A. Martinez-Martinez,  
 S. A. Maurer,  N. J. Mayhall,  S. C. McKenzie,  J.-M. Mewes,  P. Morgante,  
 A. F. Morrison,  J. W. Mullinax,  K. Nanda,  T. S. Nguyen-Beck,  
 R. Olivares-Amaya,  K. J. Oosterbaan,  J. A. Parkhill,  S. K. Paul,  
 F. Pavosevic,  Zheng Pei,  T. M. Perrine,  F. Plasser,  P. Pokhilko,  
 S. Prager,  A. Prociuk,  E. Ramos,  B. Rana,  D. R. Rehn,  F. Rob,  
 E. Rossomme,  M. Scheurer,  M. Schneider,  N. Sergueev,  S. M. Sharada,  
 S. Sharma,  W. Skomorowski,  D. W. Small,  T. Stauch,  C. J. Stein,  
 T. Stein,  Yu-Chuan Su,  S. P. Veccham,  Zhen Tao,  A. J. W. Thom,  
 A. Tkatchenko,  T. Tsuchimochi,  N. M. Tubman,  L. Vogt,  M. L. Vidal,  
 O. Vydrov,  M. A. Watson,  J. Wenzel,  M. de Wergifosse,  T. A. Wesolowski,  
 A. White,  J. Witte,  A. Yamada,  Jun Yang,  K. Yao,  S. Yeganeh,  
 S. R. Yost,  Zhi-Qiang You,  A. Zech,  Igor Ying Zhang,  Xing Zhang,  
 Yan Zhao,  Ying Zhu,  B. R. Brooks,  G. K. L. Chan,  C. J. Cramer,  
 M. S. Gordon,  W. J. Hehre,  A. Klamt,  M. W. Schmidt,  C. D. Sherrill,  
 D. G. Truhlar,  A. Aspuru-Guzik,  R. Baer,  A. T. Bell,  N. A. Besley,  
 Jeng-Da Chai,  A. E. DePrince, III,  R. A. DiStasio Jr.,  A. Dreuw,  
 B. D. Dunietz,  T. R. Furlani,  Chao-Ping Hsu,  Yousung Jung,  Jing Kong,  
 D. S. Lambrecht,  WanZhen Liang,  C. Ochsenfeld,  V. A. Rassolov,  
 L. V. Slipchenko,  J. E. Subotnik,  T. Van Voorhis,  J. M. Herbert,  
 A. I. Krylov,  P. M. W. Gill,  M. Head-Gordon

 Contributors to earlier versions of Q-Chem not listed above: 
 R. D. Adamson,  B. Austin,  J. Baker,  G. J. O. Beran,  K. Brandhorst,  
 S. T. Brown,  E. F. C. Byrd,  A. K. Chakraborty,  C.-L. Cheng,  
 Siu Hung Chien,  D. M. Chipman,  D. L. Crittenden,  H. Dachsel,  
 R. J. Doerksen,  A. D. Dutoi,  L. Fusti-Molnar,  W. A. Goddard III,  
 A. Golubeva-Zadorozhnaya,  S. R. Gwaltney,  G. Hawkins,  A. Heyden,  
 S. Hirata,  G. Kedziora,  F. J. Keil,  C. Kelley,  Jihan Kim,  R. A. King,  
 R. Z. Khaliullin,  P. P. Korambath,  W. Kurlancheek,  A. M. Lee,  M. S. Lee,  
 S. V. Levchenko,  Ching Yeh Lin,  D. Liotard,  R. C. Lochan,  I. Lotan,  
 P. E. Maslen,  N. Nair,  D. P. O'Neill,  D. Neuhauser,  E. Neuscamman,  
 C. M. Oana,  R. Olson,  B. Peters,  R. Peverati,  P. A. Pieniazek,  
 Y. M. Rhee,  J. Ritchie,  M. A. Rohrdanz,  E. Rosta,  N. J. Russ,  
 H. F. Schaefer III,  N. E. Schultz,  N. Shenvi,  A. C. Simmonett,  A. Sodt,  
 D. Stuck,  K. S. Thanthiriwatte,  V. Vanovschi,  Tao Wang,  A. Warshel,  
 C. F. Williams,  Q. Wu,  X. Xu,  W. Zhang

 Please cite Q-Chem as follows:
 Y. Shao et al., Mol. Phys. 113, 184-215 (2015)
 DOI: 10.1080/00268976.2014.952696

 Q-Chem 5.3.2 for Intel X86 EM64T Linux

 Parts of Q-Chem use Armadillo 9.800.1 (Horizon Scraper).
 http://arma.sourceforge.net/

 Q-Chem begins on Thu Sep 15 16:21:16 2022  

Host: 
0

     Scratch files written to /scratch/user/peterli3819/peterli3819/12613563_1663276865000000469923634/qchem39894//
 Dec820 |scratch|qcdevops|jenkins|workspace|build_RNUM 7711   
Processing $rem in /sw/restricted/qchem/sw/5.3.2/config/preferences:
Processing $rem in /home/peterli3819/.qchemrc:

 Q-Chem warning in module libgen/rem_setup.C, line 2945:

 Neither GIA nor STOLL is specified by user. Use STOLL as the default


Checking the input file for inconsistencies... 	...done.

--------------------------------------------------------------
User input:
--------------------------------------------------------------
$molecule
0 1
--
0 1
N       -2.965397   -2.479389    0.417505
C       -3.710545   -1.295001   -0.029974
C       -2.839999   -0.026941   -0.074712
C       -1.649756   -0.231064   -1.026671
O       -0.792043   -1.266280   -0.597901
C       -3.716159    1.126471   -0.609091
O       -3.013271    2.315180   -0.805319
C       -2.348122    0.319206    1.348140
O       -1.714732    1.567940    1.432987
H       -3.454147   -3.337598    0.166561
H       -2.849174   -2.486541    1.431214
H       -4.611411   -1.104043    0.589972
H       -4.068445   -1.503530   -1.053381
H       -1.053525    0.690892   -1.079260
H       -2.037579   -0.439758   -2.045968
H       -1.370240   -2.007626   -0.284274
H       -4.570952    1.265995    0.091236
H       -4.148164    0.838229   -1.585572
H       -2.501861    2.456924    0.016464
H       -1.674675   -0.479172    1.716463
H       -3.225937    0.353217    2.021639
H       -0.763489    1.476071    1.175971
--
0 1
N        2.965387    2.479386   -0.417528
C        3.710542    1.295004    0.029955
C        2.839998    0.026942    0.074708
C        1.649764    0.231068    1.026678
O        0.792048    1.266288    0.597921
C        2.348109   -0.319214   -1.348138
O        1.714731   -1.567955   -1.432973
C        3.716166   -1.126466    0.609084
O        3.013280   -2.315172    0.805334
H        2.849154    2.486529   -1.431237
H        3.454138    3.337599   -0.166597
H        4.068448    1.503541    1.053358
H        4.611404    1.104043   -0.589996
H        2.037599    0.439759    2.045972
H        1.053532   -0.690887    1.079272
H        1.370244    2.007628    0.284277
H        3.225917   -0.353217   -2.021647
H        1.674649    0.479156   -1.716456
H        0.763487   -1.476087   -1.175958
H        4.148187   -0.838215    1.585556
H        4.570947   -1.265996   -0.091256
H        2.501866   -2.456928   -0.016443
$end

$rem
JOBTYPE           eda
EDA2              2
METHOD            wB97X-D
BASIS             def2-SV(P)
SCF_CONVERGENCE   8
THRESH            14
SYMMETRY          false
DISP_FREE_X       wB97X-D
DISP_FREE_C       none
EDA_BSSE          true
$end
--------------------------------------------------------------
 ----------------------------------------------------------------
             Standard Nuclear Orientation (Angstroms)
    I     Atom           X                Y                Z
 ----------------------------------------------------------------
    1      N       2.9653970612    -2.4793889355    -0.4175046870
    2      C       3.7105450144    -1.2950008725     0.0299742242
    3      C       2.8399989668    -0.0269409015     0.0747121196
    4      C       1.6497559690    -0.2310638712     1.0266711289
    5      O       0.7920430101    -1.2662799370     0.5979012053
    6      C       3.7161589207     1.1264711732     0.6090910340
    7      O       3.0132708751     2.3151801623     0.8053189367
    8      C       2.3481219620     0.3192059683    -1.3481399103
    9      O       1.7147319158     1.5679399380    -1.4329870120
   10      H       3.4541470919    -3.3375978976    -0.1665606168
   11      H       2.8491740673    -2.4865410195    -1.4312136871
   12      H       4.6114110108    -1.1040428876    -0.5899717857
   13      H       4.0684450164    -1.5035297788     1.0533812426
   14      H       1.0535249343     0.6908921106     1.0792600531
   15      H       2.0375789710    -0.4397577767     2.0459681475
   16      H       1.3702400396    -2.0076259400     0.2842742669
   17      H       4.5709519194     1.2659951501    -0.0912359721
   18      H       4.1481639259     0.8382292660     1.5855720591
   19      H       2.5018608745     2.4569240787    -0.0164640774
   20      H       1.6746749939    -0.4791720858    -1.7164628515
   21      H       3.2259369645     0.3532169482    -2.0216389080
   22      H       0.7634889178     1.4760709226    -1.1759710102
   23      N      -2.9653871288     2.4793859085     0.4175278897
   24      C      -3.7105420820     1.2950038455    -0.0299550215
   25      C      -2.8399980344     0.0269418745    -0.0747079169
   26      C      -1.6497640366     0.2310678442    -1.0266779262
   27      O      -0.7920480777     1.2662879099    -0.5979210026
   28      C      -2.3481090295    -0.3192139953     1.3481381130
   29      O      -1.7147309834    -1.5679549650     1.4329732147
   30      C      -3.7161659882    -1.1264662002    -0.6090838313
   31      O      -3.0132799427    -2.3151721893    -0.8053337340
   32      H      -2.8491541348     2.4865289925     1.4312368898
   33      H      -3.4541381594     3.3375988705     0.1665968195
   34      H      -4.0684480840     1.5035407518    -1.0533580399
   35      H      -4.6114040784     1.1040428606     0.5899959884
   36      H      -2.0375990386     0.4397587497    -2.0459719448
   37      H      -1.0535320018    -0.6908871376    -1.0792718504
   38      H      -1.3702441072     2.0076279130    -0.2842770642
   39      H      -3.2259170321    -0.3532169752     2.0216471107
   40      H      -1.6746490615     0.4791560588     1.7164560542
   41      H      -0.7634869853    -1.4760869497     1.1759582129
   42      H      -4.1481869934    -0.8382152930    -1.5855558564
   43      H      -4.5709469870    -1.2659961771     0.0912561748
   44      H      -2.5018659421    -2.4569281057     0.0164432801
 ----------------------------------------------------------------
 Molecular Point Group                 C1    NOp =  1
 Largest Abelian Subgroup              C1    NOp =  1
 Nuclear Repulsion Energy =        1619.04132302 hartrees
 There are       74 alpha and       74 beta electrons
 Requested basis set is def2-SV(P)
 There are 160 shells and 304 basis functions

 Total QAlloc Memory Limit  56000 MB
 Mega-Array Size       188 MB
 MEM_STATIC part       192 MB
 A cutoff of  1.0D-14 yielded  10832 shell pairs
 There are     37412 function pairs (     41462 Cartesian)
 Smallest overlap matrix eigenvalue = 1.37E-03

 Scale SEOQF with 1.000000e-01/1.000000e-01/1.000000e-01

 Standard Electronic Orientation quadrupole field applied
 Nucleus-field energy     =     0.0000000500 hartrees

 -----------------------------------------------------------------------
  General SCF calculation program by
  Eric Jon Sundstrom, Paul Horn, Yuezhi Mao, Dmitri Zuev, Alec White,
  David Stuck, Shaama M.S., Shane Yost, Joonho Lee, David Small,
  Daniel Levine, Susi Lehtola, Hugh Burton, Evgeny Epifanovsky,
  Bang C. Huynh
 -----------------------------------------------------------------------
================================================================
                 ALMO-EDA with the EDA2 driver                  
================================================================
 The second-generation ALMO-EDA (for DFT):                      
 P. R. Horn, Y. Mao and M. Head-Gordon, PCCP, 18, 23067 (2016)  
 Decomposition of the frozen energy:                            
 P. R. Horn, Y. Mao and M. Head-Gordon, JCP, 144, 114107 (2016) 
Using eda2 option set 2
Option set summary: Frozen orbital wavefunction, initial wavefunction decomposition, and traditional AO-based POL.
--------------------------------
Printing EDA Options
--------------------------------
eda_child_super_basis      0
fragmo_guess_mode          0
child_mp                   0
child_mp_orders            0
cls_elec                   1
cls_disp                   0
scfmi_mode                 1
scfmi_occs                 0
scfmi_virts                0
frz_relax                  0
frz_relax_method           0
dc_pen_start               0
dc_pen_conv                0
dc_pen_increment           0
dc_pen_steps               0
dc_pen_thresh_factor       0
dc_pen_pre_newton_thresh   0
frz_ortho_decomp           1
frz_ortho_decomp_conv      6
plot_mo_ortho_frz          0
frgm_method                2
scfmi_freeze_ss            0
separate_rehyb             0
plot_diff_den              0
eda_nocv                   0
eda_vct_relax              1
disp_free_x                -110
disp_free_c                0
eda_bsse                   1
eda_pct_a                  0
eda_covp                   0
--------------------------------
Attempting to make child job directory: /scratch/user/peterli3819/peterli3819/12613563_1663276865000000469923634/qchem39894//Frg1/
Attempting to make child job directory: /scratch/user/peterli3819/peterli3819/12613563_1663276865000000469923634/qchem39894//Frg2/
Creating input file /scratch/user/peterli3819/peterli3819/12613563_1663276865000000469923634/qchem39894/Frg1.input
using default PutDataFrgm: nothing
calling putenv with: QCSCRATCH=/scratch/user/peterli3819/peterli3819/12613563_1663276865000000469923634/qchem39894/ 
Spawning Job For Fragment 0
Done Job For Fragment 0
calling putenv with: QCSCRATCH=/scratch/user/peterli3819/peterli3819/12613563_1663276865000000469923634 
calling putenv with: QCTHREADS=8 
Creating input file /scratch/user/peterli3819/peterli3819/12613563_1663276865000000469923634/qchem39894/Frg2.input
using default PutDataFrgm: nothing
calling putenv with: QCSCRATCH=/scratch/user/peterli3819/peterli3819/12613563_1663276865000000469923634/qchem39894/ 
Spawning Job For Fragment 1
Done Job For Fragment 1
calling putenv with: QCSCRATCH=/scratch/user/peterli3819/peterli3819/12613563_1663276865000000469923634 
calling putenv with: QCTHREADS=8 
Doing General SCFMI
 Exchange:     0.2220 Hartree-Fock + 1.0000 wB97X-D + LR-HF
 Correlation:  1.0000 wB97X-D
 Using SG-2 standard quadrature grid
 Dispersion:   Grimme D
performing fock build before subrot guess so that all methods have access
Printing subrot_rss_gen Method Specification:
Occupied Subspace Method is 0
Virtual Subspace Method is 0
Energy of the unrelaxed supersystem initial determinant -956.435448737039
write pseudocanon occs and virts to disk
write pseudocanon orbital energies to disk
Tolerance of ortho_decomp_scf: 1.00e-06
GDM subspace size: 20
Beginning the Orthogonal Decomposition of the Initial Supersystem Wavefunction
    1    -956.2930848598      6.11e-02     ortho_decomp Preconditoned Steepest Descent
    2    -956.3081400143      8.86e-04     ortho_decomp BFGS Step
    3    -956.3081570377      6.23e-05     ortho_decomp BFGS Step
    4    -956.3081570986      2.61e-06     ortho_decomp BFGS Step
    5    -956.3081570987      9.22e-08     ortho_decomp 00000 Convergence criterion met
 Exchange:     0.2220 Hartree-Fock + 1.0000 wB97X-D + LR-HF
 Correlation:  1.0000 wB97X-D
 Using SG-2 standard quadrature grid
 Dispersion:   Grimme D
 Long-range K will be added via erf
 Coulomb attenuation parameter = 0.2 bohr**(-1)
 Exchange:     0.2220 Hartree-Fock + 1.0000 wB97X-D + LR-HF
 Correlation:  1.0000 wB97X-D
 Using SG-2 standard quadrature grid
 Dispersion:   Grimme D
 Long-range K will be added via erf
 Coulomb attenuation parameter = 0.2 bohr**(-1)
 Exchange:     0.2220 Hartree-Fock + 1.0000 wB97X-D + LR-HF
 Correlation:  1.0000 wB97X-D
 Using SG-2 standard quadrature grid
 Dispersion:   Grimme D
 Long-range K will be added via erf
 Coulomb attenuation parameter = 0.2 bohr**(-1)
Doing General SCFMI
 Exchange:     0.2220 Hartree-Fock + 1.0000 wB97X-D + LR-HF
 Correlation:  1.0000 wB97X-D
 Using SG-2 standard quadrature grid
 Dispersion:   Grimme D
performing fock build at end of subrot_r(subrot) constructor so that all methods have access
<S^2> of initial wavefunction before polarization iterations 0.0000000000
Beginning iterations for the determination of the polarized wavefunction
Energy prior to optimization (guess energy) = -956.435448737039
Begin Timing: Total SCF Calculation
begin iterations for algorithm: DIIS         
the SCF tolerance is set to 1.00e-08
    1    -956.4354487370      4.70e-04     00000 
    2    -956.4452045808      1.36e-04     00000 
    3    -956.4460392769      8.41e-05     00000 
    4    -956.4462213870      2.75e-05     00000 
    5    -956.4462480773      1.10e-05     00000 
    6    -956.4462517860      4.06e-06     00000 
    7    -956.4462522476      6.98e-07     00000 
    8    -956.4462522627      1.70e-07     00000 
    9    -956.4462522637      6.88e-08     00000 
   10    -956.4462522638      2.22e-08     00000 
   11    -956.4462522638      9.11e-09     00000 Convergence criterion met
write pseudocanon occs and virts to disk
write pseudocanon orbital energies to disk
Timing for Total SCF: 61.00s (wall), 471.54s (cpu)
<S^2> of polarized wavefunction after polarization iterations 0.0000000000
relaxing scfmi constraint to allow all rotations in the entire AO span
Doing General SCFMI
 Exchange:     0.2220 Hartree-Fock + 1.0000 wB97X-D + LR-HF
 Correlation:  1.0000 wB97X-D
 Using SG-2 standard quadrature grid
 Dispersion:   Grimme D
performing fock build at end of subrot_r(subrot) constructor so that all methods have access
<S^2> of polarized wavefunction before ct-allowed iterations 0.0000000000
Beginning iterations for the determination of the CT-Allowed wavefunction
Energy prior to optimization (guess energy) = -956.446252263849
Begin Timing: Total SCF Calculation
begin iterations for algorithm: DIIS         
the SCF tolerance is set to 1.00e-08
    1    -956.4462522638      5.64e-04     00000 
    2    -956.4706336636      1.25e-04     00000 
    3    -956.4715912217      9.68e-05     00000 
    4    -956.4719152758      1.93e-05     00000 
    5    -956.4719354238      4.95e-06     00000 
    6    -956.4719367106      1.55e-06     00000 
    7    -956.4719368407      4.61e-07     00000 
    8    -956.4719368521      1.61e-07     00000 
    9    -956.4719368533      3.86e-08     00000 
   10    -956.4719368534      1.25e-08     00000 
   11    -956.4719368534      4.26e-09     00000 Convergence criterion met
write pseudocanon occs and virts to disk
write pseudocanon orbital energies to disk
Timing for Total SCF: 62.00s (wall), 475.18s (cpu)
<S^2> of ct_allowed wavefunction after ct-allowed iterations 0.0000000000
Attempting to make child job directory: /scratch/user/peterli3819/peterli3819/12613563_1663276865000000469923634/qchem39894//FrgBSSE1/
Attempting to make child job directory: /scratch/user/peterli3819/peterli3819/12613563_1663276865000000469923634/qchem39894//FrgBSSE2/
Creating input file /scratch/user/peterli3819/peterli3819/12613563_1663276865000000469923634/qchem39894/FrgBSSE1.input
calling putenv with: QCSCRATCH=/scratch/user/peterli3819/peterli3819/12613563_1663276865000000469923634/qchem39894/ 
Spawning Job For Fragment 0
Done Job For Fragment 0
calling putenv with: QCSCRATCH=/scratch/user/peterli3819/peterli3819/12613563_1663276865000000469923634 
calling putenv with: QCTHREADS=8 
Creating input file /scratch/user/peterli3819/peterli3819/12613563_1663276865000000469923634/qchem39894/FrgBSSE2.input
calling putenv with: QCSCRATCH=/scratch/user/peterli3819/peterli3819/12613563_1663276865000000469923634/qchem39894/ 
Spawning Job For Fragment 1
Done Job For Fragment 1
calling putenv with: QCSCRATCH=/scratch/user/peterli3819/peterli3819/12613563_1663276865000000469923634 
calling putenv with: QCTHREADS=8 
====================================================================
   Evaluating the BSSE with fragment SCF in the supersystem basis
   Fragment contributions (kJ/mol) 
   Frgm 1: 14.4032
   Frgm 2: 14.4032
   BSSE (kJ/mol) = 28.8064
====================================================================

================================
        Results of EDA2         
================================
Basic EDA Quantities
--------------------
Fragment Energies (Ha):
1 -478.2120164114
2 -478.2120162495
--------------------
  E_prp (kJ/mol) = 0.0000
  E_frz (kJ/mol) = -29.9733
  E_pol (kJ/mol) = -28.3650
  E_vct (kJ/mol) = -38.6293 (CP-corrected)
  E_int (kJ/mol) = -96.9675 (CP-corrected)
--------------------


Decomposition of frozen interaction energy
--------------------
  --------------------
  Orthogonal Frozen Decomposition:
  --------------------
     E_elec   (ELEC)   (kJ/mol) = -245.9331
     E_pauli  (PAULI)  (kJ/mol) = 235.9668
     E_disp   (DISP)   (kJ/mol) = -20.0070
  --------------------
  Classical Frozen Decomposition:
  --------------------
     E_cls_elec  (CLS ELEC)  (kJ/mol) = -138.8124
     E_mod_pauli (MOD PAULI) (kJ/mol) = 128.8461 (FRZ - CLS ELEC - DISP)
     E_disp      (DISP)      (kJ/mol) = -20.0070
  --------------------
--------------------

Simplified EDA Summary (kJ/mol)
--------------------
 PREPARATION      0.0000
 FROZEN           -29.9733 (ELEC + PAULI + DISP)
[ELEC + PAULI = -9.9663, DISP = -20.0070]
 POLARIZATION    -28.3650
 CHARGE TRANSFER -38.6293     (counterpoise-corrected)
 TOTAL           -96.9675     (PRP + FRZ + POL + CT)
--------------------
 
 --------------------------------------------------------------
 
                    Orbital Energies (a.u.)
 --------------------------------------------------------------
 
 Alpha MOs
 -- Occupied --
-19.2468 -19.2467 -19.2326 -19.2326 -19.2187 -19.2187 -14.4566 -14.4566
-10.3363 -10.3363 -10.3339 -10.3339 -10.3285 -10.3285 -10.3280 -10.3280
-10.3026 -10.3026  -1.1193  -1.1095  -1.1063  -1.0982  -1.0815  -1.0812
 -1.0049  -1.0045  -0.8912  -0.8891  -0.7681  -0.7634  -0.7592  -0.7589
 -0.7426  -0.7423  -0.6613  -0.6576  -0.6260  -0.6246  -0.6153  -0.6152
 -0.5971  -0.5877  -0.5671  -0.5650  -0.5527  -0.5522  -0.5394  -0.5343
 -0.5269  -0.5225  -0.5106  -0.5039  -0.4915  -0.4840  -0.4821  -0.4814
 -0.4714  -0.4710  -0.4604  -0.4543  -0.4432  -0.4268  -0.4151  -0.4148
 -0.3864  -0.3816  -0.3625  -0.3583  -0.3439  -0.3434  -0.3366  -0.3348
 -0.3287  -0.3278
 -- Virtual --
  0.1120   0.1139   0.1452   0.1477   0.1538   0.1549   0.1614   0.1723
  0.1878   0.1919   0.1974   0.1993   0.2081   0.2131   0.2264   0.2288
  0.2351   0.2377   0.2460   0.2502   0.2526   0.2541   0.2664   0.2788
  0.2799   0.2902   0.3000   0.3057   0.3123   0.3158   0.3190   0.3223
  0.3263   0.3302   0.3360   0.3400   0.3614   0.3663   0.3765   0.3827
  0.3990   0.4120   0.4969   0.5116   0.5163   0.5239   0.5548   0.5572
  0.5744   0.5773   0.5825   0.5973   0.6101   0.6154   0.6228   0.6355
  0.6360   0.6596   0.6646   0.6704   0.6753   0.6872   0.6911   0.6986
  0.7008   0.7084   0.7144   0.7193   0.7256   0.7322   0.7340   0.7403
  0.7622   0.7651   0.7654   0.7690   0.7776   0.7786   0.7955   0.8000
  0.8018   0.8092   0.8102   0.8113   0.8168   0.8247   0.8271   0.8305
  0.8346   0.8409   0.8412   0.8470   0.8541   0.8546   0.8848   0.9168
  0.9357   0.9449   0.9556   0.9726   0.9783   0.9918   0.9920   1.0067
  1.0573   1.0595   1.1047   1.1209   1.1295   1.1446   1.1782   1.1802
  1.2112   1.2226   1.2266   1.2372   1.2488   1.2536   1.2703   1.2929
  1.2957   1.2979   1.3153   1.3180   1.3547   1.3557   1.3952   1.4043
  1.4159   1.4251   1.4390   1.4859   1.5015   1.5116   1.5171   1.5334
  1.5932   1.6310   1.6419   1.6691   1.6704   1.7114   1.7298   1.7480
  1.7761   1.7878   1.8058   1.8099   1.8539   1.8766   1.8863   1.8907
  1.9135   1.9145   1.9345   1.9537   2.0060   2.0111   2.0381   2.0428
  2.0679   2.0695   2.0762   2.0902   2.0969   2.1089   2.1281   2.1623
  2.1637   2.1726   2.2017   2.2080   2.2118   2.2163   2.2328   2.2340
  2.2505   2.2656   2.2900   2.2901   2.3874   2.3879   2.4158   2.4175
  2.4927   2.4962   2.5552   2.5564   2.5672   2.5702   2.6931   2.6990
  2.7039   2.7193   2.7233   2.7322   2.7339   2.7399   2.7573   2.7611
  2.7869   2.8002   2.8346   2.8390   2.9233   2.9346   2.9464   2.9581
  2.9836   2.9860   3.0243   3.0264   3.0348   3.0367   3.0843   3.0870
  3.1126   3.1263   3.1440   3.1455   3.1534   3.1554   3.2060   3.2182
  3.4881   3.4999   3.5219   3.5266   3.5348   3.5374
 --------------------------------------------------------------
 
          Ground-State Mulliken Net Atomic Charges

     Atom                 Charge (a.u.)
  ----------------------------------------
      1 N                    -0.548004
      2 C                    -0.051800
      3 C                    -0.395102
      4 C                     0.102760
      5 O                    -0.546095
      6 C                     0.108830
      7 O                    -0.502977
      8 C                     0.067790
      9 O                    -0.537188
     10 H                     0.247183
     11 H                     0.249838
     12 H                     0.105616
     13 H                     0.109400
     14 H                     0.115557
     15 H                     0.086766
     16 H                     0.343717
     17 H                     0.081300
     18 H                     0.089739
     19 H                     0.327940
     20 H                     0.100462
     21 H                     0.090663
     22 H                     0.353604
     23 N                    -0.548004
     24 C                    -0.051800
     25 C                    -0.395102
     26 C                     0.102762
     27 O                    -0.546096
     28 C                     0.067788
     29 O                    -0.537188
     30 C                     0.108829
     31 O                    -0.502976
     32 H                     0.249838
     33 H                     0.247183
     34 H                     0.109400
     35 H                     0.105616
     36 H                     0.086766
     37 H                     0.115556
     38 H                     0.343717
     39 H                     0.090663
     40 H                     0.100463
     41 H                     0.353604
     42 H                     0.089739
     43 H                     0.081301
     44 H                     0.327940
  ----------------------------------------
  Sum of atomic charges =     0.000000

 -----------------------------------------------------------------
                    Cartesian Multipole Moments
 -----------------------------------------------------------------
    Charge (ESU x 10^10)
                 0.0000
    Dipole Moment (Debye)
         X       0.0000      Y      -0.0000      Z       0.0001
       Tot       0.0001
    Quadrupole Moments (Debye-Ang)
        XX     -94.3373     XY     -36.6457     YY    -112.5629
        XZ      -6.6876     YZ       2.3635     ZZ    -114.4049
    Octopole Moments (Debye-Ang^2)
       XXX       0.0006    XXY      -0.0001    XYY       0.0000
       YYY      -0.0006    XXZ       0.0004    XYZ      -0.0001
       YYZ       0.0002    XZZ       0.0001    YZZ       0.0001
       ZZZ       0.0003
    Hexadecapole Moments (Debye-Ang^3)
      XXXX   -4931.3380   XXXY    -362.7177   XXYY   -1074.4559
      XYYY    -310.3935   YYYY   -1455.1093   XXXZ     -84.5332
      XXYZ     -26.3424   XYYZ     -77.3120   YYYZ     -11.1363
      XXZZ    -964.4694   XYZZ     -68.7833   YYZZ    -401.8354
      XZZZ      -2.7732   YZZZ      26.5451   ZZZZ    -693.6927
 -----------------------------------------------------------------
Archival summary:
1\1\tnxt-0325.cluster\SP\ProcedureUnspecified\BasisUnspecified\621026\peterli3\ThuSep1516:29:202022ThuSep1516:29:202022\0\\#,ProcedureUnspecified,BasisUnspecified,\\0,1\O\H,1,0.991094\C,1,1.41109,2,106.876\H,3,1.09921,1,107.467,2,162.767,0\H,3,1.11037,1,110.692,2,-79.9357,0\C,3,1.53772,1,112.319,2,41.9463,0\C,6,1.53877,3,110.274,1,-62.4691,0\H,7,1.10406,6,108.185,3,-59.2134,0\H,7,1.11012,6,109.486,3,-175.112,0\N,7,1.4691,6,112.723,3,59.0566,0\H,10,1.01901,7,111.143,6,-162.153,0\H,10,1.02037,7,111.471,6,78.4978,0\C,6,1.54388,3,108.915,1,179.504,0\H,13,1.106,6,109.424,3,64.3182,0\H,13,1.11382,6,108.148,3,-179.771,0\O,13,1.39484,6,113.54,3,-55.3191,0\H,16,0.978243,13,105.59,6,-48.378,0\C,6,1.54476,3,110.701,1,59.1863,0\H,18,1.10694,6,108.348,3,-174.167,0\H,18,1.10752,6,109.78,3,-56.9468,0\O,18,1.40275,6,113.513,3,67.017,0\H,21,0.989626,18,109.613,6,-84.1612,0\H,1,1.67268,2,123.922,3,-154.098,0\O,23,0.989627,1,174.438,2,-102.983,0\C,24,1.40275,23,109.613,1,-59.2001,0\H,25,1.10694,24,107.093,23,-156.303,0\H,25,1.10752,24,110.306,23,-39.515,0\C,25,1.54476,24,113.513,23,84.162,0\C,28,1.53772,25,110.702,24,-67.0175,0\H,29,1.09921,28,109.763,25,60.3033,0\H,29,1.11037,28,108.838,25,177.882,0\O,29,1.4111,28,112.319,25,-59.1868,0\H,32,0.991094,29,106.876,28,-41.9454,0\C,28,1.53878,25,109.756,24,171.023,0\H,34,1.10406,28,108.185,25,-178.572,0\H,34,1.11012,28,109.486,25,-62.6741,0\N,34,1.4691,28,112.723,25,63.1574,0\H,37,1.01901,34,111.143,28,162.154,0\H,37,1.02038,34,111.471,28,-78.4976,0\C,28,1.54388,25,109.397,24,53.0119,0\H,40,1.106,28,109.424,25,174.563,0\H,40,1.11382,28,108.148,25,58.6518,0\O,40,1.39484,28,113.54,25,-65.8,0\H,43,0.978242,40,105.589,28,48.3787,0\\\@

 Total job time:  483.62s(wall), 1925.81s(cpu) 
 Thu Sep 15 16:29:20 2022

        *************************************************************
        *                                                           *
        *  Thank you very much for using Q-Chem.  Have a nice day.  *
        *                                                           *
        *************************************************************


remove work dirs /scratch/user/peterli3819/peterli3819/12613563_1663276865000000469923634/qchem39894.0 -- /scratch/user/peterli3819/peterli3819/12613563_1663276865000000469923634/qchem39894.-1
rm -rf /scratch/user/peterli3819/peterli3819/12613563_1663276865000000469923634/qchem39894
real 496.29
user 2858.75
sys 82.49
