You are running Q-Chem version: 5.3.2

#
# job setting
#
local host:  c248.cluster
current dir: /scratch/user/peterchao1/peterchao1/10001437_1712072050000000443175379
input file:  qchem_test.inp
output file: 
nprocs     : 0
nthreads   : 8
#
# qchem installation setting
#
QC:          /sw/restricted/qchem/sw/5.3.2
QCAUX:       /sw/restricted/qchem/sw/5.3.2/qcaux
QCPROG:      /sw/restricted/qchem/sw/5.3.2/exe/qcprog.exe_s
QCPROG_S:    /sw/restricted/qchem/sw/5.3.2/exe/qcprog.exe_s
PARALLEL:    -DSERIAL
QCMPI:       seq
#
# qchem directory setting
#
qcrun:       qchem58809
QCSCRATCH:   /scratch/user/peterchao1/peterchao1/10001437_1712072050000000443175379
QCLOCALSCR:  
QCTMPDIR:    /scratch/user/peterchao1/peterchao1/10001437_1712072050000000443175379
QCFILEPREF:  /scratch/user/peterchao1/peterchao1/10001437_1712072050000000443175379/qchem58809
QCSAVEDIR:   
workdirs:    /scratch/user/peterchao1/peterchao1/10001437_1712072050000000443175379/qchem58809
workdir0:    /scratch/user/peterchao1/peterchao1/10001437_1712072050000000443175379/qchem58809
partmpdirs =  
#
# parallel setting
#
QCRSH:           ssh
QCMPI:           seq
QCMPIRUN:        
QCMACHINEFILE:   /scratch/user/peterchao1/peterchao1/10001437_1712072050000000443175379/qchem58809/hostfile

#
# env setting
#
exported envs:   QC QCAUX QCSCRATCH QCRUNNAME QCFILEPREF QCPROG QCPROG_S GUIFILE

Running Job 1 of 1 qchem_test.inp
qchem qchem_test.inp_58809.0 /scratch/user/peterchao1/peterchao1/10001437_1712072050000000443175379/qchem58809/ 0
/sw/restricted/qchem/sw/5.3.2/exe/qcprog.exe_s qchem_test.inp_58809.0 /scratch/user/peterchao1/peterchao1/10001437_1712072050000000443175379/qchem58809/
                  Welcome to Q-Chem
     A Quantum Leap Into The Future Of Chemistry


 Q-Chem 5.3, Q-Chem, Inc., Pleasanton, CA (2020)

 License issued to: MRG Daniel Tabor and Mike Hall, Texas A&M University

 Yihan Shao,  Zhengting Gan,  E. Epifanovsky,  A. T. B. Gilbert,  M. Wormit,  
 J. Kussmann,  A. W. Lange,  A. Behn,  Jia Deng,  Xintian Feng,  D. Ghosh,  
 M. Goldey,  P. R. Horn,  L. D. Jacobson,  I. Kaliman,  T. Kus,  A. Landau,  
 Jie Liu,  E. I. Proynov,  R. M. Richard,  R. P. Steele,  E. J. Sundstrom,  
 H. L. Woodcock III,  P. M. Zimmerman,  D. Zuev,  B. Alam,  B. Albrecht,  
 A. Aldossary,  E. Alguire,  S. A. Baeppler,  D. Barton,  Z. Benda,  
 Y. A. Bernard,  E. J. Berquist,  K. B. Bravaya,  H. Burton,  K. Carter-Fenk,  
 D. Casanova,  Chun-Min Chang,  Yunqing Chen,  A. Chien,  K. D. Closser,  
 M. P. Coons,  S. Coriani,  S. Dasgupta,  A. L. Dempwolff,  M. Diedenhofen,  
 Hainam Do,  R. G. Edgar,  Po-Tung Fang,  S. Faraji,  S. Fatehi,  
 Qingguo Feng,  J. Fosso-Tande,  J. Gayvert,  Qinghui Ge,  A. Ghysels,  
 G. Gidofalvi,  J. Gomes,  J. Gonthier,  S. Gulania,  A. Gunina,  D. Hait,  
 M. W. D. Hanson-Heine,  S. Hammes-Schiffer,  P. H. P. Harbach,  
 A. W. Hauser,  M. F. Herbst,  J. E. Herr,  E. G. Hohenstein,  Z. C. Holden,  
 S. Houck,  Kerwin Hui,  B. C. Huynh,  M. Ivanov,  T.-C. Jagau,  Hyunjun Ji,  
 B. Kaduk,  K. Khistyaev,  Jaehoon Kim,  P. Klunzinger,  K. Koh,  
 D. Kosenkov,  L. Koulias,  T. Kowalczyk,  C. M. Krauter,  A. Kunitsa,  
 Ka Un Lao,  A. Laurent,  K. V. Lawler,  Joonho Lee,  D. Lefrancois,  
 S. Lehtola,  D. S. Levine,  Yi-Pei Li,  You-Sheng Lin,  Fenglai Liu,  
 Kuan-Yu Liu,  E. Livshits,  M. Loipersberger,  A. Luenser,  A. Manjanath,  
 P. Manohar,  E. Mansoor,  S. F. Manzer,  Shan-Ping Mao,  Yuezhi Mao,  
 N. Mardirossian,  A. V. Marenich,  T. Markovich,  L. A. Martinez-Martinez,  
 S. A. Maurer,  N. J. Mayhall,  S. C. McKenzie,  J.-M. Mewes,  P. Morgante,  
 A. F. Morrison,  J. W. Mullinax,  K. Nanda,  T. S. Nguyen-Beck,  
 R. Olivares-Amaya,  K. J. Oosterbaan,  J. A. Parkhill,  S. K. Paul,  
 F. Pavosevic,  Zheng Pei,  T. M. Perrine,  F. Plasser,  P. Pokhilko,  
 S. Prager,  A. Prociuk,  E. Ramos,  B. Rana,  D. R. Rehn,  F. Rob,  
 E. Rossomme,  M. Scheurer,  M. Schneider,  N. Sergueev,  S. M. Sharada,  
 S. Sharma,  W. Skomorowski,  D. W. Small,  T. Stauch,  C. J. Stein,  
 T. Stein,  Yu-Chuan Su,  S. P. Veccham,  Zhen Tao,  A. J. W. Thom,  
 A. Tkatchenko,  T. Tsuchimochi,  N. M. Tubman,  L. Vogt,  M. L. Vidal,  
 O. Vydrov,  M. A. Watson,  J. Wenzel,  M. de Wergifosse,  T. A. Wesolowski,  
 A. White,  J. Witte,  A. Yamada,  Jun Yang,  K. Yao,  S. Yeganeh,  
 S. R. Yost,  Zhi-Qiang You,  A. Zech,  Igor Ying Zhang,  Xing Zhang,  
 Yan Zhao,  Ying Zhu,  B. R. Brooks,  G. K. L. Chan,  C. J. Cramer,  
 M. S. Gordon,  W. J. Hehre,  A. Klamt,  M. W. Schmidt,  C. D. Sherrill,  
 D. G. Truhlar,  A. Aspuru-Guzik,  R. Baer,  A. T. Bell,  N. A. Besley,  
 Jeng-Da Chai,  A. E. DePrince, III,  R. A. DiStasio Jr.,  A. Dreuw,  
 B. D. Dunietz,  T. R. Furlani,  Chao-Ping Hsu,  Yousung Jung,  Jing Kong,  
 D. S. Lambrecht,  WanZhen Liang,  C. Ochsenfeld,  V. A. Rassolov,  
 L. V. Slipchenko,  J. E. Subotnik,  T. Van Voorhis,  J. M. Herbert,  
 A. I. Krylov,  P. M. W. Gill,  M. Head-Gordon

 Contributors to earlier versions of Q-Chem not listed above: 
 R. D. Adamson,  B. Austin,  J. Baker,  G. J. O. Beran,  K. Brandhorst,  
 S. T. Brown,  E. F. C. Byrd,  A. K. Chakraborty,  C.-L. Cheng,  
 Siu Hung Chien,  D. M. Chipman,  D. L. Crittenden,  H. Dachsel,  
 R. J. Doerksen,  A. D. Dutoi,  L. Fusti-Molnar,  W. A. Goddard III,  
 A. Golubeva-Zadorozhnaya,  S. R. Gwaltney,  G. Hawkins,  A. Heyden,  
 S. Hirata,  G. Kedziora,  F. J. Keil,  C. Kelley,  Jihan Kim,  R. A. King,  
 R. Z. Khaliullin,  P. P. Korambath,  W. Kurlancheek,  A. M. Lee,  M. S. Lee,  
 S. V. Levchenko,  Ching Yeh Lin,  D. Liotard,  R. C. Lochan,  I. Lotan,  
 P. E. Maslen,  N. Nair,  D. P. O'Neill,  D. Neuhauser,  E. Neuscamman,  
 C. M. Oana,  R. Olson,  B. Peters,  R. Peverati,  P. A. Pieniazek,  
 Y. M. Rhee,  J. Ritchie,  M. A. Rohrdanz,  E. Rosta,  N. J. Russ,  
 H. F. Schaefer III,  N. E. Schultz,  N. Shenvi,  A. C. Simmonett,  A. Sodt,  
 D. Stuck,  K. S. Thanthiriwatte,  V. Vanovschi,  Tao Wang,  A. Warshel,  
 C. F. Williams,  Q. Wu,  X. Xu,  W. Zhang

 Please cite Q-Chem as follows:
 Y. Shao et al., Mol. Phys. 113, 184-215 (2015)
 DOI: 10.1080/00268976.2014.952696

 Q-Chem 5.3.2 for Intel X86 EM64T Linux

 Parts of Q-Chem use Armadillo 9.800.1 (Horizon Scraper).
 http://arma.sourceforge.net/

 Q-Chem begins on Tue Apr  2 10:34:11 2024  

Host: 
0

     Scratch files written to /scratch/user/peterchao1/peterchao1/10001437_1712072050000000443175379/qchem58809//
 Dec820 |scratch|qcdevops|jenkins|workspace|build_RNUM -1
Processing $rem in /sw/restricted/qchem/sw/5.3.2/config/preferences:
Processing $rem in /home/peterchao1/.qchemrc:

 Q-Chem warning in module libgen/rem_setup.C, line 2945:

 Neither GIA nor STOLL is specified by user. Use STOLL as the default


Checking the input file for inconsistencies... 	...done.

--------------------------------------------------------------
User input:
--------------------------------------------------------------
$molecule
0 1
--
0 1
C        2.224762   -0.055870    1.439587
C        3.019195    0.001948    0.134211
C        3.884444   -1.246902   -0.039963
C        2.100610    0.203775   -1.087717
N        1.336159    1.433178   -1.145079
H        2.894806   -0.114032    2.315796
H        1.573723   -0.950870    1.455508
H        1.576988    0.828955    1.560392
H        3.691503    0.882107    0.181200
H        4.498458   -1.188578   -0.956333
H        3.253438   -2.152281   -0.116610
H        4.567668   -1.387859    0.816151
H        1.390136   -0.644763   -1.136625
H        2.717169    0.134162   -2.004212
H        1.954790    2.243803   -1.125631
H        0.681648    1.512116   -0.359574
--
0 1
C       -3.940586    0.553368   -0.131187
C       -2.881604   -0.465045    0.293343
C       -3.061223   -1.791528   -0.446316
C       -1.453839    0.067191    0.084401
N       -1.091684    1.287896    0.788616
H       -4.959435    0.159086    0.027010
H       -3.837590    0.801321   -1.204195
H       -3.860049    1.492379    0.444007
H       -3.006760   -0.657362    1.377681
H       -4.064630   -2.216806   -0.270554
H       -2.315774   -2.538260   -0.120174
H       -2.941336   -1.651382   -1.536455
H       -1.277214    0.243078   -0.993247
H       -0.734055   -0.715368    0.386084
H       -1.214156    1.189405    1.796336
H       -1.651200    2.082002    0.480526
$end

$rem
JOBTYPE           eda
EDA2              2
METHOD            wB97x-D
BASIS             def2-SV(P)
SCF_CONVERGENCE   8
THRESH            14
SYMMETRY          false
DISP_FREE_X       wB97X-D
DISP_FREE_C       none
EDA_BSSE          true
$end
--------------------------------------------------------------
 ----------------------------------------------------------------
             Standard Nuclear Orientation (Angstroms)
    I     Atom           X                Y                Z
 ----------------------------------------------------------------
    1      C      -2.2247619106     0.0558700101     1.4395870772
    2      C      -3.0191949163    -0.0019479802     0.1342110803
    3      C      -3.8844438749     1.2469020466    -0.0399629333
    4      C      -2.1006099267    -0.2037750269    -1.0877169198
    5      N      -1.3361589682    -1.4331780533    -1.1450789061
    6      H      -2.8948059060     0.1140320439     2.3157960784
    7      H      -1.5737228805     0.9508699884     1.4555080637
    8      H      -1.5769879399    -0.8289550101     1.5603920868
    9      H      -3.6915029458    -0.8821069570     0.1812000937
   10      H      -4.4984578796     1.1885780554    -0.9563329308
   11      H      -3.2534378447     2.1522810244    -0.1166099469
   12      H      -4.5676678677     1.3878590807     0.8161510668
   13      H      -1.3901358983     0.6447629486    -1.1366249329
   14      H      -2.7171689271    -0.1341620181    -2.0042119189
   15      H      -1.9547899953    -2.2438030323    -1.1256308937
   16      H      -0.6816479685    -1.5121160651    -0.3595739070
   17      C       3.9405860644    -0.5533682174    -0.1311869330
   18      C       2.8816040998     0.4650448237     0.2933430569
   19      C       3.0612231422     1.7915278081    -0.4463159608
   20      C       1.4538390813    -0.0671911311     0.0844010680
   21      N       1.0916840424    -1.2878961098     0.7886160849
   22      H       4.9594350781    -0.1590862496     0.0270100589
   23      H       3.8375900529    -0.8013212278    -1.2041949294
   24      H       3.8600490345    -1.4923792072     0.4440070795
   25      H       3.0067601095     0.6573618335     1.3776810541
   26      H       4.0646301570     2.2168057766    -0.2705539692
   27      H       2.3157741682     2.5382598373    -0.1201739683
   28      H       2.9413361343     1.6513817980    -1.5364549586
   29      H       1.2772140723    -0.2430781391    -0.9932469292
   30      H       0.7340551085     0.7153678970     0.3860840600
   31      H       1.2141560487    -1.1894051008     1.7963360833
   32      H       1.6512000148    -2.0820021326     0.4805260936
 ----------------------------------------------------------------
 Molecular Point Group                 C1    NOp =  1
 Largest Abelian Subgroup              C1    NOp =  1
 Nuclear Repulsion Energy =         571.07308818 hartrees
 There are       42 alpha and       42 beta electrons
 Requested basis set is def2-SV(P)
 There are 104 shells and 184 basis functions

 Total QAlloc Memory Limit   7500 MB
 Mega-Array Size       188 MB
 MEM_STATIC part       192 MB
 A cutoff of  1.0D-14 yielded   4897 shell pairs
 There are     14919 function pairs (     16451 Cartesian)
 Smallest overlap matrix eigenvalue = 1.84E-03

 Scale SEOQF with 1.000000e-01/1.000000e-01/1.000000e-01

 Standard Electronic Orientation quadrupole field applied
 Nucleus-field energy     =     0.0000000227 hartrees

 -----------------------------------------------------------------------
  General SCF calculation program by
  Eric Jon Sundstrom, Paul Horn, Yuezhi Mao, Dmitri Zuev, Alec White,
  David Stuck, Shaama M.S., Shane Yost, Joonho Lee, David Small,
  Daniel Levine, Susi Lehtola, Hugh Burton, Evgeny Epifanovsky,
  Bang C. Huynh
 -----------------------------------------------------------------------
================================================================
                 ALMO-EDA with the EDA2 driver                  
================================================================
 The second-generation ALMO-EDA (for DFT):                      
 P. R. Horn, Y. Mao and M. Head-Gordon, PCCP, 18, 23067 (2016)  
 Decomposition of the frozen energy:                            
 P. R. Horn, Y. Mao and M. Head-Gordon, JCP, 144, 114107 (2016) 
Using eda2 option set 2
Option set summary: Frozen orbital wavefunction, initial wavefunction decomposition, and traditional AO-based POL.
--------------------------------
Printing EDA Options
--------------------------------
eda_child_super_basis      0
fragmo_guess_mode          0
child_mp                   0
child_mp_orders            0
cls_elec                   1
cls_disp                   0
scfmi_mode                 1
scfmi_occs                 0
scfmi_virts                0
frz_relax                  0
frz_relax_method           0
dc_pen_start               0
dc_pen_conv                0
dc_pen_increment           0
dc_pen_steps               0
dc_pen_thresh_factor       0
dc_pen_pre_newton_thresh   0
frz_ortho_decomp           1
frz_ortho_decomp_conv      6
plot_mo_ortho_frz          0
frgm_method                2
scfmi_freeze_ss            0
separate_rehyb             0
plot_diff_den              0
eda_nocv                   0
eda_vct_relax              1
disp_free_x                -110
disp_free_c                0
eda_bsse                   1
eda_pct_a                  0
eda_covp                   0
--------------------------------
Attempting to make child job directory: /scratch/user/peterchao1/peterchao1/10001437_1712072050000000443175379/qchem58809//Frg1/
Attempting to make child job directory: /scratch/user/peterchao1/peterchao1/10001437_1712072050000000443175379/qchem58809//Frg2/
Creating input file /scratch/user/peterchao1/peterchao1/10001437_1712072050000000443175379/qchem58809/Frg1.input
using default PutDataFrgm: nothing
calling putenv with: QCSCRATCH=/scratch/user/peterchao1/peterchao1/10001437_1712072050000000443175379/qchem58809/ 
Spawning Job For Fragment 0
Done Job For Fragment 0
calling putenv with: QCSCRATCH=/scratch/user/peterchao1/peterchao1/10001437_1712072050000000443175379 
calling putenv with: QCTHREADS=8 
Creating input file /scratch/user/peterchao1/peterchao1/10001437_1712072050000000443175379/qchem58809/Frg2.input
using default PutDataFrgm: nothing
calling putenv with: QCSCRATCH=/scratch/user/peterchao1/peterchao1/10001437_1712072050000000443175379/qchem58809/ 
Spawning Job For Fragment 1
Done Job For Fragment 1
calling putenv with: QCSCRATCH=/scratch/user/peterchao1/peterchao1/10001437_1712072050000000443175379 
calling putenv with: QCTHREADS=8 
Doing General SCFMI
 Exchange:     0.2220 Hartree-Fock + 1.0000 wB97X-D + LR-HF
 Correlation:  1.0000 wB97X-D
 Using SG-2 standard quadrature grid
 Dispersion:   Grimme D
performing fock build before subrot guess so that all methods have access
Printing subrot_rss_gen Method Specification:
Occupied Subspace Method is 0
Virtual Subspace Method is 0
Energy of the unrelaxed supersystem initial determinant -427.111218183471
write pseudocanon occs and virts to disk
write pseudocanon orbital energies to disk
Tolerance of ortho_decomp_scf: 1.00e-06
GDM subspace size: 20
Beginning the Orthogonal Decomposition of the Initial Supersystem Wavefunction
    1    -427.0731578389      4.16e-02     ortho_decomp Preconditoned Steepest Descent
    2    -427.0762610400      6.92e-04     ortho_decomp BFGS Step
    3    -427.0762658992      5.55e-05     ortho_decomp BFGS Step
    4    -427.0762659190      2.46e-06     ortho_decomp BFGS Step
    5    -427.0762659191      9.31e-08     ortho_decomp 00000 Convergence criterion met
 Exchange:     0.2220 Hartree-Fock + 1.0000 wB97X-D + LR-HF
 Correlation:  1.0000 wB97X-D
 Using SG-2 standard quadrature grid
 Dispersion:   Grimme D
 Long-range K will be added via erf
 Coulomb attenuation parameter = 0.2 bohr**(-1)
 Exchange:     0.2220 Hartree-Fock + 1.0000 wB97X-D + LR-HF
 Correlation:  1.0000 wB97X-D
 Using SG-2 standard quadrature grid
 Dispersion:   Grimme D
 Long-range K will be added via erf
 Coulomb attenuation parameter = 0.2 bohr**(-1)
 Exchange:     0.2220 Hartree-Fock + 1.0000 wB97X-D + LR-HF
 Correlation:  1.0000 wB97X-D
 Using SG-2 standard quadrature grid
 Dispersion:   Grimme D
 Long-range K will be added via erf
 Coulomb attenuation parameter = 0.2 bohr**(-1)
Doing General SCFMI
 Exchange:     0.2220 Hartree-Fock + 1.0000 wB97X-D + LR-HF
 Correlation:  1.0000 wB97X-D
 Using SG-2 standard quadrature grid
 Dispersion:   Grimme D
performing fock build at end of subrot_r(subrot) constructor so that all methods have access
<S^2> of initial wavefunction before polarization iterations 0.0000000000
Beginning iterations for the determination of the polarized wavefunction
Energy prior to optimization (guess energy) = -427.111218183471
Begin Timing: Total SCF Calculation
begin iterations for algorithm: DIIS         
the SCF tolerance is set to 1.00e-08
    1    -427.1112181835      2.77e-04     00000 
    2    -427.1125215152      8.22e-05     00000 
    3    -427.1126201470      4.05e-05     00000 
    4    -427.1126392139      1.48e-05     00000 
    5    -427.1126420010      4.48e-06     00000 
    6    -427.1126422749      1.28e-06     00000 
    7    -427.1126422937      5.11e-07     00000 
    8    -427.1126422969      8.56e-08     00000 
    9    -427.1126422971      2.89e-08     00000 
   10    -427.1126422972      1.14e-08     00000 
   11    -427.1126422972      3.15e-09     00000 Convergence criterion met
write pseudocanon occs and virts to disk
write pseudocanon orbital energies to disk
Timing for Total SCF: 20.00s (wall), 149.74s (cpu)
<S^2> of polarized wavefunction after polarization iterations 0.0000000000
relaxing scfmi constraint to allow all rotations in the entire AO span
Doing General SCFMI
 Exchange:     0.2220 Hartree-Fock + 1.0000 wB97X-D + LR-HF
 Correlation:  1.0000 wB97X-D
 Using SG-2 standard quadrature grid
 Dispersion:   Grimme D
performing fock build at end of subrot_r(subrot) constructor so that all methods have access
<S^2> of polarized wavefunction before ct-allowed iterations 0.0000000000
Beginning iterations for the determination of the CT-Allowed wavefunction
Energy prior to optimization (guess energy) = -427.112642297165
Begin Timing: Total SCF Calculation
begin iterations for algorithm: DIIS         
the SCF tolerance is set to 1.00e-08
    1    -427.1126422972      4.48e-04     00000 
    2    -427.1191653409      9.09e-05     00000 
    3    -427.1195831889      3.86e-05     00000 
    4    -427.1196140485      1.98e-05     00000 
    5    -427.1196222743      2.54e-06     00000 
    6    -427.1196224709      1.01e-06     00000 
    7    -427.1196224970      3.09e-07     00000 
    8    -427.1196224995      6.59e-08     00000 
    9    -427.1196224998      3.32e-08     00000 
   10    -427.1196224998      8.06e-09     00000 Convergence criterion met
write pseudocanon occs and virts to disk
write pseudocanon orbital energies to disk
Timing for Total SCF: 18.00s (wall), 137.18s (cpu)
<S^2> of ct_allowed wavefunction after ct-allowed iterations 0.0000000000
Attempting to make child job directory: /scratch/user/peterchao1/peterchao1/10001437_1712072050000000443175379/qchem58809//FrgBSSE1/
Attempting to make child job directory: /scratch/user/peterchao1/peterchao1/10001437_1712072050000000443175379/qchem58809//FrgBSSE2/
Creating input file /scratch/user/peterchao1/peterchao1/10001437_1712072050000000443175379/qchem58809/FrgBSSE1.input
calling putenv with: QCSCRATCH=/scratch/user/peterchao1/peterchao1/10001437_1712072050000000443175379/qchem58809/ 
Spawning Job For Fragment 0
Done Job For Fragment 0
calling putenv with: QCSCRATCH=/scratch/user/peterchao1/peterchao1/10001437_1712072050000000443175379 
calling putenv with: QCTHREADS=8 
Creating input file /scratch/user/peterchao1/peterchao1/10001437_1712072050000000443175379/qchem58809/FrgBSSE2.input
calling putenv with: QCSCRATCH=/scratch/user/peterchao1/peterchao1/10001437_1712072050000000443175379/qchem58809/ 
Spawning Job For Fragment 1
Done Job For Fragment 1
calling putenv with: QCSCRATCH=/scratch/user/peterchao1/peterchao1/10001437_1712072050000000443175379 
calling putenv with: QCTHREADS=8 
====================================================================
   Evaluating the BSSE with fragment SCF in the supersystem basis
   Fragment contributions (kJ/mol) 
   Frgm 1: 3.5212
   Frgm 2: 6.8213
   BSSE (kJ/mol) = 10.3425
====================================================================

================================
        Results of EDA2         
================================
Basic EDA Quantities
--------------------
Fragment Energies (Ha):
1 -213.5534166105
2 -213.5535819990
--------------------
  E_prp (kJ/mol) = 0.0000
  E_frz (kJ/mol) = -11.0786
  E_pol (kJ/mol) = -3.7391
  E_vct (kJ/mol) = -7.9842 (CP-corrected)
  E_int (kJ/mol) = -22.8019 (CP-corrected)
--------------------


Decomposition of frozen interaction energy
--------------------
  --------------------
  Orthogonal Frozen Decomposition:
  --------------------
     E_elec   (ELEC)   (kJ/mol) = -54.6389
     E_pauli  (PAULI)  (kJ/mol) = 57.7599
     E_disp   (DISP)   (kJ/mol) = -14.1997
  --------------------
  Classical Frozen Decomposition:
  --------------------
     E_cls_elec  (CLS ELEC)  (kJ/mol) = -27.6779
     E_mod_pauli (MOD PAULI) (kJ/mol) = 30.7990 (FRZ - CLS ELEC - DISP)
     E_disp      (DISP)      (kJ/mol) = -14.1997
  --------------------
--------------------

Simplified EDA Summary (kJ/mol)
--------------------
 PREPARATION      0.0000
 FROZEN           -11.0786 (ELEC + PAULI + DISP)
[ELEC + PAULI = 3.1211, DISP = -14.1997]
 POLARIZATION    -3.7391
 CHARGE TRANSFER -7.9842     (counterpoise-corrected)
 TOTAL           -22.8019     (PRP + FRZ + POL + CT)
--------------------
 
 --------------------------------------------------------------
 
                    Orbital Energies (a.u.)
 --------------------------------------------------------------
 
 Alpha MOs
 -- Occupied --
-14.4265 -14.3847 -10.3124 -10.2979 -10.2935 -10.2854 -10.2830 -10.2818
-10.2725 -10.2700  -0.9823  -0.9493  -0.8849  -0.8671  -0.7767  -0.7625
 -0.7489  -0.7274  -0.6563  -0.6391  -0.5949  -0.5682  -0.5515  -0.5356
 -0.5314  -0.5209  -0.5165  -0.4968  -0.4768  -0.4656  -0.4615  -0.4530
 -0.4497  -0.4396  -0.4294  -0.4202  -0.4174  -0.4068  -0.4005  -0.3916
 -0.3240  -0.2879
 -- Virtual --
  0.1209   0.1430   0.1470   0.1573   0.1712   0.1767   0.1926   0.1971
  0.2031   0.2112   0.2158   0.2191   0.2290   0.2320   0.2375   0.2391
  0.2459   0.2522   0.2655   0.2726   0.2863   0.2977   0.3029   0.3185
  0.3291   0.3330   0.3400   0.3478   0.3590   0.3685   0.4859   0.4902
  0.5022   0.5161   0.5280   0.5345   0.5541   0.5789   0.5881   0.5941
  0.6309   0.6432   0.6558   0.6683   0.6967   0.7169   0.7257   0.7351
  0.7403   0.7487   0.7534   0.7621   0.7702   0.7723   0.7810   0.7839
  0.7872   0.7893   0.8002   0.8020   0.8039   0.8060   0.8133   0.8177
  0.8246   0.8293   0.8328   0.8359   0.8396   0.8487   0.8574   0.8593
  0.8705   0.8955   0.8979   0.9174   0.9601   0.9712   0.9971   1.0093
  1.0691   1.0997   1.1349   1.1702   1.1818   1.1967   1.2099   1.2133
  1.2343   1.2699   1.3779   1.4301   1.5060   1.5270   1.5558   1.5866
  1.7657   1.7909   1.8093   1.8265   1.8439   1.8643   1.9875   2.0001
  2.0042   2.0141   2.0220   2.0330   2.0390   2.0585   2.0961   2.1220
  2.1447   2.1534   2.1729   2.1946   2.2256   2.2329   2.2346   2.2435
  2.2463   2.2539   2.3631   2.3987   2.4528   2.4748   2.4834   2.5106
  2.5351   2.5486   2.5573   2.5776   2.6264   2.6501   2.7622   2.7742
  2.7901   2.8102   2.8557   2.8704   3.0828   3.1153
 --------------------------------------------------------------
 
          Ground-State Mulliken Net Atomic Charges

     Atom                 Charge (a.u.)
  ----------------------------------------
      1 C                    -0.320516
      2 C                    -0.203626
      3 C                    -0.301429
      4 C                    -0.071824
      5 N                    -0.544400
      6 H                     0.112472
      7 H                     0.106706
      8 H                     0.117718
      9 H                     0.077736
     10 H                     0.114437
     11 H                     0.106140
     12 H                     0.114479
     13 H                     0.086585
     14 H                     0.093094
     15 H                     0.205546
     16 H                     0.265144
     17 C                    -0.313708
     18 C                    -0.185524
     19 C                    -0.303690
     20 C                    -0.118485
     21 N                    -0.514527
     22 H                     0.122778
     23 H                     0.114959
     24 H                     0.103585
     25 H                     0.083243
     26 H                     0.120007
     27 H                     0.118809
     28 H                     0.115087
     29 H                     0.121075
     30 H                     0.116276
     31 H                     0.227072
     32 H                     0.234783
  ----------------------------------------
  Sum of atomic charges =     0.000000

 -----------------------------------------------------------------
                    Cartesian Multipole Moments
 -----------------------------------------------------------------
    Charge (ESU x 10^10)
                -0.0000
    Dipole Moment (Debye)
         X       1.4203      Y      -0.2287      Z       1.6960
       Tot       2.2240
    Quadrupole Moments (Debye-Ang)
        XX     -64.6759     XY      -0.2269     YY     -66.2711
        XZ       1.2748     YZ      -2.2045     ZZ     -69.8559
    Octopole Moments (Debye-Ang^2)
       XXX       4.2054    XXY     -11.4715    XYY       2.1849
       YYY     -18.5768    XXZ      -0.3914    XYZ      -2.4368
       YYZ       3.4114    XZZ       4.5343    YZZ      -0.4665
       ZZZ       9.8793
    Hexadecapole Moments (Debye-Ang^3)
      XXXX   -3167.3911   XXXY      36.7377   XXYY    -611.2676
      XYYY       5.0708   YYYY    -514.4445   XXXZ      21.0573
      XXYZ       4.8825   XYYZ      12.0520   YYYZ       1.1998
      XXZZ    -580.4807   XYZZ      -6.5894   YYZZ    -157.4708
      XZZZ       7.8789   YZZZ     -15.0717   ZZZZ    -375.9984
 -----------------------------------------------------------------
Archival summary:
1\1\c248.cluster\SP\ProcedureUnspecified\BasisUnspecified\2822\petercha\TueApr210:36:162024TueApr210:36:162024\0\\#,ProcedureUnspecified,BasisUnspecified,\\0,1\N\H,1,1.01911\H,1,1.0199,2,107.94\C,1,1.45506,2,111.762,3,123.02,0\H,4,1.10522,1,107.447,2,173.698,0\H,4,1.1061,1,107.36,2,60.1352,0\C,4,1.538,1,117.105,2,-63.5782,0\H,7,1.10835,4,107.325,1,-59.1712,0\C,7,1.52932,4,112.003,1,59.1942,0\H,9,1.10387,7,111.191,4,-179.837,0\H,9,1.10412,7,111.791,4,-60.0095,0\H,9,1.10609,7,110.738,4,60.3863,0\C,7,1.52935,4,110.089,1,-176.506,0\H,13,1.10389,7,111.34,4,177.274,0\H,13,1.10439,7,111.368,4,56.8977,0\H,13,1.10563,7,110.744,4,-62.8973,0\H,1,2.12446,2,102.278,3,-139.79,0\N,17,1.02549,1,159.82,2,-86.4666,0\H,18,1.0199,17,108.14,1,151.338,0\C,18,1.44883,17,111.823,1,-86.517,0\H,20,1.10678,18,108.332,17,174.918,0\H,20,1.10778,18,108.049,17,60.7166,0\C,20,1.54196,18,117.179,17,-62.0938,0\H,23,1.10855,20,106.915,18,-55.2642,0\C,23,1.52921,20,111.834,18,62.749,0\H,25,1.10323,23,111.604,20,-54.1938,0\H,25,1.10457,23,111.346,20,-175.16,0\H,25,1.10686,23,110.391,20,65.3606,0\C,23,1.52925,20,110.713,18,-172.748,0\H,29,1.10435,23,111.468,20,178.422,0\H,29,1.1046,23,111.462,20,57.9,0\H,29,1.10623,23,110.703,20,-61.8622,0\\\@

 Total job time:  124.92s(wall), 576.79s(cpu) 
 Tue Apr  2 10:36:16 2024

        *************************************************************
        *                                                           *
        *  Thank you very much for using Q-Chem.  Have a nice day.  *
        *                                                           *
        *************************************************************


remove work dirs /scratch/user/peterchao1/peterchao1/10001437_1712072050000000443175379/qchem58809.0 -- /scratch/user/peterchao1/peterchao1/10001437_1712072050000000443175379/qchem58809.-1
rm -rf /scratch/user/peterchao1/peterchao1/10001437_1712072050000000443175379/qchem58809
real 126.42
user 857.50
sys 65.17
