 Entering Gaussian System, Link 0=g16
 Input=gaussian_test.inp
 Output=gaussian_test.log
 Initial command:
 /sw/restricted/lms/sw/Gaussian/g16_B01/g16/l1.exe "/scratch/user/peterchao1/peterchao1/8625356_1689034688000000094350064/Gau-201615.inp" -scrdir="/scratch/user/peterchao1/peterchao1/8625356_1689034688000000094350064/"
 Entering Link 1 = /sw/restricted/lms/sw/Gaussian/g16_B01/g16/l1.exe PID=    201622.
  
 Copyright (c) 1988-2017, Gaussian, Inc.  All Rights Reserved.
  
 This is part of the Gaussian(R) 16 program.  It is based on
 the Gaussian(R) 09 system (copyright 2009, Gaussian, Inc.),
 the Gaussian(R) 03 system (copyright 2003, Gaussian, Inc.),
 the Gaussian(R) 98 system (copyright 1998, Gaussian, Inc.),
 the Gaussian(R) 94 system (copyright 1995, Gaussian, Inc.),
 the Gaussian 92(TM) system (copyright 1992, Gaussian, Inc.),
 the Gaussian 90(TM) system (copyright 1990, Gaussian, Inc.),
 the Gaussian 88(TM) system (copyright 1988, Gaussian, Inc.),
 the Gaussian 86(TM) system (copyright 1986, Carnegie Mellon
 University), and the Gaussian 82(TM) system (copyright 1983,
 Carnegie Mellon University). Gaussian is a federally registered
 trademark of Gaussian, Inc.
  
 This software contains proprietary and confidential information,
 including trade secrets, belonging to Gaussian, Inc.
  
 This software is provided under written license and may be
 used, copied, transmitted, or stored only in accord with that
 written license.
  
 The following legend is applicable only to US Government
 contracts under FAR:
  
                    RESTRICTED RIGHTS LEGEND
  
 Use, reproduction and disclosure by the US Government is
 subject to restrictions as set forth in subparagraphs (a)
 and (c) of the Commercial Computer Software - Restricted
 Rights clause in FAR 52.227-19.
  
 Gaussian, Inc.
 340 Quinnipiac St., Bldg. 40, Wallingford CT 06492
  
  
 ---------------------------------------------------------------
 Warning -- This program may not be used in any manner that
 competes with the business of Gaussian, Inc. or will provide
 assistance to any competitor of Gaussian, Inc.  The licensee
 of this program is prohibited from giving any competitor of
 Gaussian, Inc. access to this program.  By using this program,
 the user acknowledges that Gaussian, Inc. is engaged in the
 business of creating and licensing software in the field of
 computational chemistry and represents and warrants to the
 licensee that it is not a competitor of Gaussian, Inc. and that
 it will not use this program in any manner prohibited above.
 ---------------------------------------------------------------
  

 Cite this work as:
 Gaussian 16, Revision B.01,
 M. J. Frisch, G. W. Trucks, H. B. Schlegel, G. E. Scuseria, 
 M. A. Robb, J. R. Cheeseman, G. Scalmani, V. Barone, 
 G. A. Petersson, H. Nakatsuji, X. Li, M. Caricato, A. V. Marenich, 
 J. Bloino, B. G. Janesko, R. Gomperts, B. Mennucci, H. P. Hratchian, 
 J. V. Ortiz, A. F. Izmaylov, J. L. Sonnenberg, D. Williams-Young, 
 F. Ding, F. Lipparini, F. Egidi, J. Goings, B. Peng, A. Petrone, 
 T. Henderson, D. Ranasinghe, V. G. Zakrzewski, J. Gao, N. Rega, 
 G. Zheng, W. Liang, M. Hada, M. Ehara, K. Toyota, R. Fukuda, 
 J. Hasegawa, M. Ishida, T. Nakajima, Y. Honda, O. Kitao, H. Nakai, 
 T. Vreven, K. Throssell, J. A. Montgomery, Jr., J. E. Peralta, 
 F. Ogliaro, M. J. Bearpark, J. J. Heyd, E. N. Brothers, K. N. Kudin, 
 V. N. Staroverov, T. A. Keith, R. Kobayashi, J. Normand, 
 K. Raghavachari, A. P. Rendell, J. C. Burant, S. S. Iyengar, 
 J. Tomasi, M. Cossi, J. M. Millam, M. Klene, C. Adamo, R. Cammi, 
 J. W. Ochterski, R. L. Martin, K. Morokuma, O. Farkas, 
 J. B. Foresman, and D. J. Fox, Gaussian, Inc., Wallingford CT, 2016.
 
 ******************************************
 Gaussian 16:  ES64L-G16RevB.01 20-Dec-2017
                10-Jul-2023 
 ******************************************
 %nprocshared=4
 Will use up to    4 processors via shared memory.
 %mem=8000mb
 %chk=14.chk
 %mem=8000mb
 ----------------------------------------------------------------------
 #T wB97XD/def2svpp opt=tight freq int(grid=ultrafine) scf=(verytight,q
 c)
 ----------------------------------------------------------------------
 -------
 comment
 -------
 Symbolic Z-matrix:
 Charge =  1 Multiplicity = 2
 C                     0.96685  -0.7832   -1.26256 
 C                     0.55153  -0.00496  0. 
 C                     0.9668   -0.78288   1.26277 
 C                     1.21565   1.37393  -0.00016 
 C                    -0.97537   0.18905  -0.00002 
 O                    -1.71201  -0.94123  -0.00001 
 O                    -1.52211   1.2529   -0.00003 
 H                     2.06593  -0.87824  -1.29852 
 H                     0.63912  -0.26057  -2.17747 
 H                     0.55225  -1.80728  -1.29065 
 H                     2.06587  -0.878     1.29875 
 H                     0.55209  -1.80691   1.29115 
 H                     0.63912  -0.25997   2.17753 
 H                     2.3141    1.26371  -0.00011 
 H                     0.92018   1.95533   0.88791 
 H                     0.92025   1.95509  -0.88842 
 H                    -1.14871  -1.72822  -0.00003 
 

 GradGradGradGradGradGradGradGradGradGradGradGradGradGradGradGradGradGrad
 Initialization pass.
                           ----------------------------
                           !    Initial Parameters    !
                           ! (Angstroms and Degrees)  !
 --------------------------                            --------------------------
 ! Name  Definition              Value          Derivative Info.                !
 --------------------------------------------------------------------------------
 ! R1    R(1,2)                  1.5402         estimate D2E/DX2                !
 ! R2    R(1,8)                  1.1038         estimate D2E/DX2                !
 ! R3    R(1,9)                  1.1034         estimate D2E/DX2                !
 ! R4    R(1,10)                 1.1052         estimate D2E/DX2                !
 ! R5    R(2,3)                  1.5402         estimate D2E/DX2                !
 ! R6    R(2,4)                  1.5305         estimate D2E/DX2                !
 ! R7    R(2,5)                  1.5392         estimate D2E/DX2                !
 ! R8    R(3,11)                 1.1038         estimate D2E/DX2                !
 ! R9    R(3,12)                 1.1052         estimate D2E/DX2                !
 ! R10   R(3,13)                 1.1034         estimate D2E/DX2                !
 ! R11   R(4,14)                 1.104          estimate D2E/DX2                !
 ! R12   R(4,15)                 1.1018         estimate D2E/DX2                !
 ! R13   R(4,16)                 1.1018         estimate D2E/DX2                !
 ! R14   R(5,6)                  1.3491         estimate D2E/DX2                !
 ! R15   R(5,7)                  1.1961         estimate D2E/DX2                !
 ! R16   R(6,17)                 0.9678         estimate D2E/DX2                !
 ! A1    A(2,1,8)              109.7991         estimate D2E/DX2                !
 ! A2    A(2,1,9)              111.1164         estimate D2E/DX2                !
 ! A3    A(2,1,10)             112.8228         estimate D2E/DX2                !
 ! A4    A(8,1,9)              108.0305         estimate D2E/DX2                !
 ! A5    A(8,1,10)             107.0338         estimate D2E/DX2                !
 ! A6    A(9,1,10)             107.841          estimate D2E/DX2                !
 ! A7    A(1,2,3)              110.1311         estimate D2E/DX2                !
 ! A8    A(1,2,4)              109.7635         estimate D2E/DX2                !
 ! A9    A(1,2,5)              109.3407         estimate D2E/DX2                !
 ! A10   A(3,2,4)              109.7635         estimate D2E/DX2                !
 ! A11   A(3,2,5)              109.3384         estimate D2E/DX2                !
 ! A12   A(4,2,5)              108.476          estimate D2E/DX2                !
 ! A13   A(2,3,11)             109.7993         estimate D2E/DX2                !
 ! A14   A(2,3,12)             112.822          estimate D2E/DX2                !
 ! A15   A(2,3,13)             111.1158         estimate D2E/DX2                !
 ! A16   A(11,3,12)            107.035          estimate D2E/DX2                !
 ! A17   A(11,3,13)            108.0307         estimate D2E/DX2                !
 ! A18   A(12,3,13)            107.8409         estimate D2E/DX2                !
 ! A19   A(2,4,14)             109.9868         estimate D2E/DX2                !
 ! A20   A(2,4,15)             111.0359         estimate D2E/DX2                !
 ! A21   A(2,4,16)             111.036          estimate D2E/DX2                !
 ! A22   A(14,4,15)            108.6311         estimate D2E/DX2                !
 ! A23   A(14,4,16)            108.6308         estimate D2E/DX2                !
 ! A24   A(15,4,16)            107.4313         estimate D2E/DX2                !
 ! A25   A(2,5,6)              115.8522         estimate D2E/DX2                !
 ! A26   A(2,5,7)              124.4408         estimate D2E/DX2                !
 ! A27   A(6,5,7)              119.707          estimate D2E/DX2                !
 ! A28   A(5,6,17)             111.3126         estimate D2E/DX2                !
 ! D1    D(8,1,2,3)            -62.9431         estimate D2E/DX2                !
 ! D2    D(8,1,2,4)             58.0135         estimate D2E/DX2                !
 ! D3    D(8,1,2,5)            176.8947         estimate D2E/DX2                !
 ! D4    D(9,1,2,3)            177.6057         estimate D2E/DX2                !
 ! D5    D(9,1,2,4)            -61.4377         estimate D2E/DX2                !
 ! D6    D(9,1,2,5)             57.4435         estimate D2E/DX2                !
 ! D7    D(10,1,2,3)            56.3506         estimate D2E/DX2                !
 ! D8    D(10,1,2,4)           177.3071         estimate D2E/DX2                !
 ! D9    D(10,1,2,5)           -63.8116         estimate D2E/DX2                !
 ! D10   D(1,2,3,11)            62.9373         estimate D2E/DX2                !
 ! D11   D(1,2,3,12)           -56.3575         estimate D2E/DX2                !
 ! D12   D(1,2,3,13)          -177.6115         estimate D2E/DX2                !
 ! D13   D(4,2,3,11)           -58.0192         estimate D2E/DX2                !
 ! D14   D(4,2,3,12)          -177.314          estimate D2E/DX2                !
 ! D15   D(4,2,3,13)            61.432          estimate D2E/DX2                !
 ! D16   D(5,2,3,11)          -176.8991         estimate D2E/DX2                !
 ! D17   D(5,2,3,12)            63.8061         estimate D2E/DX2                !
 ! D18   D(5,2,3,13)           -57.4479         estimate D2E/DX2                !
 ! D19   D(1,2,4,14)           -60.5901         estimate D2E/DX2                !
 ! D20   D(1,2,4,15)           179.1384         estimate D2E/DX2                !
 ! D21   D(1,2,4,16)            59.6811         estimate D2E/DX2                !
 ! D22   D(3,2,4,14)            60.5879         estimate D2E/DX2                !
 ! D23   D(3,2,4,15)           -59.6836         estimate D2E/DX2                !
 ! D24   D(3,2,4,16)          -179.1409         estimate D2E/DX2                !
 ! D25   D(5,2,4,14)           179.9975         estimate D2E/DX2                !
 ! D26   D(5,2,4,15)            59.726          estimate D2E/DX2                !
 ! D27   D(5,2,4,16)           -59.7313         estimate D2E/DX2                !
 ! D28   D(1,2,5,6)             60.317          estimate D2E/DX2                !
 ! D29   D(1,2,5,7)           -119.6841         estimate D2E/DX2                !
 ! D30   D(3,2,5,6)            -60.3298         estimate D2E/DX2                !
 ! D31   D(3,2,5,7)            119.6691         estimate D2E/DX2                !
 ! D32   D(4,2,5,6)            179.9942         estimate D2E/DX2                !
 ! D33   D(4,2,5,7)             -0.0068         estimate D2E/DX2                !
 ! D34   D(2,5,6,17)            -0.0023         estimate D2E/DX2                !
 ! D35   D(7,5,6,17)           179.9987         estimate D2E/DX2                !
 --------------------------------------------------------------------------------
 Number of steps in this run=     89 maximum allowed number of steps=    102.
 GradGradGradGradGradGradGradGradGradGradGradGradGradGradGradGradGradGrad

                    Distance matrix (angstroms):
                    1          2          3          4          5
     1  C    0.000000
     2  C    1.540198   0.000000
     3  C    2.525335   1.540201   0.000000
     4  C    2.511725   1.530489   2.511727   0.000000
     5  C    2.512273   1.539178   2.512240   2.490892   0.000000
     6  O    2.965689   2.449534   2.965761   3.732452   1.349138
     7  O    3.454656   2.425323   3.454529   2.740438   1.196121
     8  H    1.103764   2.177654   2.788796   2.735136   3.474870
     9  H    1.103446   2.194164   3.495057   2.782921   2.747727
    10  H    1.105186   2.216790   2.782308   3.496512   2.825722
    11  H    2.788751   2.177659   1.103765   2.735188   3.474850
    12  H    2.782349   2.216781   1.105185   3.496509   2.825623
    13  H    3.495053   2.194159   1.103446   2.782868   2.747710
    14  H    2.756571   2.171675   2.756554   1.103968   3.460569
    15  H    3.482271   2.183347   2.764142   1.101813   2.738847
    16  H    2.764121   2.183350   3.482277   1.101816   2.738893
    17  H    2.638683   2.420833   2.638886   3.900453   1.925087
                    6          7          8          9         10
     6  O    0.000000
     7  O    2.202338   0.000000
     8  H    3.995361   4.370570   0.000000
     9  H    3.276033   3.420930   1.786016   0.000000
    10  H    2.746391   3.915792   1.776067   1.785019   0.000000
    11  H    3.995393   4.370492   2.597264   3.808005   3.140000
    12  H    2.746390   3.915601   3.140146   3.798688   2.581802
    13  H    3.276215   3.420733   3.808011   4.354992   3.798684
    14  H    4.590352   3.836230   2.517018   3.141639   3.768369
    15  H    4.013340   2.691955   3.757963   3.792852   4.363340
    16  H    4.013321   2.692108   3.083586   2.578730   3.801666
    17  H    0.967808   3.004415   3.569655   3.176715   2.136636
                   11         12         13         14         15
    11  H    0.000000
    12  H    1.776081   0.000000
    13  H    1.786018   1.785015   0.000000
    14  H    2.517052   3.768384   3.141536   0.000000
    15  H    3.083693   3.801651   2.578691   1.791627   0.000000
    16  H    3.757996   4.363337   3.792824   1.791627   1.776323
    17  H    3.569764   2.136834   3.177078   4.576315   4.317087
                   16         17
    16  H    0.000000
    17  H    4.317010   0.000000
 Framework group  C1[X(C5H10O2)]
 Deg. of freedom    45
                         Standard orientation:                         
 ---------------------------------------------------------------------
 Center     Atomic      Atomic             Coordinates (Angstroms)
 Number     Number       Type             X           Y           Z
 ---------------------------------------------------------------------
      1          6           0        0.966853   -0.783196   -1.262562
      2          6           0        0.551528   -0.004956   -0.000002
      3          6           0        0.966804   -0.782879    1.262773
      4          6           0        1.215651    1.373934   -0.000163
      5          6           0       -0.975374    0.189050   -0.000021
      6          8           0       -1.712009   -0.941234   -0.000011
      7          8           0       -1.522113    1.252902   -0.000025
      8          1           0        2.065930   -0.878236   -1.298518
      9          1           0        0.639116   -0.260573   -2.177465
     10          1           0        0.552250   -1.807282   -1.290652
     11          1           0        2.065874   -0.878001    1.298746
     12          1           0        0.552094   -1.806912    1.291150
     13          1           0        0.639116   -0.259966    2.177527
     14          1           0        2.314102    1.263707   -0.000107
     15          1           0        0.920180    1.955329    0.887907
     16          1           0        0.920250    1.955090   -0.888416
     17          1           0       -1.148707   -1.728218   -0.000029
 ---------------------------------------------------------------------
 Rotational constants (GHZ):           3.2881799           2.3722851           1.9866171
   118 basis functions,   215 primitive gaussians,   125 cartesian basis functions
    28 alpha electrons       27 beta electrons
       nuclear repulsion energy       329.1206772954 Hartrees.
 NAtoms=   17 NActive=   17 NUniq=   17 SFac= 1.00D+00 NAtFMM=   60 NAOKFM=F Big=F
 Nuclear repulsion after empirical dispersion term =      329.1101819949 Hartrees.
   1 Symmetry operations used in ECPInt.
 ECPInt:  NShTT=    1953 NPrTT=    7871 LenC2=    1947 LenP2D=    6422.
 LDataN:  DoStor=T MaxTD1= 4 Len=   56
 ExpMin= 1.22D-01 ExpMax= 2.27D+03 ExpMxC= 3.41D+02 IAcc=3 IRadAn=         5 AccDes= 0.00D+00
 Harris functional with IExCor= 4639 and IRadAn=       5 diagonalized for initial guess.
 HarFok:  IExCor= 4639 AccDes= 0.00D+00 IRadAn=         5 IDoV= 1 UseB2=F ITyADJ=14
 ICtDFT=  3500011 ScaDFX=  1.000000  1.000000  1.000000  1.000000
 FoFCou: FMM=F IPFlag=           0 FMFlag=      100000 FMFlg1=           0
         NFxFlg=           0 DoJE=T BraDBF=F KetDBF=T FulRan=T
         wScrn=  0.000000 ICntrl=       500 IOpCl=  0 I1Cent=   200000004 NGrid=           0
         NMat0=    1 NMatS0=      1 NMatT0=    0 NMatD0=    1 NMtDS0=    0 NMtDT0=    0
 Petite list used in FoFCou.
 Initial guess <Sx>= 0.0000 <Sy>= 0.0000 <Sz>= 0.5000 <S**2>= 0.7500 S= 0.5000
     Accept linear search using points  3 and  4.
     Accept linear search using points  2 and  3.
     Accept linear search using points  2 and  3.
     Accept linear search using points  1 and  2.
     Accept linear search using points  1 and  2.
     Accept linear search using points  1 and  2.
     Minimum is close to point  2 DX= -1.55D-02 DF= -2.11D-08 DXR=  1.57D-02 DFR=  2.51D-04 which will be used.
     Minimum is close to point  2 DX=  6.13D-04 DF=  0.00D+00 DXR=  6.13D-04 DFR=  0.00D+00 which will be used.
 SCF Done:  E(UwB97XD) =  -346.264338892     a.u. after    9 cycles
            Convg  =    0.6979D-07                    48 Fock formations.
              S**2 =  0.7566                  -V/T =  2.0090
 <Sx>= 0.0000 <Sy>= 0.0000 <Sz>= 0.5000 <S**2>= 0.7566 S= 0.5033
 <L.S>=  0.00000000000    
 Annihilation of the first spin contaminant:
 S**2 before annihilation     0.7566,   after     0.7500

 **********************************************************************

            Population analysis using the SCF Density.

 **********************************************************************

 Orbital symmetries:
 Alpha Orbitals:
       Occupied  (A) (A) (A) (A) (A) (A) (A) (A) (A) (A) (A) (A)
                 (A) (A) (A) (A) (A) (A) (A) (A) (A) (A) (A) (A)
                 (A) (A) (A) (A)
       Virtual   (A) (A) (A) (A) (A) (A) (A) (A) (A) (A) (A) (A)
                 (A) (A) (A) (A) (A) (A) (A) (A) (A) (A) (A) (A)
                 (A) (A) (A) (A) (A) (A) (A) (A) (A) (A) (A) (A)
                 (A) (A) (A) (A) (A) (A) (A) (A) (A) (A) (A) (A)
                 (A) (A) (A) (A) (A) (A) (A) (A) (A) (A) (A) (A)
                 (A) (A) (A) (A) (A) (A) (A) (A) (A) (A) (A) (A)
                 (A) (A) (A) (A) (A) (A) (A) (A) (A) (A) (A) (A)
                 (A) (A) (A) (A) (A) (A)
 Beta  Orbitals:
       Occupied  (A) (A) (A) (A) (A) (A) (A) (A) (A) (A) (A) (A)
                 (A) (A) (A) (A) (A) (A) (A) (A) (A) (A) (A) (A)
                 (A) (A) (A)
       Virtual   (A) (A) (A) (A) (A) (A) (A) (A) (A) (A) (A) (A)
                 (A) (A) (A) (A) (A) (A) (A) (A) (A) (A) (A) (A)
                 (A) (A) (A) (A) (A) (A) (A) (A) (A) (A) (A) (A)
                 (A) (A) (A) (A) (A) (A) (A) (A) (A) (A) (A) (A)
                 (A) (A) (A) (A) (A) (A) (A) (A) (A) (A) (A) (A)
                 (A) (A) (A) (A) (A) (A) (A) (A) (A) (A) (A) (A)
                 (A) (A) (A) (A) (A) (A) (A) (A) (A) (A) (A) (A)
                 (A) (A) (A) (A) (A) (A) (A)
 The electronic state is 2-A.
 Alpha  occ. eigenvalues --  -19.62318 -19.56626 -10.71682 -10.56965 -10.49380
 Alpha  occ. eigenvalues --  -10.49379 -10.47102  -1.51345  -1.41370  -1.15006
 Alpha  occ. eigenvalues --   -0.98977  -0.98776  -0.97848  -0.94437  -0.86558
 Alpha  occ. eigenvalues --   -0.83072  -0.80194  -0.77240  -0.73419  -0.72629
 Alpha  occ. eigenvalues --   -0.71685  -0.69878  -0.66875  -0.66205  -0.64404
 Alpha  occ. eigenvalues --   -0.64123  -0.62454  -0.62232
 Alpha virt. eigenvalues --   -0.18923  -0.08079  -0.01759  -0.00249   0.02664
 Alpha virt. eigenvalues --    0.02836   0.02902   0.03820   0.06280   0.06575
 Alpha virt. eigenvalues --    0.07591   0.09360   0.10079   0.11077   0.11843
 Alpha virt. eigenvalues --    0.17154   0.19254   0.25728   0.29133   0.30110
 Alpha virt. eigenvalues --    0.32045   0.34124   0.42193   0.43552   0.46071
 Alpha virt. eigenvalues --    0.47735   0.48884   0.50386   0.50620   0.56266
 Alpha virt. eigenvalues --    0.57147   0.57694   0.58107   0.59422   0.61046
 Alpha virt. eigenvalues --    0.61994   0.62876   0.63496   0.64036   0.64808
 Alpha virt. eigenvalues --    0.65660   0.66885   0.71933   0.75691   0.81436
 Alpha virt. eigenvalues --    0.82810   0.87682   0.91735   0.95264   0.97280
 Alpha virt. eigenvalues --    1.00851   1.08834   1.20106   1.22840   1.28279
 Alpha virt. eigenvalues --    1.29133   1.39658   1.52948   1.56754   1.59249
 Alpha virt. eigenvalues --    1.61346   1.67661   1.69041   1.72776   1.78287
 Alpha virt. eigenvalues --    1.89466   1.90061   1.90112   1.93202   2.00576
 Alpha virt. eigenvalues --    2.03402   2.04169   2.04547   2.07067   2.10720
 Alpha virt. eigenvalues --    2.31870   2.32350   2.37775   2.38937   2.40632
 Alpha virt. eigenvalues --    2.45749   2.50865   2.51807   2.74711   2.78200
 Alpha virt. eigenvalues --    2.79292   2.96885   3.08890   3.37101   3.39803
  Beta  occ. eigenvalues --  -19.60516 -19.56406 -10.71740 -10.56735 -10.49352
  Beta  occ. eigenvalues --  -10.49351 -10.47113  -1.48210  -1.39493  -1.14094
  Beta  occ. eigenvalues --   -0.98576  -0.97629  -0.97393  -0.92374  -0.83861
  Beta  occ. eigenvalues --   -0.82028  -0.79094  -0.74797  -0.72380  -0.71324
  Beta  occ. eigenvalues --   -0.68681  -0.67326  -0.66422  -0.64812  -0.64352
  Beta  occ. eigenvalues --   -0.62306  -0.62098
  Beta virt. eigenvalues --   -0.38809  -0.18332  -0.07907  -0.01500   0.00149
  Beta virt. eigenvalues --    0.02707   0.02859   0.03286   0.04128   0.06568
  Beta virt. eigenvalues --    0.06836   0.07698   0.09687   0.10087   0.11289
  Beta virt. eigenvalues --    0.12208   0.17928   0.20511   0.26060   0.29162
  Beta virt. eigenvalues --    0.30187   0.32076   0.34632   0.42775   0.44181
  Beta virt. eigenvalues --    0.46265   0.48119   0.49531   0.50629   0.51033
  Beta virt. eigenvalues --    0.56485   0.57188   0.57842   0.58305   0.59648
  Beta virt. eigenvalues --    0.61482   0.62079   0.63178   0.63734   0.64129
  Beta virt. eigenvalues --    0.65141   0.65680   0.67287   0.71964   0.76378
  Beta virt. eigenvalues --    0.81798   0.83269   0.88629   0.92572   0.95894
  Beta virt. eigenvalues --    0.98112   1.01184   1.10733   1.20509   1.23850
  Beta virt. eigenvalues --    1.29475   1.29639   1.39640   1.53158   1.57812
  Beta virt. eigenvalues --    1.59346   1.61980   1.68060   1.69473   1.73265
  Beta virt. eigenvalues --    1.79026   1.89696   1.90158   1.90354   1.93404
  Beta virt. eigenvalues --    2.01018   2.03806   2.04284   2.04570   2.07338
  Beta virt. eigenvalues --    2.11532   2.33091   2.33737   2.39081   2.41714
  Beta virt. eigenvalues --    2.43503   2.48950   2.52461   2.52464   2.75714
  Beta virt. eigenvalues --    2.78611   2.80980   2.97977   3.10463   3.39143
  Beta virt. eigenvalues --    3.42170
          Condensed to atoms (all electrons):
          Atomic-Atomic Spin Densities.
 Mulliken charges and spin densities:
               1          2
     1  C   -0.286651   0.018261
     2  C   -0.465063   0.140118
     3  C   -0.286628   0.018264
     4  C   -0.283138  -0.000070
     5  C    0.418382  -0.044059
     6  O   -0.281303   0.074097
     7  O    0.128396   0.751562
     8  H    0.212622   0.021086
     9  H    0.190350   0.001945
    10  H    0.157335  -0.001028
    11  H    0.212622   0.021086
    12  H    0.157333  -0.001027
    13  H    0.190346   0.001943
    14  H    0.184392   0.000224
    15  H    0.175764   0.000041
    16  H    0.175765   0.000042
    17  H    0.399476  -0.002486
 Sum of Mulliken charges =   1.00000   1.00000
 Mulliken charges and spin densities with hydrogens summed into heavy atoms:
               1          2
     1  C    0.273657   0.040265
     2  C   -0.465063   0.140118
     3  C    0.273673   0.040266
     4  C    0.252782   0.000238
     5  C    0.418382  -0.044059
     6  O    0.118174   0.071611
     7  O    0.128396   0.751562
 Electronic spatial extent (au):  <R**2>=            734.0242
 Charge=              1.0000 electrons
 Dipole moment (field-independent basis, Debye):
    X=              1.0784    Y=             -1.7274    Z=             -0.0000  Tot=              2.0364
                          Isotropic Fermi Contact Couplings
        Atom                 a.u.       MegaHertz       Gauss      10(-4) cm-1
     1  C(13)              0.00199       2.23567       0.79774       0.74574
     2  C(13)              0.02150      24.16640       8.62317       8.06104
     3  C(13)              0.00199       2.23750       0.79839       0.74635
     4  C(13)             -0.00634      -7.12844      -2.54361      -2.37779
     5  C(13)             -0.01606     -18.05383      -6.44206      -6.02211
     6  O(17)              0.02196     -13.31089      -4.74966      -4.44003
     7  O(17)              0.25004    -151.57585     -54.08603     -50.56026
     8  H(1)               0.00931      41.61441      14.84906      13.88107
     9  H(1)               0.00111       4.95609       1.76846       1.65317
    10  H(1)              -0.00031      -1.36534      -0.48719      -0.45543
    11  H(1)               0.00931      41.61478      14.84919      13.88120
    12  H(1)              -0.00031      -1.36526      -0.48716      -0.45540
    13  H(1)               0.00111       4.95342       1.76750       1.65228
    14  H(1)               0.00028       1.25489       0.44778       0.41859
    15  H(1)              -0.00004      -0.17648      -0.06297      -0.05887
    16  H(1)              -0.00004      -0.17725      -0.06325      -0.05913
    17  H(1)              -0.00127      -5.66885      -2.02279      -1.89092
 --------------------------------------------------------
       Center         ----  Spin Dipole Couplings  ----
                      3XX-RR        3YY-RR        3ZZ-RR
 --------------------------------------------------------
     1   Atom        0.017136     -0.008245     -0.008891
     2   Atom        0.210805     -0.085786     -0.125018
     3   Atom        0.017132     -0.008251     -0.008881
     4   Atom        0.009776     -0.001612     -0.008164
     5   Atom        0.076156      0.031028     -0.107184
     6   Atom        0.097061      0.152501     -0.249563
     7   Atom        2.315695     -0.982037     -1.333658
     8   Atom        0.007228     -0.004167     -0.003061
     9   Atom       -0.002361     -0.004581      0.006942
    10   Atom       -0.001399      0.004395     -0.002995
    11   Atom        0.007228     -0.004168     -0.003060
    12   Atom       -0.001400      0.004393     -0.002993
    13   Atom       -0.002360     -0.004581      0.006942
    14   Atom        0.004881     -0.001053     -0.003828
    15   Atom        0.007580     -0.002443     -0.005137
    16   Atom        0.007577     -0.002443     -0.005134
    17   Atom        0.001028      0.016443     -0.017470
 --------------------------------------------------------
                        XY            XZ            YZ
 --------------------------------------------------------
     1   Atom       -0.024854     -0.022953      0.013595
     2   Atom       -0.106438      0.000026     -0.000008
     3   Atom       -0.024850      0.022963     -0.013599
     4   Atom        0.002557      0.000000      0.000002
     5   Atom       -0.089072      0.000001     -0.000000
     6   Atom        0.305497     -0.000007     -0.000008
     7   Atom        1.472484     -0.000062     -0.000024
     8   Atom       -0.001385     -0.001078      0.001626
     9   Atom       -0.002350     -0.003460      0.000903
    10   Atom       -0.001490     -0.001696      0.004568
    11   Atom       -0.001386      0.001078     -0.001625
    12   Atom       -0.001489      0.001696     -0.004570
    13   Atom       -0.002350      0.003461     -0.000900
    14   Atom        0.002172     -0.000001     -0.000000
    15   Atom        0.005052      0.006187      0.003117
    16   Atom        0.005050     -0.006189     -0.003117
    17   Atom       -0.008768     -0.000000      0.000000
 --------------------------------------------------------


 ---------------------------------------------------------------------------------
              Anisotropic Spin Dipole Couplings in Principal Axis System
 ---------------------------------------------------------------------------------

       Atom             a.u.   MegaHertz   Gauss  10(-4) cm-1        Axes

              Baa    -0.0235    -3.159    -1.127    -1.054  0.5901  0.7826  0.1982
     1 C(13)  Bbb    -0.0219    -2.940    -1.049    -0.981  0.2524 -0.4120  0.8755
              Bcc     0.0454     6.099     2.176     2.034  0.7669 -0.4666 -0.4407
 
              Baa    -0.1250   -16.776    -5.986    -5.596 -0.0001 -0.0000  1.0000
     2 C(13)  Bbb    -0.1200   -16.107    -5.747    -5.373  0.3063  0.9519  0.0001
              Bcc     0.2450    32.883    11.734    10.969  0.9519 -0.3063  0.0001
 
              Baa    -0.0235    -3.159    -1.127    -1.054  0.5902  0.7825 -0.1986
     3 C(13)  Bbb    -0.0219    -2.940    -1.049    -0.981 -0.2523  0.4125  0.8753
              Bcc     0.0455     6.099     2.176     2.034  0.7668 -0.4665  0.4409
 
              Baa    -0.0082    -1.096    -0.391    -0.365  0.0000 -0.0004  1.0000
     4 C(13)  Bbb    -0.0022    -0.290    -0.103    -0.097 -0.2095  0.9778  0.0004
              Bcc     0.0103     1.385     0.494     0.462  0.9778  0.2095  0.0000
 
              Baa    -0.1072   -14.383    -5.132    -4.798 -0.0000 -0.0000  1.0000
     5 C(13)  Bbb    -0.0383    -5.139    -1.834    -1.714  0.6142  0.7892  0.0000
              Bcc     0.1455    19.522     6.966     6.512  0.7892 -0.6142  0.0000
 
              Baa    -0.2496    18.058     6.444     6.024  0.0000  0.0000  1.0000
     6 O(17)  Bbb    -0.1820    13.167     4.698     4.392  0.7384 -0.6744 -0.0000
              Bcc     0.4315   -31.225   -11.142   -10.416  0.6744  0.7384 -0.0000
 
              Baa    -1.5438   111.710    39.861    37.262 -0.3565  0.9343 -0.0000
     7 O(17)  Bbb    -1.3337    96.503    34.435    32.190  0.0000  0.0000  1.0000
              Bcc     2.8775  -208.212   -74.295   -69.452  0.9343  0.3565 -0.0000
 
              Baa    -0.0054    -2.856    -1.019    -0.953  0.0423  0.8241 -0.5648
     8 H(1)   Bbb    -0.0022    -1.171    -0.418    -0.391  0.1743  0.5506  0.8164
              Bcc     0.0075     4.027     1.437     1.343  0.9838 -0.1330 -0.1204
 
              Baa    -0.0062    -3.296    -1.176    -1.099  0.5851  0.8049  0.0989
     9 H(1)   Bbb    -0.0021    -1.127    -0.402    -0.376  0.7401 -0.5799  0.3406
              Bcc     0.0083     4.423     1.578     1.475 -0.3315  0.1261  0.9350
 
              Baa    -0.0054    -2.877    -1.027    -0.960  0.2373 -0.3809  0.8936
    10 H(1)   Bbb    -0.0017    -0.904    -0.322    -0.301  0.9415  0.3168 -0.1150
              Bcc     0.0071     3.781     1.349     1.261 -0.2392  0.8687  0.4338
 
              Baa    -0.0054    -2.856    -1.019    -0.953  0.0424  0.8243  0.5645
    11 H(1)   Bbb    -0.0022    -1.171    -0.418    -0.391 -0.1743 -0.5503  0.8166
              Bcc     0.0075     4.027     1.437     1.343  0.9838 -0.1330  0.1203
 
              Baa    -0.0054    -2.877    -1.027    -0.960 -0.2373  0.3812  0.8935
    12 H(1)   Bbb    -0.0017    -0.904    -0.322    -0.301  0.9415  0.3167  0.1150
              Bcc     0.0071     3.781     1.349     1.261 -0.2392  0.8686 -0.4340
 
              Baa    -0.0062    -3.297    -1.176    -1.100  0.5852  0.8048 -0.0992
    13 H(1)   Bbb    -0.0021    -1.127    -0.402    -0.376  0.7400 -0.5800 -0.3406
              Bcc     0.0083     4.423     1.578     1.475  0.3316 -0.1259  0.9350
 
              Baa    -0.0038    -2.043    -0.729    -0.681  0.0001 -0.0000  1.0000
    14 H(1)   Bbb    -0.0018    -0.941    -0.336    -0.314 -0.3108  0.9505  0.0000
              Bcc     0.0056     2.983     1.064     0.995  0.9505  0.3108 -0.0001
 
              Baa    -0.0079    -4.227    -1.508    -1.410 -0.2818 -0.2648  0.9222
    15 H(1)   Bbb    -0.0045    -2.393    -0.854    -0.798 -0.4362  0.8915  0.1227
              Bcc     0.0124     6.620     2.362     2.208  0.8546  0.3677  0.3667
 
              Baa    -0.0079    -4.227    -1.508    -1.410  0.2820  0.2648  0.9221
    16 H(1)   Bbb    -0.0045    -2.393    -0.854    -0.798 -0.4361  0.8915 -0.1226
              Bcc     0.0124     6.620     2.362     2.208  0.8546  0.3676 -0.3669
 
              Baa    -0.0175    -9.321    -3.326    -3.109  0.0000 -0.0000  1.0000
    17 H(1)   Bbb    -0.0029    -1.568    -0.560    -0.523  0.9111  0.4122 -0.0000
              Bcc     0.0204    10.889     3.886     3.632 -0.4122  0.9111  0.0000
 

 ---------------------------------------------------------------------------------

   1 Symmetry operations used in ECPInt.
 ECPInt:  NShTT=    1953 NPrTT=    7871 LenC2=    1947 LenP2D=    6422.
 LDataN:  DoStor=T MaxTD1= 5 Len=  102
 Calling FoFJK, ICntrl=      2127 FMM=F ISym2X=0 I1Cent= 0 IOpClX= 1 NMat=1 NMatS=1 NMatT=0.

 GradGradGradGradGradGradGradGradGradGradGradGradGradGradGradGradGradGrad
 FormGI is forming the generalized inverse of G from B-inverse, IUseBI=4.
 Internal  Forces:  Max     0.044315293 RMS     0.007371397
 Step number   1 out of a maximum of   89
 All quantities printed in internal units (Hartrees-Bohrs-Radians)
 Mixed Optimization -- RFO/linear search
 Second derivative matrix not updated -- first step.
 ITU=  0
     Eigenvalues ---    0.00234   0.00234   0.00248   0.00363   0.00737
     Eigenvalues ---    0.02365   0.04617   0.05238   0.05238   0.05244
     Eigenvalues ---    0.05452   0.05534   0.05534   0.05549   0.05607
     Eigenvalues ---    0.15016   0.15074   0.16000   0.16000   0.16000
     Eigenvalues ---    0.16000   0.16000   0.16000   0.16000   0.16000
     Eigenvalues ---    0.16000   0.16000   0.25000   0.25000   0.28501
     Eigenvalues ---    0.28501   0.28592   0.29378   0.33115   0.33115
     Eigenvalues ---    0.33247   0.33269   0.33269   0.33304   0.33304
     Eigenvalues ---    0.33482   0.33482   0.53827   0.55205   1.06797
 Linear search not attempted -- first point.
 Iteration  1 RMS(Cart)=  0.03119589 RMS(Int)=  0.00112160
 Iteration  2 RMS(Cart)=  0.00139697 RMS(Int)=  0.00066159
 Iteration  3 RMS(Cart)=  0.00000082 RMS(Int)=  0.00066159
 Variable       Old X    -DE/DX   Delta X   Delta X   Delta X     New X
                                 (Linear)    (Quad)   (Total)
    R1        2.91055  -0.00031   0.00000  -0.00105  -0.00105   2.90950
    R2        2.08581  -0.00047   0.00000  -0.00136  -0.00136   2.08445
    R3        2.08521  -0.00001   0.00000  -0.00003  -0.00003   2.08518
    R4        2.08850  -0.00056   0.00000  -0.00162  -0.00162   2.08688
    R5        2.91056  -0.00031   0.00000  -0.00104  -0.00104   2.90951
    R6        2.89221   0.00594   0.00000   0.01931   0.01931   2.91151
    R7        2.90862   0.01471   0.00000   0.04901   0.04901   2.95764
    R8        2.08581  -0.00047   0.00000  -0.00136  -0.00136   2.08445
    R9        2.08850  -0.00056   0.00000  -0.00162  -0.00162   2.08688
   R10        2.08521  -0.00001   0.00000  -0.00003  -0.00003   2.08518
   R11        2.08620  -0.00254   0.00000  -0.00734  -0.00734   2.07886
   R12        2.08212   0.00069   0.00000   0.00199   0.00199   2.08412
   R13        2.08213   0.00069   0.00000   0.00199   0.00199   2.08412
   R14        2.54950  -0.04432   0.00000  -0.07827  -0.07827   2.47123
   R15        2.26034   0.02313   0.00000   0.02137   0.02137   2.28171
   R16        1.82889   0.00879   0.00000   0.01592   0.01592   1.84481
    A1        1.91636  -0.00922   0.00000  -0.06296  -0.06283   1.85353
    A2        1.93935   0.00397   0.00000   0.02743   0.02696   1.96631
    A3        1.96913   0.00240   0.00000   0.01936   0.01883   1.98796
    A4        1.88549   0.00125   0.00000  -0.00358  -0.00338   1.88211
    A5        1.86809   0.00264   0.00000   0.00699   0.00704   1.87513
    A6        1.88218  -0.00099   0.00000   0.01230   0.01137   1.89355
    A7        1.92215   0.00719   0.00000   0.04926   0.04648   1.96863
    A8        1.91573  -0.00076   0.00000   0.02223   0.02111   1.93684
    A9        1.90836  -0.00576   0.00000  -0.06280  -0.06223   1.84613
   A10        1.91573  -0.00076   0.00000   0.02223   0.02111   1.93684
   A11        1.90832  -0.00576   0.00000  -0.06280  -0.06222   1.84609
   A12        1.89326   0.00578   0.00000   0.03077   0.03156   1.92483
   A13        1.91636  -0.00922   0.00000  -0.06296  -0.06283   1.85353
   A14        1.96912   0.00240   0.00000   0.01937   0.01884   1.98796
   A15        1.93934   0.00397   0.00000   0.02744   0.02697   1.96631
   A16        1.86811   0.00264   0.00000   0.00698   0.00704   1.87515
   A17        1.88549   0.00125   0.00000  -0.00358  -0.00338   1.88212
   A18        1.88218  -0.00099   0.00000   0.01229   0.01137   1.89354
   A19        1.91963  -0.00251   0.00000  -0.02212  -0.02207   1.89756
   A20        1.93794   0.00186   0.00000   0.01454   0.01431   1.95225
   A21        1.93794   0.00186   0.00000   0.01454   0.01431   1.95225
   A22        1.89597  -0.00072   0.00000  -0.01147  -0.01142   1.88455
   A23        1.89597  -0.00072   0.00000  -0.01147  -0.01142   1.88454
   A24        1.87503   0.00021   0.00000   0.01578   0.01532   1.89035
   A25        2.02200   0.01927   0.00000   0.07296   0.07296   2.09496
   A26        2.17190  -0.02061   0.00000  -0.07804  -0.07804   2.09387
   A27        2.08928   0.00134   0.00000   0.00508   0.00508   2.09436
   A28        1.94277  -0.00005   0.00000  -0.00031  -0.00031   1.94246
    D1       -1.09856  -0.00336   0.00000  -0.05911  -0.05991  -1.15847
    D2        1.01253  -0.00021   0.00000   0.01427   0.01470   1.02723
    D3        3.08740   0.00291   0.00000   0.02719   0.02743   3.11482
    D4        3.09980  -0.00147   0.00000  -0.03126  -0.03173   3.06807
    D5       -1.07229   0.00168   0.00000   0.04212   0.04288  -1.02941
    D6        1.00258   0.00480   0.00000   0.05504   0.05560   1.05818
    D7        0.98350  -0.00478   0.00000  -0.08081  -0.08181   0.90170
    D8        3.09459  -0.00162   0.00000  -0.00743  -0.00720   3.08740
    D9       -1.11372   0.00149   0.00000   0.00549   0.00553  -1.10820
   D10        1.09846   0.00336   0.00000   0.05911   0.05991   1.15837
   D11       -0.98362   0.00478   0.00000   0.08082   0.08182  -0.90181
   D12       -3.09991   0.00147   0.00000   0.03127   0.03174  -3.06817
   D13       -1.01263   0.00021   0.00000  -0.01426  -0.01470  -1.02732
   D14       -3.09471   0.00162   0.00000   0.00744   0.00721  -3.08751
   D15        1.07219  -0.00168   0.00000  -0.04211  -0.04287   1.02932
   D16       -3.08747  -0.00291   0.00000  -0.02719  -0.02743  -3.11490
   D17        1.11363  -0.00149   0.00000  -0.00549  -0.00552   1.10810
   D18       -1.00265  -0.00480   0.00000  -0.05504  -0.05560  -1.05826
   D19       -1.05750  -0.00397   0.00000  -0.04469  -0.04424  -1.10174
   D20        3.12655  -0.00261   0.00000  -0.02519  -0.02461   3.10194
   D21        1.04163  -0.00532   0.00000  -0.06419  -0.06387   0.97776
   D22        1.05746   0.00397   0.00000   0.04469   0.04425   1.10170
   D23       -1.04168   0.00532   0.00000   0.06420   0.06388  -0.97780
   D24       -3.12660   0.00261   0.00000   0.02519   0.02462  -3.10198
   D25        3.14155   0.00000   0.00000   0.00001   0.00001   3.14155
   D26        1.04242   0.00136   0.00000   0.01951   0.01964   1.06205
   D27       -1.04251  -0.00136   0.00000  -0.01949  -0.01962  -1.06213
   D28        1.05273   0.00086   0.00000  -0.00850  -0.00673   1.04600
   D29       -2.08888   0.00086   0.00000  -0.00849  -0.00672  -2.09561
   D30       -1.05295  -0.00086   0.00000   0.00847   0.00671  -1.04625
   D31        2.08862  -0.00086   0.00000   0.00848   0.00672   2.09534
   D32        3.14149  -0.00000   0.00000  -0.00001  -0.00001   3.14148
   D33       -0.00012  -0.00000   0.00000  -0.00000  -0.00000  -0.00012
   D34       -0.00004  -0.00000   0.00000   0.00000   0.00000  -0.00004
   D35        3.14157  -0.00000   0.00000  -0.00001  -0.00001   3.14156
         Item               Value     Threshold  Converged?
 Maximum Force            0.044315     0.000015     NO 
 RMS     Force            0.007371     0.000010     NO 
 Maximum Displacement     0.123999     0.000060     NO 
 RMS     Displacement     0.031450     0.000040     NO 
 GradGradGradGradGradGradGradGradGradGradGradGradGradGradGradGradGradGrad

                    Distance matrix (angstroms):
                    1          2          3          4          5
     1  C    0.000000
     2  C    1.539643   0.000000
     3  C    2.564719   1.539649   0.000000
     4  C    2.538183   1.540706   2.538188   0.000000
     5  C    2.475949   1.565115   2.475921   2.548592   0.000000
     6  O    2.959079   2.491674   2.959163   3.771686   1.307719
     7  O    3.396207   2.407387   3.396075   2.731733   1.207431
     8  H    1.103043   2.129504   2.811434   2.714735   3.427266
     9  H    1.103429   2.212953   3.534744   2.815697   2.741240
    10  H    1.104330   2.228867   2.816223   3.526174   2.784092
    11  H    2.811385   2.129508   1.103043   2.714786   3.427246
    12  H    2.816263   2.228866   1.104328   3.526177   2.784007
    13  H    3.534743   2.212954   1.103429   2.815656   2.741237
    14  H    2.788481   2.161490   2.788470   1.100086   3.497975
    15  H    3.509578   2.203455   2.780572   1.102867   2.821070
    16  H    2.780550   2.203455   3.509584   1.102867   2.821106
    17  H    2.661681   2.485805   2.661908   3.968331   1.894842
                    6          7          8          9         10
     6  O    0.000000
     7  O    2.178739   0.000000
     8  H    3.982651   4.293895   0.000000
     9  H    3.283761   3.382691   1.783227   0.000000
    10  H    2.751486   3.872236   1.779408   1.791674   0.000000
    11  H    3.982692   4.293812   2.607428   3.826813   3.160586
    12  H    2.751507   3.872051   3.160730   3.836211   2.616927
    13  H    3.283962   3.382493   3.826826   4.396916   3.836207
    14  H    4.619274   3.819970   2.505824   3.177102   3.793383
    15  H    4.065279   2.713962   3.738637   3.827656   4.397056
    16  H    4.065250   2.714110   3.052081   2.605646   3.828204
    17  H    0.976232   2.992912   3.588276   3.211108   2.159942
                   11         12         13         14         15
    11  H    0.000000
    12  H    1.779417   0.000000
    13  H    1.783230   1.791670   0.000000
    14  H    2.505859   3.793402   3.177013   0.000000
    15  H    3.052186   3.828197   2.605617   1.781962   0.000000
    16  H    3.738668   4.397056   3.827635   1.781960   1.787969
    17  H    3.588401   2.160175   3.211500   4.633828   4.392739
                   16         17
    16  H    0.000000
    17  H    4.392649   0.000000
 Framework group  C1[X(C5H10O2)]
 Deg. of freedom    45
                         Standard orientation:                         
 ---------------------------------------------------------------------
 Center     Atomic      Atomic             Coordinates (Angstroms)
 Number     Number       Type             X           Y           Z
 ---------------------------------------------------------------------
      1          6           0        0.870054   -0.845873   -1.282252
      2          6           0        0.580353   -0.044372   -0.000001
      3          6           0        0.870034   -0.845545    1.282467
      4          6           0        1.346712    1.292217   -0.000168
      5          6           0       -0.963098    0.215138   -0.000017
      6          8           0       -1.796255   -0.792818   -0.000019
      7          8           0       -1.384478    1.346654   -0.000017
      8          1           0        1.960821   -1.008590   -1.303604
      9          1           0        0.592162   -0.297273   -2.198424
     10          1           0        0.386818   -1.838522   -1.308211
     11          1           0        1.960788   -1.008344    1.303824
     12          1           0        0.386703   -1.838139    1.308716
     13          1           0        0.592215   -0.296665    2.198492
     14          1           0        2.426196    1.080308   -0.000114
     15          1           0        1.118419    1.896492    0.893727
     16          1           0        1.118462    1.896243   -0.894242
     17          1           0       -1.321052   -1.645585   -0.000043
 ---------------------------------------------------------------------
 Rotational constants (GHZ):           3.2713083           2.3685065           2.0017411
   118 basis functions,   215 primitive gaussians,   125 cartesian basis functions
    28 alpha electrons       27 beta electrons
       nuclear repulsion energy       329.1111882122 Hartrees.
 NAtoms=   17 NActive=   17 NUniq=   17 SFac= 1.00D+00 NAtFMM=   60 NAOKFM=F Big=F
 Nuclear repulsion after empirical dispersion term =      329.1006772098 Hartrees.
   1 Symmetry operations used in ECPInt.
 ECPInt:  NShTT=    1953 NPrTT=    7871 LenC2=    1948 LenP2D=    6420.
 LDataN:  DoStor=T MaxTD1= 4 Len=   56
 Initial guess from the checkpoint file:  "14.chk"
 B after Tr=    -0.000000    0.000000   -0.000000
         Rot=    0.999149   -0.000000    0.000000    0.041242 Ang=  -4.73 deg.
 Initial guess <Sx>= 0.0000 <Sy>= 0.0000 <Sz>= 0.5000 <S**2>= 0.7564 S= 0.5032
 ExpMin= 1.22D-01 ExpMax= 2.27D+03 ExpMxC= 3.41D+02 IAcc=3 IRadAn=         5 AccDes= 0.00D+00
 Harris functional with IExCor= 4639 and IRadAn=       5 diagonalized for initial guess.
 HarFok:  IExCor= 4639 AccDes= 0.00D+00 IRadAn=         5 IDoV= 1 UseB2=F ITyADJ=14
 ICtDFT=  3500011 ScaDFX=  1.000000  1.000000  1.000000  1.000000
 FoFCou: FMM=F IPFlag=           0 FMFlag=      100000 FMFlg1=           0
         NFxFlg=           0 DoJE=T BraDBF=F KetDBF=T FulRan=T
         wScrn=  0.000000 ICntrl=       500 IOpCl=  0 I1Cent=   200000004 NGrid=           0
         NMat0=    1 NMatS0=      1 NMatT0=    0 NMatD0=    1 NMtDS0=    0 NMtDT0=    0
 Petite list used in FoFCou.
     Accept linear search using points  3 and  4.
     Accept linear search using points  2 and  3.
     Accept linear search using points  1 and  2.
     Accept linear search using points  1 and  2.
     Accept linear search using points  1 and  2.
     Minimum is close to point  2 DX= -2.82D-03 DF= -2.40D-09 DXR=  2.82D-03 DFR=  8.00D-06 which will be used.
     Accept linear search using points  1 and  2.
     Minimum is close to point  2 DX= -5.43D-05 DF=  0.00D+00 DXR=  5.43D-05 DFR=  0.00D+00 which will be used.
 SCF Done:  E(UwB97XD) =  -346.273883044     a.u. after    9 cycles
            Convg  =    0.1150D-06                    48 Fock formations.
              S**2 =  0.7563                  -V/T =  2.0091
 <Sx>= 0.0000 <Sy>= 0.0000 <Sz>= 0.5000 <S**2>= 0.7563 S= 0.5031
 <L.S>=  0.00000000000    
 Annihilation of the first spin contaminant:
 S**2 before annihilation     0.7563,   after     0.7500
   1 Symmetry operations used in ECPInt.
 ECPInt:  NShTT=    1953 NPrTT=    7871 LenC2=    1948 LenP2D=    6420.
 LDataN:  DoStor=T MaxTD1= 5 Len=  102
 Calling FoFJK, ICntrl=      2127 FMM=F ISym2X=0 I1Cent= 0 IOpClX= 1 NMat=1 NMatS=1 NMatT=0.

 GradGradGradGradGradGradGradGradGradGradGradGradGradGradGradGradGradGrad
 Using GEDIIS/GDIIS optimizer.
 FormGI is forming the generalized inverse of G from B-inverse, IUseBI=4.
 Internal  Forces:  Max     0.016415700 RMS     0.003305888
 Step number   2 out of a maximum of   89
 All quantities printed in internal units (Hartrees-Bohrs-Radians)
 Mixed Optimization -- RFO/linear search
 Trust test= 1.22D+00 RLast= 3.06D-01 DXMaxT set to 5.05D-01
 ITU=  1  0
 Use linear search instead of GDIIS.
     Eigenvalues ---    0.00234   0.00234   0.00248   0.00363   0.00777
     Eigenvalues ---    0.02365   0.04190   0.04984   0.05061   0.05346
     Eigenvalues ---    0.05483   0.05738   0.05757   0.05856   0.05862
     Eigenvalues ---    0.13225   0.15525   0.15619   0.16000   0.16000
     Eigenvalues ---    0.16000   0.16000   0.16000   0.16000   0.16000
     Eigenvalues ---    0.16000   0.17429   0.20013   0.25892   0.28145
     Eigenvalues ---    0.28501   0.28516   0.30525   0.33111   0.33115
     Eigenvalues ---    0.33253   0.33269   0.33300   0.33304   0.33405
     Eigenvalues ---    0.33482   0.33622   0.50108   0.53938   1.04612
 Quartic linear search produced a step of  0.46368.
 Iteration  1 RMS(Cart)=  0.02755344 RMS(Int)=  0.00087293
 Iteration  2 RMS(Cart)=  0.00081403 RMS(Int)=  0.00044051
 Iteration  3 RMS(Cart)=  0.00000041 RMS(Int)=  0.00044051
 Variable       Old X    -DE/DX   Delta X   Delta X   Delta X     New X
                                 (Linear)    (Quad)   (Total)
    R1        2.90950  -0.00092  -0.00049  -0.00435  -0.00484   2.90467
    R2        2.08445   0.00118  -0.00063   0.00555   0.00492   2.08937
    R3        2.08518  -0.00057  -0.00001  -0.00249  -0.00251   2.08267
    R4        2.08688  -0.00057  -0.00075  -0.00199  -0.00274   2.08414
    R5        2.90951  -0.00092  -0.00048  -0.00436  -0.00484   2.90467
    R6        2.91151  -0.00429   0.00895  -0.02723  -0.01828   2.89324
    R7        2.95764   0.00722   0.02273   0.02117   0.04390   3.00154
    R8        2.08445   0.00118  -0.00063   0.00555   0.00492   2.08937
    R9        2.08688  -0.00057  -0.00075  -0.00199  -0.00274   2.08414
   R10        2.08518  -0.00057  -0.00001  -0.00250  -0.00251   2.08267
   R11        2.07886   0.00077  -0.00340   0.00562   0.00222   2.08108
   R12        2.08412  -0.00064   0.00092  -0.00338  -0.00245   2.08166
   R13        2.08412  -0.00064   0.00092  -0.00338  -0.00245   2.08166
   R14        2.47123  -0.01642  -0.03629  -0.02000  -0.05629   2.41494
   R15        2.28171   0.01151   0.00991   0.00955   0.01946   2.30118
   R16        1.84481   0.00149   0.00738  -0.00070   0.00668   1.85149
    A1        1.85353  -0.00019  -0.02913   0.01828  -0.01083   1.84270
    A2        1.96631  -0.00067   0.01250  -0.01551  -0.00327   1.96304
    A3        1.98796  -0.00025   0.00873  -0.00711   0.00137   1.98933
    A4        1.88211  -0.00007  -0.00157  -0.00301  -0.00455   1.87756
    A5        1.87513   0.00012   0.00326  -0.00072   0.00257   1.87770
    A6        1.89355   0.00106   0.00527   0.00888   0.01371   1.90726
    A7        1.96863   0.00226   0.02155   0.00385   0.02358   1.99221
    A8        1.93684  -0.00050   0.00979  -0.00494   0.00425   1.94109
    A9        1.84613  -0.00170  -0.02885  -0.00229  -0.03068   1.81545
   A10        1.93684  -0.00050   0.00979  -0.00495   0.00424   1.94109
   A11        1.84609  -0.00170  -0.02885  -0.00229  -0.03067   1.81542
   A12        1.92483   0.00211   0.01463   0.01142   0.02644   1.95127
   A13        1.85353  -0.00019  -0.02913   0.01828  -0.01083   1.84270
   A14        1.98796  -0.00025   0.00874  -0.00711   0.00137   1.98933
   A15        1.96631  -0.00067   0.01250  -0.01552  -0.00327   1.96304
   A16        1.87515   0.00012   0.00326  -0.00072   0.00257   1.87771
   A17        1.88212  -0.00007  -0.00157  -0.00301  -0.00455   1.87756
   A18        1.89354   0.00106   0.00527   0.00888   0.01371   1.90725
   A19        1.89756  -0.00118  -0.01023  -0.00574  -0.01601   1.88156
   A20        1.95225  -0.00035   0.00664  -0.00678  -0.00029   1.95196
   A21        1.95225  -0.00035   0.00663  -0.00678  -0.00029   1.95196
   A22        1.88455   0.00047  -0.00530   0.00554   0.00021   1.88475
   A23        1.88454   0.00047  -0.00530   0.00554   0.00021   1.88476
   A24        1.89035   0.00101   0.00711   0.00907   0.01595   1.90630
   A25        2.09496   0.00685   0.03383   0.01632   0.05015   2.14511
   A26        2.09387  -0.01435  -0.03618  -0.05812  -0.09430   1.99957
   A27        2.09436   0.00750   0.00236   0.04179   0.04415   2.13851
   A28        1.94246   0.00532  -0.00014   0.04795   0.04781   1.99027
    D1       -1.15847  -0.00105  -0.02778  -0.00453  -0.03282  -1.19130
    D2        1.02723  -0.00038   0.00682  -0.01203  -0.00493   1.02230
    D3        3.11482   0.00085   0.01272  -0.00239   0.01055   3.12537
    D4        3.06807  -0.00048  -0.01471  -0.00379  -0.01890   3.04917
    D5       -1.02941   0.00019   0.01988  -0.01129   0.00899  -1.02042
    D6        1.05818   0.00143   0.02578  -0.00164   0.02448   1.08266
    D7        0.90170  -0.00117  -0.03793   0.00257  -0.03598   0.86571
    D8        3.08740  -0.00050  -0.00334  -0.00493  -0.00809   3.07930
    D9       -1.10820   0.00074   0.00256   0.00472   0.00739  -1.10080
   D10        1.15837   0.00105   0.02778   0.00455   0.03284   1.19121
   D11       -0.90181   0.00117   0.03794  -0.00256   0.03600  -0.86581
   D12       -3.06817   0.00048   0.01472   0.00380   0.01891  -3.04925
   D13       -1.02732   0.00038  -0.00682   0.01205   0.00495  -1.02238
   D14       -3.08751   0.00050   0.00334   0.00494   0.00811  -3.07940
   D15        1.02932  -0.00019  -0.01988   0.01130  -0.00898   1.02034
   D16       -3.11490  -0.00085  -0.01272   0.00240  -0.01054  -3.12544
   D17        1.10810  -0.00074  -0.00256  -0.00471  -0.00738   1.10073
   D18       -1.05826  -0.00143  -0.02578   0.00165  -0.02447  -1.08272
   D19       -1.10174  -0.00110  -0.02051   0.00122  -0.01893  -1.12067
   D20        3.10194  -0.00070  -0.01141   0.00223  -0.00877   3.09317
   D21        0.97776  -0.00150  -0.02962   0.00022  -0.02908   0.94868
   D22        1.10170   0.00110   0.02052  -0.00121   0.01895   1.12065
   D23       -0.97780   0.00150   0.02962  -0.00021   0.02910  -0.94870
   D24       -3.10198   0.00070   0.01141  -0.00221   0.00879  -3.09319
   D25        3.14155   0.00000   0.00000   0.00001   0.00001   3.14157
   D26        1.06205   0.00040   0.00910   0.00101   0.01017   1.07222
   D27       -1.06213  -0.00040  -0.00910  -0.00099  -0.01014  -1.07227
   D28        1.04600   0.00047  -0.00312   0.00113  -0.00070   1.04530
   D29       -2.09561   0.00046  -0.00312   0.00108  -0.00075  -2.09635
   D30       -1.04625  -0.00046   0.00311  -0.00105   0.00077  -1.04548
   D31        2.09534  -0.00047   0.00312  -0.00110   0.00072   2.09606
   D32        3.14148   0.00000  -0.00001   0.00004   0.00003   3.14151
   D33       -0.00012  -0.00000  -0.00000  -0.00001  -0.00001  -0.00014
   D34       -0.00004  -0.00000   0.00000  -0.00002  -0.00002  -0.00006
   D35        3.14156   0.00000  -0.00000   0.00003   0.00003  -3.14159
         Item               Value     Threshold  Converged?
 Maximum Force            0.016416     0.000015     NO 
 RMS     Force            0.003306     0.000010     NO 
 Maximum Displacement     0.119329     0.000060     NO 
 RMS     Displacement     0.027694     0.000040     NO 
 GradGradGradGradGradGradGradGradGradGradGradGradGradGradGradGradGradGrad

                    Distance matrix (angstroms):
                    1          2          3          4          5
     1  C    0.000000
     2  C    1.537083   0.000000
     3  C    2.580337   1.537088   0.000000
     4  C    2.531793   1.531035   2.531795   0.000000
     5  C    2.463367   1.588344   2.463344   2.583224   0.000000
     6  O    2.969567   2.522170   2.969621   3.788321   1.277931
     7  O    3.345674   2.369385   3.345527   2.681636   1.217731
     8  H    1.105645   2.120831   2.839024   2.699846   3.422577
     9  H    1.102102   2.207349   3.541514   2.804671   2.725815
    10  H    1.102880   2.226413   2.825606   3.517364   2.756958
    11  H    2.838982   2.120833   1.105646   2.699886   3.422560
    12  H    2.825639   2.226413   1.102879   3.517366   2.756886
    13  H    3.541513   2.207348   1.102101   2.804632   2.725814
    14  H    2.778699   2.141957   2.778692   1.101261   3.522333
    15  H    3.501570   2.193700   2.761614   1.101568   2.860521
    16  H    2.761600   2.193696   3.501571   1.101568   2.860542
    17  H    2.733777   2.577456   2.733961   4.044765   1.900773
                    6          7          8          9         10
     6  O    0.000000
     7  O    2.188493   0.000000
     8  H    3.999775   4.237781   0.000000
     9  H    3.283843   3.323988   1.781294   0.000000
    10  H    2.762623   3.836056   1.782015   1.798209   0.000000
    11  H    3.999796   4.237681   2.649842   3.847829   3.182029
    12  H    2.762621   3.835870   3.182150   3.840289   2.622836
    13  H    3.283984   3.323760   3.847841   4.390005   3.840286
    14  H    4.630975   3.769249   2.484400   3.170234   3.775729
    15  H    4.080208   2.673929   3.724226   3.813822   4.386400
    16  H    4.080185   2.674071   3.018335   2.580767   3.811780
    17  H    0.979768   3.021481   3.670391   3.266619   2.217840
                   11         12         13         14         15
    11  H    0.000000
    12  H    1.782023   0.000000
    13  H    1.781298   1.798205   0.000000
    14  H    2.484429   3.775749   3.170163   0.000000
    15  H    3.018414   3.811773   2.580735   1.781996   0.000000
    16  H    3.724250   4.386398   3.813796   1.781997   1.796094
    17  H    3.670494   2.218026   3.266942   4.706839   4.461246
                   16         17
    16  H    0.000000
    17  H    4.461168   0.000000
 Framework group  C1[X(C5H10O2)]
 Deg. of freedom    45
                         Standard orientation:                         
 ---------------------------------------------------------------------
 Center     Atomic      Atomic             Coordinates (Angstroms)
 Number     Number       Type             X           Y           Z
 ---------------------------------------------------------------------
      1          6           0        0.815337   -0.874771   -1.290068
      2          6           0        0.589477   -0.070187   -0.000007
      3          6           0        0.815323   -0.874439    1.290269
      4          6           0        1.413834    1.219969   -0.000168
      5          6           0       -0.970849    0.226826   -0.000028
      6          8           0       -1.853477   -0.697335    0.000002
      7          8           0       -1.261098    1.409460   -0.000015
      8          1           0        1.900908   -1.081607   -1.324811
      9          1           0        0.556679   -0.301306   -2.194978
     10          1           0        0.290535   -1.844555   -1.311177
     11          1           0        1.900881   -1.081339    1.325031
     12          1           0        0.290443   -1.844174    1.311658
     13          1           0        0.556731   -0.300707    2.195027
     14          1           0        2.478698    0.939181   -0.000116
     15          1           0        1.222470    1.828652    0.897794
     16          1           0        1.222492    1.828408   -0.898300
     17          1           0       -1.481969   -1.603937   -0.000014
 ---------------------------------------------------------------------
 Rotational constants (GHZ):           3.2805615           2.3724972           2.0175879
   118 basis functions,   215 primitive gaussians,   125 cartesian basis functions
    28 alpha electrons       27 beta electrons
       nuclear repulsion energy       329.5993973602 Hartrees.
 NAtoms=   17 NActive=   17 NUniq=   17 SFac= 1.00D+00 NAtFMM=   60 NAOKFM=F Big=F
 Nuclear repulsion after empirical dispersion term =      329.5888419091 Hartrees.
   1 Symmetry operations used in ECPInt.
 ECPInt:  NShTT=    1953 NPrTT=    7871 LenC2=    1947 LenP2D=    6412.
 LDataN:  DoStor=T MaxTD1= 4 Len=   56
 Initial guess from the checkpoint file:  "14.chk"
 B after Tr=    -0.000000    0.000000    0.000000
         Rot=    0.999629    0.000000   -0.000001    0.027247 Ang=   3.12 deg.
 Initial guess <Sx>= 0.0000 <Sy>= 0.0000 <Sz>= 0.5000 <S**2>= 0.7562 S= 0.5031
 ExpMin= 1.22D-01 ExpMax= 2.27D+03 ExpMxC= 3.41D+02 IAcc=3 IRadAn=         5 AccDes= 0.00D+00
 Harris functional with IExCor= 4639 and IRadAn=       5 diagonalized for initial guess.
 HarFok:  IExCor= 4639 AccDes= 0.00D+00 IRadAn=         5 IDoV= 1 UseB2=F ITyADJ=14
 ICtDFT=  3500011 ScaDFX=  1.000000  1.000000  1.000000  1.000000
 FoFCou: FMM=F IPFlag=           0 FMFlag=      100000 FMFlg1=           0
         NFxFlg=           0 DoJE=T BraDBF=F KetDBF=T FulRan=T
         wScrn=  0.000000 ICntrl=       500 IOpCl=  0 I1Cent=   200000004 NGrid=           0
         NMat0=    1 NMatS0=      1 NMatT0=    0 NMatD0=    1 NMtDS0=    0 NMtDT0=    0
 Petite list used in FoFCou.
     Accept linear search using points  3 and  4.
     Accept linear search using points  2 and  3.
     Accept linear search using points  1 and  2.
     Accept linear search using points  1 and  2.
     Accept linear search using points  1 and  2.
     Minimum is close to point  2 DX= -1.12D-03 DF= -3.97D-10 DXR=  1.12D-03 DFR=  1.25D-06 which will be used.
     Accept linear search using points  1 and  2.
     Minimum is close to point  2 DX= -1.68D-05 DF=  0.00D+00 DXR=  1.68D-05 DFR=  0.00D+00 which will be used.
 SCF Done:  E(UwB97XD) =  -346.276297376     a.u. after    9 cycles
            Convg  =    0.2042D-07                    47 Fock formations.
              S**2 =  0.7561                  -V/T =  2.0090
 <Sx>= 0.0000 <Sy>= 0.0000 <Sz>= 0.5000 <S**2>= 0.7561 S= 0.5031
 <L.S>=  0.00000000000    
 Annihilation of the first spin contaminant:
 S**2 before annihilation     0.7561,   after     0.7500
   1 Symmetry operations used in ECPInt.
 ECPInt:  NShTT=    1953 NPrTT=    7871 LenC2=    1947 LenP2D=    6412.
 LDataN:  DoStor=T MaxTD1= 5 Len=  102
 Calling FoFJK, ICntrl=      2127 FMM=F ISym2X=0 I1Cent= 0 IOpClX= 1 NMat=1 NMatS=1 NMatT=0.

 GradGradGradGradGradGradGradGradGradGradGradGradGradGradGradGradGradGrad
 Using GEDIIS/GDIIS optimizer.
 FormGI is forming the generalized inverse of G from B-inverse, IUseBI=4.
 Internal  Forces:  Max     0.005565813 RMS     0.001119944
 Step number   3 out of a maximum of   89
 All quantities printed in internal units (Hartrees-Bohrs-Radians)
 Mixed Optimization -- RFO/linear search
 Trust test= 1.00D+00 RLast= 1.90D-01 DXMaxT set to 5.70D-01
 ITU=  1  1  0
 Use linear search instead of GDIIS.
     Eigenvalues ---    0.00234   0.00234   0.00248   0.00363   0.00839
     Eigenvalues ---    0.02365   0.03964   0.04963   0.05101   0.05328
     Eigenvalues ---    0.05435   0.05864   0.05881   0.05949   0.05977
     Eigenvalues ---    0.12863   0.15703   0.15823   0.15999   0.16000
     Eigenvalues ---    0.16000   0.16000   0.16000   0.16000   0.16000
     Eigenvalues ---    0.16128   0.17642   0.18749   0.26214   0.28031
     Eigenvalues ---    0.28501   0.28551   0.30456   0.33115   0.33116
     Eigenvalues ---    0.33263   0.33269   0.33304   0.33305   0.33405
     Eigenvalues ---    0.33482   0.33598   0.53798   0.55435   1.07891
 Quartic linear search produced a step of  0.03683.
 Iteration  1 RMS(Cart)=  0.00807034 RMS(Int)=  0.00004420
 Iteration  2 RMS(Cart)=  0.00005299 RMS(Int)=  0.00001549
 Iteration  3 RMS(Cart)=  0.00000000 RMS(Int)=  0.00001549
 Variable       Old X    -DE/DX   Delta X   Delta X   Delta X     New X
                                 (Linear)    (Quad)   (Total)
    R1        2.90467   0.00049  -0.00018   0.00180   0.00162   2.90628
    R2        2.08937  -0.00006   0.00018  -0.00029  -0.00011   2.08926
    R3        2.08267   0.00022  -0.00009   0.00072   0.00062   2.08329
    R4        2.08414   0.00007  -0.00010   0.00022   0.00012   2.08426
    R5        2.90467   0.00049  -0.00018   0.00179   0.00161   2.90629
    R6        2.89324  -0.00029  -0.00067  -0.00012  -0.00079   2.89244
    R7        3.00154   0.00346   0.00162   0.01317   0.01479   3.01632
    R8        2.08937  -0.00006   0.00018  -0.00029  -0.00011   2.08926
    R9        2.08414   0.00007  -0.00010   0.00022   0.00012   2.08425
   R10        2.08267   0.00022  -0.00009   0.00072   0.00062   2.08329
   R11        2.08108   0.00032   0.00008   0.00073   0.00081   2.08190
   R12        2.08166  -0.00019  -0.00009  -0.00049  -0.00058   2.08108
   R13        2.08166  -0.00019  -0.00009  -0.00049  -0.00058   2.08108
   R14        2.41494   0.00493  -0.00207   0.00745   0.00538   2.42032
   R15        2.30118  -0.00557   0.00072  -0.00491  -0.00419   2.29698
   R16        1.85149  -0.00155   0.00025  -0.00253  -0.00228   1.84921
    A1        1.84270   0.00162  -0.00040   0.00899   0.00859   1.85129
    A2        1.96304  -0.00044  -0.00012  -0.00223  -0.00235   1.96070
    A3        1.98933  -0.00040   0.00005  -0.00218  -0.00213   1.98720
    A4        1.87756  -0.00059  -0.00017  -0.00341  -0.00358   1.87398
    A5        1.87770  -0.00062   0.00009  -0.00318  -0.00308   1.87462
    A6        1.90726   0.00042   0.00050   0.00198   0.00248   1.90974
    A7        1.99221   0.00005   0.00087   0.00168   0.00246   1.99467
    A8        1.94109   0.00012   0.00016   0.00429   0.00443   1.94552
    A9        1.81545  -0.00031  -0.00113  -0.00717  -0.00829   1.80716
   A10        1.94109   0.00012   0.00016   0.00429   0.00443   1.94552
   A11        1.81542  -0.00031  -0.00113  -0.00717  -0.00829   1.80713
   A12        1.95127   0.00028   0.00097   0.00262   0.00362   1.95489
   A13        1.84270   0.00162  -0.00040   0.00898   0.00859   1.85129
   A14        1.98933  -0.00040   0.00005  -0.00218  -0.00213   1.98720
   A15        1.96304  -0.00044  -0.00012  -0.00223  -0.00235   1.96069
   A16        1.87771  -0.00062   0.00009  -0.00318  -0.00309   1.87463
   A17        1.87756  -0.00059  -0.00017  -0.00341  -0.00358   1.87399
   A18        1.90725   0.00042   0.00050   0.00198   0.00248   1.90974
   A19        1.88156  -0.00015  -0.00059  -0.00174  -0.00233   1.87922
   A20        1.95196   0.00040  -0.00001   0.00318   0.00316   1.95513
   A21        1.95196   0.00040  -0.00001   0.00318   0.00316   1.95512
   A22        1.88475  -0.00015   0.00001  -0.00162  -0.00161   1.88314
   A23        1.88476  -0.00015   0.00001  -0.00162  -0.00161   1.88314
   A24        1.90630  -0.00039   0.00059  -0.00171  -0.00113   1.90517
   A25        2.14511  -0.00127   0.00185  -0.00362  -0.00178   2.14333
   A26        1.99957  -0.00219  -0.00347  -0.00993  -0.01340   1.98617
   A27        2.13851   0.00346   0.00163   0.01355   0.01518   2.15369
   A28        1.99027   0.00070   0.00176   0.00367   0.00543   1.99570
    D1       -1.19130  -0.00029  -0.00121  -0.00869  -0.00991  -1.20121
    D2        1.02230   0.00002  -0.00018   0.00221   0.00204   1.02434
    D3        3.12537   0.00023   0.00039   0.00328   0.00367   3.12904
    D4        3.04917  -0.00033  -0.00070  -0.00888  -0.00959   3.03959
    D5       -1.02042  -0.00002   0.00033   0.00203   0.00237  -1.01805
    D6        1.08266   0.00019   0.00090   0.00309   0.00400   1.08666
    D7        0.86571  -0.00022  -0.00133  -0.00794  -0.00928   0.85643
    D8        3.07930   0.00010  -0.00030   0.00296   0.00267   3.08198
    D9       -1.10080   0.00030   0.00027   0.00403   0.00430  -1.09650
   D10        1.19121   0.00029   0.00121   0.00873   0.00995   1.20117
   D11       -0.86581   0.00022   0.00133   0.00798   0.00932  -0.85648
   D12       -3.04925   0.00033   0.00070   0.00891   0.00962  -3.03963
   D13       -1.02238  -0.00002   0.00018  -0.00217  -0.00200  -1.02438
   D14       -3.07940  -0.00010   0.00030  -0.00292  -0.00263  -3.08203
   D15        1.02034   0.00002  -0.00033  -0.00199  -0.00233   1.01801
   D16       -3.12544  -0.00023  -0.00039  -0.00324  -0.00363  -3.12907
   D17        1.10073  -0.00030  -0.00027  -0.00399  -0.00426   1.09646
   D18       -1.08272  -0.00019  -0.00090  -0.00306  -0.00396  -1.08669
   D19       -1.12067  -0.00013  -0.00070  -0.00456  -0.00525  -1.12591
   D20        3.09317  -0.00009  -0.00032  -0.00333  -0.00364   3.08953
   D21        0.94868  -0.00017  -0.00107  -0.00578  -0.00685   0.94183
   D22        1.12065   0.00013   0.00070   0.00459   0.00528   1.12593
   D23       -0.94870   0.00017   0.00107   0.00582   0.00688  -0.94181
   D24       -3.09319   0.00009   0.00032   0.00336   0.00368  -3.08951
   D25        3.14157   0.00000   0.00000   0.00002   0.00002   3.14158
   D26        1.07222   0.00004   0.00037   0.00125   0.00162   1.07384
   D27       -1.07227  -0.00004  -0.00037  -0.00121  -0.00159  -1.07386
   D28        1.04530  -0.00010  -0.00003  -0.00226  -0.00224   1.04306
   D29       -2.09635  -0.00010  -0.00003  -0.00203  -0.00202  -2.09837
   D30       -1.04548   0.00010   0.00003   0.00204   0.00202  -1.04346
   D31        2.09606   0.00010   0.00003   0.00226   0.00224   2.09830
   D32        3.14151  -0.00000   0.00000  -0.00011  -0.00011   3.14140
   D33       -0.00014   0.00000  -0.00000   0.00011   0.00011  -0.00003
   D34       -0.00006   0.00000  -0.00000   0.00011   0.00011   0.00005
   D35       -3.14159  -0.00000   0.00000  -0.00013  -0.00013   3.14146
         Item               Value     Threshold  Converged?
 Maximum Force            0.005566     0.000015     NO 
 RMS     Force            0.001120     0.000010     NO 
 Maximum Displacement     0.030010     0.000060     NO 
 RMS     Displacement     0.008077     0.000040     NO 
 GradGradGradGradGradGradGradGradGradGradGradGradGradGradGradGradGradGrad

                    Distance matrix (angstroms):
                    1          2          3          4          5
     1  C    0.000000
     2  C    1.537939   0.000000
     3  C    2.583828   1.537942   0.000000
     4  C    2.535985   1.530615   2.535989   0.000000
     5  C    2.462250   1.596170   2.462227   2.592587   0.000000
     6  O    2.965940   2.530465   2.966100   3.798466   1.280778
     7  O    3.336697   2.364541   3.336648   2.677864   1.215511
     8  H    1.105587   2.128141   2.855022   2.713871   3.428136
     9  H    1.102432   2.206693   3.543239   2.807100   2.721608
    10  H    1.102941   2.225741   2.824260   3.519689   2.748647
    11  H    2.854997   2.128141   1.105587   2.713893   3.428118
    12  H    2.824279   2.225741   1.102940   3.519691   2.748597
    13  H    3.543237   2.206692   1.102432   2.807079   2.721591
    14  H    2.784264   2.140157   2.784275   1.101691   3.530709
    15  H    3.505885   2.195350   2.766513   1.101262   2.872564
    16  H    2.766511   2.195347   3.505886   1.101262   2.872569
    17  H    2.733674   2.588356   2.733964   4.055733   1.905595
                    6          7          8          9         10
     6  O    0.000000
     7  O    2.198113   0.000000
     8  H    3.998852   4.235027   0.000000
     9  H    3.279283   3.311763   1.779179   0.000000
    10  H    2.748858   3.823625   1.780003   1.800111   0.000000
    11  H    3.998963   4.234996   2.681586   3.864407   3.191236
    12  H    2.748997   3.823549   3.191305   3.836927   2.616282
    13  H    3.279559   3.311689   3.864415   4.388519   3.836924
    14  H    4.638744   3.765402   2.501462   3.175740   3.780087
    15  H    4.094415   2.674496   3.739331   3.815433   4.388430
    16  H    4.094327   2.674527   3.028113   2.584701   3.816077
    17  H    0.978559   3.028511   3.670560   3.266236   2.207695
                   11         12         13         14         15
    11  H    0.000000
    12  H    1.780010   0.000000
    13  H    1.779182   1.800108   0.000000
    14  H    2.501492   3.780109   3.175721   0.000000
    15  H    3.028141   3.816068   2.584675   1.781053   0.000000
    16  H    3.739349   4.388428   3.815413   1.781054   1.794874
    17  H    3.670763   2.208032   3.266681   4.715441   4.475396
                   16         17
    16  H    0.000000
    17  H    4.475266   0.000000
 Framework group  C1[X(C5H10O2)]
 Deg. of freedom    45
                         Standard orientation:                         
 ---------------------------------------------------------------------
 Center     Atomic      Atomic             Coordinates (Angstroms)
 Number     Number       Type             X           Y           Z
 ---------------------------------------------------------------------
      1          6           0        0.796751   -0.885302   -1.291790
      2          6           0        0.593253   -0.075939    0.000022
      3          6           0        0.796783   -0.884972    1.292038
      4          6           0        1.437115    1.201042   -0.000154
      5          6           0       -0.971146    0.240945    0.000024
      6          8           0       -1.864936   -0.676404   -0.000052
      7          8           0       -1.231085    1.428337   -0.000082
      8          1           0        1.876605   -1.117356   -1.340667
      9          1           0        0.543655   -0.304836   -2.194208
     10          1           0        0.252121   -1.844259   -1.307877
     11          1           0        1.876632   -1.117053    1.340919
     12          1           0        0.252110   -1.843898    1.308405
     13          1           0        0.543752   -0.304255    2.194312
     14          1           0        2.497254    0.901328   -0.000137
     15          1           0        1.258710    1.813977    0.897209
     16          1           0        1.258673    1.813749   -0.897665
     17          1           0       -1.507883   -1.587498   -0.000064
 ---------------------------------------------------------------------
 Rotational constants (GHZ):           3.2708515           2.3734457           2.0172862
   118 basis functions,   215 primitive gaussians,   125 cartesian basis functions
    28 alpha electrons       27 beta electrons
       nuclear repulsion energy       329.4053698215 Hartrees.
 NAtoms=   17 NActive=   17 NUniq=   17 SFac= 1.00D+00 NAtFMM=   60 NAOKFM=F Big=F
 Nuclear repulsion after empirical dispersion term =      329.3948285760 Hartrees.
   1 Symmetry operations used in ECPInt.
 ECPInt:  NShTT=    1953 NPrTT=    7871 LenC2=    1947 LenP2D=    6411.
 LDataN:  DoStor=T MaxTD1= 4 Len=   56
 Initial guess from the checkpoint file:  "14.chk"
 B after Tr=    -0.000000    0.000000   -0.000000
         Rot=    0.999968    0.000003    0.000005    0.008000 Ang=   0.92 deg.
 Initial guess <Sx>= 0.0000 <Sy>= 0.0000 <Sz>= 0.5000 <S**2>= 0.7561 S= 0.5031
 ExpMin= 1.22D-01 ExpMax= 2.27D+03 ExpMxC= 3.41D+02 IAcc=3 IRadAn=         5 AccDes= 0.00D+00
 Harris functional with IExCor= 4639 and IRadAn=       5 diagonalized for initial guess.
 HarFok:  IExCor= 4639 AccDes= 0.00D+00 IRadAn=         5 IDoV= 1 UseB2=F ITyADJ=14
 ICtDFT=  3500011 ScaDFX=  1.000000  1.000000  1.000000  1.000000
 FoFCou: FMM=F IPFlag=           0 FMFlag=      100000 FMFlg1=           0
         NFxFlg=           0 DoJE=T BraDBF=F KetDBF=T FulRan=T
         wScrn=  0.000000 ICntrl=       500 IOpCl=  0 I1Cent=   200000004 NGrid=           0
         NMat0=    1 NMatS0=      1 NMatT0=    0 NMatD0=    1 NMtDS0=    0 NMtDT0=    0
 Petite list used in FoFCou.
     Minimum is close to point  4 DX=  3.00D-02 DF= -6.67D-08 DXR=  2.44D-02 DFR=  5.96D-04 which will be used.
     Minimum is close to point  2 DX=  2.42D-03 DF= -4.88D-10 DXR=  2.41D-03 DFR=  5.81D-06 which will be used.
 SCF Done:  E(UwB97XD) =  -346.276495178     a.u. after    4 cycles
            Convg  =    0.1764D-07                    35 Fock formations.
              S**2 =  0.7561                  -V/T =  2.0091
 <Sx>= 0.0000 <Sy>= 0.0000 <Sz>= 0.5000 <S**2>= 0.7561 S= 0.5031
 <L.S>=  0.00000000000    
 Annihilation of the first spin contaminant:
 S**2 before annihilation     0.7561,   after     0.7500
   1 Symmetry operations used in ECPInt.
 ECPInt:  NShTT=    1953 NPrTT=    7871 LenC2=    1947 LenP2D=    6411.
 LDataN:  DoStor=T MaxTD1= 5 Len=  102
 Calling FoFJK, ICntrl=      2127 FMM=F ISym2X=0 I1Cent= 0 IOpClX= 1 NMat=1 NMatS=1 NMatT=0.

 GradGradGradGradGradGradGradGradGradGradGradGradGradGradGradGradGradGrad
 Using GEDIIS/GDIIS optimizer.
 FormGI is forming the generalized inverse of G from B-inverse, IUseBI=4.
 Internal  Forces:  Max     0.006858348 RMS     0.000915033
 Step number   4 out of a maximum of   89
 All quantities printed in internal units (Hartrees-Bohrs-Radians)
 Mixed Optimization -- En-DIIS/RFO-DIIS
 Trust test= 1.42D+00 RLast= 4.53D-02 DXMaxT set to 5.70D-01
 ITU=  1  1  1  0
 Use linear search instead of GDIIS.
     Eigenvalues ---    0.00233   0.00234   0.00248   0.00363   0.00853
     Eigenvalues ---    0.02365   0.03563   0.04978   0.05004   0.05263
     Eigenvalues ---    0.05427   0.05767   0.05868   0.05913   0.05967
     Eigenvalues ---    0.10511   0.15438   0.15747   0.15868   0.16000
     Eigenvalues ---    0.16000   0.16000   0.16000   0.16000   0.16000
     Eigenvalues ---    0.16095   0.16755   0.18059   0.23509   0.28227
     Eigenvalues ---    0.28501   0.30071   0.31519   0.33115   0.33137
     Eigenvalues ---    0.33269   0.33283   0.33299   0.33304   0.33482
     Eigenvalues ---    0.33537   0.33608   0.53119   0.54429   1.06947
 Quartic linear search produced a step of  0.69625.
 Iteration  1 RMS(Cart)=  0.01008792 RMS(Int)=  0.00007074
 Iteration  2 RMS(Cart)=  0.00008007 RMS(Int)=  0.00001673
 Iteration  3 RMS(Cart)=  0.00000000 RMS(Int)=  0.00001673
 Variable       Old X    -DE/DX   Delta X   Delta X   Delta X     New X
                                 (Linear)    (Quad)   (Total)
    R1        2.90628  -0.00040   0.00113  -0.00260  -0.00148   2.90481
    R2        2.08926   0.00010  -0.00008   0.00061   0.00053   2.08979
    R3        2.08329   0.00006   0.00043   0.00019   0.00063   2.08392
    R4        2.08426  -0.00005   0.00008  -0.00038  -0.00030   2.08396
    R5        2.90629  -0.00040   0.00112  -0.00260  -0.00147   2.90482
    R6        2.89244  -0.00121  -0.00055  -0.00693  -0.00748   2.88496
    R7        3.01632   0.00358   0.01030   0.02280   0.03310   3.04942
    R8        2.08926   0.00010  -0.00008   0.00061   0.00053   2.08979
    R9        2.08425  -0.00005   0.00008  -0.00038  -0.00030   2.08395
   R10        2.08329   0.00006   0.00043   0.00019   0.00063   2.08392
   R11        2.08190   0.00018   0.00057   0.00077   0.00134   2.08323
   R12        2.08108  -0.00004  -0.00040  -0.00022  -0.00062   2.08046
   R13        2.08108  -0.00004  -0.00040  -0.00022  -0.00062   2.08046
   R14        2.42032   0.00066   0.00375  -0.00183   0.00191   2.42223
   R15        2.29698  -0.00686  -0.00292  -0.00949  -0.01241   2.28457
   R16        1.84921  -0.00070  -0.00159  -0.00148  -0.00307   1.84614
    A1        1.85129   0.00029   0.00598   0.00043   0.00642   1.85771
    A2        1.96070  -0.00010  -0.00163  -0.00033  -0.00197   1.95873
    A3        1.98720  -0.00005  -0.00148   0.00028  -0.00120   1.98600
    A4        1.87398  -0.00012  -0.00249  -0.00153  -0.00401   1.86997
    A5        1.87462  -0.00012  -0.00215  -0.00086  -0.00300   1.87161
    A6        1.90974   0.00010   0.00173   0.00177   0.00350   1.91324
[...]
   xx         0.601591D+02      0.891466D+01      0.991890D+01
   yx         0.457965D+01      0.678634D+00      0.755082D+00
   yy         0.554933D+02      0.822326D+01      0.914961D+01
   zx         0.643088D+01      0.952958D+00      0.106031D+01
   zy         0.394123D+01      0.584030D+00      0.649822D+00
   zz         0.722114D+02      0.107006D+02      0.119061D+02

 ----------------------------------------------------------------------
 1\1\GINC-C275\Freq\UwB97XD\def2SVPP\C5H10O2(1+,2)\PETERCHAO1\10-Jul-20
 23\0\\#T Geom=AllCheck Guess=TCheck SCRF=Check GenChk UwB97XD/def2SVPP
  Freq\\comment\\1,2\C,0.9326535852,-0.7649188029,-1.2922969595\C,0.647
 3848846,-0.0003080839,-0.0000130653\C,0.9326007538,-0.7646661475,1.292
 4292682\C,1.2578452583,1.391505615,-0.0001316936\C,-1.0277096968,0.089
 8456505,-0.0000807599\O,-1.725506031,-0.986660873,0.0001405022\O,-1.43
 92326984,1.2101629182,-0.0003464211\H,2.0354206819,-0.8252439503,-1.37
 22135713\H,0.5743190649,-0.2302347772,-2.1875854272\H,0.5495468418,-1.
 7988505313,-1.2993787861\H,2.0353641343,-0.8249323433,1.3724322021\H,0
 .5495472962,-1.7986179226,1.2996761702\H,0.5741870513,-0.2298358425,2.
 1875992909\H,2.3545380029,1.2713464743,-0.000085947\H,0.9809908589,1.9
 656999422,0.8974834766\H,0.9810443144,1.9655255554,-0.8978741482\H,-1.
 2014493024,-1.8112578809,0.0003778689\\Version=ES64L-G16RevB.01\State=
 2-A\HF=-346.2769714\S2=0.756099\S2-1=0.\S2A=0.750023\RMSD=5.901e-10\RM
 SF=1.862e-06\ZeroPoint=0.1438941\Thermal=0.1527105\Dipole=0.5998434,-0
 .9784287,0.0002542\DipoleDeriv=-0.5420171,0.2159831,0.2474466,-0.00754
 65,-0.0049446,0.0243198,-0.0595733,0.0098779,-0.0920925,1.3291066,-0.4
 027918,0.0001278,0.0672245,0.2676886,-0.0000067,0.0000857,-0.0000284,0
 .1728721,-0.5419432,0.2159018,-0.2475151,-0.007534,-0.0049289,-0.02433
 77,0.0595132,-0.0098765,-0.0921105,-0.1670745,-0.0073413,-0.0000059,-0
 .0531635,-0.0527035,0.000001,-0.0000201,0.0000029,-0.0573614,-0.004537
 8,0.7277826,-0.0002084,1.4883054,0.7737502,-0.0000575,-0.0004169,-0.00
 0026,0.5234034,-0.3896692,-0.5016126,0.0001048,-0.6804878,-0.6913653,0
 .0001031,0.000152,0.0000802,-0.2693816,0.1731982,-0.159774,0.0000415,-
 0.9625515,-0.1448648,-0.0000153,0.0002326,-0.0000038,-0.1080987,0.1405
 108,-0.0636237,-0.0845547,0.0665539,0.0743456,-0.0642786,0.0209362,-0.
 0388051,0.075747,0.1355967,0.0093667,-0.0655053,0.0303802,0.0506865,0.
 0349657,-0.0427594,0.0238604,0.0811244,0.0555898,-0.0903789,0.006323,-
 0.0490356,-0.0409296,-0.009671,0.0340876,0.0399492,0.052846,0.1405002,
 -0.0636035,0.0845664,0.0665434,0.0743595,0.0642918,-0.0209254,0.038793
 ,0.0757363,0.0555794,-0.0903847,-0.0063129,-0.0490534,-0.0409601,0.009
 6876,-0.0340785,-0.0399333,0.0528426,0.1355861,0.0093796,0.0655107,0.0
 303928,0.050678,-0.0349538,0.0427593,-0.0238574,0.0811463,0.0373305,0.
 0186035,-0.0000033,0.0304753,0.0615539,0.0000047,0.0000037,0.0000065,0
 .1129146,0.0875419,0.0277768,0.0438138,-0.0331528,0.0620994,-0.0086916
 ,0.022556,-0.0275871,0.0144956,0.0875427,0.0277644,-0.0438116,-0.03316
 14,0.0621093,0.0086762,-0.0225358,0.0275775,0.0144903,0.2671589,0.1269
 521,-0.0000174,0.0958109,0.5034257,-0.0000376,-0.0000169,-0.00003,0.36
 14259\Polar=72.213275,-7.5413626,62.9639469,0.0018044,-0.0026314,52.68
 66124\Quadrupole=-0.1523448,1.1482892,-0.9959444,1.6598299,-0.0003736,
 -0.0006463\PG=C01 [X(C5H10O2)]\NImag=0\\0.53911261,0.02599392,0.581944
 31,0.03724581,-0.05534155,0.49346415,-0.05949403,0.00434318,0.00203254
 ,0.23319362,0.00242129,-0.11303696,-0.03572454,0.05290657,0.50159665,0
 .02318864,-0.04072343,-0.13848763,-0.00000818,-0.00000965,0.43666000,0
 .01297140,-0.00545558,0.01015217,-0.05949545,0.00241513,-0.02318479,0.
 53911770,-0.00545700,0.01148549,-0.01083731,0.00434333,-0.11302433,0.0
 4072139,0.02597949,0.58196646,-0.01014789,0.01082837,-0.03506004,-0.00
 203120,0.03572095,-0.13850631,-0.03724688,0.05532015,0.49344221,0.0042
 9626,0.00480942,0.00027582,-0.07232992,-0.04022562,0.00000379,0.004295
 39,0.00480751,-0.00027634,0.55928983,-0.00557266,-0.02128526,-0.007804
 70,-0.04208085,-0.18791952,0.00001101,-0.00556933,-0.02127789,0.007807
 13,-0.05280676,0.52308946,-0.01295274,-0.02927117,-0.00180551,0.000003
 54,0.00001062,-0.08321773,0.01295395,0.02927546,-0.00181082,0.00000439
 ,0.00000570,0.61932609,-0.03081412,0.01078976,0.01443352,0.07599270,-0
 .01612363,0.00000118,-0.03081163,0.01078527,-0.01443407,-0.03576844,-0
 .00863369,-0.00000006,0.29922982,0.03743147,-0.00003507,-0.00555604,-0
 .14660341,-0.02845411,-0.00000834,0.03742027,-0.00003110,0.00555635,-0
 .00061936,0.00755691,-0.00000085,0.08109890,0.98684871,0.01836133,-0.0
 0619122,-0.01106704,0.00003600,-0.00000338,-0.03335398,-0.01837763,0.0
 0618862,-0.01107085,-0.00000408,-0.00000236,-0.00244143,-0.00001377,-0
 .00017758,0.18149447,0.00053445,-0.00112108,-0.00145985,-0.03269085,-0
 .02338706,0.00000302,0.00053254,-0.00112026,0.00146004,-0.00394928,0.0
 0441033,-0.00000046,-0.19349351,-0.16587354,0.00003135,0.39423168,-0.0
 0652870,-0.00366253,-0.00305813,0.02881920,-0.00685835,0.00000631,-0.0
 0652460,-0.00366315,0.00305843,-0.00614596,-0.00032652,-0.00000042,-0.
 22991429,-0.30479585,0.00004970,-0.00436740,0.77707308,-0.00061655,-0.
 00048666,0.00085327,-0.00000806,0.00000416,0.00995725,0.00061811,0.000
 48811,0.00085178,0.00000171,0.00000007,0.00159952,0.00004654,0.0000541
 1,-0.04733718,0.00002340,-0.00018316,0.03203961,0.00533799,-0.00090716
 ,0.00068970,-0.05714469,0.02412419,-0.00000681,0.00533650,-0.00090703,
 -0.00069033,-0.00503646,0.00230821,0.00000026,-0.10121700,0.19398193,-
 0.00004337,0.01252563,-0.00554247,0.00000165,0.14064660,-0.01539684,-0
 .00014338,0.00032514,0.09728266,-0.01779155,0.00000796,-0.01539395,-0.
 00014463,-0.00032493,-0.01623619,-0.00411306,-0.00000068,0.15064204,-0
 .60116650,0.00012521,0.01338487,-0.14079265,0.00003550,-0.21026561,0.7
 5524799,-0.00136127,0.00033927,0.00088616,-0.00002373,0.00000651,0.010
 62864,0.00136923,-0.00033889,0.00088632,0.00000296,0.00000088,-0.00081
 424,-0.00003533,0.00012794,-0.06115859,-0.00000242,0.00003440,0.010607
 14,0.00005037,-0.00017024,0.02720765,-0.30929702,0.01198860,0.01498000
 ,-0.00957767,0.00342906,0.00377779,-0.00095592,0.00008535,-0.00087710,
 0.00042587,-0.00150412,-0.00086638,0.00102932,-0.00432966,0.00193670,0
 .00044140,0.00189687,-0.00009896,-0.00109262,0.00261319,-0.00042122,0.
 33096773,0.01456652,-0.04375872,-0.00009350,0.01641048,-0.00183351,-0.
 00455506,-0.00104984,-0.00004542,0.00063807,-0.00065430,0.00010783,0.0
 0037246,0.00077143,-0.00673551,-0.00116269,-0.00048588,0.00343969,0.00
 120825,-0.00163306,0.00283530,0.00007572,-0.01514859,0.04451892,0.0199
 0963,0.00067055,-0.03733740,0.02705623,-0.00399400,-0.01159386,-0.0028
 0099,-0.00024447,0.00290303,0.00010289,0.00073880,0.00124033,0.0019149
 9,-0.00491010,-0.00212036,0.00017523,0.00139466,0.00057690,-0.00054331
 ,0.00184842,0.00026747,-0.02070818,0.00448559,0.04606481,-0.07509862,0
 .04377120,-0.07857039,0.00013248,-0.00351149,0.01178190,-0.00055256,0.
 00148711,0.00082576,-0.00069812,-0.00041888,-0.00033289,0.00084965,-0.
 00196359,0.00192298,-0.00008617,0.00062334,-0.00042061,-0.00031042,0.0
 0079665,-0.00029097,-0.00750878,0.01441356,-0.02514235,0.07734144,0.04
 528845,-0.12003786,0.10966508,-0.00865066,0.01015022,-0.01206414,0.001
 58174,-0.00194741,-0.00289443,0.00007162,0.00093812,-0.00067318,0.0002
 3221,0.00111165,-0.00060674,-0.00008683,-0.00037998,-0.00017490,0.0000
 7642,-0.00027626,0.00022199,-0.00069173,-0.00034371,0.00036671,-0.0490
 3732,0.12051915,-0.07566950,0.10888613,-0.22483137,-0.00833888,0.01197
 526,-0.02106593,0.00263947,-0.00407970,-0.00188253,0.00082732,0.001055
 79,0.00066742,-0.00078240,0.00233851,-0.00169215,0.00027188,-0.0007964
 7,0.00014152,0.00076450,-0.00110422,0.00026713,0.00228643,-0.00120846,
 0.00279303,0.07826356,-0.11523477,0.24294843,-0.08085189,-0.09221120,-
 0.00111384,-0.00158495,0.01028704,0.00118324,-0.00061825,-0.00002573,0
 .00024601,0.00129244,-0.00030588,0.00067748,0.00129747,0.00053790,-0.0
 0006916,-0.00147104,0.00004256,0.00069557,0.00060823,0.00006561,0.0001
 2756,-0.00733010,-0.02859168,0.00001253,0.00397235,0.01053382,0.000882
 46,0.08415308,-0.09223201,-0.28867529,0.00324017,-0.00399598,-0.012242
 12,0.00090309,0.00057831,0.00073640,0.00072560,0.00109590,0.00006998,-
 0.00299053,-0.00195963,-0.00378294,-0.00009071,-0.00034386,0.00296594,
 0.00144059,-0.00030637,0.00134275,-0.00009870,0.00207460,0.00279339,0.
 00025131,-0.00555292,-0.00970351,-0.00165482,0.09914885,0.30532726,0.0
 0021735,0.00416575,-0.05091162,-0.01086294,-0.02529025,0.00071223,-0.0
 0048153,-0.00096341,0.00143953,0.00177229,-0.00150405,-0.00468369,-0.0
 0075647,-0.00020786,0.00027693,0.00050232,0.00025831,-0.00031268,-0.00
 024146,0.00000137,-0.00000922,0.00058775,0.00215897,-0.00052468,0.0116
 0773,0.02207239,0.00306806,-0.00371039,0.00030522,0.05106760,-0.000956
 19,0.00008560,0.00087669,-0.00957588,0.00342765,-0.00377826,-0.3092978
 4,0.01197553,-0.01500115,0.00042577,-0.00150396,0.00086660,0.00102922,
 -0.00432993,-0.00193419,0.00044171,0.00189680,0.00009813,-0.00109273,0
 .00261335,0.00041980,0.00063579,-0.00001556,0.00024721,0.00041410,-0.0
 0001919,-0.00028616,0.00004456,0.00006801,-0.00002292,0.33096767,-0.00
 104936,-0.00004563,-0.00063762,0.01640454,-0.00183084,0.00455379,0.014
 55234,-0.04375790,0.00009519,-0.00065412,0.00010720,-0.00037192,0.0007
 7145,-0.00673467,0.00116508,-0.00048615,0.00343950,-0.00120943,-0.0016
 3323,0.00283546,-0.00007738,-0.00001559,0.00043936,0.00020568,0.000029
 39,-0.00020971,-0.00022916,-0.00009684,-0.00006094,-0.00004124,-0.0151
 3285,0.04451652,0.00280076,0.00024511,0.00290327,-0.02705967,0.0039908
 6,-0.01159691,-0.01993068,-0.00066913,-0.03733990,-0.00010285,-0.00073
 822,0.00124056,-0.00191469,0.00490907,-0.00212251,-0.00017529,-0.00139
 425,0.00057779,0.00054326,-0.00184813,0.00026825,-0.00024704,-0.000206
 12,-0.00180225,0.00027158,0.00027514,0.00016999,-0.00026792,0.00007513
 ,-0.00002167,0.02073044,-0.00448558,0.04606942,-0.00061805,-0.00002587
 ,-0.00024618,-0.00158607,0.01028455,-0.00118485,-0.08084080,-0.0921971
 4,0.00112865,0.00129257,-0.00030606,-0.00067714,0.00129691,0.00053780,
 0.00006945,-0.00147140,0.00004256,-0.00069580,0.00060867,0.00006526,-0
 .00012737,0.00004453,-0.00009680,0.00026796,-0.00006464,0.00013473,0.0
 0010003,0.00013485,-0.00004876,0.00029287,-0.00732891,-0.02859239,-0.0
 0000780,0.08414278,0.00057840,0.00073652,-0.00072560,-0.00399446,-0.01
 223771,-0.00090122,-0.09221998,-0.28868316,-0.00320170,0.00109565,0.00
 007069,0.00299005,-0.00195962,-0.00378376,0.00009200,-0.00034479,0.002
 96681,-0.00144210,-0.00030647,0.00134348,0.00009798,0.00006803,-0.0000
 6099,-0.00007507,0.00018939,0.00019299,-0.00005791,-0.00004879,0.00049
 481,0.00041782,0.00207387,0.00279123,-0.00025171,0.09913784,0.30533450
 ,0.00048148,0.00096347,0.00143956,0.01086242,0.02529344,0.00070832,-0.
 00020186,-0.00412661,-0.05091004,-0.00177224,0.00150325,-0.00468485,0.
 00075665,0.00020841,0.00027703,-0.00050231,-0.00025895,-0.00031257,0.0
 0024177,-0.00000176,-0.00000915,0.00002293,0.00004123,-0.00002169,-0.0
 0019628,-0.00017204,0.00022149,-0.00029290,-0.00041792,-0.00045403,-0.
 00058851,-0.00216162,-0.00052425,0.00369445,-0.00034609,0.05106750,-0.
 00055267,0.00148684,-0.00082637,0.00013303,-0.00351336,-0.01178031,-0.
 07511119,0.04379382,0.07857555,-0.00069807,-0.00041887,0.00033288,0.00
 084987,-0.00196346,-0.00192211,-0.00008625,0.00062322,0.00042039,-0.00
 031036,0.00079659,0.00029054,0.00041411,0.00002931,-0.00027144,0.00067
 653,-0.00009884,-0.00067231,-0.00006460,0.00018941,0.00019625,-0.00751
 091,0.01441777,0.02513925,0.00397260,-0.00555459,-0.01160567,0.0773550
 5,0.00158102,-0.00194597,0.00289440,-0.00865047,0.01015015,0.01205702,
 0.04531032,-0.12007291,-0.10967613,0.00007140,0.00093798,0.00067292,0.
 00023223,0.00111142,0.00060623,-0.00008698,-0.00037976,0.00017528,0.00
 007644,-0.00027621,-0.00022198,-0.00001911,-0.00020974,-0.00027509,-0.
 00009867,0.00086589,0.00077065,0.00013470,0.00019302,0.00017209,-0.000
 69241,-0.00034305,-0.00036521,0.01053545,-0.00970709,-0.02206981,-0.04
 905992,0.12055588,-0.00263976,0.00407983,-0.00188412,0.00834189,-0.011
 98111,-0.02106592,0.07567468,-0.10889832,-0.22478114,-0.00082735,-0.00
 105587,0.00066754,0.00078322,-0.00233893,-0.00169107,-0.00027197,0.000
 79635,0.00014129,-0.00076483,0.00110466,0.00026624,0.00028619,0.000229
 23,0.00017008,0.00067241,-0.00077109,-0.00118531,-0.00010002,0.0000579
 4,0.00022145,-0.00228704,0.00120988,0.00279432,-0.00088438,0.00165677,
 0.00307094,-0.07826914,0.11524963,0.24289563,0.00045247,0.00108951,0.0
 0087614,-0.01606023,-0.00032322,-0.00000041,0.00045241,0.00108937,-0.0
 0087644,-0.31912294,0.03219579,-0.00001162,0.00240357,-0.00291960,0.00
 000060,-0.00108231,0.00017355,-0.00000008,-0.00019224,0.00090860,-0.00
 000018,0.00067144,-0.00018620,-0.00031575,0.00001572,-0.00000763,0.000
 07145,0.00043485,-0.00005999,0.00002644,0.00067152,-0.00018619,0.00031
 583,0.00043489,-0.00005997,-0.00002640,0.00001572,-0.00000763,-0.00007
 146,0.33941424,-0.00024659,0.00073283,0.00068024,-0.02638542,0.0017645
 9,-0.00000140,-0.00024672,0.00073252,-0.00068031,0.03222859,-0.0508390
 1,0.00000160,-0.00452442,-0.00122667,-0.00000044,-0.00156991,-0.001270
 22,0.00000042,0.00087322,-0.00141949,0.00000048,-0.00019538,-0.0009293
 6,-0.00069137,-0.00009460,-0.00000191,0.00006502,0.00047544,0.00006654
 ,0.00015663,-0.00019542,-0.00092911,0.00069160,0.00047540,0.00006656,-
 0.00015664,-0.00009454,-0.00000193,-0.00006500,-0.03158890,0.05523698,
 0.00035177,-0.00010070,0.00026193,0.00000179,-0.00000076,-0.00335183,-
 0.00035182,0.00010084,0.00026181,-0.00001154,0.00000197,-0.04640390,0.
 00000084,-0.00000079,0.00028847,-0.00000004,0.00000038,0.00014115,-0.0
 0000040,0.00000055,0.00063641,-0.00031384,-0.00103984,-0.00027462,-0.0
 0030090,-0.00003972,0.00009516,0.00025396,0.00004666,-0.00011829,0.000
 31402,0.00104015,-0.00027500,-0.00025403,-0.00004673,-0.00011826,0.000
 30096,0.00003977,0.00009521,0.00001232,-0.00000217,0.04442198,-0.00148
 136,-0.00246796,0.00166972,0.00191818,-0.01037784,-0.01550173,-0.00085
 026,0.00037758,-0.00011187,-0.06646270,0.04022026,0.06176875,0.0002641
 6,-0.00093706,-0.00066251,0.00034424,0.00045923,0.00013946,-0.00053427
 ,-0.00008967,-0.00035251,0.00051636,-0.00014851,-0.00016429,-0.0000355
 2,0.00014803,0.00025424,0.00073667,-0.00063443,-0.00073356,0.00010396,
 0.00043627,-0.00003850,-0.00017696,0.00007493,-0.00014831,0.00036104,0
 .00011140,0.00029194,-0.00431375,0.01564635,0.02535911,0.06762845,-0.0
 0336110,-0.00473298,0.00075277,0.00928762,-0.01416788,-0.02330714,0.00
 059586,0.00120813,-0.00087430,0.03621142,-0.12333718,-0.11458061,-0.00
 014491,0.00013444,-0.00088677,0.00032393,0.00003889,0.00029136,0.00046
 115,0.00016660,0.00025274,-0.00010301,0.00025133,0.00051083,-0.0001118
 7,-0.00009094,-0.00010805,0.00007379,-0.00045007,-0.00140594,-0.000015
 95,-0.00018199,0.00001639,-0.00014751,0.00041942,0.00016285,-0.0002581
 2,-0.00054222,0.00074804,-0.00014877,-0.00114811,-0.00090557,-0.037002
 57,0.13170214,-0.00034208,0.00023517,0.00067510,-0.00130287,0.00167283
 ,0.00196463,-0.00050166,0.00079277,0.00060937,0.05945595,-0.11776988,-
 0.23894612,-0.00050086,-0.00075333,-0.00010415,0.00019646,0.00028873,0
 .00001154,0.00092210,0.00042341,0.00029022,0.00011622,0.00028729,-0.00
 001556,0.00017118,0.00018425,0.00022617,0.00014380,-0.00000968,0.00039
 114,-0.00003622,0.00002628,-0.00000446,-0.00009773,-0.00000787,0.00006
 603,0.00032921,0.00022840,0.00023720,-0.00134177,0.00222186,0.00217743
 ,-0.06444715,0.12591732,0.24789694,-0.00085060,0.00037751,0.00011150,0
 .00191815,-0.01037508,0.01550479,-0.00148107,-0.00246831,-0.00167010,-
 0.06645583,0.04020109,-0.06176620,0.00026380,-0.00093600,0.00066241,0.
 00034447,0.00045929,-0.00013956,-0.00053464,-0.00008981,0.00035232,0.0
 0010397,0.00043628,0.00003852,0.00036111,0.00011135,-0.00029200,-0.000
 17694,0.00007496,0.00014828,0.00051642,-0.00014855,0.00016449,0.000736
 78,-0.00063434,0.00073380,-0.00003550,0.00014806,-0.00025435,-0.004312
 17,0.01564134,-0.02536229,0.00187950,-0.00571213,0.00724654,0.06762029
 ,0.00059594,0.00120827,0.00087463,0.00928732,-0.01416368,0.02331002,-0
 .00336099,-0.00473324,-0.00075178,0.03619266,-0.12329298,0.11456056,-0
 .00014582,0.00013555,0.00088688,0.00032413,0.00003875,-0.00029142,0.00
 046125,0.00016612,-0.00025259,-0.00001592,-0.00018204,-0.00001638,-0.0
 0025812,-0.00054250,-0.00074789,-0.00014745,0.00041934,-0.00016296,-0.
 00010306,0.00025116,-0.00051091,0.00007359,-0.00044983,0.00140611,-0.0
 0011190,-0.00009097,0.00010814,-0.00014856,-0.00114838,0.00090599,-0.0
 0571285,0.01076043,-0.01365993,-0.03698249,0.13165400,0.00050142,-0.00
 079300,0.00060960,0.00130086,-0.00167080,0.00196162,0.00034254,-0.0002
 3431,0.00067497,-0.05945236,0.11775035,-0.23899820,0.00050156,0.000752
 85,-0.00010449,-0.00019661,-0.00028857,0.00001170,-0.00092282,-0.00042
 294,0.00029028,0.00003621,-0.00002622,-0.00000447,-0.00032912,-0.00022
 823,0.00023730,0.00009776,0.00000778,0.00006607,-0.00011610,-0.0002874
 0,-0.00001538,-0.00014369,0.00000975,0.00039094,-0.00017116,-0.0001841
 5,0.00022611,0.00134138,-0.00222035,0.00217639,-0.00724442,0.01365446,
 -0.01543079,0.06444342,-0.12589686,0.24795310,-0.00269063,-0.00254668,
 -0.00112697,0.00625159,-0.00145818,0.00000099,-0.00269096,-0.00254887,
 0.00112736,-0.00079636,-0.00021463,-0.00000036,0.00759821,-0.02053267,
 0.00000602,-0.17506530,0.22398679,-0.00006533,0.00240182,-0.01169674,0
 .00000221,0.00051159,0.00138283,0.00022113,0.00059144,0.00041383,-0.00
 032007,-0.00057673,0.00190391,0.00145798,0.00051172,0.00138352,-0.0002
 2117,-0.00057775,0.00190490,-0.00145903,0.00059160,0.00041415,0.000319
 96,0.00011681,-0.00019843,0.00000010,0.00010225,0.00005216,-0.00001111
 ,0.00010228,0.00005226,0.00001114,0.16361843,0.00138725,0.00125222,0.0
 0134656,0.00127633,-0.00010106,-0.00000021,0.00138753,0.00125214,-0.00
 134668,0.00075815,-0.00048673,0.,0.00808272,-0.04015249,0.00000817,0.1
 8083048,-0.32783367,0.00008980,-0.00086142,0.00218602,0.00000190,-0.00
 013260,-0.00028682,-0.00026606,-0.00026318,-0.00024421,0.00013006,0.00
 012787,0.00050543,-0.00013283,-0.00013247,-0.00028659,0.00026596,0.000
 12734,0.00050553,0.00013267,-0.00026335,-0.00024447,-0.00013017,0.0001
 7984,0.00031418,-0.00000002,-0.00010316,-0.00003001,-0.00007762,-0.000
 10317,-0.00003000,0.00007763,-0.19229815,0.36368054,0.00067160,0.00249
 407,0.00029168,0.00000027,-0.00000014,-0.00035261,-0.00067231,-0.00249
 517,0.00029260,-0.00000035,0.00000015,-0.00093497,-0.00000085,0.000006
 57,-0.00807310,-0.00005475,0.00009268,-0.00954803,-0.00000029,0.000000
 69,0.00948929,-0.00049748,-0.00120494,-0.00032075,0.00006640,0.0000736
 8,-0.00017841,0.00123386,-0.00179114,-0.00020714,0.00049765,0.00120529
 ,-0.00032127,-0.00123445,0.00179162,-0.00020698,-0.00006650,-0.0000740
 2,-0.00017845,-0.00000005,-0.00000015,-0.00001406,-0.00007836,-0.00023
 838,-0.00004469,0.00007845,0.00023838,-0.00004477,0.00005716,-0.000099
 17,0.01035165\\-0.00000333,0.00000112,-0.00000040,0.00000491,0.0000026
 8,0.00000034,-0.00000321,0.00000121,0.00000023,-0.00000047,0.00000085,
 0.00000005,-0.00000678,-0.00000312,-0.00000167,0.00000397,0.00000099,0
 .00000051,0.00000525,-0.00000277,0.00000063,0.00000036,0.00000086,0.00
 000108,-0.00000007,0.00000021,0.00000028,0.00000061,-0.00000016,0.0000
 0024,0.00000032,0.00000085,-0.00000098,0.00000030,-0.00000017,-0.00000
 045,0.00000004,0.00000027,-0.00000017,-0.00000058,-0.00000029,0.,-0.00
 000080,-0.00000074,0.00000008,-0.00000088,-0.00000078,0.,0.00000034,-0
 .00000101,0.00000022\\\@


 HE WHO LAUGHS LAST PROBABLY DIDN'T GET THE JOKE.
 Job cpu time:       0 days  0 hours  7 minutes 33.5 seconds.
 Elapsed time:       0 days  0 hours  1 minutes 54.2 seconds.
 File lengths (MBytes):  RWF=     62 Int=      0 D2E=      0 Chk=      3 Scr=      1
 Normal termination of Gaussian 16 at Mon Jul 10 19:30:10 2023.
real 722.86
user 2752.80
sys 12.41
