 Entering Gaussian System, Link 0=g16
 Input=gaussian_test.inp
 Output=gaussian_test.log
 Initial command:
 /sw/restricted/lms/sw/Gaussian/g16_B01/g16/l1.exe "/scratch/user/peterchao1/peterchao1/8625358_1689034688000000752146262/Gau-202616.inp" -scrdir="/scratch/user/peterchao1/peterchao1/8625358_1689034688000000752146262/"
 Entering Link 1 = /sw/restricted/lms/sw/Gaussian/g16_B01/g16/l1.exe PID=    202619.
  
 Copyright (c) 1988-2017, Gaussian, Inc.  All Rights Reserved.
  
 This is part of the Gaussian(R) 16 program.  It is based on
 the Gaussian(R) 09 system (copyright 2009, Gaussian, Inc.),
 the Gaussian(R) 03 system (copyright 2003, Gaussian, Inc.),
 the Gaussian(R) 98 system (copyright 1998, Gaussian, Inc.),
 the Gaussian(R) 94 system (copyright 1995, Gaussian, Inc.),
 the Gaussian 92(TM) system (copyright 1992, Gaussian, Inc.),
 the Gaussian 90(TM) system (copyright 1990, Gaussian, Inc.),
 the Gaussian 88(TM) system (copyright 1988, Gaussian, Inc.),
 the Gaussian 86(TM) system (copyright 1986, Carnegie Mellon
 University), and the Gaussian 82(TM) system (copyright 1983,
 Carnegie Mellon University). Gaussian is a federally registered
 trademark of Gaussian, Inc.
  
 This software contains proprietary and confidential information,
 including trade secrets, belonging to Gaussian, Inc.
  
 This software is provided under written license and may be
 used, copied, transmitted, or stored only in accord with that
 written license.
  
 The following legend is applicable only to US Government
 contracts under FAR:
  
                    RESTRICTED RIGHTS LEGEND
  
 Use, reproduction and disclosure by the US Government is
 subject to restrictions as set forth in subparagraphs (a)
 and (c) of the Commercial Computer Software - Restricted
 Rights clause in FAR 52.227-19.
  
 Gaussian, Inc.
 340 Quinnipiac St., Bldg. 40, Wallingford CT 06492
  
  
 ---------------------------------------------------------------
 Warning -- This program may not be used in any manner that
 competes with the business of Gaussian, Inc. or will provide
 assistance to any competitor of Gaussian, Inc.  The licensee
 of this program is prohibited from giving any competitor of
 Gaussian, Inc. access to this program.  By using this program,
 the user acknowledges that Gaussian, Inc. is engaged in the
 business of creating and licensing software in the field of
 computational chemistry and represents and warrants to the
 licensee that it is not a competitor of Gaussian, Inc. and that
 it will not use this program in any manner prohibited above.
 ---------------------------------------------------------------
  

 Cite this work as:
 Gaussian 16, Revision B.01,
 M. J. Frisch, G. W. Trucks, H. B. Schlegel, G. E. Scuseria, 
 M. A. Robb, J. R. Cheeseman, G. Scalmani, V. Barone, 
 G. A. Petersson, H. Nakatsuji, X. Li, M. Caricato, A. V. Marenich, 
 J. Bloino, B. G. Janesko, R. Gomperts, B. Mennucci, H. P. Hratchian, 
 J. V. Ortiz, A. F. Izmaylov, J. L. Sonnenberg, D. Williams-Young, 
 F. Ding, F. Lipparini, F. Egidi, J. Goings, B. Peng, A. Petrone, 
 T. Henderson, D. Ranasinghe, V. G. Zakrzewski, J. Gao, N. Rega, 
 G. Zheng, W. Liang, M. Hada, M. Ehara, K. Toyota, R. Fukuda, 
 J. Hasegawa, M. Ishida, T. Nakajima, Y. Honda, O. Kitao, H. Nakai, 
 T. Vreven, K. Throssell, J. A. Montgomery, Jr., J. E. Peralta, 
 F. Ogliaro, M. J. Bearpark, J. J. Heyd, E. N. Brothers, K. N. Kudin, 
 V. N. Staroverov, T. A. Keith, R. Kobayashi, J. Normand, 
 K. Raghavachari, A. P. Rendell, J. C. Burant, S. S. Iyengar, 
 J. Tomasi, M. Cossi, J. M. Millam, M. Klene, C. Adamo, R. Cammi, 
 J. W. Ochterski, R. L. Martin, K. Morokuma, O. Farkas, 
 J. B. Foresman, and D. J. Fox, Gaussian, Inc., Wallingford CT, 2016.
 
 ******************************************
 Gaussian 16:  ES64L-G16RevB.01 20-Dec-2017
                10-Jul-2023 
 ******************************************
 %nprocshared=4
 Will use up to    4 processors via shared memory.
 %mem=8000mb
 %chk=16.chk
 %mem=8000mb
 ----------------------------------------------------------------------
 #T wB97XD/def2svpp opt=tight freq int(grid=ultrafine) scf=(verytight,q
 c)
 ----------------------------------------------------------------------
 -------
 comment
 -------
 Symbolic Z-matrix:
 Charge =  1 Multiplicity = 2
 C                    -0.81062   0.00144   1.45637 
 C                    -0.35695   0.       -0.00002 
 C                    -0.81024  -1.26214  -0.72699 
 C                    -0.81046   1.26059  -0.72954 
 Cl                    1.47738   0.00007   0.0001 
 H                    -1.91503   0.00098   1.50001 
 H                    -0.44092   0.89647   1.98342 
 H                    -0.44009  -0.89211   1.98535 
 H                    -1.91463  -1.30031  -0.74897 
 H                    -0.43992  -2.16589  -0.21551 
 H                    -0.43995  -1.27322  -1.76539 
 H                    -1.91487   1.29858  -0.75132 
 H                    -0.44044   1.26945  -1.76807 
 H                    -0.44012   2.16552  -0.22013 
 

 GradGradGradGradGradGradGradGradGradGradGradGradGradGradGradGradGradGrad
 Initialization pass.
                           ----------------------------
                           !    Initial Parameters    !
                           ! (Angstroms and Degrees)  !
 --------------------------                            --------------------------
 ! Name  Definition              Value          Derivative Info.                !
 --------------------------------------------------------------------------------
 ! R1    R(1,2)                  1.5254         estimate D2E/DX2                !
 ! R2    R(1,6)                  1.1053         estimate D2E/DX2                !
 ! R3    R(1,7)                  1.1025         estimate D2E/DX2                !
 ! R4    R(1,8)                  1.1025         estimate D2E/DX2                !
 ! R5    R(2,3)                  1.5254         estimate D2E/DX2                !
 ! R6    R(2,4)                  1.5254         estimate D2E/DX2                !
 ! R7    R(2,5)                  1.8343         estimate D2E/DX2                !
 ! R8    R(3,9)                  1.1053         estimate D2E/DX2                !
 ! R9    R(3,10)                 1.1025         estimate D2E/DX2                !
 ! R10   R(3,11)                 1.1025         estimate D2E/DX2                !
 ! R11   R(4,12)                 1.1053         estimate D2E/DX2                !
 ! R12   R(4,13)                 1.1025         estimate D2E/DX2                !
 ! R13   R(4,14)                 1.1025         estimate D2E/DX2                !
 ! A1    A(2,1,6)              109.5649         estimate D2E/DX2                !
 ! A2    A(2,1,7)              110.9434         estimate D2E/DX2                !
 ! A3    A(2,1,8)              110.9391         estimate D2E/DX2                !
 ! A4    A(6,1,7)              108.4525         estimate D2E/DX2                !
 ! A5    A(6,1,8)              108.4532         estimate D2E/DX2                !
 ! A6    A(7,1,8)              108.4143         estimate D2E/DX2                !
 ! A7    A(1,2,3)              111.5555         estimate D2E/DX2                !
 ! A8    A(1,2,4)              111.5557         estimate D2E/DX2                !
 ! A9    A(1,2,5)              107.2981         estimate D2E/DX2                !
 ! A10   A(3,2,4)              111.5606         estimate D2E/DX2                !
 ! A11   A(3,2,5)              107.2906         estimate D2E/DX2                !
 ! A12   A(4,2,5)              107.2955         estimate D2E/DX2                !
 ! A13   A(2,3,9)              109.5706         estimate D2E/DX2                !
 ! A14   A(2,3,10)             110.9363         estimate D2E/DX2                !
 ! A15   A(2,3,11)             110.9384         estimate D2E/DX2                !
 ! A16   A(9,3,10)             108.4537         estimate D2E/DX2                !
 ! A17   A(9,3,11)             108.4528         estimate D2E/DX2                !
 ! A18   A(10,3,11)            108.4159         estimate D2E/DX2                !
 ! A19   A(2,4,12)             109.5662         estimate D2E/DX2                !
 ! A20   A(2,4,13)             110.9377         estimate D2E/DX2                !
 ! A21   A(2,4,14)             110.9431         estimate D2E/DX2                !
 ! A22   A(12,4,13)            108.4526         estimate D2E/DX2                !
 ! A23   A(12,4,14)            108.4528         estimate D2E/DX2                !
 ! A24   A(13,4,14)            108.415          estimate D2E/DX2                !
 ! D1    D(6,1,2,3)            -62.734          estimate D2E/DX2                !
 ! D2    D(6,1,2,4)             62.7786         estimate D2E/DX2                !
 ! D3    D(6,1,2,5)           -179.9747         estimate D2E/DX2                !
 ! D4    D(7,1,2,3)            177.5503         estimate D2E/DX2                !
 ! D5    D(7,1,2,4)            -56.9371         estimate D2E/DX2                !
 ! D6    D(7,1,2,5)             60.3096         estimate D2E/DX2                !
 ! D7    D(8,1,2,3)             56.9799         estimate D2E/DX2                !
 ! D8    D(8,1,2,4)           -177.5075         estimate D2E/DX2                !
 ! D9    D(8,1,2,5)            -60.2608         estimate D2E/DX2                !
 ! D10   D(1,2,3,9)             62.752          estimate D2E/DX2                !
 ! D11   D(1,2,3,10)           -56.9643         estimate D2E/DX2                !
 ! D12   D(1,2,3,11)          -177.5315         estimate D2E/DX2                !
 ! D13   D(4,2,3,9)            -62.7578         estimate D2E/DX2                !
 ! D14   D(4,2,3,10)           177.5259         estimate D2E/DX2                !
 ! D15   D(4,2,3,11)            56.9587         estimate D2E/DX2                !
 ! D16   D(5,2,3,9)            179.9973         estimate D2E/DX2                !
 ! D17   D(5,2,3,10)            60.281          estimate D2E/DX2                !
 ! D18   D(5,2,3,11)           -60.2862         estimate D2E/DX2                !
 ! D19   D(1,2,4,12)           -62.7367         estimate D2E/DX2                !
 ! D20   D(1,2,4,13)           177.5503         estimate D2E/DX2                !
 ! D21   D(1,2,4,14)            56.9801         estimate D2E/DX2                !
 ! D22   D(3,2,4,12)            62.7731         estimate D2E/DX2                !
 ! D23   D(3,2,4,13)           -56.94           estimate D2E/DX2                !
 ! D24   D(3,2,4,14)          -177.5102         estimate D2E/DX2                !
 ! D25   D(5,2,4,12)          -179.985          estimate D2E/DX2                !
 ! D26   D(5,2,4,13)            60.302          estimate D2E/DX2                !
 ! D27   D(5,2,4,14)           -60.2683         estimate D2E/DX2                !
 --------------------------------------------------------------------------------
 Number of steps in this run=     74 maximum allowed number of steps=    100.
 GradGradGradGradGradGradGradGradGradGradGradGradGradGradGradGradGradGrad

                    Distance matrix (angstroms):
                    1          2          3          4          5
     1  C    0.000000
     2  C    1.525415   0.000000
     3  C    2.522639   1.525443   0.000000
     4  C    2.522634   1.525433   2.522730   0.000000
     5  Cl   2.712133   1.834331   2.712024   2.712101   0.000000
     6  H    1.105273   2.162804   2.788475   2.788839   3.709204
     7  H    1.102514   2.178240   3.484584   2.762118   2.901200
     8  H    1.102510   2.178182   2.762383   3.484525   2.900674
     9  H    2.788715   2.162899   1.105273   2.788868   3.709164
    10  H    2.762224   2.178166   1.102503   3.484575   2.900678
    11  H    3.484517   2.178187   1.102497   2.762319   2.900756
    12  H    2.788523   2.162844   2.788931   1.105284   3.709201
    13  H    3.484521   2.178178   2.762166   1.102506   2.900998
    14  H    2.762454   2.178257   3.484644   1.102522   2.900766
                    6          7          8          9         10
     6  H    0.000000
     7  H    1.791249   0.000000
     8  H    1.791253   1.788575   0.000000
     9  H    2.598323   3.803106   3.133279   0.000000
    10  H    3.132771   3.770052   2.542892   1.791253   0.000000
    11  H    3.802930   4.331405   3.770053   1.791238   1.788574
    12  H    2.598514   3.132570   3.803086   2.598898   3.803309
    13  H    3.803129   3.769979   4.331337   3.132969   3.769883
    14  H    3.133604   2.542849   3.770037   3.803398   4.331406
                   11         12         13         14
    11  H    0.000000
    12  H    3.133354   0.000000
    13  H    2.542671   1.791251   0.000000
    14  H    3.769975   1.791268   1.788588   0.000000
 Framework group  C1[X(C4H9Cl)]
 Deg. of freedom    36
                         Standard orientation:                         
 ---------------------------------------------------------------------
 Center     Atomic      Atomic             Coordinates (Angstroms)
 Number     Number       Type             X           Y           Z
 ---------------------------------------------------------------------
      1          6           0        0.810616   -0.002894    1.456368
      2          6           0        0.356947   -0.000003   -0.000021
      3          6           0        0.810239    1.262871   -0.725729
      4          6           0        0.810458   -1.259855   -0.730806
      5         17           0       -1.477384   -0.000073    0.000101
      6          1           0        1.915027   -0.002478    1.500013
      7          1           0        0.440922   -0.898454    1.982518
      8          1           0        0.440089    0.890117    1.986245
      9          1           0        1.914634    1.301062   -0.747668
     10          1           0        0.439920    2.166104   -0.213336
     11          1           0        0.439949    1.274985   -1.764112
     12          1           0        1.914874   -1.297831   -0.752616
     13          1           0        0.440441   -1.267681   -1.769337
     14          1           0        0.440116   -2.165293   -0.222295
 ---------------------------------------------------------------------
 Rotational constants (GHZ):           4.5195819           2.9969441           2.9968557
    92 basis functions,   173 primitive gaussians,    97 cartesian basis functions
    25 alpha electrons       24 beta electrons
       nuclear repulsion energy       240.3294920019 Hartrees.
 NAtoms=   14 NActive=   14 NUniq=   14 SFac= 1.00D+00 NAtFMM=   60 NAOKFM=F Big=F
 Nuclear repulsion after empirical dispersion term =      240.3221960593 Hartrees.
   1 Symmetry operations used in ECPInt.
 ECPInt:  NShTT=    1275 NPrTT=    5355 LenC2=    1273 LenP2D=    4422.
 LDataN:  DoStor=T MaxTD1= 4 Len=   56
 ExpMin= 1.22D-01 ExpMax= 1.04D+04 ExpMxC= 1.57D+03 IAcc=3 IRadAn=         5 AccDes= 0.00D+00
 Harris functional with IExCor= 4639 and IRadAn=       5 diagonalized for initial guess.
 HarFok:  IExCor= 4639 AccDes= 0.00D+00 IRadAn=         5 IDoV= 1 UseB2=F ITyADJ=14
 ICtDFT=  3500011 ScaDFX=  1.000000  1.000000  1.000000  1.000000
 FoFCou: FMM=F IPFlag=           0 FMFlag=      100000 FMFlg1=           0
         NFxFlg=           0 DoJE=T BraDBF=F KetDBF=T FulRan=T
         wScrn=  0.000000 ICntrl=       500 IOpCl=  0 I1Cent=   200000004 NGrid=           0
         NMat0=    1 NMatS0=      1 NMatT0=    0 NMatD0=    1 NMtDS0=    0 NMtDT0=    0
 Petite list used in FoFCou.
 Initial guess <Sx>= 0.0000 <Sy>= 0.0000 <Sz>= 0.5000 <S**2>= 0.7500 S= 0.5000
     Minimum is close to point  4 DX=  5.79D-02 DF= -2.21D-03 DXR=  8.80D-02 DFR=  8.07D-03 which will be used.
     Accept linear search using points  1 and  2.
     Minimum is close to point  2 DX= -2.02D-02 DF= -5.53D-07 DXR=  2.06D-02 DFR=  4.23D-04 which will be used.
     Accept linear search using points  1 and  2.
     Minimum is close to point  2 DX= -8.44D-02 DF= -5.20D-06 DXR=  9.21D-02 DFR=  8.64D-03 which will be used.
     Accept linear search using points  1 and  2.
     Accept linear search using points  1 and  2.
     Minimum is close to point  2 DX= -8.21D-02 DF= -4.65D-06 DXR=  8.94D-02 DFR=  8.59D-03 which will be used.
     Accept linear search using points  1 and  2.
     Accept linear search using points  2 and  3.
     Accept linear search using points  1 and  2.
     Minimum is close to point  3 DX=  1.94D-01 DF= -3.19D-08 DXR=  9.73D-02 DFR=  7.78D-03 which will be used.
     Minimum is close to point  2 DX= -3.36D-02 DF= -4.74D-10 DXR=  3.48D-02 DFR=  1.21D-03 which will be used.
     Minimum is close to point  2 DX=  3.64D-02 DF= -4.41D-11 DXR=  3.52D-02 DFR=  1.24D-03 which will be used.
 SCF Done:  E(UwB97XD) =  -617.343372508     a.u. after   23 cycles
            Convg  =    0.2858D-07                   250 Fock formations.
              S**2 =  0.7526                  -V/T =  2.0044
 <Sx>= 0.0000 <Sy>= 0.0000 <Sz>= 0.5000 <S**2>= 0.7526 S= 0.5013
 <L.S>=  0.00000000000    
 Annihilation of the first spin contaminant:
 S**2 before annihilation     0.7526,   after     0.7500

 **********************************************************************

            Population analysis using the SCF Density.

 **********************************************************************

 Orbital symmetries:
 Alpha Orbitals:
       Occupied  (A) (A) (A) (A) (A) (A) (A) (A) (A) (A) (A) (A)
                 (A) (A) (A) (A) (A) (A) (A) (A) (A) (A) (A) (A)
                 (A)
       Virtual   (A) (A) (A) (A) (A) (A) (A) (A) (A) (A) (A) (A)
                 (A) (A) (A) (A) (A) (A) (A) (A) (A) (A) (A) (A)
                 (A) (A) (A) (A) (A) (A) (A) (A) (A) (A) (A) (A)
                 (A) (A) (A) (A) (A) (A) (A) (A) (A) (A) (A) (A)
                 (A) (A) (A) (A) (A) (A) (A) (A) (A) (A) (A) (A)
                 (A) (A) (A) (A) (A) (A) (A)
 Beta  Orbitals:
       Occupied  (A) (A) (A) (A) (A) (A) (A) (A) (A) (A) (A) (A)
                 (A) (A) (A) (A) (A) (A) (A) (A) (A) (A) (A) (A)
       Virtual   (A) (A) (A) (A) (A) (A) (A) (A) (A) (A) (A) (A)
                 (A) (A) (A) (A) (A) (A) (A) (A) (A) (A) (A) (A)
                 (A) (A) (A) (A) (A) (A) (A) (A) (A) (A) (A) (A)
                 (A) (A) (A) (A) (A) (A) (A) (A) (A) (A) (A) (A)
                 (A) (A) (A) (A) (A) (A) (A) (A) (A) (A) (A) (A)
                 (A) (A) (A) (A) (A) (A) (A) (A)
 The electronic state is 2-A.
 Alpha  occ. eigenvalues -- -101.99808 -10.60893 -10.50852 -10.48914 -10.48883
 Alpha  occ. eigenvalues --   -9.90314  -7.66199  -7.65107  -7.64283  -1.25286
 Alpha  occ. eigenvalues --   -1.11146  -0.99967  -0.98886  -0.86460  -0.78153
 Alpha  occ. eigenvalues --   -0.76863  -0.75414  -0.71243  -0.69793  -0.67460
 Alpha  occ. eigenvalues --   -0.66361  -0.65195  -0.64961  -0.63843  -0.62991
 Alpha virt. eigenvalues --   -0.14625  -0.03808   0.01908   0.02108   0.02301
 Alpha virt. eigenvalues --    0.03015   0.03426   0.06499   0.07113   0.07924
 Alpha virt. eigenvalues --    0.08870   0.09284   0.10100   0.23848   0.28351
 Alpha virt. eigenvalues --    0.28363   0.29667   0.30998   0.37461   0.43088
 Alpha virt. eigenvalues --    0.43741   0.46164   0.51868   0.52529   0.53326
 Alpha virt. eigenvalues --    0.53534   0.54209   0.55906   0.57134   0.58707
 Alpha virt. eigenvalues --    0.60466   0.60827   0.62231   0.62900   0.63514
 Alpha virt. eigenvalues --    0.65202   0.65898   0.67144   0.69609   0.69943
 Alpha virt. eigenvalues --    0.70880   0.84218   0.86096   0.87870   1.01400
 Alpha virt. eigenvalues --    1.02154   1.15665   1.27938   1.28709   1.58456
 Alpha virt. eigenvalues --    1.66400   1.66870   1.77725   1.80401   1.81040
 Alpha virt. eigenvalues --    1.89103   1.89591   1.95318   2.01915   2.02391
 Alpha virt. eigenvalues --    2.03495   2.03577   2.30628   2.30727   2.30869
 Alpha virt. eigenvalues --    2.50833   2.51462
  Beta  occ. eigenvalues -- -101.99263 -10.60785 -10.50669 -10.48869 -10.48840
  Beta  occ. eigenvalues --   -9.89759  -7.64721  -7.64389  -7.63891  -1.22467
  Beta  occ. eigenvalues --   -1.09360  -0.99171  -0.98671  -0.85517  -0.77663
  Beta  occ. eigenvalues --   -0.74970  -0.74106  -0.69301  -0.68435  -0.65893
  Beta  occ. eigenvalues --   -0.65002  -0.64397  -0.63421  -0.62543
  Beta virt. eigenvalues --   -0.41470  -0.13720  -0.03732   0.02032   0.02262
  Beta virt. eigenvalues --    0.02465   0.03302   0.03483   0.06803   0.07163
  Beta virt. eigenvalues --    0.08118   0.09372   0.09460   0.10158   0.24351
  Beta virt. eigenvalues --    0.28487   0.28668   0.31181   0.31318   0.38139
  Beta virt. eigenvalues --    0.44814   0.44877   0.46450   0.52512   0.53572
  Beta virt. eigenvalues --    0.53735   0.54919   0.55079   0.56052   0.57228
  Beta virt. eigenvalues --    0.59908   0.61641   0.61827   0.63426   0.63539
  Beta virt. eigenvalues --    0.63699   0.66411   0.66624   0.67564   0.70050
  Beta virt. eigenvalues --    0.71625   0.71758   0.86342   0.86565   0.88013
  Beta virt. eigenvalues --    1.02161   1.02475   1.16606   1.28683   1.28981
  Beta virt. eigenvalues --    1.58878   1.66977   1.67290   1.78200   1.80787
  Beta virt. eigenvalues --    1.81239   1.89375   1.89855   1.95561   2.02350
  Beta virt. eigenvalues --    2.02604   2.03589   2.03844   2.31045   2.31088
  Beta virt. eigenvalues --    2.31148   2.51463   2.51848
          Condensed to atoms (all electrons):
          Atomic-Atomic Spin Densities.
 Mulliken charges and spin densities:
               1          2
     1  C   -0.252499   0.025330
     2  C   -0.415312   0.023517
     3  C   -0.252647   0.026442
     4  C   -0.261872   0.095442
     5  Cl   0.408496   0.785942
     6  H    0.201622   0.004798
     7  H    0.187915   0.002061
     8  H    0.189037   0.006900
     9  H    0.201962   0.005066
    10  H    0.189191   0.006829
    11  H    0.188036   0.001915
    12  H    0.221614   0.020142
    13  H    0.197213  -0.002228
    14  H    0.197244  -0.002156
 Sum of Mulliken charges =   1.00000   1.00000
 Mulliken charges and spin densities with hydrogens summed into heavy atoms:
               1          2
     1  C    0.326074   0.039089
     2  C   -0.415312   0.023517
     3  C    0.326542   0.040251
     4  C    0.354199   0.111201
     5  Cl   0.408496   0.785942
 Electronic spatial extent (au):  <R**2>=            550.7428
 Charge=              1.0000 electrons
 Dipole moment (field-independent basis, Debye):
    X=              0.4319    Y=             -0.2479    Z=             -0.1484  Tot=              0.5196
                          Isotropic Fermi Contact Couplings
        Atom                 a.u.       MegaHertz       Gauss      10(-4) cm-1
     1  C(13)              0.00951      10.68612       3.81307       3.56451
     2  C(13)             -0.00845      -9.49930      -3.38959      -3.16863
     3  C(13)              0.01013      11.39054       4.06443       3.79948
     4  C(13)              0.05072      57.01751      20.34526      19.01899
     5  Cl(35)             0.12327      54.04970      19.28628      18.02904
     6  H(1)               0.00216       9.66366       3.44823       3.22345
     7  H(1)               0.00105       4.67988       1.66990       1.56104
     8  H(1)               0.00154       6.89249       2.45941       2.29909
     9  H(1)               0.00228      10.18695       3.63496       3.39800
    10  H(1)               0.00150       6.70436       2.39228       2.23633
    11  H(1)               0.00100       4.45278       1.58886       1.48529
    12  H(1)               0.00888      39.68742      14.16146      13.23830
    13  H(1)              -0.00158      -7.06237      -2.52003      -2.35575
    14  H(1)              -0.00157      -7.02649      -2.50723      -2.34378
 --------------------------------------------------------
       Center         ----  Spin Dipole Couplings  ----
                      3XX-RR        3YY-RR        3ZZ-RR
 --------------------------------------------------------
     1   Atom        0.002628     -0.021832      0.019204
     2   Atom       -0.079554      0.102951     -0.023397
     3   Atom        0.002717      0.021904     -0.024622
     4   Atom        0.005827      0.036963     -0.042790
     5   Atom       -2.354488      3.004545     -0.650057
     6   Atom        0.006641     -0.005271     -0.001370
     7   Atom       -0.002724     -0.002691      0.005415
     8   Atom        0.001133     -0.003432      0.002299
     9   Atom        0.006813     -0.001469     -0.005344
    10   Atom        0.001121      0.005132     -0.006253
    11   Atom       -0.002789     -0.002390      0.005179
    12   Atom        0.017398     -0.007327     -0.010070
    13   Atom       -0.003092     -0.008098      0.011191
    14   Atom       -0.003039      0.013245     -0.010206
 --------------------------------------------------------
                        XY            XZ            YZ
 --------------------------------------------------------
     1   Atom        0.011257      0.036028      0.014189
     2   Atom        0.002626      0.001477      0.107178
     3   Atom        0.038097     -0.008676     -0.011210
     4   Atom       -0.103980     -0.060179      0.069399
     5   Atom        0.070591      0.040474      3.099438
     6   Atom       -0.000959      0.003080      0.001078
     7   Atom       -0.001974      0.004475     -0.006651
     8   Atom       -0.000391      0.005922      0.004843
     9   Atom        0.002141     -0.002348     -0.001138
    10   Atom        0.004925     -0.003328      0.000059
    11   Atom        0.002897     -0.003905     -0.006917
    12   Atom        0.000390      0.000220      0.002368
    13   Atom       -0.004794     -0.001091      0.007954
    14   Atom       -0.003327     -0.003659     -0.004276
 --------------------------------------------------------


 ---------------------------------------------------------------------------------
              Anisotropic Spin Dipole Couplings in Principal Axis System
 ---------------------------------------------------------------------------------

       Atom             a.u.   MegaHertz   Gauss  10(-4) cm-1        Axes

              Baa    -0.0263    -3.524    -1.257    -1.175 -0.0363  0.9618 -0.2714
     1 C(13)  Bbb    -0.0260    -3.496    -1.247    -1.166  0.7954 -0.1366 -0.5905
              Bcc     0.0523     7.019     2.505     2.341  0.6050  0.2373  0.7601
 
              Baa    -0.0846   -11.357    -4.052    -3.788  0.0039 -0.4961  0.8682
     2 C(13)  Bbb    -0.0796   -10.680    -3.811    -3.563  0.9999 -0.0088 -0.0095
              Bcc     0.1642    22.038     7.864     7.351  0.0124  0.8682  0.4961
 
              Baa    -0.0272    -3.648    -1.302    -1.217 -0.0708  0.2740  0.9591
     3 C(13)  Bbb    -0.0270    -3.618    -1.291    -1.207  0.7931 -0.5677  0.2207
              Bcc     0.0541     7.266     2.593     2.424  0.6049  0.7763 -0.1771
 
              Baa    -0.0838   -11.251    -4.014    -3.753  0.8014  0.5166  0.3015
     4 C(13)  Bbb    -0.0830   -11.132    -3.972    -3.713 -0.0017 -0.5020  0.8649
              Bcc     0.1668    22.382     7.987     7.466 -0.5981  0.6936  0.4014
 
              Baa    -2.4207  -126.696   -45.208   -42.261 -0.0019 -0.4960  0.8683
     5 Cl(35) Bbb    -2.3554  -123.277   -43.988   -41.121  0.9999 -0.0109 -0.0040
              Bcc     4.7762   249.973    89.197    83.382  0.0114  0.8682  0.4960
 
              Baa    -0.0058    -3.102    -1.107    -1.035  0.1538  0.9305 -0.3323
     6 H(1)   Bbb    -0.0019    -1.013    -0.361    -0.338 -0.2797  0.3636  0.8886
              Bcc     0.0077     4.115     1.468     1.373  0.9477 -0.0437  0.3162
 
              Baa    -0.0065    -3.481    -1.242    -1.161 -0.2009  0.8218  0.5332
     7 H(1)   Bbb    -0.0044    -2.331    -0.832    -0.778  0.9198  0.3455 -0.1858
              Bcc     0.0109     5.812     2.074     1.939  0.3369 -0.4531  0.8254
 
              Baa    -0.0077    -4.127    -1.473    -1.377  0.4203  0.6949 -0.5835
     8 H(1)   Bbb    -0.0009    -0.494    -0.176    -0.165  0.6950 -0.6599 -0.2853
              Bcc     0.0087     4.621     1.649     1.541  0.5833  0.2856  0.7604
 
              Baa    -0.0059    -3.154    -1.126    -1.052  0.1497  0.1769  0.9728
     9 H(1)   Bbb    -0.0019    -1.022    -0.365    -0.341 -0.2694  0.9539 -0.1320
              Bcc     0.0078     4.177     1.490     1.393  0.9513  0.2423 -0.1905
 
              Baa    -0.0078    -4.181    -1.492    -1.395  0.4215 -0.1641  0.8918
    10 H(1)   Bbb    -0.0008    -0.447    -0.159    -0.149  0.6968 -0.5707 -0.4344
              Bcc     0.0087     4.628     1.651     1.544  0.5803  0.8046 -0.1262
 
              Baa    -0.0066    -3.520    -1.256    -1.174 -0.2092  0.8719  0.4427
    11 H(1)   Bbb    -0.0044    -2.338    -0.834    -0.780  0.9199  0.0219  0.3916
              Bcc     0.0110     5.858     2.090     1.954 -0.3317 -0.4892  0.8066
 
              Baa    -0.0114    -6.102    -2.177    -2.035  0.0002 -0.4994  0.8663
    12 H(1)   Bbb    -0.0060    -3.186    -1.137    -1.063 -0.0192  0.8662  0.4994
              Bcc     0.0174     9.287     3.314     3.098  0.9998  0.0167  0.0094
 
              Baa    -0.0128    -6.817    -2.432    -2.274  0.4021  0.8743 -0.2719
    13 H(1)   Bbb    -0.0017    -0.900    -0.321    -0.300  0.9024 -0.3283  0.2792
              Bcc     0.0145     7.717     2.754     2.574 -0.1549  0.3576  0.9209
 
              Baa    -0.0128    -6.830    -2.437    -2.278  0.4024  0.1981  0.8937
    14 H(1)   Bbb    -0.0016    -0.861    -0.307    -0.287  0.9021  0.0800 -0.4240
              Bcc     0.0144     7.692     2.745     2.566 -0.1555  0.9769 -0.1466
 

 ---------------------------------------------------------------------------------

   1 Symmetry operations used in ECPInt.
 ECPInt:  NShTT=    1275 NPrTT=    5355 LenC2=    1273 LenP2D=    4422.
 LDataN:  DoStor=T MaxTD1= 5 Len=  102
 Calling FoFJK, ICntrl=      2127 FMM=F ISym2X=0 I1Cent= 0 IOpClX= 1 NMat=1 NMatS=1 NMatT=0.

 GradGradGradGradGradGradGradGradGradGradGradGradGradGradGradGradGradGrad
 FormGI is forming the generalized inverse of G from B-inverse, IUseBI=4.
 Internal  Forces:  Max     0.018789346 RMS     0.004215100
 Step number   1 out of a maximum of   74
 All quantities printed in internal units (Hartrees-Bohrs-Radians)
 Mixed Optimization -- RFO/linear search
 Second derivative matrix not updated -- first step.
 ITU=  0
     Eigenvalues ---    0.00429   0.00430   0.00430   0.04165   0.05583
     Eigenvalues ---    0.05583   0.05583   0.05736   0.05736   0.05736
     Eigenvalues ---    0.06988   0.06989   0.16000   0.16000   0.16000
     Eigenvalues ---    0.16000   0.16000   0.16000   0.16000   0.16000
     Eigenvalues ---    0.16000   0.18399   0.18400   0.23589   0.29848
     Eigenvalues ---    0.29849   0.29851   0.33104   0.33106   0.33106
     Eigenvalues ---    0.33405   0.33406   0.33406   0.33407   0.33407
     Eigenvalues ---    0.33407
 Linear search not attempted -- first point.
 Iteration  1 RMS(Cart)=  0.03530615 RMS(Int)=  0.00113225
 Iteration  2 RMS(Cart)=  0.00128325 RMS(Int)=  0.00053613
 Iteration  3 RMS(Cart)=  0.00000057 RMS(Int)=  0.00053613
 Variable       Old X    -DE/DX   Delta X   Delta X   Delta X     New X
                                 (Linear)    (Quad)   (Total)
    R1        2.88262   0.00445   0.00000   0.01449   0.01449   2.89711
    R2        2.08866  -0.00163   0.00000  -0.00481  -0.00481   2.08385
    R3        2.08345   0.00043   0.00000   0.00127   0.00127   2.08472
    R4        2.08344  -0.00039   0.00000  -0.00115  -0.00115   2.08230
    R5        2.88267   0.00468   0.00000   0.01526   0.01526   2.89793
    R6        2.88265   0.01879   0.00000   0.06125   0.06125   2.94390
    R7        3.46638  -0.00560   0.00000  -0.02295  -0.02295   3.44344
    R8        2.08866  -0.00161   0.00000  -0.00475  -0.00475   2.08391
    R9        2.08343  -0.00040   0.00000  -0.00116  -0.00116   2.08227
   R10        2.08342   0.00045   0.00000   0.00133   0.00133   2.08474
   R11        2.08868  -0.00064   0.00000  -0.00189  -0.00189   2.08679
   R12        2.08343  -0.00026   0.00000  -0.00077  -0.00077   2.08266
   R13        2.08347  -0.00029   0.00000  -0.00084  -0.00084   2.08262
    A1        1.91227  -0.00687   0.00000  -0.04937  -0.04926   1.86301
    A2        1.93633   0.00510   0.00000   0.03541   0.03522   1.97155
    A3        1.93625   0.00076   0.00000   0.00806   0.00754   1.94379
    A4        1.89285   0.00011   0.00000  -0.00607  -0.00562   1.88723
    A5        1.89287   0.00189   0.00000   0.00149   0.00125   1.89412
    A6        1.89219  -0.00098   0.00000   0.01012   0.00941   1.90160
    A7        1.94701   0.00639   0.00000   0.07003   0.06948   2.01649
    A8        1.94701  -0.00129   0.00000   0.00242   0.00094   1.94796
    A9        1.87271   0.00016   0.00000  -0.00182  -0.00274   1.86997
   A10        1.94710  -0.00142   0.00000   0.00137  -0.00017   1.94693
   A11        1.87257   0.00010   0.00000  -0.00286  -0.00386   1.86871
   A12        1.87266  -0.00429   0.00000  -0.07596  -0.07615   1.79650
   A13        1.91237  -0.00701   0.00000  -0.05031  -0.05020   1.86217
   A14        1.93620   0.00075   0.00000   0.00806   0.00753   1.94373
   A15        1.93624   0.00517   0.00000   0.03590   0.03571   1.97195
   A16        1.89287   0.00195   0.00000   0.00168   0.00143   1.89430
   A17        1.89286   0.00013   0.00000  -0.00597  -0.00552   1.88734
   A18        1.89221  -0.00099   0.00000   0.01029   0.00957   1.90178
   A19        1.91229  -0.01435   0.00000  -0.09941  -0.09940   1.81289
   A20        1.93623   0.00385   0.00000   0.03004   0.02908   1.96531
   A21        1.93632   0.00378   0.00000   0.02959   0.02862   1.96494
   A22        1.89285   0.00370   0.00000   0.00839   0.00842   1.90127
   A23        1.89286   0.00372   0.00000   0.00844   0.00844   1.90130
   A24        1.89220  -0.00051   0.00000   0.02345   0.02180   1.91400
    D1       -1.09491   0.00065   0.00000  -0.01216  -0.01260  -1.10752
    D2        1.09569   0.00270   0.00000   0.04524   0.04544   1.14113
    D3       -3.14115  -0.00311   0.00000  -0.04638  -0.04670   3.09533
    D4        3.09884   0.00174   0.00000   0.00491   0.00496   3.10380
    D5       -0.99374   0.00379   0.00000   0.06232   0.06300  -0.93074
    D6        1.05260  -0.00202   0.00000  -0.02931  -0.02914   1.02346
    D7        0.99449  -0.00094   0.00000  -0.03702  -0.03738   0.95710
    D8       -3.09809   0.00110   0.00000   0.02038   0.02066  -3.07744
    D9       -1.05175  -0.00471   0.00000  -0.07124  -0.07149  -1.12324
   D10        1.09523  -0.00065   0.00000   0.01211   0.01254   1.10777
   D11       -0.99421   0.00098   0.00000   0.03733   0.03769  -0.95653
   D12       -3.09851  -0.00175   0.00000  -0.00514  -0.00521  -3.10371
   D13       -1.09533  -0.00276   0.00000  -0.04588  -0.04605  -1.14138
   D14        3.09841  -0.00114   0.00000  -0.02066  -0.02090   3.07751
   D15        0.99412  -0.00386   0.00000  -0.06313  -0.06380   0.93032
   D16        3.14155   0.00315   0.00000   0.04695   0.04726  -3.09438
   D17        1.05210   0.00477   0.00000   0.07217   0.07240   1.12450
   D18       -1.05219   0.00205   0.00000   0.02970   0.02951  -1.02268
   D19       -1.09496  -0.00316   0.00000  -0.04743  -0.04692  -1.14188
   D20        3.09884  -0.00093   0.00000  -0.01274  -0.01181   3.08703
   D21        0.99449  -0.00540   0.00000  -0.08235  -0.08225   0.91224
   D22        1.09560   0.00321   0.00000   0.04799   0.04746   1.14305
   D23       -0.99379   0.00544   0.00000   0.08268   0.08257  -0.91122
   D24       -3.09814   0.00097   0.00000   0.01307   0.01213  -3.08601
   D25       -3.14133  -0.00004   0.00000  -0.00064  -0.00063   3.14123
   D26        1.05247   0.00218   0.00000   0.03405   0.03449   1.08696
   D27       -1.05188  -0.00228   0.00000  -0.03556  -0.03595  -1.08783
         Item               Value     Threshold  Converged?
 Maximum Force            0.018789     0.000015     NO 
 RMS     Force            0.004215     0.000010     NO 
 Maximum Displacement     0.093738     0.000060     NO 
 RMS     Displacement     0.035143     0.000040     NO 
 GradGradGradGradGradGradGradGradGradGradGradGradGradGradGradGradGradGrad

                    Distance matrix (angstroms):
                    1          2          3          4          5
     1  C    0.000000
     2  C    1.533083   0.000000
     3  C    2.594029   1.533519   0.000000
     4  C    2.556630   1.557844   2.556098   0.000000
     5  Cl   2.705068   1.822189   2.704162   2.649119   0.000000
     6  H    1.102725   2.130809   2.834260   2.795825   3.677243
     7  H    1.103184   2.210639   3.555791   2.794536   2.911235
     8  H    1.101904   2.189914   2.840752   3.522610   2.940673
     9  H    2.833745   2.130577   1.102757   2.794541   3.676254
    10  H    2.840576   2.190248   1.101891   3.522239   2.940141
    11  H    3.555904   2.211318   1.103198   2.793948   2.909955
    12  H    2.758366   2.114512   2.758180   1.104283   3.617457
    13  H    3.527771   2.227398   2.786892   1.102097   2.866466
    14  H    2.787876   2.227120   3.527307   1.102076   2.866644
                    6          7          8          9         10
     6  H    0.000000
     7  H    1.786091   0.000000
     8  H    1.789500   1.794678   0.000000
     9  H    2.627393   3.842085   3.185310   0.000000
    10  H    3.185220   3.855101   2.642682   1.789633   0.000000
    11  H    3.842785   4.405124   3.855262   1.786202   1.794796
    12  H    2.540576   3.114412   3.767636   2.539489   3.767377
    13  H    3.809705   3.814604   4.385705   3.125725   3.803803
    14  H    3.127455   2.571801   3.804544   3.808615   4.385479
                   11         12         13         14
    11  H    0.000000
    12  H    3.114333   0.000000
    13  H    2.570607   1.795518   0.000000
    14  H    3.813871   1.795521   1.801838   0.000000
 Framework group  C1[X(C4H9Cl)]
 Deg. of freedom    36
                         Standard orientation:                         
 ---------------------------------------------------------------------
 Center     Atomic      Atomic             Coordinates (Angstroms)
 Number     Number       Type             X           Y           Z
 ---------------------------------------------------------------------
      1          6           0        0.832805   -1.300305    0.691726
      2          6           0        0.370696   -0.000400    0.023112
      3          6           0        0.830286    1.293685    0.705609
      4          6           0        0.697237    0.008851   -1.500096
      5         17           0       -1.451300   -0.001109    0.049587
      6          1           0        1.933635   -1.315871    0.629005
      7          1           0        0.447506   -2.203475    0.188891
      8          1           0        0.542213   -1.330694    1.754188
      9          1           0        1.931085    1.311487    0.642383
     10          1           0        0.540133    1.311948    1.768455
     11          1           0        0.443270    2.201583    0.212671
     12          1           0        1.800992    0.009779   -1.534229
     13          1           0        0.322977    0.912458   -2.008073
     14          1           0        0.324149   -0.889350   -2.018373
 ---------------------------------------------------------------------
 Rotational constants (GHZ):           4.3838043           3.0587658           3.0169620
    92 basis functions,   173 primitive gaussians,    97 cartesian basis functions
    25 alpha electrons       24 beta electrons
       nuclear repulsion energy       240.1257768681 Hartrees.
 NAtoms=   14 NActive=   14 NUniq=   14 SFac= 1.00D+00 NAtFMM=   60 NAOKFM=F Big=F
 Nuclear repulsion after empirical dispersion term =      240.1184835672 Hartrees.
   1 Symmetry operations used in ECPInt.
 ECPInt:  NShTT=    1275 NPrTT=    5355 LenC2=    1273 LenP2D=    4423.
 LDataN:  DoStor=T MaxTD1= 4 Len=   56
 Initial guess from the checkpoint file:  "16.chk"
 B after Tr=     0.000000   -0.000000   -0.000000
         Rot=    0.864945   -0.501351   -0.019898    0.011030 Ang= -60.25 deg.
 Initial guess <Sx>= 0.0000 <Sy>= 0.0000 <Sz>= 0.5000 <S**2>= 0.7526 S= 0.5013
 ExpMin= 1.22D-01 ExpMax= 1.04D+04 ExpMxC= 1.57D+03 IAcc=3 IRadAn=         5 AccDes= 0.00D+00
 Harris functional with IExCor= 4639 and IRadAn=       5 diagonalized for initial guess.
 HarFok:  IExCor= 4639 AccDes= 0.00D+00 IRadAn=         5 IDoV= 1 UseB2=F ITyADJ=14
 ICtDFT=  3500011 ScaDFX=  1.000000  1.000000  1.000000  1.000000
 FoFCou: FMM=F IPFlag=           0 FMFlag=      100000 FMFlg1=           0
         NFxFlg=           0 DoJE=T BraDBF=F KetDBF=T FulRan=T
         wScrn=  0.000000 ICntrl=       500 IOpCl=  0 I1Cent=   200000004 NGrid=           0
         NMat0=    1 NMatS0=      1 NMatT0=    0 NMatD0=    1 NMtDS0=    0 NMtDT0=    0
 Petite list used in FoFCou.
     Accept linear search using points  3 and  4.
     Minimum is close to point  3 DX=  8.75D-04 DF= -2.22D-10 DXR=  7.95D-04 DFR=  6.31D-07 which will be used.
     Accept linear search using points  1 and  2.
     Minimum is close to point  2 DX= -8.64D-02 DF= -1.42D-06 DXR=  8.53D-02 DFR=  8.51D-03 which will be used.
     Accept linear search using points  1 and  2.
     Accept linear search using points  1 and  2.
     Minimum is close to point  2 DX= -1.42D-02 DF= -1.04D-07 DXR=  1.44D-02 DFR=  2.09D-04 which will be used.
     Minimum is close to point  2 DX=  9.38D-04 DF= -7.96D-13 DXR=  9.37D-04 DFR=  9.46D-07 which will be used.
 SCF Done:  E(UwB97XD) =  -617.348427064     a.u. after    8 cycles
            Convg  =    0.4334D-07                    57 Fock formations.
              S**2 =  0.7527                  -V/T =  2.0045
 <Sx>= 0.0000 <Sy>= 0.0000 <Sz>= 0.5000 <S**2>= 0.7527 S= 0.5014
 <L.S>=  0.00000000000    
 Annihilation of the first spin contaminant:
 S**2 before annihilation     0.7527,   after     0.7500
   1 Symmetry operations used in ECPInt.
 ECPInt:  NShTT=    1275 NPrTT=    5355 LenC2=    1273 LenP2D=    4423.
 LDataN:  DoStor=T MaxTD1= 5 Len=  102
 Calling FoFJK, ICntrl=      2127 FMM=F ISym2X=0 I1Cent= 0 IOpClX= 1 NMat=1 NMatS=1 NMatT=0.

 GradGradGradGradGradGradGradGradGradGradGradGradGradGradGradGradGradGrad
 Using GEDIIS/GDIIS optimizer.
 FormGI is forming the generalized inverse of G from B-inverse, IUseBI=4.
 Internal  Forces:  Max     0.008960049 RMS     0.002163713
 Step number   2 out of a maximum of   74
 All quantities printed in internal units (Hartrees-Bohrs-Radians)
 Mixed Optimization -- RFO/linear search
 Trust test= 1.11D+00 RLast= 2.98D-01 DXMaxT set to 5.05D-01
 ITU=  1  0
 Use linear search instead of GDIIS.
     Eigenvalues ---    0.00430   0.00430   0.00430   0.04029   0.04123
     Eigenvalues ---    0.05334   0.05381   0.05855   0.05997   0.06018
     Eigenvalues ---    0.06266   0.07847   0.14501   0.16000   0.16000
     Eigenvalues ---    0.16000   0.16000   0.16000   0.16000   0.16000
     Eigenvalues ---    0.17296   0.19232   0.20648   0.23565   0.27472
     Eigenvalues ---    0.29850   0.32057   0.33098   0.33106   0.33330
     Eigenvalues ---    0.33403   0.33406   0.33406   0.33407   0.33407
     Eigenvalues ---    0.34701
 Quartic linear search produced a step of  0.32478.
 Iteration  1 RMS(Cart)=  0.02991656 RMS(Int)=  0.00133172
 Iteration  2 RMS(Cart)=  0.00136605 RMS(Int)=  0.00061245
 Iteration  3 RMS(Cart)=  0.00000058 RMS(Int)=  0.00061245
 Variable       Old X    -DE/DX   Delta X   Delta X   Delta X     New X
                                 (Linear)    (Quad)   (Total)
    R1        2.89711  -0.00481   0.00471  -0.02066  -0.01595   2.88116
    R2        2.08385   0.00090  -0.00156   0.00345   0.00189   2.08574
    R3        2.08472  -0.00099   0.00041  -0.00384  -0.00343   2.08129
    R4        2.08230  -0.00007  -0.00037  -0.00029  -0.00067   2.08163
    R5        2.89793  -0.00472   0.00496  -0.02025  -0.01529   2.88264
    R6        2.94390   0.00896   0.01989   0.04019   0.06008   3.00398
    R7        3.44344  -0.00065  -0.00745  -0.00397  -0.01142   3.43201
    R8        2.08391   0.00090  -0.00154   0.00346   0.00191   2.08582
    R9        2.08227  -0.00007  -0.00038  -0.00031  -0.00069   2.08158
   R10        2.08474  -0.00101   0.00043  -0.00392  -0.00349   2.08125
   R11        2.08679   0.00235  -0.00061   0.00921   0.00859   2.09538
   R12        2.08266  -0.00088  -0.00025  -0.00345  -0.00370   2.07896
   R13        2.08262  -0.00087  -0.00027  -0.00341  -0.00369   2.07894
    A1        1.86301   0.00134  -0.01600   0.01165  -0.00434   1.85866
    A2        1.97155  -0.00174   0.01144  -0.01372  -0.00234   1.96920
    A3        1.94379  -0.00152   0.00245  -0.01390  -0.01165   1.93214
    A4        1.88723   0.00033  -0.00183   0.00556   0.00387   1.89110
    A5        1.89412  -0.00001   0.00041   0.00005   0.00031   1.89443
    A6        1.90160   0.00168   0.00306   0.01125   0.01408   1.91568
    A7        2.01649  -0.00166   0.02257   0.00623   0.02774   2.04423
    A8        1.94796   0.00071   0.00031  -0.00991  -0.00974   1.93821
    A9        1.86997   0.00246  -0.00089   0.03941   0.03583   1.90579
   A10        1.94693   0.00065  -0.00006  -0.01031  -0.01054   1.93639
   A11        1.86871   0.00250  -0.00125   0.03974   0.03573   1.90444
   A12        1.79650  -0.00484  -0.02473  -0.06864  -0.09280   1.70371
   A13        1.86217   0.00136  -0.01630   0.01183  -0.00447   1.85770
   A14        1.94373  -0.00154   0.00245  -0.01411  -0.01186   1.93187
   A15        1.97195  -0.00176   0.01160  -0.01390  -0.00237   1.96958
   A16        1.89430  -0.00000   0.00046   0.00016   0.00048   1.89478
   A17        1.88734   0.00033  -0.00179   0.00557   0.00393   1.89127
   A18        1.90178   0.00170   0.00311   0.01134   0.01422   1.91600
   A19        1.81289  -0.00491  -0.03228  -0.04810  -0.08082   1.73207
   A20        1.96531  -0.00032   0.00944   0.00116   0.00977   1.97508
   A21        1.96494  -0.00033   0.00929   0.00107   0.00953   1.97447
   A22        1.90127   0.00197   0.00273   0.00918   0.01146   1.91273
   A23        1.90130   0.00198   0.00274   0.00930   0.01157   1.91287
   A24        1.91400   0.00151   0.00708   0.02441   0.03041   1.94441
    D1       -1.10752   0.00135  -0.00409   0.03164   0.02767  -1.07985
    D2        1.14113   0.00145   0.01476   0.01328   0.02827   1.16940
    D3        3.09533  -0.00257  -0.01517  -0.05106  -0.06681   3.02852
    D4        3.10380   0.00108   0.00161   0.02515   0.02706   3.13086
    D5       -0.93074   0.00118   0.02046   0.00679   0.02766  -0.90308
    D6        1.02346  -0.00284  -0.00946  -0.05755  -0.06742   0.95604
    D7        0.95710   0.00131  -0.01214   0.03109   0.01913   0.97623
    D8       -3.07744   0.00141   0.00671   0.01273   0.01973  -3.05771
    D9       -1.12324  -0.00261  -0.02322  -0.05161  -0.07535  -1.19859
   D10        1.10777  -0.00133   0.00407  -0.03148  -0.02753   1.08024
   D11       -0.95653  -0.00130   0.01224  -0.03107  -0.01902  -0.97555
   D12       -3.10371  -0.00106  -0.00169  -0.02495  -0.02695  -3.13066
   D13       -1.14138  -0.00146  -0.01496  -0.01332  -0.02850  -1.16987
   D14        3.07751  -0.00143  -0.00679  -0.01291  -0.01999   3.05752
   D15        0.93032  -0.00119  -0.02072  -0.00679  -0.02791   0.90241
   D16       -3.09438   0.00257   0.01535   0.05100   0.06694  -3.02744
   D17        1.12450   0.00260   0.02352   0.05141   0.07545   1.19995
   D18       -1.02268   0.00284   0.00958   0.05753   0.06752  -0.95516
   D19       -1.14188   0.00055  -0.01524   0.00409  -0.01064  -1.15253
   D20        3.08703   0.00131  -0.00383   0.02142   0.01823   3.10526
   D21        0.91224  -0.00020  -0.02671  -0.01312  -0.03944   0.87280
   D22        1.14305  -0.00057   0.01541  -0.00483   0.01005   1.15310
   D23       -0.91122   0.00019   0.02682   0.01250   0.03892  -0.87230
   D24       -3.08601  -0.00132   0.00394  -0.02204  -0.01875  -3.10476
   D25        3.14123   0.00000  -0.00020  -0.00020  -0.00039   3.14083
   D26        1.08696   0.00076   0.01120   0.01713   0.02848   1.11543
   D27       -1.08783  -0.00075  -0.01168  -0.01741  -0.02919  -1.11702
         Item               Value     Threshold  Converged?
 Maximum Force            0.008960     0.000015     NO 
 RMS     Force            0.002164     0.000010     NO 
 Maximum Displacement     0.139798     0.000060     NO 
 RMS     Displacement     0.030118     0.000040     NO 
 GradGradGradGradGradGradGradGradGradGradGradGradGradGradGradGradGradGrad

                    Distance matrix (angstroms):
                    1          2          3          4          5
     1  C    0.000000
     2  C    1.524643   0.000000
     3  C    2.602357   1.525426   0.000000
     4  C    2.567612   1.589637   2.566647   0.000000
     5  Cl   2.728297   1.816143   2.727607   2.567197   0.000000
     6  H    1.103725   2.120908   2.833208   2.810224   3.687646
     7  H    1.101369   2.200099   3.555090   2.780561   2.908840
     8  H    1.101552   2.173810   2.854411   3.533393   3.004012
     9  H    2.832707   2.120888   1.103770   2.808416   3.686769
    10  H    2.854076   2.174284   1.101527   3.532631   3.003604
    11  H    3.555102   2.201044   1.101351   2.779189   2.907701
    12  H    2.705209   2.079065   2.704159   1.108830   3.523072
    13  H    3.539666   2.261215   2.791525   1.100138   2.789889
    14  H    2.792800   2.260767   3.538888   1.100126   2.790333
                    6          7          8          9         10
     6  H    0.000000
     7  H    1.787934   0.000000
     8  H    1.790225   1.801882   0.000000
     9  H    2.615856   3.831366   3.189919   0.000000
    10  H    3.189616   3.865703   2.664246   1.790466   0.000000
    11  H    3.832033   4.390525   3.865925   1.788063   1.802050
    12  H    2.486952   3.056452   3.711995   2.484775   3.711024
    13  H    3.815812   3.807521   4.399397   3.129405   3.808619
    14  H    3.131291   2.552739   3.809751   3.814109   4.398943
                   11         12         13         14
    11  H    0.000000
    12  H    3.055045   0.000000
    13  H    2.550827   1.804956   0.000000
    14  H    3.806220   1.805036   1.817702   0.000000
 Framework group  C1[X(C4H9Cl)]
 Deg. of freedom    36
                         Standard orientation:                         
 ---------------------------------------------------------------------
 Center     Atomic      Atomic             Coordinates (Angstroms)
 Number     Number       Type             X           Y           Z
 ---------------------------------------------------------------------
      1          6           0        0.922311   -1.305092    0.607630
      2          6           0        0.377836   -0.000790    0.035897
      3          6           0        0.920424    1.297202    0.625589
      4          6           0        0.474750    0.011641   -1.550734
      5         17           0       -1.433614   -0.001822    0.166376
      6          1           0        2.006311   -1.309905    0.399957
      7          1           0        0.475570   -2.196279    0.139418
      8          1           0        0.774453   -1.343851    1.698525
      9          1           0        2.004300    1.305894    0.417154
     10          1           0        0.773018    1.320330    1.716963
     11          1           0        0.472290    2.194139    0.169900
     12          1           0        1.578010    0.013346   -1.661717
     13          1           0        0.057132    0.923590   -2.002672
     14          1           0        0.058435   -0.894061   -2.016204
 ---------------------------------------------------------------------
 Rotational constants (GHZ):           4.3900290           3.0798424           3.0253574
    92 basis functions,   173 primitive gaussians,    97 cartesian basis functions
    25 alpha electrons       24 beta electrons
       nuclear repulsion energy       240.5072879721 Hartrees.
 NAtoms=   14 NActive=   14 NUniq=   14 SFac= 1.00D+00 NAtFMM=   60 NAOKFM=F Big=F
 Nuclear repulsion after empirical dispersion term =      240.4999704780 Hartrees.
   1 Symmetry operations used in ECPInt.
 ECPInt:  NShTT=    1275 NPrTT=    5355 LenC2=    1273 LenP2D=    4421.
 LDataN:  DoStor=T MaxTD1= 4 Len=   56
 Initial guess from the checkpoint file:  "16.chk"
 B after Tr=    -0.000000    0.000000    0.000000
         Rot=    0.998595   -0.000776   -0.052990   -0.000249 Ang=  -6.08 deg.
 Initial guess <Sx>= 0.0000 <Sy>= 0.0000 <Sz>= 0.5000 <S**2>= 0.7527 S= 0.5013
 ExpMin= 1.22D-01 ExpMax= 1.04D+04 ExpMxC= 1.57D+03 IAcc=3 IRadAn=         5 AccDes= 0.00D+00
 Harris functional with IExCor= 4639 and IRadAn=       5 diagonalized for initial guess.
 HarFok:  IExCor= 4639 AccDes= 0.00D+00 IRadAn=         5 IDoV= 1 UseB2=F ITyADJ=14
 ICtDFT=  3500011 ScaDFX=  1.000000  1.000000  1.000000  1.000000
 FoFCou: FMM=F IPFlag=           0 FMFlag=      100000 FMFlg1=           0
         NFxFlg=           0 DoJE=T BraDBF=F KetDBF=T FulRan=T
         wScrn=  0.000000 ICntrl=       500 IOpCl=  0 I1Cent=   200000004 NGrid=           0
         NMat0=    1 NMatS0=      1 NMatT0=    0 NMatD0=    1 NMtDS0=    0 NMtDT0=    0
 Petite list used in FoFCou.
     Accept linear search using points  2 and  3.
     Minimum is close to point  2 DX=  7.38D-02 DF= -1.12D-06 DXR=  6.29D-02 DFR=  3.97D-03 which will be used.
     Accept linear search using points  1 and  2.
     Minimum is close to point  2 DX= -6.89D-02 DF= -1.04D-06 DXR=  6.69D-02 DFR=  5.25D-03 which will be used.
     Accept linear search using points  1 and  2.
     Minimum is close to point  2 DX=  7.70D-02 DF= -6.60D-07 DXR=  7.15D-02 DFR=  5.14D-03 which will be used.
     Minimum is close to point  2 DX=  5.92D-02 DF= -3.41D-07 DXR=  5.59D-02 DFR=  3.13D-03 which will be used.
     Accept linear search using points  1 and  2.
     Minimum is close to point  2 DX= -5.06D-02 DF= -2.56D-07 DXR=  4.82D-02 DFR=  2.74D-03 which will be used.
     Accept linear search using points  1 and  2.
     Accept linear search using points  1 and  2.
     Minimum is close to point  2 DX= -1.46D-02 DF= -1.28D-07 DXR=  1.48D-02 DFR=  2.20D-04 which will be used.
     Minimum is close to point  2 DX=  5.43D-04 DF= -2.27D-13 DXR=  5.42D-04 DFR=  2.80D-07 which will be used.
 SCF Done:  E(UwB97XD) =  -617.351014731     a.u. after   12 cycles
            Convg  =    0.5383D-06                    52 Fock formations.
              S**2 =  0.7530                  -V/T =  2.0045
 <Sx>= 0.0000 <Sy>= 0.0000 <Sz>= 0.5000 <S**2>= 0.7530 S= 0.5015
 <L.S>=  0.00000000000    
 Annihilation of the first spin contaminant:
 S**2 before annihilation     0.7530,   after     0.7500
   1 Symmetry operations used in ECPInt.
 ECPInt:  NShTT=    1275 NPrTT=    5355 LenC2=    1273 LenP2D=    4421.
 LDataN:  DoStor=T MaxTD1= 5 Len=  102
 Calling FoFJK, ICntrl=      2127 FMM=F ISym2X=0 I1Cent= 0 IOpClX= 1 NMat=1 NMatS=1 NMatT=0.

 GradGradGradGradGradGradGradGradGradGradGradGradGradGradGradGradGradGrad
 Using GEDIIS/GDIIS optimizer.
 FormGI is forming the generalized inverse of G from B-inverse, IUseBI=4.
 Internal  Forces:  Max     0.007157944 RMS     0.001747099
 Step number   3 out of a maximum of   74
 All quantities printed in internal units (Hartrees-Bohrs-Radians)
 Mixed Optimization -- RFO/linear search
 Trust test= 1.42D+00 RLast= 2.61D-01 DXMaxT set to 7.82D-01
 ITU=  1  1  0
 Use linear search instead of GDIIS.
     Eigenvalues ---    0.00430   0.00430   0.00431   0.02350   0.03916
     Eigenvalues ---    0.05212   0.05382   0.06005   0.06073   0.06132
     Eigenvalues ---    0.06690   0.08628   0.14088   0.15995   0.16000
     Eigenvalues ---    0.16000   0.16000   0.16000   0.16000   0.16321
     Eigenvalues ---    0.17307   0.19194   0.22705   0.23812   0.26124
     Eigenvalues ---    0.29851   0.32669   0.33105   0.33106   0.33356
     Eigenvalues ---    0.33403   0.33406   0.33406   0.33407   0.33523
     Eigenvalues ---    0.35313
 Quartic linear search produced a step of  0.58851.
 Iteration  1 RMS(Cart)=  0.02927733 RMS(Int)=  0.00100133
 Iteration  2 RMS(Cart)=  0.00085256 RMS(Int)=  0.00055608
 Iteration  3 RMS(Cart)=  0.00000049 RMS(Int)=  0.00055608
 Variable       Old X    -DE/DX   Delta X   Delta X   Delta X     New X
                                 (Linear)    (Quad)   (Total)
    R1        2.88116  -0.00413  -0.00939  -0.00995  -0.01934   2.86182
    R2        2.08574   0.00012   0.00111  -0.00168  -0.00057   2.08517
    R3        2.08129  -0.00022  -0.00202   0.00061  -0.00141   2.07988
    R4        2.08163   0.00054  -0.00039   0.00217   0.00178   2.08341
    R5        2.88264  -0.00430  -0.00900  -0.01073  -0.01973   2.86290
    R6        3.00398   0.00716   0.03536   0.03469   0.07005   3.07403
    R7        3.43201  -0.00239  -0.00672  -0.01831  -0.02503   3.40698
    R8        2.08582   0.00010   0.00113  -0.00177  -0.00065   2.08518
    R9        2.08158   0.00055  -0.00040   0.00222   0.00182   2.08340
   R10        2.08125  -0.00023  -0.00205   0.00060  -0.00145   2.07980
   R11        2.09538   0.00142   0.00506   0.00274   0.00779   2.10318
   R12        2.07896  -0.00024  -0.00218  -0.00005  -0.00223   2.07673
   R13        2.07894  -0.00023  -0.00217  -0.00003  -0.00220   2.07674
    A1        1.85866   0.00350  -0.00256   0.02374   0.02116   1.87983
    A2        1.96920  -0.00145  -0.00138  -0.00223  -0.00371   1.96549
    A3        1.93214  -0.00096  -0.00686  -0.00775  -0.01464   1.91750
    A4        1.89110  -0.00032   0.00228   0.00474   0.00693   1.89803
    A5        1.89443  -0.00113   0.00018  -0.00737  -0.00713   1.88730
    A6        1.91568   0.00044   0.00829  -0.01011  -0.00194   1.91375
    A7        2.04423  -0.00337   0.01633  -0.00952   0.00576   2.04999
    A8        1.93821   0.00137  -0.00573   0.00525  -0.00010   1.93811
    A9        1.90579   0.00195   0.02109   0.01177   0.03027   1.93606
   A10        1.93639   0.00149  -0.00620   0.00644   0.00062   1.93701
   A11        1.90444   0.00202   0.02103   0.01297   0.03143   1.93587
   A12        1.70371  -0.00332  -0.05461  -0.02956  -0.08335   1.62036
   A13        1.85770   0.00361  -0.00263   0.02462   0.02198   1.87968
   A14        1.93187  -0.00094  -0.00698  -0.00763  -0.01466   1.91721
   A15        1.96958  -0.00151  -0.00139  -0.00273  -0.00423   1.96535
   A16        1.89478  -0.00118   0.00028  -0.00762  -0.00728   1.88750
   A17        1.89127  -0.00034   0.00231   0.00472   0.00694   1.89821
   A18        1.91600   0.00045   0.00837  -0.01029  -0.00204   1.91396
   A19        1.73207   0.00056  -0.04757   0.00314  -0.04487   1.68720
   A20        1.97508  -0.00074   0.00575  -0.00237   0.00296   1.97804
   A21        1.97447  -0.00070   0.00561  -0.00203   0.00315   1.97762
   A22        1.91273   0.00004   0.00674   0.00127   0.00754   1.92027
   A23        1.91287   0.00004   0.00681   0.00132   0.00766   1.92053
   A24        1.94441   0.00080   0.01790  -0.00066   0.01678   1.96119
    D1       -1.07985   0.00078   0.01628   0.02616   0.04275  -1.03710
    D2        1.16940   0.00120   0.01664   0.03191   0.04882   1.21822
    D3        3.02852  -0.00105  -0.03932   0.00569  -0.03408   2.99444
    D4        3.13086  -0.00025   0.01592   0.00637   0.02256  -3.12977
    D5       -0.90308   0.00018   0.01628   0.01212   0.02863  -0.87445
    D6        0.95604  -0.00208  -0.03968  -0.01410  -0.05427   0.90177
    D7        0.97623   0.00095   0.01126   0.02707   0.03854   1.01477
    D8       -3.05771   0.00138   0.01161   0.03282   0.04461  -3.01309
    D9       -1.19859  -0.00088  -0.04435   0.00660  -0.03828  -1.23687
   D10        1.08024  -0.00078  -0.01620  -0.02658  -0.04309   1.03715
   D11       -0.97555  -0.00097  -0.01119  -0.02776  -0.03917  -1.01472
   D12       -3.13066   0.00026  -0.01586  -0.00653  -0.02267   3.12985
   D13       -1.16987  -0.00116  -0.01677  -0.03177  -0.04881  -1.21868
   D14        3.05752  -0.00135  -0.01176  -0.03295  -0.04489   3.01263
   D15        0.90241  -0.00012  -0.01643  -0.01173  -0.02839   0.87402
   D16       -3.02744   0.00101   0.03939  -0.00671   0.03314  -2.99430
   D17        1.19995   0.00082   0.04440  -0.00789   0.03706   1.23702
   D18       -0.95516   0.00205   0.03974   0.01334   0.05356  -0.90160
   D19       -1.15253   0.00106  -0.00626   0.00153  -0.00434  -1.15686
   D20        3.10526   0.00098   0.01073  -0.00076   0.01033   3.11559
   D21        0.87280   0.00114  -0.02321   0.00401  -0.01878   0.85402
   D22        1.15310  -0.00111   0.00591  -0.00146   0.00406   1.15716
   D23       -0.87230  -0.00118   0.02290  -0.00375   0.01873  -0.85357
   D24       -3.10476  -0.00102  -0.01104   0.00102  -0.01038  -3.11514
   D25        3.14083   0.00004  -0.00023   0.00092   0.00068   3.14152
   D26        1.11543  -0.00003   0.01676  -0.00137   0.01535   1.13078
   D27       -1.11702   0.00012  -0.01718   0.00340  -0.01376  -1.13078
         Item               Value     Threshold  Converged?
 Maximum Force            0.007158     0.000015     NO 
 RMS     Force            0.001747     0.000010     NO 
 Maximum Displacement     0.119490     0.000060     NO 
 RMS     Displacement     0.029471     0.000040     NO 
 GradGradGradGradGradGradGradGradGradGradGradGradGradGradGradGradGradGrad

                    Distance matrix (angstroms):
                    1          2          3          4          5
     1  C    0.000000
     2  C    1.514409   0.000000
     3  C    2.589254   1.514983   0.000000
     4  C    2.590162   1.626706   2.589653   0.000000
     5  Cl   2.737588   1.802896   2.737864   2.487413   0.000000
     6  H    1.103425   2.127773   2.822992   2.869292   3.696288
     7  H    1.100623   2.187842   3.538392   2.778102   2.900073
     8  H    1.102495   2.154904   2.847154   3.552361   3.030264
     9  H    2.823014   2.128163   1.103427   2.868743   3.696473
    10  H    2.847008   2.155192   1.102488   3.551896   3.030375
    11  H    3.538181   2.188222   1.100583   2.776985   2.900124
    12  H    2.692936   2.074940   2.692353   1.112954   3.442463
    13  H    3.557769   2.295653   2.815318   1.098960   2.709410
    14  H    2.816044   2.295351   3.557365   1.098963   2.709086
                    6          7          8          9         10
     6  H    0.000000
     7  H    1.791547   0.000000
     8  H    1.786143   1.800816   0.000000
     9  H    2.607622   3.820817   3.182815   0.000000
    10  H    3.182652   3.855548   2.661146   1.786269   0.000000
    11  H    3.820687   4.367336   3.855542   1.791627   1.800913
    12  H    2.515584   3.026760   3.705611   2.514862   3.705124
    13  H    3.865002   3.807569   4.412943   3.189413   3.822342
    14  H    3.190184   2.553797   3.823084   3.864571   4.412620
                   11         12         13         14
    11  H    0.000000
    12  H    3.025692   0.000000
    13  H    2.552334   1.812171   0.000000
    14  H    3.806449   1.812338   1.826095   0.000000
 Framework group  C1[X(C4H9Cl)]
 Deg. of freedom    36
                         Standard orientation:                         
 ---------------------------------------------------------------------
 Center     Atomic      Atomic             Coordinates (Angstroms)
 Number     Number       Type             X           Y           Z
 ---------------------------------------------------------------------
      1          6           0        1.000782   -1.297675    0.521462
      2          6           0        0.387645   -0.000604    0.036587
      3          6           0        1.001593    1.291543    0.535185
      4          6           0        0.246374    0.008875   -1.583945
      5         17           0       -1.398476   -0.001301    0.281957
      6          1           0        2.059321   -1.305528    0.210046
      7          1           0        0.501965   -2.184483    0.101790
      8          1           0        0.966736   -1.339526    1.622636
      9          1           0        2.060105    1.302058    0.223746
     10          1           0        0.967475    1.321582    1.636735
     11          1           0        0.503040    2.182792    0.124813
     12          1           0        1.336394    0.009821   -1.808715
     13          1           0       -0.219252    0.924317   -1.974935
     14          1           0       -0.220041   -0.901750   -1.985118
 ---------------------------------------------------------------------
 Rotational constants (GHZ):           4.4102985           3.0981993           3.0526491
    92 basis functions,   173 primitive gaussians,    97 cartesian basis functions
    25 alpha electrons       24 beta electrons
       nuclear repulsion energy       241.1943932903 Hartrees.
 NAtoms=   14 NActive=   14 NUniq=   14 SFac= 1.00D+00 NAtFMM=   60 NAOKFM=F Big=F
 Nuclear repulsion after empirical dispersion term =      241.1871085139 Hartrees.
   1 Symmetry operations used in ECPInt.
 ECPInt:  NShTT=    1275 NPrTT=    5355 LenC2=    1273 LenP2D=    4429.
 LDataN:  DoStor=T MaxTD1= 4 Len=   56
 Initial guess from the checkpoint file:  "16.chk"
 B after Tr=    -0.000000   -0.000000    0.000000
         Rot=    0.998607    0.000838   -0.052751    0.000065 Ang=   6.05 deg.
 Initial guess <Sx>= 0.0000 <Sy>= 0.0000 <Sz>= 0.5000 <S**2>= 0.7529 S= 0.5015
 ExpMin= 1.22D-01 ExpMax= 1.04D+04 ExpMxC= 1.57D+03 IAcc=3 IRadAn=         5 AccDes= 0.00D+00
 Harris functional with IExCor= 4639 and IRadAn=       5 diagonalized for initial guess.
 HarFok:  IExCor= 4639 AccDes= 0.00D+00 IRadAn=         5 IDoV= 1 UseB2=F ITyADJ=14
 ICtDFT=  3500011 ScaDFX=  1.000000  1.000000  1.000000  1.000000
 FoFCou: FMM=F IPFlag=           0 FMFlag=      100000 FMFlg1=           0
         NFxFlg=           0 DoJE=T BraDBF=F KetDBF=T FulRan=T
         wScrn=  0.000000 ICntrl=       500 IOpCl=  0 I1Cent=   200000004 NGrid=           0
         NMat0=    1 NMatS0=      1 NMatT0=    0 NMatD0=    1 NMtDS0=    0 NMtDT0=    0
 Petite list used in FoFCou.
     Accept linear search using points  2 and  3.
     Minimum is close to point  2 DX=  8.91D-02 DF= -1.07D-06 DXR=  6.91D-02 DFR=  4.80D-03 which will be used.
     Accept linear search using points  1 and  2.
     Minimum is close to point  2 DX= -3.67D-02 DF= -2.02D-07 DXR=  3.45D-02 DFR=  1.41D-03 which will be used.
     Accept linear search using points  1 and  2.
     Accept linear search using points  1 and  2.
     Minimum is close to point  2 DX= -5.78D-02 DF= -2.81D-07 DXR=  5.55D-02 DFR=  3.62D-03 which will be used.
     Accept linear search using points  1 and  2.
     Minimum is close to point  2 DX= -5.76D-03 DF= -1.02D-08 DXR=  5.80D-03 DFR=  3.37D-05 which will be used.
     Minimum is close to point  2 DX=  1.19D-04 DF=  0.00D+00 DXR=  1.19D-04 DFR=  0.00D+00 which will be used.
 SCF Done:  E(UwB97XD) =  -617.352103276     a.u. after    9 cycles
            Convg  =    0.1175D-06                    45 Fock formations.
              S**2 =  0.7532                  -V/T =  2.0044
 <Sx>= 0.0000 <Sy>= 0.0000 <Sz>= 0.5000 <S**2>= 0.7532 S= 0.5016
 <L.S>=  0.00000000000    
 Annihilation of the first spin contaminant:
 S**2 before annihilation     0.7532,   after     0.7500
   1 Symmetry operations used in ECPInt.
 ECPInt:  NShTT=    1275 NPrTT=    5355 LenC2=    1273 LenP2D=    4429.
 LDataN:  DoStor=T MaxTD1= 5 Len=  102
 Calling FoFJK, ICntrl=      2127 FMM=F ISym2X=0 I1Cent= 0 IOpClX= 1 NMat=1 NMatS=1 NMatT=0.

 GradGradGradGradGradGradGradGradGradGradGradGradGradGradGradGradGradGrad
 Using GEDIIS/GDIIS optimizer.
 FormGI is forming the generalized inverse of G from B-inverse, IUseBI=4.
 Internal  Forces:  Max     0.003350551 RMS     0.000832110
 Step number   4 out of a maximum of   74
 All quantities printed in internal units (Hartrees-Bohrs-Radians)
 Mixed Optimization -- En-DIIS/RFO-DIIS
 Trust test= 9.20D-01 RLast= 2.23D-01 DXMaxT set to 7.82D-01
 ITU=  1  1  1  0
 Use linear search instead of GDIIS.
     Eigenvalues ---    0.00430   0.00430   0.00430   0.03094   0.04296
     Eigenvalues ---    0.05179   0.05457   0.05994   0.06022   0.06400
     Eigenvalues ---    0.06899   0.09182   0.13576   0.16000   0.16000
     Eigenvalues ---    0.16000   0.16000   0.16000   0.16051   0.16405
     Eigenvalues ---    0.17465   0.18942   0.22338   0.23260   0.24979
     Eigenvalues ---    0.29852   0.32385   0.33106   0.33107   0.33347
     Eigenvalues ---    0.33403   0.33406   0.33406   0.33407   0.33528
     Eigenvalues ---    0.34419
 Quartic linear search produced a step of  0.01242.
 Iteration  1 RMS(Cart)=  0.00505857 RMS(Int)=  0.00004438
 Iteration  2 RMS(Cart)=  0.00005849 RMS(Int)=  0.00002391
 Iteration  3 RMS(Cart)=  0.00000000 RMS(Int)=  0.00002391
 Variable       Old X    -DE/DX   Delta X   Delta X   Delta X     New X
                                 (Linear)    (Quad)   (Total)
    R1        2.86182  -0.00153  -0.00024  -0.00362  -0.00386   2.85796
    R2        2.08517   0.00004  -0.00001  -0.00013  -0.00013   2.08504
    R3        2.07988   0.00018  -0.00002   0.00052   0.00051   2.08038
    R4        2.08341   0.00050   0.00002   0.00124   0.00126   2.08467
    R5        2.86290  -0.00174  -0.00025  -0.00420  -0.00444   2.85846
    R6        3.07403   0.00335   0.00087   0.01468   0.01555   3.08957
    R7        3.40698  -0.00081  -0.00031  -0.00430  -0.00462   3.40236
    R8        2.08518   0.00003  -0.00001  -0.00014  -0.00015   2.08502
    R9        2.08340   0.00051   0.00002   0.00124   0.00126   2.08466
   R10        2.07980   0.00020  -0.00002   0.00057   0.00055   2.08035
   R11        2.10318   0.00004   0.00010  -0.00001   0.00009   2.10326
   R12        2.07673   0.00008  -0.00003   0.00011   0.00008   2.07681
   R13        2.07674   0.00008  -0.00003   0.00010   0.00007   2.07681
    A1        1.87983   0.00174   0.00026   0.00815   0.00840   1.88823
    A2        1.96549  -0.00034  -0.00005   0.00029   0.00022   1.96571
    A3        1.91750  -0.00013  -0.00018  -0.00234  -0.00252   1.91498
    A4        1.89803  -0.00021   0.00009   0.00264   0.00270   1.90073
    A5        1.88730  -0.00069  -0.00009  -0.00291  -0.00299   1.88431
    A6        1.91375  -0.00035  -0.00002  -0.00567  -0.00570   1.90804
    A7        2.04999  -0.00088   0.00007  -0.00636  -0.00639   2.04360
    A8        1.93811  -0.00011  -0.00000  -0.00634  -0.00644   1.93167
    A9        1.93606   0.00026   0.00038   0.00595   0.00634   1.94240
   A10        1.93701   0.00000   0.00001  -0.00585  -0.00594   1.93107
   A11        1.93587   0.00024   0.00039   0.00581   0.00622   1.94209
   A12        1.62036   0.00089  -0.00103   0.01056   0.00956   1.62992
   A13        1.87968   0.00174   0.00027   0.00804   0.00830   1.88798
   A14        1.91721  -0.00010  -0.00018  -0.00218  -0.00236   1.91485
   A15        1.96535  -0.00034  -0.00005   0.00036   0.00029   1.96564
   A16        1.88750  -0.00070  -0.00009  -0.00294  -0.00303   1.88447
   A17        1.89821  -0.00022   0.00009   0.00260   0.00266   1.90087
   A18        1.91396  -0.00037  -0.00003  -0.00572  -0.00576   1.90820
   A19        1.68720   0.00221  -0.00056   0.00594   0.00539   1.69259
   A20        1.97804  -0.00089   0.00004  -0.00375  -0.00372   1.97432
   A21        1.97762  -0.00084   0.00004  -0.00347  -0.00343   1.97418
   A22        1.92027  -0.00052   0.00009  -0.00053  -0.00043   1.91984
   A23        1.92053  -0.00054   0.00010  -0.00068  -0.00058   1.91995
   A24        1.96119   0.00071   0.00021   0.00286   0.00306   1.96425
    D1       -1.03710   0.00044   0.00053   0.01157   0.01210  -1.02501
    D2        1.21822  -0.00048   0.00061  -0.00905  -0.00842   1.20980
    D3        2.99444   0.00064  -0.00042   0.00313   0.00271   2.99715
    D4       -3.12977  -0.00024   0.00028   0.00270   0.00297  -3.12680
    D5       -0.87445  -0.00116   0.00036  -0.01792  -0.01755  -0.89200
    D6        0.90177  -0.00005  -0.00067  -0.00574  -0.00642   0.89535
    D7        1.01477   0.00054   0.00048   0.01149   0.01195   1.02672
    D8       -3.01309  -0.00037   0.00055  -0.00913  -0.00857  -3.02166
    D9       -1.23687   0.00074  -0.00048   0.00305   0.00256  -1.23431
   D10        1.03715  -0.00046  -0.00054  -0.01148  -0.01201   1.02514
   D11       -1.01472  -0.00056  -0.00049  -0.01138  -0.01185  -1.02657
   D12        3.12985   0.00022  -0.00028  -0.00269  -0.00296   3.12690
   D13       -1.21868   0.00051  -0.00061   0.00936   0.00873  -1.20995
   D14        3.01263   0.00041  -0.00056   0.00946   0.00889   3.02152
   D15        0.87402   0.00119  -0.00035   0.01815   0.01779   0.89180
   D16       -2.99430  -0.00065   0.00041  -0.00298  -0.00257  -2.99687
   D17        1.23702  -0.00075   0.00046  -0.00288  -0.00241   1.23461
   D18       -0.90160   0.00003   0.00067   0.00582   0.00649  -0.89511
   D19       -1.15686   0.00066  -0.00005   0.00945   0.00938  -1.14748
   D20        3.11559   0.00037   0.00013   0.00814   0.00826   3.12385
   D21        0.85402   0.00094  -0.00023   0.01068   0.01043   0.86446
   D22        1.15716  -0.00066   0.00005  -0.01002  -0.00996   1.14721
   D23       -0.85357  -0.00094   0.00023  -0.01133  -0.01108  -0.86465
   D24       -3.11514  -0.00037  -0.00013  -0.00878  -0.00890  -3.12404
   D25        3.14152   0.00000   0.00001  -0.00031  -0.00031   3.14121
   D26        1.13078  -0.00029   0.00019  -0.00162  -0.00143   1.12936
   D27       -1.13078   0.00028  -0.00017   0.00092   0.00075  -1.13003
         Item               Value     Threshold  Converged?
 Maximum Force            0.003351     0.000015     NO 
 RMS     Force            0.000832     0.000010     NO 
 Maximum Displacement     0.018257     0.000060     NO 
 RMS     Displacement     0.005080     0.000040     NO 
 GradGradGradGradGradGradGradGradGradGradGradGradGradGradGradGradGradGrad

                    Distance matrix (angstroms):
                    1          2          3          4          5
     1  C    0.000000
     2  C    1.512367   0.000000
     3  C    2.580472   1.512631   0.000000
     4  C    2.589671   1.634932   2.589345   0.000000
     5  Cl   2.739775   1.800454   2.739690   2.502506   0.000000
     6  H    1.103354   2.132210   2.815457   2.868868   3.700818
     7  H    1.100891   2.186394   3.531570   2.781488   2.901994
     8  H    1.103162   2.151776   2.840204   3.554314   3.030771
     9  H    2.815354   2.132253   1.103348   2.868326   3.700651
    10  H    2.840085   2.151909   1.103157   3.554038   3.030696
    11  H    3.531471   2.186564   1.100873   2.780847   2.901647
    12  H    2.692114   2.086606   2.691520   1.113000   3.455923
    13  H    3.556118   2.300405   2.815492   1.099001   2.724145
    14  H    2.815842   2.300307   3.555889   1.099000   2.724450
                    6          7          8          9         10
     6  H    0.000000
     7  H    1.793438   0.000000
     8  H    1.784688   1.797953   0.000000
     9  H    2.599960   3.815877   3.175980   0.000000
    10  H    3.175861   3.848992   2.654344   1.784784   0.000000
    11  H    3.815969   4.363424   3.849010   1.793505   1.798034
    12  H    2.514768   3.030826   3.706111   2.513859   3.705615
    13  H    3.863494   3.810250   4.413877   3.189092   3.824669
    14  H    3.189497   2.557618   3.825047   3.862929   4.413752
                   11         12         13         14
    11  H    0.000000
    12  H    3.029880   0.000000
    13  H    2.556876   1.811967   0.000000
    14  H    3.809718   1.812039   1.828029   0.000000
 Framework group  C1[X(C4H9Cl)]
 Deg. of freedom    36
                         Standard orientation:                         
 ---------------------------------------------------------------------
 Center     Atomic      Atomic             Coordinates (Angstroms)
 Number     Number       Type             X           Y           Z
 ---------------------------------------------------------------------
      1          6           0        0.997243   -1.292051    0.532164
      2          6           0        0.380904   -0.000334    0.043441
      3          6           0        0.996965    1.288406    0.541106
      4          6           0        0.270645    0.005788   -1.587758
      5         17           0       -1.405136   -0.001070    0.270803
      6          1           0        2.059790   -1.300706    0.234997
      7          1           0        0.502640   -2.182200    0.113877
      8          1           0        0.951679   -1.332873    1.633628
      9          1           0        2.059439    1.299239    0.243770
     10          1           0        0.951469    1.321455    1.642828
     11          1           0        0.501995    2.181197    0.128979
     12          1           0        1.363766    0.006924   -1.797172
     13          1           0       -0.189243    0.921159   -1.985758
     14          1           0       -0.188759   -0.906858   -1.992513
 ---------------------------------------------------------------------
 Rotational constants (GHZ):           4.4122626           3.0833836           3.0492246
    92 basis functions,   173 primitive gaussians,    97 cartesian basis functions
    25 alpha electrons       24 beta electrons
       nuclear repulsion energy       241.0191076788 Hartrees.
 NAtoms=   14 NActive=   14 NUniq=   14 SFac= 1.00D+00 NAtFMM=   60 NAOKFM=F Big=F
 Nuclear repulsion after empirical dispersion term =      241.0118121318 Hartrees.
   1 Symmetry operations used in ECPInt.
 ECPInt:  NShTT=    1275 NPrTT=    5355 LenC2=    1273 LenP2D=    4430.
 LDataN:  DoStor=T MaxTD1= 4 Len=   56
 Initial guess from the checkpoint file:  "16.chk"
 B after Tr=     0.000000    0.000000   -0.000000
         Rot=    0.999985    0.000951    0.005342   -0.000141 Ang=   0.62 deg.
 Initial guess <Sx>= 0.0000 <Sy>= 0.0000 <Sz>= 0.5000 <S**2>= 0.7532 S= 0.5016
     Accept linear search using points  1 and  2.
     Minimum is close to point  2 DX= -1.15D-04 DF= -1.25D-12 DXR=  1.15D-04 DFR=  1.38D-08 which will be used.
 SCF Done:  E(UwB97XD) =  -617.352317318     a.u. after    3 cycles
            Convg  =    0.1635D-07                    28 Fock formations.
              S**2 =  0.7532                  -V/T =  2.0045
 <Sx>= 0.0000 <Sy>= 0.0000 <Sz>= 0.5000 <S**2>= 0.7532 S= 0.5016
 <L.S>=  0.00000000000    
 Annihilation of the first spin contaminant:
 S**2 before annihilation     0.7532,   after     0.7500
   1 Symmetry operations used in ECPInt.
 ECPInt:  NShTT=    1275 NPrTT=    5355 LenC2=    1273 LenP2D=    4430.
 LDataN:  DoStor=T MaxTD1= 5 Len=  102
 Calling FoFJK, ICntrl=      2127 FMM=F ISym2X=0 I1Cent= 0 IOpClX= 1 NMat=1 NMatS=1 NMatT=0.

 GradGradGradGradGradGradGradGradGradGradGradGradGradGradGradGradGradGrad
 Using GEDIIS/GDIIS optimizer.
 FormGI is forming the generalized inverse of G from B-inverse, IUseBI=4.
 Internal  Forces:  Max     0.002593498 RMS     0.000584353
 Step number   5 out of a maximum of   74
 All quantities printed in internal units (Hartrees-Bohrs-Radians)
 Mixed Optimization -- En-DIIS/RFO-DIIS
 Swapping is turned off.
 Trust test= 1.57D+00 RLast= 5.57D-02 DXMaxT set to 7.82D-01
 ITU=  1  1  1  1  0
     Eigenvalues ---    0.00429   0.00430   0.00430   0.01997   0.03958
     Eigenvalues ---    0.05132   0.05460   0.05637   0.05952   0.06035
     Eigenvalues ---    0.06892   0.09136   0.11809   0.14927   0.16000
     Eigenvalues ---    0.16000   0.16000   0.16000   0.16002   0.16517
     Eigenvalues ---    0.16760   0.18664   0.18777   0.23108   0.28188
     Eigenvalues ---    0.29853   0.32450   0.33106   0.33120   0.33371
     Eigenvalues ---    0.33403   0.33406   0.33406   0.33407   0.33542
     Eigenvalues ---    0.39187
 En-DIIS/RFO-DIIS/Sim-DIIS IScMMF=       -3 using points:     5    4
 RFO step:  Lambda=-4.43481391D-04.
 DidBck=F Rises=F RFO-DIIS coefs:    3.00000   -2.00000
 Iteration  1 RMS(Cart)=  0.00763075 RMS(Int)=  0.00026402
[...]
 ! A23   A(12,4,14)            112.6545         -DE/DX =    0.0                 !
 ! A24   A(13,4,14)            113.3122         -DE/DX =    0.0                 !
 ! D1    D(6,1,2,3)            -54.8802         -DE/DX =    0.0                 !
 ! D2    D(6,1,2,4)             66.1017         -DE/DX =    0.0                 !
 ! D3    D(6,1,2,5)            171.6855         -DE/DX =    0.0                 !
 ! D4    D(7,1,2,3)           -177.0241         -DE/DX =    0.0                 !
 ! D5    D(7,1,2,4)            -56.0421         -DE/DX =    0.0                 !
 ! D6    D(7,1,2,5)             49.5416         -DE/DX =    0.0                 !
 ! D7    D(8,1,2,3)             62.8852         -DE/DX =    0.0                 !
 ! D8    D(8,1,2,4)           -176.1328         -DE/DX =    0.0                 !
 ! D9    D(8,1,2,5)            -70.5491         -DE/DX =    0.0                 !
 ! D10   D(1,2,3,9)             54.8802         -DE/DX =    0.0                 !
 ! D11   D(1,2,3,10)           -62.8853         -DE/DX =    0.0                 !
 ! D12   D(1,2,3,11)           177.024          -DE/DX =    0.0                 !
 ! D13   D(4,2,3,9)            -66.1018         -DE/DX =    0.0                 !
 ! D14   D(4,2,3,10)           176.1328         -DE/DX =    0.0                 !
 ! D15   D(4,2,3,11)            56.0421         -DE/DX =    0.0                 !
 ! D16   D(5,2,3,9)           -171.6855         -DE/DX =    0.0                 !
 ! D17   D(5,2,3,10)            70.549          -DE/DX =    0.0                 !
 ! D18   D(5,2,3,11)           -49.5416         -DE/DX =    0.0                 !
 ! D19   D(1,2,4,12)           -63.5613         -DE/DX =    0.0                 !
 ! D20   D(1,2,4,13)           178.9708         -DE/DX =    0.0                 !
 ! D21   D(1,2,4,14)            53.9067         -DE/DX =    0.0                 !
 ! D22   D(3,2,4,12)            63.5613         -DE/DX =    0.0                 !
 ! D23   D(3,2,4,13)           -53.9067         -DE/DX =    0.0                 !
 ! D24   D(3,2,4,14)          -178.9707         -DE/DX =    0.0                 !
 ! D25   D(5,2,4,12)          -180.0            -DE/DX =    0.0                 !
 ! D26   D(5,2,4,13)            62.532          -DE/DX =    0.0                 !
 ! D27   D(5,2,4,14)           -62.532          -DE/DX =    0.0                 !
 --------------------------------------------------------------------------------
 GradGradGradGradGradGradGradGradGradGradGradGradGradGradGradGradGradGrad


 ----------------------------------------------------------------------

 Electric dipole moment (input orientation):
 (Debye = 10**-18 statcoulomb cm , SI units = C m)
                  (au)            (Debye)         (10**-30 SI)
   Tot        0.710538D+00      0.180601D+01      0.602419D+01
   x         -0.673455D+00     -0.171175D+01     -0.570979D+01
   y          0.196036D+00      0.498273D+00      0.166206D+01
   z         -0.113548D+00     -0.288609D+00     -0.962698D+00

 Dipole polarizability, Alpha (input orientation).
 (esu units = cm**3 , SI units = C**2 m**2 J**-1)
 Alpha(0;0):
               (au)            (10**-24 esu)      (10**-40 SI)
   iso        0.576554D+02      0.854365D+01      0.950610D+01
   aniso      0.197403D+02      0.292522D+01      0.325474D+01
   xx         0.706364D+02      0.104672D+02      0.116464D+02
   yx        -0.922567D+00     -0.136710D+00     -0.152111D+00
   yy         0.519325D+02      0.769560D+01      0.856251D+01
   zx         0.536919D+00      0.795633D-01      0.885261D-01
   zy        -0.133606D+01     -0.197983D+00     -0.220286D+00
   zz         0.503974D+02      0.746812D+01      0.830940D+01

 ----------------------------------------------------------------------

 Dipole orientation:
     6         -3.00565000         -0.44806083          1.02373823
     6         -0.29703647          0.29724152          0.49471232
     6          0.45073058          3.00517869          1.02373346
     6          1.59628206         -1.59778735          2.30355234
    17          0.76681824         -0.76758213         -2.45266171
     1         -3.48023306          0.01907771          2.99655825
     1         -3.36522692         -2.46900079          0.68208659
     1         -4.25714284          0.66503240         -0.22630922
     1         -0.01591397          3.48016773          2.99657256
     1         -0.66127628          4.25768319         -0.22626795
     1          2.47198272          3.36293217          0.68201653
     1          0.94221151         -0.94313791          4.17406709
     1          3.58841218         -1.13931615          1.94806643
     1          1.13602482         -3.58950472          1.94806106

 Electric dipole moment (dipole orientation):
 (Debye = 10**-18 statcoulomb cm , SI units = C m)
                  (au)            (Debye)         (10**-30 SI)
   Tot        0.710538D+00      0.180601D+01      0.602419D+01
   x          0.000000D+00      0.000000D+00      0.000000D+00
   y          0.000000D+00      0.000000D+00      0.000000D+00
   z          0.710538D+00      0.180601D+01      0.602419D+01

 Dipole polarizability, Alpha (dipole orientation).
 (esu units = cm**3 , SI units = C**2 m**2 J**-1)
 Alpha(0;0):
               (au)            (10**-24 esu)      (10**-40 SI)
   iso        0.576554D+02      0.854365D+01      0.950610D+01
   aniso      0.197403D+02      0.292522D+01      0.325474D+01
   xx         0.517518D+02      0.766882D+01      0.853272D+01
   yx        -0.212966D+01     -0.315582D+00     -0.351133D+00
   yy         0.517557D+02      0.766940D+01      0.853336D+01
   zx        -0.322873D+01     -0.478448D+00     -0.532345D+00
   zy         0.323168D+01      0.478885D+00      0.532831D+00
   zz         0.694588D+02      0.102927D+02      0.114522D+02

 ----------------------------------------------------------------------
 1\1\GINC-C275\Freq\UwB97XD\def2SVPP\C4H9Cl1(1+,2)\PETERCHAO1\10-Jul-20
 23\0\\#T Geom=AllCheck Guess=TCheck SCRF=Check GenChk UwB97XD/def2SVPP
  Freq\\comment\\1,2\C,-0.8185678916,0.0123956365,1.4863548469\C,-0.319
 0273047,-0.1101827461,0.06374894\C,-0.8182474195,-1.2826587469,-0.7513
 929585\C,-0.7743020482,1.3167925944,-0.7621553735\Cl,1.4132152025,0.11
 29334878,-0.0651285114\H,-1.920405014,0.0128263861,1.4893525117\H,-0.4
 489823953,0.9188597995,1.990650695\H,-0.4736989139,-0.8697935145,2.057
 2528521\H,-1.9200837453,-1.2851596973,-0.7535247082\H,-0.4733949118,-2
 .2171301988,-0.2708132012\H,-0.4484134251,-1.2682787054,-1.7885046375\
 H,-1.8686115164,1.1881577013,-0.687859019\H,-0.4130530938,1.2758882296
 ,-1.7982009295\H,-0.4132725228,2.1947747736,-0.210458507\\Version=ES64
 L-G16RevB.01\State=2-A\HF=-617.3529594\S2=0.753325\S2-1=0.\S2A=0.75000
 7\RMSD=1.693e-09\RMSF=9.005e-07\ZeroPoint=0.1197586\Thermal=0.1267472\
 Dipole=-0.6734545,0.1960359,-0.1135477\DipoleDeriv=0.1110006,-0.013821
 3,-0.1134037,-0.3070493,-0.1023308,0.212186,0.2203272,-0.0193988,-0.21
 52908,0.1831448,0.1448183,-0.0838267,1.057508,0.2051251,0.0453321,-0.6
 120327,0.0452007,0.256958,0.1109775,0.091461,0.068528,-0.3439423,-0.27
 05626,-0.1161095,0.1564952,0.1155902,-0.0470365,0.344431,0.0798378,-0.
 046171,-0.8308377,0.4141033,-0.1715136,0.4808681,-0.1713865,0.2171986,
 -0.1130984,-0.1857535,0.1074745,-0.0535673,0.1180836,-0.0217981,0.0309
 734,-0.0218177,0.0930582,0.0348659,-0.0035733,-0.0091741,0.01611,0.118
 8684,-0.0081657,-0.0694722,0.0061462,0.0592095,0.0583831,-0.0493102,0.
 0069346,-0.0119835,0.0454539,-0.0394421,-0.0121795,0.0066887,0.1293711
 ,0.0053727,0.0403632,0.0701557,0.0946101,0.0633296,-0.0519974,0.058413
 7,-0.0096044,0.0948597,0.0348511,0.0061777,0.0076545,0.0682679,0.07489
 94,-0.0191056,0.0206289,-0.0334326,0.1031948,0.0054243,-0.0407277,-0.0
 699577,-0.0035292,0.1136391,0.0192977,-0.1111449,-0.0231138,0.0445021,
 0.0583731,-0.0305871,0.0392969,0.0045682,0.1226877,0.0510712,0.0164564
 ,0.0049303,0.0521461,0.1449989,-0.0941862,0.0545108,0.1102322,-0.04663
 99,0.1020943,-0.0637941,0.1020674,0.070664,0.0106286,0.0520514,0.02614
 84,0.1111488,0.049517,-0.0322234,-0.0381822,0.0049106,0.0927453,0.0106
 467,0.0032499,-0.0581702,0.088464,0.0938264,0.0303742,-0.0773572,-0.00
 67804,0.0484198\Polar=70.6364453,-0.9225675,51.9324766,0.5369195,-1.33
 60559,50.3973727\Quadrupole=0.4930942,0.214292,-0.7073862,-0.3571774,0
 .2069451,-0.8021409\PG=C01 [X(C4H9Cl1)]\NImag=0\\0.58452384,0.02168671
 ,0.57831359,0.03930620,0.01580762,0.47324027,-0.06965629,-0.02206534,0
 .04263956,0.28293149,-0.01857929,-0.05846329,-0.02341694,0.08955605,0.
 28626646,0.03369946,-0.01030116,-0.16367930,-0.05185013,0.07979966,0.3
 7794461,0.00709908,0.00807041,-0.00263296,-0.06964500,-0.03845708,-0.0
 0066574,0.58454683,0.00630648,-0.00115446,-0.00789520,-0.04794433,-0.1
 2300770,-0.06050807,-0.02325778,0.48565603,-0.00567443,-0.03434149,-0.
 02542504,-0.00209788,-0.04739064,-0.09914458,-0.03837904,-0.03743799,0
 .56587419,-0.01025217,0.01460617,-0.00352058,0.03594283,-0.02591474,0.
 01500661,-0.01025081,0.01033300,-0.01091270,0.48078362,0.01088761,-0.0
 1593068,0.01257826,-0.04007217,-0.00187906,-0.01355221,0.01062625,-0.0
 3800118,0.00535261,0.13955331,0.36832875,-0.00599787,0.01803446,-0.027
 70097,0.02319983,-0.01355029,-0.01744178,-0.00645284,-0.00010301,-0.00
 563199,-0.08078548,0.14975362,0.54037614,-0.03426572,0.00035175,0.0063
 3584,-0.12432358,-0.03207150,0.01854820,-0.03425804,-0.00532171,-0.003
 47010,-0.03193665,0.01627159,-0.00942116,0.22096547,-0.00350007,0.0054
 5335,0.00378120,0.00394907,-0.03025671,-0.00365084,-0.02942827,-0.0024
 2384,-0.00319678,-0.00216562,-0.00320746,0.00029112,0.02116976,0.03349
 789,0.03192513,0.00133445,-0.00207992,-0.00229799,-0.00365618,-0.03445
 099,-0.01287894,-0.00074553,0.00578989,0.00124911,0.00029374,-0.002873
 65,-0.01222565,0.00409019,0.03819156,-0.32893525,0.00016508,-0.0012376
 0,-0.00978654,-0.00058907,0.00067858,0.00006257,-0.00016688,-0.0011200
 6,0.00004353,0.00087249,-0.00160361,0.00065714,0.00034435,0.00122458,0
 .34716189,0.00004993,-0.04771371,-0.00380554,0.00107534,-0.00356051,0.
 00467504,-0.00006368,-0.00039183,0.00000598,-0.00039084,0.00118783,-0.
 00098309,0.00035092,0.00189377,-0.00076103,-0.00043248,0.04439139,-0.0
 0484277,-0.00274161,-0.04615390,0.02842209,0.00357363,-0.00492043,0.00
 058194,-0.00051805,0.00109265,0.00208314,-0.00300854,0.00271972,0.0052
 0130,-0.00076290,-0.00412392,-0.00006641,0.00096459,0.05168504,-0.0824
 4411,-0.08186773,-0.04156094,0.00115654,0.01314434,0.00237754,0.000162
 03,-0.00056808,0.00302945,0.00065161,-0.00109783,0.00123568,0.00089302
 ,0.00058831,0.00068010,-0.00540174,-0.02489525,-0.01411779,0.08094961,
 -0.08026022,-0.24037693,-0.10687313,0.00241514,-0.00122996,0.00292526,
 -0.00016615,0.00100786,0.00009286,-0.00113481,0.00145036,0.00063759,0.
 00036694,0.00016048,-0.00004345,0.00185334,0.00299375,0.00271677,0.085
 34543,0.25172999,-0.03985323,-0.10244390,-0.10021366,-0.01297400,-0.02
 562119,-0.01594102,0.00328848,0.00249108,-0.00414700,0.00137220,-0.001
 37597,-0.00033708,-0.00094519,0.00088998,0.00039851,0.00062881,0.00180
 692,0.00081115,0.04301292,0.11184080,0.11170906,-0.07074702,0.06691954
 ,-0.04352829,-0.00437601,-0.00564567,0.00796117,0.00055058,-0.00054736
 ,-0.00030054,0.00354227,-0.00242924,0.00071358,0.00077824,0.00044340,0
 .00059646,-0.00554473,0.02405842,-0.01560970,0.00342486,-0.00874495,0.
 00557109,0.07255975,0.06787073,-0.21688034,0.10868595,0.00087921,-0.00
 087314,-0.00058936,0.00006164,-0.00072208,0.00063348,-0.00337782,0.001
 88619,0.00083389,0.00048890,0.00024310,-0.00053690,-0.00167704,0.00152
 596,-0.00133398,0.00899378,-0.01611303,0.01334707,-0.07433218,0.229817
 37,-0.04581314,0.11259875,-0.11125045,-0.00455422,0.01832378,-0.023266
 12,0.00080098,0.00167477,0.00364517,-0.00103503,0.00283942,-0.00363151
 ,-0.00205010,-0.00096657,0.00076867,0.00084714,-0.00188265,0.00066682,
 0.00551503,-0.01193348,0.00853048,0.04497384,-0.11939394,0.12511662,0.
 00006236,0.00088764,0.00070272,-0.00978026,-0.00088268,0.00017038,-0.3
 2893662,0.00112552,0.00040658,0.00004364,0.00182467,0.00004262,0.00065
 859,-0.00088919,-0.00090817,0.00053376,0.00005367,-0.00011388,0.000280
 56,-0.00006718,0.00009906,0.00006525,-0.00016077,-0.00007374,0.3471618
 7,-0.00053646,0.00094534,0.00025031,-0.02410809,-0.00814893,0.00093308
 ,0.00419395,-0.04371197,-0.00044184,-0.00200136,0.00406373,-0.00135664
 ,-0.00433418,-0.00197271,-0.00298515,0.00012562,0.00004606,-0.00048127
 ,0.00014256,-0.00004307,0.00039246,0.00035708,0.00003374,-0.00009969,-
 0.00012724,0.04904153,-0.00023474,0.00077442,-0.00024453,-0.01509463,0
 .00203865,-0.00033840,0.00230247,-0.00150636,-0.05015422,-0.00069897,0
 .00066966,-0.00015629,-0.00289483,-0.00298267,-0.00025895,0.00001057,-
 0.00076238,-0.00066861,0.00022994,0.00003632,0.00018465,-0.00007010,-0
 .00017062,-0.00011493,0.00047975,0.00363641,0.04703518,0.00055065,-0.0
 0001263,0.00062377,-0.00437594,-0.00971015,0.00092733,-0.07074483,0.07
 107406,-0.03634283,0.00354124,-0.00182727,0.00175103,0.00077805,-0.000
 29614,-0.00068134,0.00006521,0.00023873,-0.00027463,-0.00023000,0.0000
 7771,0.00033864,0.00014976,-0.00000916,0.00008124,-0.00554440,0.025519
 79,-0.01308473,0.07255546,-0.00066451,0.00156424,0.00298834,0.00438795
 ,-0.02536966,0.00425022,0.07352824,-0.23303971,0.10331859,-0.00078443,
 -0.00384901,-0.00045578,0.00202110,0.00128781,-0.00036607,-0.00001613,
 0.00003872,-0.00009687,-0.00044317,0.00027390,-0.00023170,-0.00007484,
 0.00026354,-0.00098066,-0.00157051,0.00227204,-0.00145716,-0.07602108,
 0.25423547,-0.00045290,0.00194705,0.00135891,0.00150636,-0.01466631,0.
 00123041,-0.03602891,0.09940514,-0.09509274,0.00344535,-0.00246130,0.0
 0210460,0.00059769,0.00006344,-0.00027605,0.00017624,-0.00016767,-0.00
 011997,-0.00026611,0.00017732,0.00015334,-0.00003218,-0.00109634,-0.00
 092981,0.00103085,-0.00090042,-0.00007965,0.04204933,-0.10536811,0.100
 70228,0.00016323,-0.00290878,-0.00101685,0.00115649,0.00448663,-0.0125
 7495,-0.08248687,-0.00475545,0.09174111,0.00065186,-0.00161829,0.00033
 650,0.00089315,-0.00029643,-0.00084906,0.00028064,-0.00012827,-0.00023
 818,0.00075814,-0.00007615,-0.00046093,-0.00023001,0.00000988,0.000516
 77,-0.00540817,-0.00016238,0.02861685,0.00342725,-0.00030067,-0.010545
 16,0.08099480,-0.00293346,-0.00398423,-0.00037763,0.01245902,-0.002483
 81,-0.02634132,-0.00543638,-0.04458514,0.01006319,-0.00175456,0.000425
 10,-0.00196499,0.00100227,-0.00002617,0.00078276,-0.00011940,-0.000057
 14,0.00038436,0.00036209,0.00025752,-0.00169518,-0.00025490,0.00020667
 ,-0.00027034,0.00037767,-0.00060120,-0.00025552,-0.00919273,0.00180236
 ,0.02363800,0.00522818,0.04983998,-0.00149400,-0.00277615,0.00084397,0
 .00437289,0.00220541,-0.01468713,0.08949675,0.00563369,-0.29596396,0.0
 0030043,0.00004832,0.00068790,0.00015286,-0.00015072,0.00058510,0.0000
 0891,0.00002824,0.00019864,0.00029598,0.00001094,-0.00071027,-0.000236
 21,0.00013869,0.00022055,-0.00192267,0.00065092,0.00441261,0.00481017,
 -0.00163869,-0.00938721,-0.09548483,-0.00417046,0.31355490,0.00176112,
 -0.00319532,0.00203788,-0.01609844,0.00618626,-0.00358316,0.00176090,-
 0.00335866,0.00175574,-0.31597763,-0.04165714,0.02407248,-0.00123477,0
 .00238446,-0.00137998,0.00051235,0.00001878,-0.00027990,-0.00019185,0.
 00014001,-0.00008448,0.00017136,0.00046145,0.00040196,0.00051236,0.000
 25226,0.00012317,0.00017153,-0.00011863,-0.00060031,-0.00019187,0.0001
 4297,-0.00007930,0.33537431,0.00183844,-0.00346476,-0.00030016,0.01246
 734,-0.00705395,0.00721967,0.00227792,-0.00152736,0.00268436,-0.029581
 81,-0.04188022,-0.00587006,0.00122795,0.00102375,-0.00131299,-0.000337
 25,-0.00011406,0.00077711,-0.00010158,0.00005569,-0.00052188,-0.000549
 96,0.00079022,-0.00028098,-0.00042067,-0.00139419,0.00011834,-0.000367
 33,0.00074915,-0.00071457,0.00004656,0.00035546,-0.00007417,0.03635743
 ,0.04711640,-0.00157105,0.00157026,-0.00015774,-0.00721820,0.00721892,
 0.00123937,-0.00081063,0.00081241,-0.00209531,0.01708394,-0.00587166,-
 0.04861575,-0.00071066,-0.00131290,-0.00048558,0.00029167,0.00085395,-
 0.00087954,-0.00011214,-0.00024641,0.00001300,0.00010782,-0.00069080,0
 .00017732,0.00014711,0.00004160,0.00040057,0.00042315,-0.00030451,0.00
 021836,0.00014399,-0.00034958,-0.00028675,-0.02100109,-0.00355717,0.04
 301695,0.00199203,-0.00257892,0.00066656,-0.00657253,0.00850702,-0.006
 61208,0.00014851,-0.00105623,-0.00053972,-0.07841115,-0.00487300,0.096
 96873,0.00019799,0.00228701,-0.00492487,0.00029075,0.00023411,-0.00048
 207,-0.00017897,0.00023633,-0.00024178,-0.00020673,0.00070463,0.000162
 15,0.00006035,0.00014380,0.00027799,-0.00013746,-0.00015372,-0.0001883
 6,0.00017031,-0.00020804,-0.00013644,-0.00328701,-0.00047242,0.0255434
 7,0.08025829,-0.00172216,0.00118241,0.00028282,0.00390373,-0.00917626,
 0.01485574,-0.00059367,0.00133956,0.00151957,-0.00802289,-0.04237973,-
 0.01946473,-0.00100542,-0.00245714,0.00376448,0.00006792,-0.00016009,0
 .00021050,0.00025343,-0.00012465,0.00056265,0.00061652,-0.00046700,0.0
 0050091,-0.00019375,-0.00034451,-0.00012096,0.00001772,0.00026763,-0.0
 0024240,0.00032637,-0.00080864,0.00009651,0.00014212,0.00310992,0.0042
 2703,-0.00248230,0.04483901,0.00057411,-0.00050533,0.00022954,-0.00132
 774,0.00349544,-0.00606609,0.00017100,-0.00122903,0.00040240,0.0985060
 7,-0.01786427,-0.31364788,0.00002065,0.00057810,-0.00097224,-0.0000103
 0,-0.00000333,-0.00007536,-0.00002598,0.00012165,-0.00001902,-0.000232
 29,0.00040308,0.00001309,-0.00000692,0.00016440,0.00003214,-0.00020221
 ,-0.00014153,0.00007514,0.00002167,0.00011825,0.00033456,-0.00250662,-
 0.00188815,0.00329194,-0.10030811,0.01547766,0.32294316,0.00014824,-0.
 00005859,0.00118468,-0.00657274,0.00996989,-0.00408322,0.00199166,-0.0
 0186258,0.00190441,-0.07837221,-0.08646098,-0.04405949,0.00019710,0.00
 540936,0.00047064,0.00006041,-0.00016938,-0.00026316,0.00017029,0.0000
 1455,0.00024844,-0.00013756,0.00008675,0.00022711,0.00029071,0.0005346
 5,0.00003726,-0.00020653,0.00021040,-0.00069188,-0.00017895,0.00032728
 ,-0.00008456,-0.00328236,-0.02238463,-0.01231737,0.00567562,0.00869238
 ,0.00532667,0.08021631,-0.00044374,0.00050946,-0.00170588,0.00309707,-
 0.01476346,0.00028430,-0.00135540,0.00056182,-0.00086190,-0.08936359,-
 0.23021462,-0.12580209,-0.00051839,-0.00321611,0.00014166,-0.00009057,
 -0.00008012,0.00031627,0.00014370,-0.00004191,0.00055884,0.00018415,0.
 00028879,-0.00012932,0.00004283,-0.00018585,-0.00001813,0.00050849,-0.
 00049648,0.00038617,0.00014881,-0.00034076,-0.00000252,0.00224401,0.00
 223398,-0.00239113,-0.00028827,0.00517948,0.00127306,0.08569091,0.2405
 6579,0.00042923,0.00104262,0.00123280,-0.00272593,0.01164606,-0.000478
 54,0.00120744,-0.00007385,0.00085054,-0.04209408,-0.12740168,-0.125851
 48,0.00086115,0.00332936,-0.00021243,0.00017148,0.00003096,-0.00023229
 ,-0.00029367,0.00053698,-0.00043215,0.00008535,-0.00023022,0.00005408,
 -0.00005370,0.00019583,-0.00004958,-0.00041893,0.00048392,0.00004239,-
 0.00020693,0.00043847,0.00019708,0.00112360,0.00372066,0.00416314,-0.0
 1018547,-0.02166978,-0.00654141,0.05210047,0.12795067,0.12725784\\0.00
 000125,-0.00000170,-0.00000174,-0.00000117,0.00000290,-0.00000110,0.00
 000123,0.00000042,0.00000191,0.00000062,-0.00000158,0.00000078,-0.0000
 0167,-0.00000084,0.00000032,-0.00000028,0.00000016,0.00000021,-0.00000
 032,0.00000023,0.00000018,-0.00000035,0.00000017,0.00000043,-0.0000002
 8,0.00000014,-0.00000028,-0.00000042,-0.00000026,-0.00000028,-0.000000
 22,-0.00000010,-0.00000023,0.00000088,-0.00000029,0.00000022,0.0000004
 2,0.00000056,0.00000017,0.00000030,0.00000019,-0.00000060\\\@


 THE MEEK SHALL INHERIT THE EARTH.
 (THE REST OF US WILL ESCAPE TO THE STARS)
 Job cpu time:       0 days  0 hours  3 minutes 52.1 seconds.
 Elapsed time:       0 days  0 hours  0 minutes 58.8 seconds.
 File lengths (MBytes):  RWF=     35 Int=      0 D2E=      0 Chk=      2 Scr=      1
 Normal termination of Gaussian 16 at Mon Jul 10 19:28:38 2023.
real 629.96
user 2416.06
sys 11.68
