 Entering Gaussian System, Link 0=g16
 Input=gaussian_test.inp
 Output=gaussian_test.log
 Initial command:
 /sw/restricted/lms/sw/Gaussian/g16_B01/g16/l1.exe "/scratch/user/peterchao1/peterchao1/8624112_1689027555000000204849035/Gau-274749.inp" -scrdir="/scratch/user/peterchao1/peterchao1/8624112_1689027555000000204849035/"
 Entering Link 1 = /sw/restricted/lms/sw/Gaussian/g16_B01/g16/l1.exe PID=    274750.
  
 Copyright (c) 1988-2017, Gaussian, Inc.  All Rights Reserved.
  
 This is part of the Gaussian(R) 16 program.  It is based on
 the Gaussian(R) 09 system (copyright 2009, Gaussian, Inc.),
 the Gaussian(R) 03 system (copyright 2003, Gaussian, Inc.),
 the Gaussian(R) 98 system (copyright 1998, Gaussian, Inc.),
 the Gaussian(R) 94 system (copyright 1995, Gaussian, Inc.),
 the Gaussian 92(TM) system (copyright 1992, Gaussian, Inc.),
 the Gaussian 90(TM) system (copyright 1990, Gaussian, Inc.),
 the Gaussian 88(TM) system (copyright 1988, Gaussian, Inc.),
 the Gaussian 86(TM) system (copyright 1986, Carnegie Mellon
 University), and the Gaussian 82(TM) system (copyright 1983,
 Carnegie Mellon University). Gaussian is a federally registered
 trademark of Gaussian, Inc.
  
 This software contains proprietary and confidential information,
 including trade secrets, belonging to Gaussian, Inc.
  
 This software is provided under written license and may be
 used, copied, transmitted, or stored only in accord with that
 written license.
  
 The following legend is applicable only to US Government
 contracts under FAR:
  
                    RESTRICTED RIGHTS LEGEND
  
 Use, reproduction and disclosure by the US Government is
 subject to restrictions as set forth in subparagraphs (a)
 and (c) of the Commercial Computer Software - Restricted
 Rights clause in FAR 52.227-19.
  
 Gaussian, Inc.
 340 Quinnipiac St., Bldg. 40, Wallingford CT 06492
  
  
 ---------------------------------------------------------------
 Warning -- This program may not be used in any manner that
 competes with the business of Gaussian, Inc. or will provide
 assistance to any competitor of Gaussian, Inc.  The licensee
 of this program is prohibited from giving any competitor of
 Gaussian, Inc. access to this program.  By using this program,
 the user acknowledges that Gaussian, Inc. is engaged in the
 business of creating and licensing software in the field of
 computational chemistry and represents and warrants to the
 licensee that it is not a competitor of Gaussian, Inc. and that
 it will not use this program in any manner prohibited above.
 ---------------------------------------------------------------
  

 Cite this work as:
 Gaussian 16, Revision B.01,
 M. J. Frisch, G. W. Trucks, H. B. Schlegel, G. E. Scuseria, 
 M. A. Robb, J. R. Cheeseman, G. Scalmani, V. Barone, 
 G. A. Petersson, H. Nakatsuji, X. Li, M. Caricato, A. V. Marenich, 
 J. Bloino, B. G. Janesko, R. Gomperts, B. Mennucci, H. P. Hratchian, 
 J. V. Ortiz, A. F. Izmaylov, J. L. Sonnenberg, D. Williams-Young, 
 F. Ding, F. Lipparini, F. Egidi, J. Goings, B. Peng, A. Petrone, 
 T. Henderson, D. Ranasinghe, V. G. Zakrzewski, J. Gao, N. Rega, 
 G. Zheng, W. Liang, M. Hada, M. Ehara, K. Toyota, R. Fukuda, 
 J. Hasegawa, M. Ishida, T. Nakajima, Y. Honda, O. Kitao, H. Nakai, 
 T. Vreven, K. Throssell, J. A. Montgomery, Jr., J. E. Peralta, 
 F. Ogliaro, M. J. Bearpark, J. J. Heyd, E. N. Brothers, K. N. Kudin, 
 V. N. Staroverov, T. A. Keith, R. Kobayashi, J. Normand, 
 K. Raghavachari, A. P. Rendell, J. C. Burant, S. S. Iyengar, 
 J. Tomasi, M. Cossi, J. M. Millam, M. Klene, C. Adamo, R. Cammi, 
 J. W. Ochterski, R. L. Martin, K. Morokuma, O. Farkas, 
 J. B. Foresman, and D. J. Fox, Gaussian, Inc., Wallingford CT, 2016.
 
 ******************************************
 Gaussian 16:  ES64L-G16RevB.01 20-Dec-2017
                10-Jul-2023 
 ******************************************
 %chk=45.chk
 %nprocshared=4
 Will use up to    4 processors via shared memory.
 %mem=8000mb
 --------------------------------------------------------------
 #T wB97XD//def2svpp Volume=tight Geom=AllCheckpoint Guess=Read
 --------------------------------------------------------------
 Structure from the checkpoint file:  "45.chk"
 -------
 Monomer
 -------
 Charge =  0 Multiplicity = 1
 Redundant internal coordinates found in file.  (old form).
 O,0,-2.1297067205,0.2957426373,1.2668421253
 C,0,-0.7850294613,0.095441715,1.5157832661
 C,0,0.016374962,0.0071772662,0.2092791094
 N,0,-0.3875705972,1.1434497134,-0.7133029338
 O,0,-0.8275567188,0.8447215955,-1.7906171305
 O,0,-0.2381006949,2.2382242592,-0.2451957771
 N,0,1.5093743259,0.0846323724,0.4537575367
 O,0,2.1655944014,0.7678869527,-0.2798750353
 O,0,1.8895123707,-0.59289622,1.3772292896
 N,0,-0.2225061574,-1.3029792305,-0.5256588146
 O,0,0.6641365382,-1.7056944924,-1.2233273286
 O,0,-1.3015786554,-1.8155012314,-0.3423884242
 H,0,-2.4960875713,-0.5130394324,0.8757383221
 H,0,-0.5592838388,-0.8104239294,2.1062459376
 H,0,-0.4062521827,0.9720990243,2.0627538574
 Recover connectivity data from disk.
                           ----------------------------
                           !    Current Parameters    !
                           ! (Angstroms and Degrees)  !
 --------------------------                            --------------------------
 ! Name  Definition              Value                                          !
 --------------------------------------------------------------------------------
 ! R1    R(1,2)                  1.3821                                         !
 ! R2    R(1,13)                 0.9702                                         !
 ! R3    R(2,3)                  1.5353                                         !
 ! R4    R(2,14)                 1.1046                                         !
 ! R5    R(2,15)                 1.1005                                         !
 ! R6    R(3,4)                  1.5184                                         !
 ! R7    R(3,7)                  1.5149                                         !
 ! R8    R(3,10)                 1.5211                                         !
 ! R9    R(4,5)                  1.2014                                         !
 ! R10   R(4,6)                  1.2                                            !
 ! R11   R(7,8)                  1.1982                                         !
 ! R12   R(7,9)                  1.2068                                         !
 ! R13   R(10,11)                1.1979                                         !
 ! R14   R(10,12)                1.2086                                         !
 ! A1    A(2,1,13)             108.6142                                         !
 ! A2    A(1,2,3)              111.2793                                         !
 ! A3    A(1,2,14)             114.4534                                         !
 ! A4    A(1,2,15)             107.9947                                         !
 ! A5    A(3,2,14)             107.5217                                         !
 ! A6    A(3,2,15)             106.8034                                         !
 ! A7    A(14,2,15)            108.496                                          !
 ! A8    A(2,3,4)              109.5838                                         !
 ! A9    A(2,3,7)              111.9741                                         !
 ! A10   A(2,3,10)             112.2542                                         !
 ! A11   A(4,3,7)              108.7837                                         !
 ! A12   A(4,3,10)             108.0121                                         !
 ! A13   A(7,3,10)             106.069                                          !
 ! A14   A(3,4,5)              117.1421                                         !
 ! A15   A(3,4,6)              114.3663                                         !
 ! A16   A(5,4,6)              128.4805                                         !
 ! A17   A(3,7,8)              118.0414                                         !
 ! A18   A(3,7,9)              113.9064                                         !
 ! A19   A(8,7,9)              128.0366                                         !
 ! A20   A(3,10,11)            117.0464                                         !
 ! A21   A(3,10,12)            115.6081                                         !
 ! A22   A(11,10,12)           127.3429                                         !
 ! D1    D(13,1,2,3)            69.4702                                         !
 ! D2    D(13,1,2,14)          -52.6733                                         !
 ! D3    D(13,1,2,15)         -173.6127                                         !
 ! D4    D(1,2,3,4)             47.0329                                         !
 ! D5    D(1,2,3,7)            167.8362                                         !
 ! D6    D(1,2,3,10)           -72.98                                           !
 ! D7    D(14,2,3,4)           173.1059                                         !
 ! D8    D(14,2,3,7)           -66.0909                                         !
 ! D9    D(14,2,3,10)           53.093                                          !
 ! D10   D(15,2,3,4)           -70.6081                                         !
 ! D11   D(15,2,3,7)            50.1951                                         !
 ! D12   D(15,2,3,10)          169.379                                          !
 ! D13   D(2,3,4,5)           -121.1196                                         !
 ! D14   D(2,3,4,6)             57.772                                          !
 ! D15   D(7,3,4,5)            116.1624                                         !
 ! D16   D(7,3,4,6)            -64.946                                          !
 ! D17   D(10,3,4,5)             1.4527                                         !
 ! D18   D(10,3,4,6)          -179.6557                                         !
 ! D19   D(2,3,7,8)           -136.9632                                         !
 ! D20   D(2,3,7,9)             44.3598                                         !
 ! D21   D(4,3,7,8)            -15.6973                                         !
 ! D22   D(4,3,7,9)            165.6257                                         !
 ! D23   D(10,3,7,8)           100.2702                                         !
 ! D24   D(10,3,7,9)           -78.4068                                         !
 ! D25   D(2,3,10,11)         -152.1903                                         !
 ! D26   D(2,3,10,12)           28.3618                                         !
 ! D27   D(4,3,10,11)           86.8873                                         !
 ! D28   D(4,3,10,12)          -92.5606                                         !
 ! D29   D(7,3,10,11)          -29.6011                                         !
 ! D30   D(7,3,10,12)          150.951                                          !
 --------------------------------------------------------------------------------
                    Distance matrix (angstroms):
                    1          2          3          4          5
     1  O    0.000000
     2  C    1.382118   0.000000
     3  C    2.409850   1.535250   0.000000
     4  N    2.770310   2.495019   1.518369   0.000000
     5  O    3.368238   3.390503   2.326647   1.201429   0.000000
     6  O    3.104459   2.826959   2.291043   1.199999   2.162784
     7  N    3.734780   2.528301   1.514865   2.466075   3.328093
     8  O    4.589648   3.518914   2.331758   2.616784   3.353684
     9  O    4.117765   2.765173   2.287540   3.545466   4.414121
    10  N    3.066983   2.537617   1.521088   2.459161   2.564922
    11  O    4.244085   3.584257   2.325056   3.079584   3.008586
    12  O    2.780786   2.715019   2.315922   3.119035   3.065754
    13  H    0.970219   1.925520   2.650898   3.116866   3.425925
    14  H    2.096290   1.104627   2.144374   3.434671   4.242289
    15  H    2.015249   1.100535   2.131914   2.781403   3.878426
                    6          7          8          9         10
     6  O    0.000000
     7  N    2.860098   0.000000
     8  O    2.817950   1.198198   0.000000
     9  O    3.895413   1.206793   2.161931   0.000000
    10  N    3.552327   2.425723   3.170476   2.930158   0.000000
    11  O    4.162363   2.594670   3.043531   3.082655   1.197938
    12  O    4.192031   3.485084   4.324245   3.825560   1.208579
    13  H    3.731548   4.071732   4.970663   4.414902   2.785156
    14  H    3.863508   2.794851   3.950899   2.564252   2.698695
    15  H    2.637798   2.654447   3.484825   2.861763   3.451032
                   11         12         13         14         15
    11  O    0.000000
    12  O    2.156884   0.000000
    13  H    3.976873   2.146414   0.000000
    14  H    3.658459   2.748998   2.313827   0.000000
    15  H    4.372029   3.789068   2.825253   1.789608   0.000000
 Framework group  C1[X(C2H3N3O7)]
 Deg. of freedom    39
                         Standard orientation:                         
 ---------------------------------------------------------------------
 Center     Atomic      Atomic             Coordinates (Angstroms)
 Number     Number       Type             X           Y           Z
 ---------------------------------------------------------------------
      1          8           0       -2.129709    0.295725    1.266842
      2          6           0       -0.785030    0.095436    1.515783
      3          6           0        0.016376    0.007178    0.209279
      4          7           0       -0.387580    1.143447   -0.713303
      5          8           0       -0.827563    0.844715   -1.790617
      6          8           0       -0.238119    2.238223   -0.245196
      7          7           0        1.509374    0.084646    0.453757
      8          8           0        2.165589    0.767906   -0.279875
      9          8           0        1.889518   -0.592880    1.377229
     10          7           0       -0.222495   -1.302980   -0.525659
     11          8           0        0.664152   -1.705688   -1.223328
     12          8           0       -1.301563   -1.815511   -0.342389
     13          1           0       -2.496083   -0.513060    0.875738
     14          1           0       -0.559276   -0.810428    2.106246
     15          1           0       -0.406260    0.972096    2.062754
 ---------------------------------------------------------------------
 Rotational constants (GHZ):           1.1540645           1.0394565           0.9171103
   174 basis functions,   312 primitive gaussians,   186 cartesian basis functions
    46 alpha electrons       46 beta electrons
       nuclear repulsion energy       825.7597699926 Hartrees.
 NAtoms=   15 NActive=   15 NUniq=   15 SFac= 1.00D+00 NAtFMM=   60 NAOKFM=F Big=F
 Nuclear repulsion after empirical dispersion term =      825.7512100822 Hartrees.
   1 Symmetry operations used in ECPInt.
 ECPInt:  NShTT=    3081 NPrTT=   12411 LenC2=    3021 LenP2D=    9073.
 LDataN:  DoStor=T MaxTD1= 4 Len=   56
 Initial guess from the checkpoint file:  "45.chk"
 B after Tr=     0.000000   -0.000000    0.000000
         Rot=    1.000000   -0.000000   -0.000000   -0.000000 Ang=   0.00 deg.
 Skip diagonalization as Alpha Fock matrix is already diagonal.
 SCF Done:  E(RwB97XD) =  -767.665171532     A.U. after    1 cycles
            NFock=  1  Conv=0.00D+00     -V/T= 2.0063

 **********************************************************************

            Population analysis using the SCF Density.

 **********************************************************************

 Orbital symmetries:
       Occupied  (A) (A) (A) (A) (A) (A) (A) (A) (A) (A) (A) (A)
                 (A) (A) (A) (A) (A) (A) (A) (A) (A) (A) (A) (A)
                 (A) (A) (A) (A) (A) (A) (A) (A) (A) (A) (A) (A)
                 (A) (A) (A) (A) (A) (A) (A) (A) (A) (A)
       Virtual   (A) (A) (A) (A) (A) (A) (A) (A) (A) (A) (A) (A)
                 (A) (A) (A) (A) (A) (A) (A) (A) (A) (A) (A) (A)
                 (A) (A) (A) (A) (A) (A) (A) (A) (A) (A) (A) (A)
                 (A) (A) (A) (A) (A) (A) (A) (A) (A) (A) (A) (A)
                 (A) (A) (A) (A) (A) (A) (A) (A) (A) (A) (A) (A)
                 (A) (A) (A) (A) (A) (A) (A) (A) (A) (A) (A) (A)
                 (A) (A) (A) (A) (A) (A) (A) (A) (A) (A) (A) (A)
                 (A) (A) (A) (A) (A) (A) (A) (A) (A) (A) (A) (A)
                 (A) (A) (A) (A) (A) (A) (A) (A) (A) (A) (A) (A)
                 (A) (A) (A) (A) (A) (A) (A) (A) (A) (A) (A) (A)
                 (A) (A) (A) (A) (A) (A) (A) (A)
 The electronic state is 1-A.
 Alpha  occ. eigenvalues --  -19.35790 -19.35706 -19.35169 -19.34886 -19.34693
 Alpha  occ. eigenvalues --  -19.34553 -19.30599 -14.75481 -14.74981 -14.74602
 Alpha  occ. eigenvalues --  -10.49537 -10.41651  -1.42062  -1.39983  -1.39493
 Alpha  occ. eigenvalues --   -1.23551  -1.23027  -1.22595  -1.18041  -1.04331
 Alpha  occ. eigenvalues --   -0.86177  -0.85974  -0.84674  -0.72975  -0.72022
 Alpha  occ. eigenvalues --   -0.71769  -0.70614  -0.68725  -0.67551  -0.66422
 Alpha  occ. eigenvalues --   -0.65642  -0.65399  -0.64984  -0.60654  -0.58442
 Alpha  occ. eigenvalues --   -0.50147  -0.47779  -0.46754  -0.45816  -0.45750
 Alpha  occ. eigenvalues --   -0.45330  -0.44838  -0.44286  -0.43513  -0.43473
 Alpha  occ. eigenvalues --   -0.41893
 Alpha virt. eigenvalues --   -0.06049  -0.05032  -0.04211   0.10576   0.12036
 Alpha virt. eigenvalues --    0.15517   0.15641   0.18589   0.20603   0.23806
 Alpha virt. eigenvalues --    0.26564   0.32062   0.32537   0.33343   0.41331
 Alpha virt. eigenvalues --    0.44723   0.46700   0.47880   0.50460   0.53099
 Alpha virt. eigenvalues --    0.54194   0.56648   0.58628   0.62521   0.64680
 Alpha virt. eigenvalues --    0.65846   0.67738   0.71083   0.72609   0.74451
 Alpha virt. eigenvalues --    0.77700   0.77895   0.79961   0.87054   0.88177
 Alpha virt. eigenvalues --    0.91555   0.93255   0.94509   0.95194   0.95503
 Alpha virt. eigenvalues --    0.96115   0.96338   0.97873   1.00923   1.03215
 Alpha virt. eigenvalues --    1.04330   1.06083   1.08364   1.10514   1.10921
 Alpha virt. eigenvalues --    1.12207   1.13923   1.15007   1.16734   1.17485
 Alpha virt. eigenvalues --    1.21301   1.22860   1.25724   1.28793   1.35741
 Alpha virt. eigenvalues --    1.38197   1.40514   1.42363   1.46087   1.47486
 Alpha virt. eigenvalues --    1.50041   1.61760   1.66624   1.70121   1.76005
 Alpha virt. eigenvalues --    1.78474   1.79426   1.80541   1.82309   1.83616
 Alpha virt. eigenvalues --    1.89302   1.96746   2.01954   2.11876   2.13749
 Alpha virt. eigenvalues --    2.17589   2.28383   2.30752   2.32824   2.38172
 Alpha virt. eigenvalues --    2.41375   2.42267   2.47296   2.49199   2.51635
 Alpha virt. eigenvalues --    2.53070   2.60587   2.62219   2.63391   2.64606
 Alpha virt. eigenvalues --    2.66033   2.67687   2.68013   2.69820   2.71903
 Alpha virt. eigenvalues --    2.72758   2.74927   2.76797   2.79653   2.84481
 Alpha virt. eigenvalues --    2.85057   2.88862   3.04732   3.05722   3.08131
 Alpha virt. eigenvalues --    3.09282   3.11499   3.19720   3.22255   3.27555
 Alpha virt. eigenvalues --    3.35018   3.36332   3.37425   3.41734   3.44775
 Alpha virt. eigenvalues --    3.46921   3.48104   3.76123   3.76507   3.77960
 Alpha virt. eigenvalues --    3.84552   3.85501   3.87098
          Condensed to atoms (all electrons):
 Mulliken charges:
               1
     1  O   -0.456757
     2  C    0.098953
     3  C    0.090470
     4  N    0.262082
     5  O   -0.195630
     6  O   -0.184038
     7  N    0.243691
     8  O   -0.175159
     9  O   -0.204015
    10  N    0.246917
    11  O   -0.170433
    12  O   -0.223255
    13  H    0.345346
    14  H    0.159477
    15  H    0.162349
 Sum of Mulliken charges =  -0.00000
 Mulliken charges with hydrogens summed into heavy atoms:
               1
     1  O   -0.111411
     2  C    0.420780
     3  C    0.090470
     4  N    0.262082
     5  O   -0.195630
     6  O   -0.184038
     7  N    0.243691
     8  O   -0.175159
     9  O   -0.204015
    10  N    0.246917
    11  O   -0.170433
    12  O   -0.223255
 Electronic spatial extent (au):  <R**2>=           1506.3625
 Charge=              0.0000 electrons
 Dipole moment (field-independent basis, Debye):
    X=             -1.1040    Y=             -1.0791    Z=              2.3112  Tot=              2.7794
 Evaluate density.
 Using the total density.
 Monte-Carlo method of calculating molar volume:
 based on  0.001 e/bohr**3 density envelope.
 Number of points per bohr**3 =  100 CutOff= 1.00D-04
 Using the SCF density.
 There are      1779 points.  Will hold      1779 in memory.
 LenV=  1048205374 MDV=  1048576000.
 Box volume = 5636.238 fraction occupied=0.187
 Integrated density= 6.7297077412105068D+01 error=-2.4702922587894932D+01
 Molar volume = 1055.012 bohr**3/mol ( 94.148 cm**3/mol)
 Recommended a0 for SCRF calculation =  4.18 angstrom (  7.90 bohr)
 1\1\GINC-C003\SP\RwB97XD\def2SVPP\C2H3N3O7\PETERCHAO1\10-Jul-2023\0\\#
 T wB97XD//def2svpp Volume=tight Geom=AllCheckpoint Guess=Read\\Monomer
 \\0,1\O,0,-2.1297067205,0.2957426373,1.2668421253\C,0,-0.7850294613,0.
 095441715,1.5157832661\C,0,0.016374962,0.0071772662,0.2092791094\N,0,-
 0.3875705972,1.1434497134,-0.7133029338\O,0,-0.8275567188,0.8447215955
 ,-1.7906171305\O,0,-0.2381006949,2.2382242592,-0.2451957771\N,0,1.5093
 743259,0.0846323724,0.4537575367\O,0,2.1655944014,0.7678869527,-0.2798
 750353\O,0,1.8895123707,-0.59289622,1.3772292896\N,0,-0.2225061574,-1.
 3029792305,-0.5256588146\O,0,0.6641365382,-1.7056944924,-1.2233273286\
 O,0,-1.3015786554,-1.8155012314,-0.3423884242\H,0,-2.4960875713,-0.513
 0394324,0.8757383221\H,0,-0.5592838388,-0.8104239294,2.1062459376\H,0,
 -0.4062521827,0.9720990243,2.0627538574\\Version=ES64L-G16RevB.01\Stat
 e=1-A\HF=-767.6651715\RMSD=0.000e+00\Dipole=-0.4343628,-0.424547,0.909
 2857\Quadrupole=-0.8398619,-1.2264871,2.066349,2.1599686,-0.7825157,-0
 .5463749\PG=C01 [X(C2H3N3O7)]\\@


 WAR ES EIN GOTT DER DIESE ZEICHEN SCHRIEB?
          - LUDWIG BOLTZMANN, QUOTING GOETHE, ABOUT MAXWELL'S EQUATIONS.
 File lengths (MBytes):  RWF=     15 Int=      0 D2E=      0 Chk=      4 Scr=      1
 Normal termination of Gaussian 16 at Mon Jul 10 17:42:04 2023.
