 Entering Gaussian System, Link 0=g16
 Input=gaussian_test.inp
 Output=gaussian_test.log
 Initial command:
 /sw/restricted/lms/sw/Gaussian/g16_B01/g16/l1.exe "/scratch/user/peterchao1/peterchao1/6931804_1675363831000000386937276/Gau-209196.inp" -scrdir="/scratch/user/peterchao1/peterchao1/6931804_1675363831000000386937276/"
 Entering Link 1 = /sw/restricted/lms/sw/Gaussian/g16_B01/g16/l1.exe PID=    209202.
  
 Copyright (c) 1988-2017, Gaussian, Inc.  All Rights Reserved.
  
 This is part of the Gaussian(R) 16 program.  It is based on
 the Gaussian(R) 09 system (copyright 2009, Gaussian, Inc.),
 the Gaussian(R) 03 system (copyright 2003, Gaussian, Inc.),
 the Gaussian(R) 98 system (copyright 1998, Gaussian, Inc.),
 the Gaussian(R) 94 system (copyright 1995, Gaussian, Inc.),
 the Gaussian 92(TM) system (copyright 1992, Gaussian, Inc.),
 the Gaussian 90(TM) system (copyright 1990, Gaussian, Inc.),
 the Gaussian 88(TM) system (copyright 1988, Gaussian, Inc.),
 the Gaussian 86(TM) system (copyright 1986, Carnegie Mellon
 University), and the Gaussian 82(TM) system (copyright 1983,
 Carnegie Mellon University). Gaussian is a federally registered
 trademark of Gaussian, Inc.
  
 This software contains proprietary and confidential information,
 including trade secrets, belonging to Gaussian, Inc.
  
 This software is provided under written license and may be
 used, copied, transmitted, or stored only in accord with that
 written license.
  
 The following legend is applicable only to US Government
 contracts under FAR:
  
                    RESTRICTED RIGHTS LEGEND
  
 Use, reproduction and disclosure by the US Government is
 subject to restrictions as set forth in subparagraphs (a)
 and (c) of the Commercial Computer Software - Restricted
 Rights clause in FAR 52.227-19.
  
 Gaussian, Inc.
 340 Quinnipiac St., Bldg. 40, Wallingford CT 06492
  
  
 ---------------------------------------------------------------
 Warning -- This program may not be used in any manner that
 competes with the business of Gaussian, Inc. or will provide
 assistance to any competitor of Gaussian, Inc.  The licensee
 of this program is prohibited from giving any competitor of
 Gaussian, Inc. access to this program.  By using this program,
 the user acknowledges that Gaussian, Inc. is engaged in the
 business of creating and licensing software in the field of
 computational chemistry and represents and warrants to the
 licensee that it is not a competitor of Gaussian, Inc. and that
 it will not use this program in any manner prohibited above.
 ---------------------------------------------------------------
  

 Cite this work as:
 Gaussian 16, Revision B.01,
 M. J. Frisch, G. W. Trucks, H. B. Schlegel, G. E. Scuseria, 
 M. A. Robb, J. R. Cheeseman, G. Scalmani, V. Barone, 
 G. A. Petersson, H. Nakatsuji, X. Li, M. Caricato, A. V. Marenich, 
 J. Bloino, B. G. Janesko, R. Gomperts, B. Mennucci, H. P. Hratchian, 
 J. V. Ortiz, A. F. Izmaylov, J. L. Sonnenberg, D. Williams-Young, 
 F. Ding, F. Lipparini, F. Egidi, J. Goings, B. Peng, A. Petrone, 
 T. Henderson, D. Ranasinghe, V. G. Zakrzewski, J. Gao, N. Rega, 
 G. Zheng, W. Liang, M. Hada, M. Ehara, K. Toyota, R. Fukuda, 
 J. Hasegawa, M. Ishida, T. Nakajima, Y. Honda, O. Kitao, H. Nakai, 
 T. Vreven, K. Throssell, J. A. Montgomery, Jr., J. E. Peralta, 
 F. Ogliaro, M. J. Bearpark, J. J. Heyd, E. N. Brothers, K. N. Kudin, 
 V. N. Staroverov, T. A. Keith, R. Kobayashi, J. Normand, 
 K. Raghavachari, A. P. Rendell, J. C. Burant, S. S. Iyengar, 
 J. Tomasi, M. Cossi, J. M. Millam, M. Klene, C. Adamo, R. Cammi, 
 J. W. Ochterski, R. L. Martin, K. Morokuma, O. Farkas, 
 J. B. Foresman, and D. J. Fox, Gaussian, Inc., Wallingford CT, 2016.
 
 ******************************************
 Gaussian 16:  ES64L-G16RevB.01 20-Dec-2017
                 2-Feb-2023 
 ******************************************
 %chk=35.chk
 %nprocshared=4
 Will use up to    4 processors via shared memory.
 %mem=8000mb
 --------------------------------------------------------------
 #T wB97XD//def2svpp Volume=tight Geom=AllCheckpoint Guess=Read
 --------------------------------------------------------------
 Structure from the checkpoint file:  "35.chk"
 -------
 Monomer
 -------
 Charge =  0 Multiplicity = 1
 Redundant internal coordinates found in file.  (old form).
 C,0,0.8503775437,-1.4551747565,-1.3791384499
 C,0,0.0688194199,-0.5332962262,-0.4360934738
 C,0,-1.1504539073,0.0514157988,-1.1755210032
 O,0,-1.9409012299,0.8954217685,-0.3724579217
 C,0,-0.3931330569,-1.3232614586,0.8127022784
 O,0,-0.9704897529,-0.5099657674,1.7873382932
 C,0,0.9390980016,0.6192492825,0.0407511697
 O,0,2.0961353911,0.2205084684,0.5701859159
 O,0,0.6408890062,1.7889828148,-0.0317088978
 H,0,1.1887703377,-0.9151192545,-2.2801940822
 H,0,0.2069298392,-2.2905780497,-1.7062702828
 H,0,1.7362720173,-1.8766361439,-0.8784863252
 H,0,-1.7998353181,-0.7807577571,-1.4951440364
 H,0,-0.8118126714,0.580612152,-2.0878427312
 H,0,-1.3962545971,1.6820177366,-0.1923845175
 H,0,0.4757861802,-1.8198485084,1.2749888963
 H,0,-1.0867785338,-2.1202647161,0.4648196601
 H,0,-1.6553426384,0.0227474855,1.3428965268
 H,0,2.5618903185,1.0135582538,0.8904453604
 Recover connectivity data from disk.
                           ----------------------------
                           !    Current Parameters    !
                           ! (Angstroms and Degrees)  !
 --------------------------                            --------------------------
 ! Name  Definition              Value                                          !
 --------------------------------------------------------------------------------
 ! R1    R(1,2)                  1.533                                          !
 ! R2    R(1,10)                 1.1037                                         !
 ! R3    R(1,11)                 1.1041                                         !
 ! R4    R(1,12)                 1.1014                                         !
 ! R5    R(2,3)                  1.5412                                         !
 ! R6    R(2,5)                  1.5482                                         !
 ! R7    R(2,7)                  1.5209                                         !
 ! R8    R(3,4)                  1.4079                                         !
 ! R9    R(3,13)                 1.1029                                         !
 ! R10   R(3,14)                 1.1077                                         !
 ! R11   R(4,15)                 0.9736                                         !
 ! R12   R(5,6)                  1.3945                                         !
 ! R13   R(5,16)                 1.1024                                         !
 ! R14   R(5,17)                 1.1124                                         !
 ! R15   R(6,18)                 0.9749                                         !
 ! R16   R(7,8)                  1.3334                                         !
 ! R17   R(7,9)                  1.2093                                         !
 ! R18   R(8,19)                 0.9739                                         !
 ! A1    A(2,1,10)             111.3641                                         !
 ! A2    A(2,1,11)             109.8877                                         !
 ! A3    A(2,1,12)             111.1345                                         !
 ! A4    A(10,1,11)            107.8814                                         !
 ! A5    A(10,1,12)            108.1643                                         !
 ! A6    A(11,1,12)            108.2949                                         !
 ! A7    A(1,2,3)              109.6543                                         !
 ! A8    A(1,2,5)              109.9672                                         !
 ! A9    A(1,2,7)              110.9075                                         !
 ! A10   A(3,2,5)              110.1525                                         !
 ! A11   A(3,2,7)              108.3978                                         !
 ! A12   A(5,2,7)              107.7287                                         !
 ! A13   A(2,3,4)              113.4501                                         !
 ! A14   A(2,3,13)             108.5777                                         !
 ! A15   A(2,3,14)             109.5444                                         !
 ! A16   A(4,3,13)             106.6825                                         !
 ! A17   A(4,3,14)             110.7956                                         !
 ! A18   A(13,3,14)            107.5649                                         !
 ! A19   A(3,4,15)             106.0084                                         !
 ! A20   A(2,5,6)              112.9355                                         !
 ! A21   A(2,5,16)             109.4451                                         !
 ! A22   A(2,5,17)             107.4209                                         !
 ! A23   A(6,5,16)             107.2148                                         !
 ! A24   A(6,5,17)             112.2262                                         !
 ! A25   A(16,5,17)            107.4513                                         !
 ! A26   A(5,6,18)             106.9129                                         !
 ! A27   A(2,7,8)              113.2283                                         !
 ! A28   A(2,7,9)              124.9674                                         !
 ! A29   A(8,7,9)              121.8035                                         !
 ! A30   A(7,8,19)             107.5805                                         !
 ! D1    D(10,1,2,3)            58.5716                                         !
 ! D2    D(10,1,2,5)           179.8363                                         !
 ! D3    D(10,1,2,7)           -61.111                                          !
 ! D4    D(11,1,2,3)           -60.9084                                         !
 ! D5    D(11,1,2,5)            60.3563                                         !
 ! D6    D(11,1,2,7)           179.4089                                         !
 ! D7    D(12,1,2,3)           179.2418                                         !
 ! D8    D(12,1,2,5)           -59.4935                                         !
 ! D9    D(12,1,2,7)            59.5592                                         !
 ! D10   D(1,2,3,4)            178.9606                                         !
 ! D11   D(1,2,3,13)            60.542                                          !
 ! D12   D(1,2,3,14)           -56.6617                                         !
 ! D13   D(5,2,3,4)             57.8076                                         !
 ! D14   D(5,2,3,13)           -60.611                                          !
 ! D15   D(5,2,3,14)          -177.8146                                         !
 ! D16   D(7,2,3,4)            -59.8318                                         !
 ! D17   D(7,2,3,13)          -178.2503                                         !
 ! D18   D(7,2,3,14)            64.546                                          !
 ! D19   D(1,2,5,6)            172.751                                          !
 ! D20   D(1,2,5,16)            53.3981                                         !
 ! D21   D(1,2,5,17)           -62.9678                                         !
 ! D22   D(3,2,5,6)            -66.2832                                         !
 ! D23   D(3,2,5,16)           174.3639                                         !
 ! D24   D(3,2,5,17)            57.9981                                         !
 ! D25   D(7,2,5,6)             51.7692                                         !
 ! D26   D(7,2,5,16)           -67.5836                                         !
 ! D27   D(7,2,5,17)           176.0505                                         !
 ! D28   D(1,2,7,8)            -52.8254                                         !
 ! D29   D(1,2,7,9)            127.4998                                         !
 ! D30   D(3,2,7,8)           -173.2568                                         !
 ! D31   D(3,2,7,9)              7.0684                                         !
 ! D32   D(5,2,7,8)             67.5659                                         !
 ! D33   D(5,2,7,9)           -112.1089                                         !
 ! D34   D(2,3,4,15)            67.7051                                         !
 ! D35   D(13,3,4,15)         -172.7881                                         !
 ! D36   D(14,3,4,15)          -55.9922                                         !
 ! D37   D(2,5,6,18)            51.3492                                         !
 ! D38   D(16,5,6,18)          171.9824                                         !
 ! D39   D(17,5,6,18)          -70.2578                                         !
 ! D40   D(2,7,8,19)          -176.9085                                         !
 ! D41   D(9,7,8,19)             2.7779                                         !
 --------------------------------------------------------------------------------
                    Distance matrix (angstroms):
                    1          2          3          4          5
     1  C    0.000000
     2  C    1.532980   0.000000
     3  C    2.512887   1.541191   0.000000
     4  O    3.785492   2.466630   1.407858   0.000000
     5  C    2.523467   1.548204   2.533042   2.953430   0.000000
     6  O    3.773003   2.454456   3.020939   2.753458   1.394527
     7  C    2.515391   1.520897   2.483542   2.922569   2.478729
     8  O    2.856518   2.385546   3.690044   4.200208   2.939132
     9  O    3.519092   2.425648   2.745242   2.753217   3.386487
    10  H    1.103662   2.191070   2.761605   4.088075   3.497857
    11  H    1.104056   2.172663   2.758463   4.067288   2.764236
    12  H    1.101404   2.186475   3.484078   4.632707   2.775015
    13  H    2.737138   2.162104   1.102891   2.022350   2.756678
    14  H    2.722052   2.178206   1.107726   2.077617   3.494737
    15  H    4.037043   2.667106   1.919854   0.973550   3.323877
    16  H    2.705124   2.179138   3.485869   3.990884   1.102419
    17  H    2.755921   2.159982   2.722309   3.244214   1.112376
    18  H    3.984013   2.539040   2.568689   1.945648   1.919901
    19  H    3.764961   3.219917   4.356080   4.678035   3.768147
                    6          7          8          9         10
     6  O    0.000000
     7  C    2.823512   0.000000
     8  O    3.379237   1.333428   0.000000
     9  O    3.345241   1.209320   2.222641   0.000000
    10  H    4.622918   2.793458   3.199629   3.559217   0.000000
    11  H    4.094166   3.472067   3.880323   4.431173   1.784737
    12  H    4.037446   2.776676   2.574135   3.918374   1.785793
    13  H    3.396444   3.438132   4.521804   3.834364   3.092915
    14  H    4.028842   2.756464   3.956129   2.792524   2.505303
    15  H    2.984187   2.576374   3.861905   2.046268   4.217395
    16  H    2.017426   2.772580   2.699136   3.841664   3.737139
    17  H    2.087017   3.433504   3.952374   4.302742   3.763721
    18  H    0.974851   2.963532   3.835333   3.206526   4.700570
    19  H    3.950095   1.873743   0.973869   2.267575   3.957046
                   11         12         13         14         15
    11  H    0.000000
    12  H    1.787585   0.000000
    13  H    2.520166   3.753035   0.000000
    14  H    3.070369   3.740768   1.783482   0.000000
    15  H    4.543519   4.790352   2.815195   2.268794   0.000000
    16  H    3.030145   2.495898   3.732533   4.327674   4.233295
    17  H    2.533046   3.135832   2.478747   3.726450   3.871052
    18  H    4.256401   4.477192   2.953129   3.576692   2.275388
    19  H    4.817270   3.487691   5.285381   4.521008   4.157676
                   16         17         18         19
    16  H    0.000000
    17  H    1.785562   0.000000
    18  H    2.818063   2.384698   0.000000
    19  H    3.539477   4.828539   4.355625   0.000000
 Framework group  C1[X(C5H10O4)]
 Deg. of freedom    51
                         Standard orientation:                         
 ---------------------------------------------------------------------
 Center     Atomic      Atomic             Coordinates (Angstroms)
 Number     Number       Type             X           Y           Z
 ---------------------------------------------------------------------
      1          6           0       -0.858360    1.648333   -1.045566
      2          6           0       -0.073433    0.562791   -0.300236
      3          6           0        1.169934    0.166764   -1.120278
      4          8           0        1.964440   -0.813170   -0.495337
      5          6           0        0.351065    1.081379    1.095402
      6          8           0        0.929063    0.091905    1.890112
      7          6           0       -0.927178   -0.678701   -0.093005
      8          8           0       -2.100948   -0.419446    0.484127
      9          8           0       -0.603369   -1.802060   -0.402308
     10          1           0       -1.170353    1.303332   -2.046418
     11          1           0       -0.227208    2.544547   -1.177425
     12          1           0       -1.761082    1.940441   -0.486230
     13          1           0        1.806960    1.058349   -1.245349
     14          1           0        0.857653   -0.165264   -2.129879
     15          1           0        1.433475   -1.629182   -0.495009
     16          1           0       -0.535625    1.455261    1.633289
     17          1           0        1.033545    1.945251    0.936261
     18          1           0        1.632212   -0.324165    1.358320
     19          1           0       -2.555243   -1.269791    0.621789
 ---------------------------------------------------------------------
 Rotational constants (GHZ):           1.8441002           1.4921720           1.4185966
   146 basis functions,   265 primitive gaussians,   155 cartesian basis functions
    36 alpha electrons       36 beta electrons
       nuclear repulsion energy       516.9292894208 Hartrees.
 NAtoms=   19 NActive=   19 NUniq=   19 SFac= 1.00D+00 NAtFMM=   60 NAOKFM=F Big=F
 Nuclear repulsion after empirical dispersion term =      516.9169497837 Hartrees.
   1 Symmetry operations used in ECPInt.
 ECPInt:  NShTT=    2775 NPrTT=   11173 LenC2=    2754 LenP2D=    8776.
 LDataN:  DoStor=T MaxTD1= 4 Len=   56
 Initial guess from the checkpoint file:  "35.chk"
 B after Tr=    -0.000000   -0.000000    0.000000
         Rot=    1.000000   -0.000000    0.000000   -0.000000 Ang=   0.00 deg.
 SCF Done:  E(RwB97XD) =  -496.909491755     A.U. after    1 cycles
            NFock=  1  Conv=0.35D-09     -V/T= 2.0082

 **********************************************************************

            Population analysis using the SCF Density.

 **********************************************************************

 Orbital symmetries:
       Occupied  (A) (A) (A) (A) (A) (A) (A) (A) (A) (A) (A) (A)
                 (A) (A) (A) (A) (A) (A) (A) (A) (A) (A) (A) (A)
                 (A) (A) (A) (A) (A) (A) (A) (A) (A) (A) (A) (A)
       Virtual   (A) (A) (A) (A) (A) (A) (A) (A) (A) (A) (A) (A)
                 (A) (A) (A) (A) (A) (A) (A) (A) (A) (A) (A) (A)
                 (A) (A) (A) (A) (A) (A) (A) (A) (A) (A) (A) (A)
                 (A) (A) (A) (A) (A) (A) (A) (A) (A) (A) (A) (A)
                 (A) (A) (A) (A) (A) (A) (A) (A) (A) (A) (A) (A)
                 (A) (A) (A) (A) (A) (A) (A) (A) (A) (A) (A) (A)
                 (A) (A) (A) (A) (A) (A) (A) (A) (A) (A) (A) (A)
                 (A) (A) (A) (A) (A) (A) (A) (A) (A) (A) (A) (A)
                 (A) (A) (A) (A) (A) (A) (A) (A) (A) (A) (A) (A)
                 (A) (A)
 The electronic state is 1-A.
 Alpha  occ. eigenvalues --  -19.31907 -19.26480 -19.26257 -19.23945 -10.44672
 Alpha  occ. eigenvalues --  -10.35148 -10.34504 -10.32983 -10.30612  -1.22327
 Alpha  occ. eigenvalues --   -1.13625  -1.11938  -1.10459  -0.92402  -0.78141
 Alpha  occ. eigenvalues --   -0.77722  -0.76006  -0.68660  -0.63155  -0.60482
 Alpha  occ. eigenvalues --   -0.59331  -0.57179  -0.55011  -0.54683  -0.52560
 Alpha  occ. eigenvalues --   -0.50846  -0.50233  -0.48439  -0.47950  -0.46876
 Alpha  occ. eigenvalues --   -0.43951  -0.42184  -0.41355  -0.37950  -0.36004
 Alpha  occ. eigenvalues --   -0.34807
 Alpha virt. eigenvalues --    0.07012   0.12425   0.14002   0.15673   0.16771
 Alpha virt. eigenvalues --    0.18935   0.20950   0.21683   0.22923   0.23323
 Alpha virt. eigenvalues --    0.24440   0.27047   0.28744   0.30024   0.31009
 Alpha virt. eigenvalues --    0.32006   0.33219   0.40161   0.42206   0.50127
 Alpha virt. eigenvalues --    0.53251   0.54503   0.56090   0.58041   0.60233
 Alpha virt. eigenvalues --    0.62010   0.64150   0.65828   0.66625   0.68379
 Alpha virt. eigenvalues --    0.70192   0.71025   0.72379   0.73818   0.74485
 Alpha virt. eigenvalues --    0.76360   0.78229   0.79401   0.79504   0.80062
 Alpha virt. eigenvalues --    0.82138   0.82471   0.82931   0.86262   0.90610
 Alpha virt. eigenvalues --    0.97963   1.02160   1.04557   1.05310   1.07051
 Alpha virt. eigenvalues --    1.10526   1.14481   1.14724   1.18158   1.21743
 Alpha virt. eigenvalues --    1.25318   1.27464   1.32534   1.38402   1.39942
 Alpha virt. eigenvalues --    1.41287   1.50381   1.52515   1.55946   1.63428
 Alpha virt. eigenvalues --    1.66215   1.67582   1.76583   1.80795   1.82665
 Alpha virt. eigenvalues --    1.87087   1.87956   1.92838   1.93702   2.03985
 Alpha virt. eigenvalues --    2.05542   2.06825   2.11098   2.11539   2.16473
 Alpha virt. eigenvalues --    2.19042   2.21394   2.21524   2.24723   2.34090
 Alpha virt. eigenvalues --    2.48896   2.51289   2.62699   2.63903   2.64509
 Alpha virt. eigenvalues --    2.67074   2.71261   2.73994   2.76119   2.79022
 Alpha virt. eigenvalues --    2.91628   2.94615   2.95724   3.01225   3.03327
 Alpha virt. eigenvalues --    3.07202   3.09509   3.11724   3.15715   3.25950
 Alpha virt. eigenvalues --    3.36905   3.46428   3.49778   3.66663   3.70960
          Condensed to atoms (all electrons):
 Mulliken charges:
               1
     1  C   -0.275936
     2  C   -0.403019
     3  C    0.078667
     4  O   -0.509452
     5  C    0.092331
     6  O   -0.499539
     7  C    0.282238
     8  O   -0.358167
     9  O   -0.262815
    10  H    0.130073
    11  H    0.130267
    12  H    0.147869
    13  H    0.110951
    14  H    0.109264
    15  H    0.344307
    16  H    0.116405
    17  H    0.095907
    18  H    0.325617
    19  H    0.345032
 Sum of Mulliken charges =  -0.00000
 Mulliken charges with hydrogens summed into heavy atoms:
               1
     1  C    0.132272
     2  C   -0.403019
     3  C    0.298883
     4  O   -0.165145
     5  C    0.304642
     6  O   -0.173922
     7  C    0.282238
     8  O   -0.013134
     9  O   -0.262815
 Electronic spatial extent (au):  <R**2>=           1097.0420
 Charge=              0.0000 electrons
 Dipole moment (field-independent basis, Debye):
    X=             -1.9787    Y=              1.1582    Z=             -1.6788  Tot=              2.8417
 Evaluate density.
 Using the total density.
 Monte-Carlo method of calculating molar volume:
 based on  0.001 e/bohr**3 density envelope.
 Number of points per bohr**3 =  100 CutOff= 1.00D-04
 Using the SCF density.
 There are      1762 points.  Will hold      1762 in memory.
 LenV=  1048273021 MDV=  1048576000.
 Box volume = 5474.083 fraction occupied=0.186
 Integrated density= 5.5238508032308779D+01 error=-1.6761491967691221D+01
 Molar volume = 1015.905 bohr**3/mol ( 90.658 cm**3/mol)
 Recommended a0 for SCRF calculation =  4.13 angstrom (  7.81 bohr)
 1\1\GINC-C021\SP\RwB97XD\def2SVPP\C5H10O4\PETERCHAO1\02-Feb-2023\0\\#T
  wB97XD//def2svpp Volume=tight Geom=AllCheckpoint Guess=Read\\Monomer\
 \0,1\C,0,0.8503775437,-1.4551747565,-1.3791384499\C,0,0.0688194199,-0.
 5332962262,-0.4360934738\C,0,-1.1504539073,0.0514157988,-1.1755210032\
 O,0,-1.9409012299,0.8954217685,-0.3724579217\C,0,-0.3931330569,-1.3232
 614586,0.8127022784\O,0,-0.9704897529,-0.5099657674,1.7873382932\C,0,0
 .9390980016,0.6192492825,0.0407511697\O,0,2.0961353911,0.2205084684,0.
 5701859159\O,0,0.6408890062,1.7889828148,-0.0317088978\H,0,1.188770337
 7,-0.9151192545,-2.2801940822\H,0,0.2069298392,-2.2905780497,-1.706270
 2828\H,0,1.7362720173,-1.8766361439,-0.8784863252\H,0,-1.7998353181,-0
 .7807577571,-1.4951440364\H,0,-0.8118126714,0.580612152,-2.0878427312\
 H,0,-1.3962545971,1.6820177366,-0.1923845175\H,0,0.4757861802,-1.81984
 85084,1.2749888963\H,0,-1.0867785338,-2.1202647161,0.4648196601\H,0,-1
 .6553426384,0.0227474855,1.3428965268\H,0,2.5618903185,1.0135582538,0.
 8904453604\\Version=ES64L-G16RevB.01\State=1-A\HF=-496.9094918\RMSD=3.
 549e-10\Dipole=0.784095,-0.3236828,-0.7282452\Quadrupole=1.2621126,0.4
 199203,-1.6820329,1.9501869,1.9858533,2.4288022\PG=C01 [X(C5H10O4)]\\@


 ONE THORN OF EXPERIENCE IS WORTH A WHOLE WILDERNESS OF
 WARNING....  LOWELL - AMONG MY BOOKS
 File lengths (MBytes):  RWF=     11 Int=      0 D2E=      0 Chk=      3 Scr=      1
 Normal termination of Gaussian 16 at Thu Feb  2 13:09:22 2023.
