 Entering Gaussian System, Link 0=g16
 Input=gaussian_test.inp
 Output=gaussian_test.log
 Initial command:
 /sw/restricted/lms/sw/Gaussian/g16_B01/g16/l1.exe "/scratch/user/peterchao1/peterchao1/9994853_1712011524000000268762649/Gau-11944.inp" -scrdir="/scratch/user/peterchao1/peterchao1/9994853_1712011524000000268762649/"
 Entering Link 1 = /sw/restricted/lms/sw/Gaussian/g16_B01/g16/l1.exe PID=     11947.
  
 Copyright (c) 1988-2017, Gaussian, Inc.  All Rights Reserved.
  
 This is part of the Gaussian(R) 16 program.  It is based on
 the Gaussian(R) 09 system (copyright 2009, Gaussian, Inc.),
 the Gaussian(R) 03 system (copyright 2003, Gaussian, Inc.),
 the Gaussian(R) 98 system (copyright 1998, Gaussian, Inc.),
 the Gaussian(R) 94 system (copyright 1995, Gaussian, Inc.),
 the Gaussian 92(TM) system (copyright 1992, Gaussian, Inc.),
 the Gaussian 90(TM) system (copyright 1990, Gaussian, Inc.),
 the Gaussian 88(TM) system (copyright 1988, Gaussian, Inc.),
 the Gaussian 86(TM) system (copyright 1986, Carnegie Mellon
 University), and the Gaussian 82(TM) system (copyright 1983,
 Carnegie Mellon University). Gaussian is a federally registered
 trademark of Gaussian, Inc.
  
 This software contains proprietary and confidential information,
 including trade secrets, belonging to Gaussian, Inc.
  
 This software is provided under written license and may be
 used, copied, transmitted, or stored only in accord with that
 written license.
  
 The following legend is applicable only to US Government
 contracts under FAR:
  
                    RESTRICTED RIGHTS LEGEND
  
 Use, reproduction and disclosure by the US Government is
 subject to restrictions as set forth in subparagraphs (a)
 and (c) of the Commercial Computer Software - Restricted
 Rights clause in FAR 52.227-19.
  
 Gaussian, Inc.
 340 Quinnipiac St., Bldg. 40, Wallingford CT 06492
  
  
 ---------------------------------------------------------------
 Warning -- This program may not be used in any manner that
 competes with the business of Gaussian, Inc. or will provide
 assistance to any competitor of Gaussian, Inc.  The licensee
 of this program is prohibited from giving any competitor of
 Gaussian, Inc. access to this program.  By using this program,
 the user acknowledges that Gaussian, Inc. is engaged in the
 business of creating and licensing software in the field of
 computational chemistry and represents and warrants to the
 licensee that it is not a competitor of Gaussian, Inc. and that
 it will not use this program in any manner prohibited above.
 ---------------------------------------------------------------
  

 Cite this work as:
 Gaussian 16, Revision B.01,
 M. J. Frisch, G. W. Trucks, H. B. Schlegel, G. E. Scuseria, 
 M. A. Robb, J. R. Cheeseman, G. Scalmani, V. Barone, 
 G. A. Petersson, H. Nakatsuji, X. Li, M. Caricato, A. V. Marenich, 
 J. Bloino, B. G. Janesko, R. Gomperts, B. Mennucci, H. P. Hratchian, 
 J. V. Ortiz, A. F. Izmaylov, J. L. Sonnenberg, D. Williams-Young, 
 F. Ding, F. Lipparini, F. Egidi, J. Goings, B. Peng, A. Petrone, 
 T. Henderson, D. Ranasinghe, V. G. Zakrzewski, J. Gao, N. Rega, 
 G. Zheng, W. Liang, M. Hada, M. Ehara, K. Toyota, R. Fukuda, 
 J. Hasegawa, M. Ishida, T. Nakajima, Y. Honda, O. Kitao, H. Nakai, 
 T. Vreven, K. Throssell, J. A. Montgomery, Jr., J. E. Peralta, 
 F. Ogliaro, M. J. Bearpark, J. J. Heyd, E. N. Brothers, K. N. Kudin, 
 V. N. Staroverov, T. A. Keith, R. Kobayashi, J. Normand, 
 K. Raghavachari, A. P. Rendell, J. C. Burant, S. S. Iyengar, 
 J. Tomasi, M. Cossi, J. M. Millam, M. Klene, C. Adamo, R. Cammi, 
 J. W. Ochterski, R. L. Martin, K. Morokuma, O. Farkas, 
 J. B. Foresman, and D. J. Fox, Gaussian, Inc., Wallingford CT, 2016.
 
 ******************************************
 Gaussian 16:  ES64L-G16RevB.01 20-Dec-2017
                 1-Apr-2024 
 ******************************************
 %nprocshared=4
 Will use up to    4 processors via shared memory.
 %mem=8000mb
 %chk=7.chk
 %nprocshared=4
 Will use up to    4 processors via shared memory.
 %mem=8000mb
 ----------------------------------------------------------------------
 #T wB97XD/def2svpp opt=(calcfc,tight) freq int(grid=ultrafine) scf=(ve
 rytight,qc) Volume=tight
 ----------------------------------------------------------------------
 -----
 Dimer
 -----
 Symbolic Z-matrix:
 Charge =  0 Multiplicity = 1
 C                     1.88431  -2.53555  -0.32612 
 C                     1.91327  -1.26198   0.51422 
 C                     1.86722   0.01654  -0.32095 
 C                     1.88986   1.29575   0.51423 
 C                     1.83801   2.56855  -0.32612 
 H                     2.751    -2.58087  -1.00965 
 H                     0.96973  -2.58484  -0.94342 
 H                     1.90825  -3.43813   0.3084 
 H                     2.82424  -1.25368   1.14179 
 H                     1.05982  -1.26502   1.21821 
 H                     0.95548   0.00824  -0.94886 
 H                     2.72205   0.02438  -1.02513 
 H                     2.80072   1.304     1.14195 
 H                     1.03646   1.28314   1.21811 
 H                     2.70395   2.62954  -1.00944 
 H                     1.84546   3.47142   0.3084 
 H                     0.92283   2.60123  -0.94356 
 C                    -1.83876  -2.56861   0.32605 
 C                    -1.89046  -1.29571  -0.51417 
 C                    -1.86721  -0.01652   0.32107 
 C                    -1.91281   1.26198  -0.51422 
 C                    -1.8834    2.53557   0.32604 
 H                    -2.70413  -2.62911   1.01014 
 H                    -0.92304  -2.6018    0.94266 
 H                    -1.84728  -3.47149  -0.30846 
 H                    -2.80158  -1.30375  -1.14153 
 H                    -1.03724  -1.28336  -1.2184 
 H                    -0.95553  -0.00844   0.94904 
 H                    -2.72204  -0.02412   1.02528 
 H                    -2.82378   1.25399  -1.14181 
 H                    -1.05943   1.26458  -1.21826 
 H                    -0.96891   2.58458   0.94347 
 H                    -2.75024   2.58137   1.00937 
 H                    -1.90684   3.43815  -0.3085 
 
 Add virtual bond connecting atoms H24        and H10        Dist= 4.55D+00.
 Add virtual bond connecting atoms H27        and H7         Dist= 4.55D+00.
 Add virtual bond connecting atoms H27        and H11        Dist= 4.52D+00.
 Add virtual bond connecting atoms H28        and H10        Dist= 4.52D+00.
 Add virtual bond connecting atoms H28        and H14        Dist= 4.52D+00.

 GradGradGradGradGradGradGradGradGradGradGradGradGradGradGradGradGradGrad
 Initialization pass.
                           ----------------------------
                           !    Initial Parameters    !
                           ! (Angstroms and Degrees)  !
 --------------------------                            --------------------------
 ! Name  Definition              Value          Derivative Info.                !
 --------------------------------------------------------------------------------
 ! R1    R(1,2)                  1.5261         calculate D2E/DX2 analytically  !
 ! R2    R(1,6)                  1.1047         calculate D2E/DX2 analytically  !
 ! R3    R(1,7)                  1.1045         calculate D2E/DX2 analytically  !
 ! R4    R(1,8)                  1.1036         calculate D2E/DX2 analytically  !
 ! R5    R(2,3)                  1.5278         calculate D2E/DX2 analytically  !
 ! R6    R(2,9)                  1.1062         calculate D2E/DX2 analytically  !
 ! R7    R(2,10)                 1.1063         calculate D2E/DX2 analytically  !
 ! R8    R(3,4)                  1.5279         calculate D2E/DX2 analytically  !
 ! R9    R(3,11)                 1.1071         calculate D2E/DX2 analytically  !
 ! R10   R(3,12)                 1.1076         calculate D2E/DX2 analytically  !
 ! R11   R(4,5)                  1.5261         calculate D2E/DX2 analytically  !
 ! R12   R(4,13)                 1.1062         calculate D2E/DX2 analytically  !
 ! R13   R(4,14)                 1.1063         calculate D2E/DX2 analytically  !
 ! R14   R(5,15)                 1.1048         calculate D2E/DX2 analytically  !
 ! R15   R(5,16)                 1.1036         calculate D2E/DX2 analytically  !
 ! R16   R(5,17)                 1.1045         calculate D2E/DX2 analytically  !
 ! R17   R(7,27)                 2.4078         calculate D2E/DX2 analytically  !
 ! R18   R(10,24)                2.4072         calculate D2E/DX2 analytically  !
 ! R19   R(10,28)                2.3902         calculate D2E/DX2 analytically  !
 ! R20   R(11,27)                2.3899         calculate D2E/DX2 analytically  !
 ! R21   R(14,28)                2.3893         calculate D2E/DX2 analytically  !
 ! R22   R(18,19)                1.5261         calculate D2E/DX2 analytically  !
 ! R23   R(18,23)                1.1048         calculate D2E/DX2 analytically  !
 ! R24   R(18,24)                1.1045         calculate D2E/DX2 analytically  !
 ! R25   R(18,25)                1.1036         calculate D2E/DX2 analytically  !
 ! R26   R(19,20)                1.5279         calculate D2E/DX2 analytically  !
 ! R27   R(19,26)                1.1062         calculate D2E/DX2 analytically  !
 ! R28   R(19,27)                1.1064         calculate D2E/DX2 analytically  !
 ! R29   R(20,21)                1.5279         calculate D2E/DX2 analytically  !
 ! R30   R(20,28)                1.1071         calculate D2E/DX2 analytically  !
 ! R31   R(20,29)                1.1076         calculate D2E/DX2 analytically  !
 ! R32   R(21,22)                1.5261         calculate D2E/DX2 analytically  !
 ! R33   R(21,30)                1.1063         calculate D2E/DX2 analytically  !
 ! R34   R(21,31)                1.1063         calculate D2E/DX2 analytically  !
 ! R35   R(22,32)                1.1045         calculate D2E/DX2 analytically  !
 ! R36   R(22,33)                1.1047         calculate D2E/DX2 analytically  !
 ! R37   R(22,34)                1.1036         calculate D2E/DX2 analytically  !
 ! A1    A(2,1,6)              111.1029         calculate D2E/DX2 analytically  !
 ! A2    A(2,1,7)              111.1434         calculate D2E/DX2 analytically  !
 ! A3    A(2,1,8)              111.4399         calculate D2E/DX2 analytically  !
 ! A4    A(6,1,7)              107.5772         calculate D2E/DX2 analytically  !
 ! A5    A(6,1,8)              107.7692         calculate D2E/DX2 analytically  !
 ! A6    A(7,1,8)              107.6269         calculate D2E/DX2 analytically  !
 ! A7    A(1,2,3)              113.3766         calculate D2E/DX2 analytically  !
 ! A8    A(1,2,9)              109.528          calculate D2E/DX2 analytically  !
 ! A9    A(1,2,10)             109.4786         calculate D2E/DX2 analytically  !
 ! A10   A(3,2,9)              109.1868         calculate D2E/DX2 analytically  !
 ! A11   A(3,2,10)             109.0794         calculate D2E/DX2 analytically  !
 ! A12   A(9,2,10)             105.92           calculate D2E/DX2 analytically  !
 ! A13   A(2,3,4)              113.664          calculate D2E/DX2 analytically  !
 ! A14   A(2,3,11)             109.1837         calculate D2E/DX2 analytically  !
 ! A15   A(2,3,12)             109.2818         calculate D2E/DX2 analytically  !
 ! A16   A(4,3,11)             109.1789         calculate D2E/DX2 analytically  !
 ! A17   A(4,3,12)             109.2795         calculate D2E/DX2 analytically  !
 ! A18   A(11,3,12)            105.9667         calculate D2E/DX2 analytically  !
 ! A19   A(3,4,5)              113.3774         calculate D2E/DX2 analytically  !
 ! A20   A(3,4,13)             109.185          calculate D2E/DX2 analytically  !
 ! A21   A(3,4,14)             109.0756         calculate D2E/DX2 analytically  !
 ! A22   A(5,4,13)             109.5249         calculate D2E/DX2 analytically  !
 ! A23   A(5,4,14)             109.4909         calculate D2E/DX2 analytically  !
 ! A24   A(13,4,14)            105.9152         calculate D2E/DX2 analytically  !
 ! A25   A(4,5,15)             111.1014         calculate D2E/DX2 analytically  !
 ! A26   A(4,5,16)             111.4395         calculate D2E/DX2 analytically  !
 ! A27   A(4,5,17)             111.1415         calculate D2E/DX2 analytically  !
 ! A28   A(15,5,16)            107.7687         calculate D2E/DX2 analytically  !
 ! A29   A(15,5,17)            107.5819         calculate D2E/DX2 analytically  !
 ! A30   A(16,5,17)            107.6267         calculate D2E/DX2 analytically  !
 ! A31   A(1,7,27)             136.879          calculate D2E/DX2 analytically  !
 ! A32   A(2,10,24)            124.3411         calculate D2E/DX2 analytically  !
 ! A33   A(2,10,28)            125.2638         calculate D2E/DX2 analytically  !
 ! A34   A(24,10,28)            65.4508         calculate D2E/DX2 analytically  !
 ! A35   A(3,11,27)            138.9988         calculate D2E/DX2 analytically  !
 ! A36   A(4,14,28)            125.2851         calculate D2E/DX2 analytically  !
 ! A37   A(19,18,23)           111.1044         calculate D2E/DX2 analytically  !
 ! A38   A(19,18,24)           111.1328         calculate D2E/DX2 analytically  !
 ! A39   A(19,18,25)           111.4445         calculate D2E/DX2 analytically  !
 ! A40   A(23,18,24)           107.5831         calculate D2E/DX2 analytically  !
 ! A41   A(23,18,25)           107.7687         calculate D2E/DX2 analytically  !
 ! A42   A(24,18,25)           107.6263         calculate D2E/DX2 analytically  !
 ! A43   A(18,19,20)           113.3808         calculate D2E/DX2 analytically  !
 ! A44   A(18,19,26)           109.5158         calculate D2E/DX2 analytically  !
 ! A45   A(18,19,27)           109.4892         calculate D2E/DX2 analytically  !
 ! A46   A(20,19,26)           109.186          calculate D2E/DX2 analytically  !
 ! A47   A(20,19,27)           109.0795         calculate D2E/DX2 analytically  !
 ! A48   A(26,19,27)           105.9178         calculate D2E/DX2 analytically  !
 ! A49   A(19,20,21)           113.6574         calculate D2E/DX2 analytically  !
 ! A50   A(19,20,28)           109.1919         calculate D2E/DX2 analytically  !
 ! A51   A(19,20,29)           109.2743         calculate D2E/DX2 analytically  !
 ! A52   A(21,20,28)           109.1827         calculate D2E/DX2 analytically  !
 ! A53   A(21,20,29)           109.2875         calculate D2E/DX2 analytically  !
 ! A54   A(28,20,29)           105.9607         calculate D2E/DX2 analytically  !
 ! A55   A(20,21,22)           113.3754         calculate D2E/DX2 analytically  !
 ! A56   A(20,21,30)           109.1892         calculate D2E/DX2 analytically  !
 ! A57   A(20,21,31)           109.0783         calculate D2E/DX2 analytically  !
 ! A58   A(22,21,30)           109.5272         calculate D2E/DX2 analytically  !
 ! A59   A(22,21,31)           109.485          calculate D2E/DX2 analytically  !
 ! A60   A(30,21,31)           105.9142         calculate D2E/DX2 analytically  !
 ! A61   A(21,22,32)           111.1485         calculate D2E/DX2 analytically  !
 ! A62   A(21,22,33)           111.1031         calculate D2E/DX2 analytically  !
 ! A63   A(21,22,34)           111.4427         calculate D2E/DX2 analytically  !
 ! A64   A(32,22,33)           107.5804         calculate D2E/DX2 analytically  !
 ! A65   A(32,22,34)           107.6212         calculate D2E/DX2 analytically  !
 ! A66   A(33,22,34)           107.763          calculate D2E/DX2 analytically  !
 ! A67   A(10,24,18)           136.8999         calculate D2E/DX2 analytically  !
 ! A68   A(7,27,11)             65.433          calculate D2E/DX2 analytically  !
 ! A69   A(7,27,19)            124.3384         calculate D2E/DX2 analytically  !
 ! A70   A(11,27,19)           125.2573         calculate D2E/DX2 analytically  !
 ! A71   A(10,28,14)            64.4397         calculate D2E/DX2 analytically  !
 ! A72   A(10,28,20)           138.9732         calculate D2E/DX2 analytically  !
 ! A73   A(14,28,20)           138.9742         calculate D2E/DX2 analytically  !
 ! D1    D(6,1,2,3)             60.3915         calculate D2E/DX2 analytically  !
 ! D2    D(6,1,2,9)            -61.8302         calculate D2E/DX2 analytically  !
 ! D3    D(6,1,2,10)          -177.5615         calculate D2E/DX2 analytically  !
 ! D4    D(7,1,2,3)            -59.3652         calculate D2E/DX2 analytically  !
 ! D5    D(7,1,2,9)            178.4131         calculate D2E/DX2 analytically  !
 ! D6    D(7,1,2,10)            62.6819         calculate D2E/DX2 analytically  !
 ! D7    D(8,1,2,3)           -179.4103         calculate D2E/DX2 analytically  !
 ! D8    D(8,1,2,9)             58.368          calculate D2E/DX2 analytically  !
 ! D9    D(8,1,2,10)           -57.3633         calculate D2E/DX2 analytically  !
 ! D10   D(2,1,7,27)            -4.3846         calculate D2E/DX2 analytically  !
 ! D11   D(6,1,7,27)          -126.2178         calculate D2E/DX2 analytically  !
 ! D12   D(8,1,7,27)           117.898          calculate D2E/DX2 analytically  !
 ! D13   D(1,2,3,4)            179.7524         calculate D2E/DX2 analytically  !
 ! D14   D(1,2,3,11)            57.596          calculate D2E/DX2 analytically  !
 ! D15   D(1,2,3,12)           -57.889          calculate D2E/DX2 analytically  !
 ! D16   D(9,2,3,4)            -57.8365         calculate D2E/DX2 analytically  !
 ! D17   D(9,2,3,11)          -179.9928         calculate D2E/DX2 analytically  !
 ! D18   D(9,2,3,12)            64.5222         calculate D2E/DX2 analytically  !
 ! D19   D(10,2,3,4)            57.4832         calculate D2E/DX2 analytically  !
 ! D20   D(10,2,3,11)          -64.6731         calculate D2E/DX2 analytically  !
 ! D21   D(10,2,3,12)          179.8419         calculate D2E/DX2 analytically  !
 ! D22   D(1,2,10,24)          -20.2744         calculate D2E/DX2 analytically  !
 ! D23   D(1,2,10,28)         -102.6212         calculate D2E/DX2 analytically  !
 ! D24   D(3,2,10,24)          104.3128         calculate D2E/DX2 analytically  !
 ! D25   D(3,2,10,28)           21.966          calculate D2E/DX2 analytically  !
 ! D26   D(9,2,10,24)         -138.282          calculate D2E/DX2 analytically  !
 ! D27   D(9,2,10,28)          139.3712         calculate D2E/DX2 analytically  !
 ! D28   D(2,3,4,5)           -179.77           calculate D2E/DX2 analytically  !
 ! D29   D(2,3,4,13)            57.8235         calculate D2E/DX2 analytically  !
 ! D30   D(2,3,4,14)           -57.4873         calculate D2E/DX2 analytically  !
 ! D31   D(11,3,4,5)           -57.611          calculate D2E/DX2 analytically  !
 ! D32   D(11,3,4,13)          179.9825         calculate D2E/DX2 analytically  !
 ! D33   D(11,3,4,14)           64.6717         calculate D2E/DX2 analytically  !
 ! D34   D(12,3,4,5)            57.8701         calculate D2E/DX2 analytically  !
 ! D35   D(12,3,4,13)          -64.5364         calculate D2E/DX2 analytically  !
 ! D36   D(12,3,4,14)         -179.8472         calculate D2E/DX2 analytically  !
 ! D37   D(2,3,11,27)            8.1044         calculate D2E/DX2 analytically  !
 ! D38   D(4,3,11,27)         -116.7127         calculate D2E/DX2 analytically  !
 ! D39   D(12,3,11,27)         125.6984         calculate D2E/DX2 analytically  !
 ! D40   D(3,4,5,15)           -60.3908         calculate D2E/DX2 analytically  !
 ! D41   D(3,4,5,16)           179.4129         calculate D2E/DX2 analytically  !
 ! D42   D(3,4,5,17)            59.3694         calculate D2E/DX2 analytically  !
 ! D43   D(13,4,5,15)           61.8269         calculate D2E/DX2 analytically  !
 ! D44   D(13,4,5,16)          -58.3694         calculate D2E/DX2 analytically  !
 ! D45   D(13,4,5,17)         -178.4129         calculate D2E/DX2 analytically  !
 ! D46   D(14,4,5,15)          177.5575         calculate D2E/DX2 analytically  !
 ! D47   D(14,4,5,16)           57.3612         calculate D2E/DX2 analytically  !
 ! D48   D(14,4,5,17)          -62.6822         calculate D2E/DX2 analytically  !
 ! D49   D(3,4,14,28)          -21.9996         calculate D2E/DX2 analytically  !
 ! D50   D(5,4,14,28)          102.5943         calculate D2E/DX2 analytically  !
 ! D51   D(13,4,14,28)        -139.3981         calculate D2E/DX2 analytically  !
 ! D52   D(1,7,27,11)           40.3039         calculate D2E/DX2 analytically  !
 ! D53   D(1,7,27,19)          -76.8499         calculate D2E/DX2 analytically  !
 ! D54   D(2,10,24,18)         -76.924          calculate D2E/DX2 analytically  !
 ! D55   D(28,10,24,18)         40.2468         calculate D2E/DX2 analytically  !
 ! D56   D(2,10,28,14)         -63.9156         calculate D2E/DX2 analytically  !
 ! D57   D(2,10,28,20)          72.4966         calculate D2E/DX2 analytically  !
 ! D58   D(24,10,28,14)       -179.8017         calculate D2E/DX2 analytically  !
 ! D59   D(24,10,28,20)        -43.3895         calculate D2E/DX2 analytically  !
 ! D60   D(3,11,27,7)          -43.4163         calculate D2E/DX2 analytically  !
 ! D61   D(3,11,27,19)          72.4575         calculate D2E/DX2 analytically  !
 ! D62   D(4,14,28,10)          63.9365         calculate D2E/DX2 analytically  !
 ! D63   D(4,14,28,20)         -72.4746         calculate D2E/DX2 analytically  !
 ! D64   D(23,18,19,20)         60.3502         calculate D2E/DX2 analytically  !
 ! D65   D(23,18,19,26)        -61.8644         calculate D2E/DX2 analytically  !
 ! D66   D(23,18,19,27)       -177.5921         calculate D2E/DX2 analytically  !
 ! D67   D(24,18,19,20)        -59.4078         calculate D2E/DX2 analytically  !
 ! D68   D(24,18,19,26)        178.3777         calculate D2E/DX2 analytically  !
 ! D69   D(24,18,19,27)         62.65           calculate D2E/DX2 analytically  !
 ! D70   D(25,18,19,20)       -179.4481         calculate D2E/DX2 analytically  !
 ! D71   D(25,18,19,26)         58.3373         calculate D2E/DX2 analytically  !
 ! D72   D(25,18,19,27)        -57.3904         calculate D2E/DX2 analytically  !
 ! D73   D(19,18,24,10)         -4.3117         calculate D2E/DX2 analytically  !
 ! D74   D(23,18,24,10)       -126.1441         calculate D2E/DX2 analytically  !
 ! D75   D(25,18,24,10)        117.9696         calculate D2E/DX2 analytically  !
 ! D76   D(18,19,20,21)        179.757          calculate D2E/DX2 analytically  !
 ! D77   D(18,19,20,28)         57.5942         calculate D2E/DX2 analytically  !
 ! D78   D(18,19,20,29)        -57.8841         calculate D2E/DX2 analytically  !
 ! D79   D(26,19,20,21)        -57.8452         calculate D2E/DX2 analytically  !
 ! D80   D(26,19,20,28)        179.992          calculate D2E/DX2 analytically  !
 ! D81   D(26,19,20,29)         64.5137         calculate D2E/DX2 analytically  !
 ! D82   D(27,19,20,21)         57.4714         calculate D2E/DX2 analytically  !
 ! D83   D(27,19,20,28)        -64.6914         calculate D2E/DX2 analytically  !
 ! D84   D(27,19,20,29)        179.8303         calculate D2E/DX2 analytically  !
 ! D85   D(18,19,27,7)         -20.2773         calculate D2E/DX2 analytically  !
 ! D86   D(18,19,27,11)       -102.5944         calculate D2E/DX2 analytically  !
 ! D87   D(20,19,27,7)         104.3222         calculate D2E/DX2 analytically  !
 ! D88   D(20,19,27,11)         22.0051         calculate D2E/DX2 analytically  !
 ! D89   D(26,19,27,7)        -138.2748         calculate D2E/DX2 analytically  !
 ! D90   D(26,19,27,11)        139.4081         calculate D2E/DX2 analytically  !
 ! D91   D(19,20,21,22)       -179.7586         calculate D2E/DX2 analytically  !
 ! D92   D(19,20,21,30)         57.8304         calculate D2E/DX2 analytically  !
 ! D93   D(19,20,21,31)        -57.4829         calculate D2E/DX2 analytically  !
 ! D94   D(28,20,21,22)        -57.5907         calculate D2E/DX2 analytically  !
 ! D95   D(28,20,21,30)        179.9983         calculate D2E/DX2 analytically  !
 ! D96   D(28,20,21,31)         64.6849         calculate D2E/DX2 analytically  !
 ! D97   D(29,20,21,22)         57.8898         calculate D2E/DX2 analytically  !
 ! D98   D(29,20,21,30)        -64.5212         calculate D2E/DX2 analytically  !
 ! D99   D(29,20,21,31)       -179.8345         calculate D2E/DX2 analytically  !
 ! D100  D(19,20,28,10)          8.0956         calculate D2E/DX2 analytically  !
 ! D101  D(19,20,28,14)        116.7297         calculate D2E/DX2 analytically  !
 ! D102  D(21,20,28,10)       -116.7211         calculate D2E/DX2 analytically  !
 ! D103  D(21,20,28,14)         -8.0871         calculate D2E/DX2 analytically  !
 ! D104  D(29,20,28,10)        125.6818         calculate D2E/DX2 analytically  !
 ! D105  D(29,20,28,14)       -125.6841         calculate D2E/DX2 analytically  !
 ! D106  D(20,21,22,32)         59.3572         calculate D2E/DX2 analytically  !
 ! D107  D(20,21,22,33)        -60.407          calculate D2E/DX2 analytically  !
 ! D108  D(20,21,22,34)        179.4006         calculate D2E/DX2 analytically  !
 ! D109  D(30,21,22,32)       -178.4195         calculate D2E/DX2 analytically  !
 ! D110  D(30,21,22,33)         61.8163         calculate D2E/DX2 analytically  !
 ! D111  D(30,21,22,34)        -58.3761         calculate D2E/DX2 analytically  !
 ! D112  D(31,21,22,32)        -62.6922         calculate D2E/DX2 analytically  !
 ! D113  D(31,21,22,33)        177.5436         calculate D2E/DX2 analytically  !
 ! D114  D(31,21,22,34)         57.3512         calculate D2E/DX2 analytically  !
 --------------------------------------------------------------------------------
 Number of steps in this run=    204 maximum allowed number of steps=    204.
 GradGradGradGradGradGradGradGradGradGradGradGradGradGradGradGradGradGrad

                    Distance matrix (angstroms):
                    1          2          3          4          5
     1  C    0.000000
     2  C    1.526103   0.000000
     3  C    2.552153   1.527824   0.000000
     4  C    3.922379   2.557835   1.527876   0.000000
     5  C    5.104309   3.922344   2.552180   1.526070   0.000000
     6  H    1.104732   2.182532   2.828767   4.253462   5.274208
     7  H    1.104512   2.182875   2.821368   4.246211   5.262353
     8  H    1.103557   2.185868   3.511769   4.738387   6.040508
     9  H    2.163655   1.106241   2.160773   2.786840   4.211508
    10  H    2.163093   1.106337   2.159460   2.782454   4.205558
    11  H    2.778742   2.161354   1.107075   2.161339   2.778825
    12  H    2.782752   2.162978   1.107557   2.162994   2.782610
    13  H    4.211553   2.786729   2.160802   1.106249   2.163593
    14  H    4.205457   2.782425   2.159429   1.106301   2.163195
    15  H    5.274179   4.253315   2.828770   2.182505   1.104760
    16  H    6.040517   4.738360   3.511804   2.185839   1.103564
    17  H    5.262341   4.246238   2.821374   2.182795   1.104477
    18  C    3.779901   3.977494   4.564634   5.373201   6.350937
    19  C    3.977619   3.940445   3.984905   4.697238   5.373021
    20  C    4.564892   3.985038   3.789357   3.984336   4.564003
    21  C    5.373519   4.697549   3.984605   3.939433   3.976329
    22  C    6.351151   5.373217   4.564119   3.976180   3.778265
    23  H    4.779964   4.841008   5.446876   6.062603   7.030811
    24  H    3.081454   3.165963   4.029633   4.825643   5.997143
    25  H    3.847213   4.438525   5.095488   6.113066   7.075574
    26  H    4.913217   4.997302   4.920786   5.613240   6.097982
    27  H    3.301449   3.421687   3.306208   4.268688   4.888808
    28  H    4.009610   3.160763   3.095378   3.160088   4.008832
    29  H    5.417745   4.824889   4.782803   4.824184   5.416844
    30  H    6.098530   5.613573   4.920420   4.996255   4.911793
    31  H    4.889018   4.268718   3.305756   3.420640   3.300216
    32  H    5.997368   4.825685   4.029541   3.165106   3.080738
    33  H    7.031739   6.063397   5.446921   4.840293   4.778673
    34  H    7.075185   6.112395   5.094221   4.436404   3.844533
                    6          7          8          9         10
     6  H    0.000000
     7  H    1.782513   0.000000
     8  H    1.783926   1.782130   0.000000
     9  H    2.528924   3.091807   2.511055   0.000000
    10  H    3.091102   2.534297   2.503999   1.766114   0.000000
    11  H    3.151364   2.593121   3.790245   3.074984   2.515602
    12  H    2.605461   3.144100   3.798632   2.517818   3.075408
    13  H    4.441176   4.777484   4.896846   2.557784   3.104253
    14  H    4.778403   4.431465   4.886509   3.104423   2.548259
    15  H    5.210627   5.495604   6.259916   4.440909   4.778406
    16  H    6.259992   6.245978   6.909838   4.896847   4.886594
    17  H    5.495523   5.186282   6.245990   4.777488   4.431691
    18  C    4.780186   3.082110   3.846617   4.913052   3.301074
    19  C    4.841524   3.166510   4.438107   4.997236   3.421433
    20  C    5.447439   4.030307   5.095258   4.920759   3.306221
    21  C    6.063340   4.826097   6.112955   5.613426   4.268901
    22  C    7.031332   5.997528   7.075446   6.098006   4.889058
    23  H    5.817243   4.161194   4.735076   5.698422   4.008909
    24  H    4.160591   2.672102   3.019585   3.987377   2.407206
    25  H    4.735937   3.020738   3.806001   5.370757   3.956069
    26  H    5.699084   3.987873   5.370316   6.071723   4.525505
    27  H    4.009722   2.407769   3.956013   4.525746   3.214815
    28  H    4.918560   3.731733   4.513802   3.984269   2.390197
    29  H    6.374329   4.905319   5.797321   5.682128   3.984905
    30  H    6.767707   5.400617   6.819913   6.588122   5.195901
    31  H    5.417601   4.360163   5.766567   5.195608   4.102003
    32  H    6.658400   5.834510   6.704802   5.399959   4.360112
    33  H    7.809530   6.658916   7.643767   6.767562   5.418004
    34  H    7.643021   6.704788   7.887886   6.819071   5.766426
                   11         12         13         14         15
    11  H    0.000000
    12  H    1.768296   0.000000
    13  H    3.074971   2.517906   0.000000
    14  H    2.515493   3.075359   1.766035   0.000000
    15  H    3.151518   2.605271   2.528823   3.091170   0.000000
    16  H    3.790307   3.798526   2.510989   2.504125   1.783949
    17  H    2.593205   3.143885   3.091714   2.534388   1.782561
    18  C    4.009155   5.417596   6.098168   4.888623   7.031399
    19  C    3.160476   4.824835   5.613237   4.268264   6.063127
    20  C    3.095304   4.782811   4.920088   3.305313   5.446781
    21  C    3.160356   4.824380   4.996209   3.420468   4.840449
    22  C    4.008985   5.416813   4.911566   3.299987   4.778710
    23  H    4.917929   6.373917   6.766841   5.416727   7.808935
    24  H    3.730818   4.904666   5.400128   4.359845   6.658282
    25  H    4.513765   5.797722   6.820040   5.766528   7.643800
    26  H    3.984204   5.682251   6.587898   5.195226   6.767501
    27  H    2.389935   3.984949   5.195734   4.101673   5.417653
    28  H    2.693373   4.174089   3.983604   2.389256   4.917961
    29  H    4.174012   5.817614   5.681406   3.984011   6.373639
    30  H    3.983956   5.681709   6.070676   4.524542   5.697844
    31  H    2.389731   3.984344   4.524705   3.213874   4.008708
    32  H    3.731183   4.904408   3.986157   2.406382   4.160024
    33  H    4.918128   6.373642   5.697579   4.008491   5.816015
    34  H    4.513008   5.796036   5.368388   3.954441   4.733341
                   16         17         18         19         20
    16  H    0.000000
    17  H    1.782106   0.000000
    18  C    7.075014   5.997132   0.000000
    19  C    6.112222   4.825467   1.526077   0.000000
    20  C    5.094100   4.029425   2.552252   1.527896   0.000000
    21  C    4.436549   3.165249   3.922365   2.557783   1.527857
    22  C    3.844544   3.080764   5.104372   3.922326   2.552144
    23  H    7.642494   6.657950   1.104763   2.182550   2.828583
    24  H    6.704545   5.834094   1.104480   2.182693   2.821618
    25  H    7.888021   6.704836   1.103566   2.185910   3.511907
    26  H    6.819057   5.399935   2.163478   1.106242   2.160827
    27  H    5.766199   4.359756   2.163245   1.106389   2.159562
    28  H    4.512798   3.731025   2.778981   2.161518   1.107067
    29  H    5.796094   4.904470   2.782725   2.162949   1.107562
    30  H    5.368603   3.986406   4.211550   2.786752   2.160840
    31  H    3.954648   2.406543   4.205425   2.782343   2.159459
    32  H    3.018362   2.672054   5.262433   4.246241   2.821355
    33  H    4.733283   4.160019   5.274467   4.253479   2.828874
    34  H    3.802817   3.018405   6.040572   4.738356   3.511796
                   21         22         23         24         25
    21  C    0.000000
    22  C    1.526082   0.000000
    23  H    4.253286   5.274041   0.000000
    24  H    4.246289   5.262612   1.782579   0.000000
    25  H    4.738389   6.040579   1.783952   1.782105   0.000000
    26  H    2.786824   4.211551   2.528979   3.091551   2.510726
    27  H    2.782312   4.205412   3.091273   2.534075   2.504409
    28  H    2.161365   2.778675   3.151079   2.593578   3.790684
    29  H    2.163085   2.782843   2.605105   3.144472   3.798479
    30  H    1.106250   2.163633   4.441138   4.777553   4.896753
    31  H    1.106318   2.163142   4.778247   4.431378   4.886593
    32  H    2.182907   1.104495   5.495269   5.186583   6.246183
    33  H    2.182523   1.104741   5.210685   5.496214   6.260118
    34  H    2.185888   1.103561   6.259889   6.246147   6.909900
                   26         27         28         29         30
    26  H    0.000000
    27  H    1.766131   0.000000
    28  H    3.075099   2.515937   0.000000
    29  H    2.517706   3.075444   1.768225   0.000000
    30  H    2.557843   3.104155   3.075023   2.517969   0.000000
    31  H    3.104399   2.548039   2.515666   3.075461   1.766037
    32  H    4.777549   4.431628   2.593054   3.144105   3.091823
    33  H    4.441076   4.778439   3.151462   2.605683   2.528813
    34  H    4.896957   4.886396   3.790171   3.798790   2.511125
                   31         32         33         34
    31  H    0.000000
    32  H    2.534497   0.000000
    33  H    3.091132   1.782543   0.000000
    34  H    2.504037   1.782056   1.783865   0.000000
 Framework group  C1[X(C10H24)]
 Deg. of freedom    96
                         Standard orientation:                         
 ---------------------------------------------------------------------
 Center     Atomic      Atomic             Coordinates (Angstroms)
 Number     Number       Type             X           Y           Z
 ---------------------------------------------------------------------
      1          6           0       -1.884274    2.535575   -0.326115
      2          6           0       -1.913255    1.262004    0.514224
      3          6           0       -1.867215   -0.016516   -0.320948
      4          6           0       -1.889872   -1.295724    0.514229
      5          6           0       -1.838043   -2.568525   -0.326117
      6          1           0       -2.750972    2.580904   -1.009646
      7          1           0       -0.969694    2.584850   -0.943416
      8          1           0       -1.908204    3.438155    0.308404
      9          1           0       -2.824225    1.253714    1.141785
     10          1           0       -1.059802    1.265028    1.218206
     11          1           0       -0.955476   -0.008226   -0.948864
     12          1           0       -2.722053   -0.024350   -1.025130
     13          1           0       -2.800740   -1.303962    1.141954
     14          1           0       -1.036471   -1.283124    1.218111
     15          1           0       -2.703979   -2.629511   -1.009441
     16          1           0       -1.845502   -3.471399    0.308404
     17          1           0       -0.922861   -2.601221   -0.943564
     18          6           0        1.838795    2.568590    0.326045
     19          6           0        1.890479    1.295685   -0.514166
     20          6           0        1.867213    0.016500    0.321066
     21          6           0        1.912797   -1.262000   -0.514222
     22          6           0        1.883367   -2.535588    0.326036
     23          1           0        2.704161    2.629081    1.010138
     24          1           0        0.923069    2.601793    0.942663
     25          1           0        1.847326    3.471467   -0.308462
     26          1           0        2.801592    1.303720   -1.141526
     27          1           0        1.037253    1.283350   -1.218403
     28          1           0        0.955525    0.008425    0.949044
     29          1           0        2.722036    0.024082    1.025278
     30          1           0        2.823765   -1.254027   -1.141807
     31          1           0        1.059415   -1.264592   -1.218261
     32          1           0        0.968883   -2.584588    0.943472
     33          1           0        2.750205   -2.581400    1.009371
     34          1           0        1.906797   -3.438177   -0.308496
 ---------------------------------------------------------------------
 Rotational constants (GHZ):           0.9181949           0.8898113           0.4900227
   188 basis functions,   346 primitive gaussians,   198 cartesian basis functions
    42 alpha electrons       42 beta electrons
       nuclear repulsion energy       577.9625816720 Hartrees.
 NAtoms=   34 NActive=   34 NUniq=   34 SFac= 1.00D+00 NAtFMM=   60 NAOKFM=F Big=F
 Nuclear repulsion after empirical dispersion term =      577.9349510653 Hartrees.
   1 Symmetry operations used in ECPInt.
 ECPInt:  NShTT=    5886 NPrTT=   23638 LenC2=    5826 LenP2D=   17581.
 LDataN:  DoStor=T MaxTD1= 4 Len=   56
 ExpMin= 1.22D-01 ExpMax= 1.24D+03 ExpMxC= 1.86D+02 IAcc=3 IRadAn=         5 AccDes= 0.00D+00
 Harris functional with IExCor= 4639 and IRadAn=       5 diagonalized for initial guess.
 HarFok:  IExCor= 4639 AccDes= 0.00D+00 IRadAn=         5 IDoV= 1 UseB2=F ITyADJ=14
 ICtDFT=  3500011 ScaDFX=  1.000000  1.000000  1.000000  1.000000
 FoFCou: FMM=F IPFlag=           0 FMFlag=      100000 FMFlg1=           0
         NFxFlg=           0 DoJE=T BraDBF=F KetDBF=T FulRan=T
         wScrn=  0.000000 ICntrl=       500 IOpCl=  0 I1Cent=   200000004 NGrid=           0
         NMat0=    1 NMatS0=      1 NMatT0=    0 NMatD0=    1 NMtDS0=    0 NMtDT0=    0
 Petite list used in FoFCou.
     Minimum is close to point  3 DX=  5.72D-02 DF= -5.06D-04 DXR=  8.70D-02 DFR=  7.63D-03 which will be used.
     Minimum is close to point  3 DX=  8.92D-02 DF= -5.95D-05 DXR=  9.02D-02 DFR=  8.18D-03 which will be used.
     Accept linear search using points  1 and  2.
     Accept linear search using points  1 and  2.
     Minimum is close to point  2 DX= -1.89D-04 DF= -3.41D-13 DXR=  1.89D-04 DFR=  3.72D-08 which will be used.
 SCF Done:  E(RwB97XD) =  -395.098422161     a.u. after    6 cycles
            Convg  =    0.9201D-06                    21 Fock formations.
              S**2 =  0.0000                  -V/T =  2.0122
 DoSCS=F DFT=T ScalE2(SS,OS)=  1.000000  1.000000
 NROrb=    188 NOA=    42 NOB=    42 NVA=   146 NVB=   146
   1 Symmetry operations used in ECPInt.
 ECPInt:  NShTT=    5886 NPrTT=   23638 LenC2=    5826 LenP2D=   17581.
 LDataN:  DoStor=T MaxTD1= 5 Len=  102
 Symmetrizing basis deriv contribution to polar:
 IMax=3 JMax=2 DiffMx= 0.00D+00
 Calling FoFCou, ICntrl=  3107 FMM=F I1Cent=   0 AccDes= 0.00D+00.
 End of G2Drv F.D. properties file   721 does not exist.
 End of G2Drv F.D. properties file   722 does not exist.
 End of G2Drv F.D. properties file   788 does not exist.
          IDoAtm=1111111111111111111111111111111111
 End of Minotr F.D. properties file   721 does not exist.
 End of Minotr F.D. properties file   722 does not exist.
 End of Minotr F.D. properties file   788 does not exist.

 **********************************************************************

            Population analysis using the SCF Density.

 **********************************************************************

 Orbital symmetries:
       Occupied  (A) (A) (A) (A) (A) (A) (A) (A) (A) (A) (A) (A)
                 (A) (A) (A) (A) (A) (A) (A) (A) (A) (A) (A) (A)
                 (A) (A) (A) (A) (A) (A) (A) (A) (A) (A) (A) (A)
                 (A) (A) (A) (A) (A) (A)
       Virtual   (A) (A) (A) (A) (A) (A) (A) (A) (A) (A) (A) (A)
                 (A) (A) (A) (A) (A) (A) (A) (A) (A) (A) (A) (A)
                 (A) (A) (A) (A) (A) (A) (A) (A) (A) (A) (A) (A)
                 (A) (A) (A) (A) (A) (A) (A) (A) (A) (A) (A) (A)
                 (A) (A) (A) (A) (A) (A) (A) (A) (A) (A) (A) (A)
                 (A) (A) (A) (A) (A) (A) (A) (A) (A) (A) (A) (A)
                 (A) (A) (A) (A) (A) (A) (A) (A) (A) (A) (A) (A)
                 (A) (A) (A) (A) (A) (A) (A) (A) (A) (A) (A) (A)
                 (A) (A) (A) (A) (A) (A) (A) (A) (A) (A) (A) (A)
                 (A) (A) (A) (A) (A) (A) (A) (A) (A) (A) (A) (A)
                 (A) (A) (A) (A) (A) (A) (A) (A) (A) (A) (A) (A)
                 (A) (A) (A) (A) (A) (A) (A) (A) (A) (A) (A) (A)
                 (A) (A)
 The electronic state is 1-A.
 Alpha  occ. eigenvalues --  -10.28588 -10.28587 -10.28585 -10.28584 -10.28387
 Alpha  occ. eigenvalues --  -10.28385 -10.27886 -10.27886 -10.27885 -10.27885
 Alpha  occ. eigenvalues --   -0.89664  -0.89117  -0.84358  -0.83854  -0.76555
 Alpha  occ. eigenvalues --   -0.76097  -0.68329  -0.68320  -0.66446  -0.65738
 Alpha  occ. eigenvalues --   -0.57781  -0.54958  -0.52917  -0.52679  -0.52289
 Alpha  occ. eigenvalues --   -0.50540  -0.49170  -0.48951  -0.47750  -0.47641
 Alpha  occ. eigenvalues --   -0.46731  -0.45094  -0.43584  -0.43396  -0.41708
 Alpha  occ. eigenvalues --   -0.41181  -0.41145  -0.41044  -0.40100  -0.39857
 Alpha  occ. eigenvalues --   -0.39711  -0.38802
 Alpha virt. eigenvalues --    0.12272   0.13435   0.15089   0.15657   0.16015
 Alpha virt. eigenvalues --    0.17503   0.17750   0.18988   0.19574   0.20842
 Alpha virt. eigenvalues --    0.21213   0.22908   0.22943   0.22985   0.23140
 Alpha virt. eigenvalues --    0.23274   0.23280   0.24207   0.25404   0.27773
 Alpha virt. eigenvalues --    0.28610   0.28997   0.29424   0.29599   0.31077
 Alpha virt. eigenvalues --    0.32590   0.33239   0.33543   0.34569   0.35093
 Alpha virt. eigenvalues --    0.35314   0.37360   0.48222   0.48556   0.50071
 Alpha virt. eigenvalues --    0.50936   0.51314   0.51521   0.52099   0.52216
 Alpha virt. eigenvalues --    0.52935   0.57698   0.58225   0.62046   0.64309
 Alpha virt. eigenvalues --    0.66427   0.67395   0.67717   0.69414   0.70267
 Alpha virt. eigenvalues --    0.70542   0.73410   0.74639   0.75071   0.77027
 Alpha virt. eigenvalues --    0.77138   0.78365   0.78427   0.78793   0.78904
 Alpha virt. eigenvalues --    0.79275   0.79897   0.79922   0.80252   0.80730
 Alpha virt. eigenvalues --    0.80877   0.80968   0.81830   0.82108   0.82306
 Alpha virt. eigenvalues --    0.82617   0.82831   0.84450   0.85240   0.86276
 Alpha virt. eigenvalues --    0.86887   0.87380   0.89296   0.90018   0.90702
 Alpha virt. eigenvalues --    0.91182   0.93319   0.93440   0.94542   0.94606
 Alpha virt. eigenvalues --    1.00613   1.02419   1.06703   1.13244   1.13806
 Alpha virt. eigenvalues --    1.14436   1.16131   1.17912   1.19671   1.21306
 Alpha virt. eigenvalues --    1.26437   1.48251   1.48385   1.56021   1.59294
 Alpha virt. eigenvalues --    1.62030   1.63149   1.79766   1.80524   1.80985
 Alpha virt. eigenvalues --    1.85192   1.91565   1.95526   1.96177   1.97735
 Alpha virt. eigenvalues --    1.99884   2.00057   2.01754   2.02739   2.02915
 Alpha virt. eigenvalues --    2.04117   2.05252   2.05737   2.06953   2.12264
 Alpha virt. eigenvalues --    2.12669   2.18256   2.20811   2.21656   2.22210
 Alpha virt. eigenvalues --    2.25629   2.27920   2.30813   2.31953   2.32504
 Alpha virt. eigenvalues --    2.34377   2.35709   2.40216   2.43422   2.43675
 Alpha virt. eigenvalues --    2.45131   2.48096   2.49189   2.60313   2.61825
 Alpha virt. eigenvalues --    2.62396   2.62567   2.80778   2.80902   2.84359
 Alpha virt. eigenvalues --    2.84827
          Condensed to atoms (all electrons):
 Mulliken charges:
               1
     1  C   -0.320134
     2  C   -0.228334
     3  C   -0.244377
     4  C   -0.228354
     5  C   -0.320118
     6  H    0.114011
     7  H    0.122691
     8  H    0.120247
     9  H    0.100944
    10  H    0.111772
    11  H    0.104770
    12  H    0.097216
    13  H    0.100931
    14  H    0.111769
    15  H    0.114018
    16  H    0.120248
    17  H    0.122696
    18  C   -0.320108
    19  C   -0.228401
    20  C   -0.244365
    21  C   -0.228329
    22  C   -0.320148
    23  H    0.114012
    24  H    0.122691
    25  H    0.120245
    26  H    0.100938
    27  H    0.111786
    28  H    0.104792
    29  H    0.097219
    30  H    0.100945
    31  H    0.111773
    32  H    0.122701
    33  H    0.114014
    34  H    0.120241
 Sum of Mulliken charges =   0.00000
 Mulliken charges with hydrogens summed into heavy atoms:
               1
     1  C    0.036815
     2  C   -0.015617
     3  C   -0.042391
     4  C   -0.015653
     5  C    0.036844
    18  C    0.036839
    19  C   -0.015678
    20  C   -0.042355
    21  C   -0.015612
    22  C    0.036808
 APT charges:
               1
     1  C   -1.100298
     2  C   -0.772062
     3  C   -0.642733
     4  C   -0.771991
     5  C   -1.100179
     6  H    0.560471
     7  H    0.085324
     8  H    0.590374
     9  H    0.563819
    10  H    0.107889
    11  H    0.060232
    12  H    0.511508
    13  H    0.563752
    14  H    0.107833
    15  H    0.560519
    16  H    0.590249
    17  H    0.085296
    18  C   -1.100048
    19  C   -0.772276
    20  C   -0.642792
    21  C   -0.772063
    22  C   -1.100405
    23  H    0.560320
    24  H    0.085115
    25  H    0.590590
    26  H    0.563883
    27  H    0.107915
    28  H    0.060300
    29  H    0.511516
    30  H    0.563811
    31  H    0.107893
    32  H    0.085387
    33  H    0.560599
    34  H    0.590253
 Sum of APT charges =   0.00000
 APT charges with hydrogens summed into heavy atoms:
               1
     1  C    0.135871
     2  C   -0.100355
     3  C   -0.070993
     4  C   -0.100407
     5  C    0.135884
    18  C    0.135977
    19  C   -0.100477
    20  C   -0.070976
    21  C   -0.100359
    22  C    0.135835
 Electronic spatial extent (au):  <R**2>=           2497.5346
 Charge=              0.0000 electrons
 Dipole moment (field-independent basis, Debye):
    X=              0.0001    Y=             -0.0001    Z=              0.0000  Tot=              0.0001
  Exact polarizability:   0.000   0.000   0.000   0.000   0.000   0.000
 Approx polarizability: 113.822   0.036 110.108   0.014  -0.001 111.167
 Evaluate density.
 Using the total density.
 Monte-Carlo method of calculating molar volume:
 based on  0.001 e/bohr**3 density envelope.
 Number of points per bohr**3 =  100 CutOff= 1.00D-04
 Using the SCF density.
 There are      1903 points.  Will hold      1903 in memory.
 LenV=  1048154127 MDV=  1048576000.
 Box volume = 6892.887 fraction occupied=0.262
 Integrated density= 6.7371116812242207D+01 error=-1.6628883187757793D+01
 Molar volume = 1807.436 bohr**3/mol (161.294 cm**3/mol)
 Recommended a0 for SCRF calculation =  4.90 angstrom (  9.26 bohr)
   1 Symmetry operations used in ECPInt.
 ECPInt:  NShTT=    5886 NPrTT=   23638 LenC2=    5826 LenP2D=   17581.
 LDataN:  DoStor=T MaxTD1= 6 Len=  172
 Calling FoFJK, ICntrl=    100147 FMM=F ISym2X=0 I1Cent= 0 IOpClX= 0 NMat=1 NMatS=1 NMatT=0.
 FormGI is forming the generalized inverse of G from B-inverse, IUseBI=4.

 GradGradGradGradGradGradGradGradGradGradGradGradGradGradGradGradGradGrad
 Internal  Forces:  Max     0.000026565 RMS     0.000006338
 Step number   1 out of a maximum of  204
 All quantities printed in internal units (Hartrees-Bohrs-Radians)
 Mixed Optimization -- En-DIIS/RFO-DIIS
 Second derivative matrix not updated -- analytic derivatives used.
 ITU=  0
     Eigenvalues ---    0.00043   0.00050   0.00086   0.00092   0.00120
     Eigenvalues ---    0.00143   0.00169   0.00192   0.00233   0.00260
     Eigenvalues ---    0.00271   0.00312   0.00529   0.00724   0.01038
     Eigenvalues ---    0.01249   0.01413   0.01991   0.02357   0.02601
     Eigenvalues ---    0.02675   0.03078   0.03318   0.03532   0.03553
     Eigenvalues ---    0.03703   0.03798   0.03842   0.03968   0.04097
     Eigenvalues ---    0.04119   0.04290   0.04411   0.04507   0.04625
     Eigenvalues ---    0.04654   0.04674   0.04734   0.04834   0.05064
     Eigenvalues ---    0.05248   0.06530   0.06852   0.07475   0.07575
     Eigenvalues ---    0.07902   0.08489   0.08599   0.09287   0.09721
     Eigenvalues ---    0.10615   0.10786   0.11002   0.11618   0.12042
     Eigenvalues ---    0.12502   0.12545   0.13164   0.14057   0.14940
     Eigenvalues ---    0.15686   0.16149   0.17968   0.21345   0.22873
     Eigenvalues ---    0.23658   0.25779   0.26781   0.27535   0.27981
     Eigenvalues ---    0.28521   0.29120   0.29829   0.30424   0.30923
     Eigenvalues ---    0.31602   0.31848   0.32735   0.32796   0.32901
     Eigenvalues ---    0.33054   0.33065   0.33146   0.33452   0.33557
     Eigenvalues ---    0.33654   0.33696   0.33706   0.33717   0.33773
     Eigenvalues ---    0.33888   0.33930   0.34050   0.34081   0.34213
     Eigenvalues ---    0.34254
 Linear search not attempted -- first point.
 Iteration  1 RMS(Cart)=  0.00040882 RMS(Int)=  0.00000011
 Iteration  2 RMS(Cart)=  0.00000014 RMS(Int)=  0.00000004
 Variable       Old X    -DE/DX   Delta X   Delta X   Delta X     New X
                                 (Linear)    (Quad)   (Total)
    R1        2.88392  -0.00002   0.00000  -0.00007  -0.00007   2.88385
    R2        2.08764   0.00001   0.00000   0.00003   0.00003   2.08767
    R3        2.08722  -0.00001   0.00000  -0.00006  -0.00006   2.08717
    R4        2.08542   0.00000   0.00000   0.00001   0.00001   2.08543
    R5        2.88717   0.00002   0.00000   0.00010   0.00010   2.88727
    R6        2.09049  -0.00000   0.00000  -0.00000  -0.00000   2.09049
    R7        2.09067   0.00000   0.00000   0.00002   0.00002   2.09069
    R8        2.88727   0.00000   0.00000  -0.00000  -0.00000   2.88727
    R9        2.09207  -0.00001   0.00000  -0.00004  -0.00004   2.09203
   R10        2.09298  -0.00001   0.00000  -0.00002  -0.00002   2.09296
   R11        2.88385   0.00000   0.00000  -0.00000  -0.00000   2.88385
   R12        2.09051  -0.00001   0.00000  -0.00002  -0.00002   2.09049
   R13        2.09061   0.00003   0.00000   0.00010   0.00010   2.09070
   R14        2.08769  -0.00001   0.00000  -0.00003  -0.00003   2.08767
   R15        2.08543  -0.00000   0.00000  -0.00000  -0.00000   2.08543
   R16        2.08716   0.00000   0.00000   0.00001   0.00001   2.08717
   R17        4.55002   0.00000   0.00000  -0.00167  -0.00167   4.54835
   R18        4.54896  -0.00001   0.00000   0.00025   0.00025   4.54921
   R19        4.51682   0.00000   0.00000  -0.00037  -0.00037   4.51644
   R20        4.51632   0.00000   0.00000  -0.00045  -0.00045   4.51587
   R21        4.51504   0.00000   0.00000   0.00092   0.00092   4.51596
   R22        2.88387  -0.00000   0.00000  -0.00002  -0.00002   2.88385
   R23        2.08770  -0.00001   0.00000  -0.00003  -0.00003   2.08767
   R24        2.08716  -0.00001   0.00000   0.00000   0.00000   2.08717
   R25        2.08544  -0.00000   0.00000  -0.00001  -0.00001   2.08543
   R26        2.88731  -0.00001   0.00000  -0.00004  -0.00004   2.88727
   R27        2.09050  -0.00000   0.00000  -0.00001  -0.00001   2.09049
   R28        2.09077  -0.00002   0.00000  -0.00007  -0.00007   2.09070
   R29        2.88723   0.00001   0.00000   0.00003   0.00003   2.88727
   R30        2.09205   0.00000   0.00000  -0.00002  -0.00002   2.09203
   R31        2.09299  -0.00001   0.00000  -0.00003  -0.00003   2.09296
   R32        2.88388  -0.00001   0.00000  -0.00003  -0.00003   2.88385
   R33        2.09051  -0.00001   0.00000  -0.00002  -0.00002   2.09049
   R34        2.09064   0.00002   0.00000   0.00005   0.00005   2.09069
   R35        2.08719  -0.00001   0.00000  -0.00003  -0.00003   2.08717
   R36        2.08766   0.00001   0.00000   0.00002   0.00002   2.08767
   R37        2.08543   0.00000   0.00000  -0.00000  -0.00000   2.08543
    A1        1.93911  -0.00000   0.00000  -0.00004  -0.00004   1.93907
    A2        1.93982  -0.00000   0.00000   0.00000   0.00000   1.93982
    A3        1.94499   0.00001   0.00000   0.00006   0.00006   1.94505
    A4        1.87758   0.00000   0.00000   0.00007   0.00007   1.87765
    A5        1.88093  -0.00000   0.00000  -0.00002  -0.00002   1.88091
    A6        1.87844  -0.00000   0.00000  -0.00007  -0.00007   1.87838
    A7        1.97880   0.00000   0.00000   0.00009   0.00009   1.97888
    A8        1.91162  -0.00000   0.00000  -0.00008  -0.00008   1.91154
    A9        1.91076   0.00000   0.00000   0.00017   0.00017   1.91093
   A10        1.90567   0.00000   0.00000  -0.00001  -0.00001   1.90566
   A11        1.90380   0.00000   0.00000  -0.00008  -0.00008   1.90371
   A12        1.84865  -0.00000   0.00000  -0.00010  -0.00010   1.84856
   A13        1.98381  -0.00001   0.00000  -0.00016  -0.00016   1.98365
   A14        1.90561   0.00000   0.00000   0.00003   0.00003   1.90565
   A15        1.90733   0.00000   0.00000   0.00001   0.00001   1.90734
   A16        1.90553   0.00001   0.00000   0.00014   0.00014   1.90567
   A17        1.90729   0.00000   0.00000   0.00005   0.00005   1.90734
   A18        1.84947  -0.00000   0.00000  -0.00007  -0.00007   1.84940
   A19        1.97881   0.00001   0.00000   0.00009   0.00009   1.97890
   A20        1.90564  -0.00000   0.00000  -0.00001  -0.00001   1.90563
   A21        1.90373  -0.00000   0.00000   0.00000   0.00000   1.90373
   A22        1.91157  -0.00000   0.00000  -0.00003  -0.00003   1.91154
   A23        1.91098  -0.00001   0.00000  -0.00005  -0.00005   1.91093
   A24        1.84857   0.00000   0.00000  -0.00002  -0.00002   1.84855
   A25        1.93909  -0.00001   0.00000  -0.00002  -0.00002   1.93906
   A26        1.94499   0.00001   0.00000   0.00006   0.00006   1.94505
   A27        1.93979   0.00001   0.00000   0.00006   0.00006   1.93985
   A28        1.88092  -0.00000   0.00000  -0.00002  -0.00002   1.88090
   A29        1.87766  -0.00000   0.00000  -0.00002  -0.00002   1.87763
   A30        1.87844  -0.00001   0.00000  -0.00007  -0.00007   1.87838
   A31        2.38899   0.00001   0.00000   0.00012   0.00012   2.38911
   A32        2.17016  -0.00001   0.00000  -0.00054  -0.00054   2.16962
   A33        2.18627  -0.00000   0.00000   0.00011   0.00011   2.18638
   A34        1.14233   0.00000   0.00000  -0.00006  -0.00006   1.14227
   A35        2.42599  -0.00000   0.00000  -0.00026  -0.00026   2.42572
   A36        2.18664  -0.00000   0.00000  -0.00013  -0.00013   2.18650
   A37        1.93914  -0.00001   0.00000  -0.00007  -0.00007   1.93906
   A38        1.93963   0.00002   0.00000   0.00022   0.00021   1.93985
   A39        1.94507  -0.00000   0.00000  -0.00003  -0.00003   1.94505
   A40        1.87768  -0.00000   0.00000  -0.00005  -0.00005   1.87763
   A41        1.88092   0.00000   0.00000  -0.00002  -0.00002   1.88090
   A42        1.87843  -0.00001   0.00000  -0.00006  -0.00006   1.87838
   A43        1.97887   0.00000   0.00000   0.00003   0.00003   1.97890
   A44        1.91141   0.00001   0.00000   0.00013   0.00013   1.91154
   A45        1.91095  -0.00001   0.00000  -0.00002  -0.00002   1.91093
   A46        1.90565  -0.00001   0.00000  -0.00002  -0.00002   1.90563
   A47        1.90380   0.00001   0.00000  -0.00006  -0.00006   1.90373
   A48        1.84861  -0.00000   0.00000  -0.00007  -0.00007   1.84855
   A49        1.98370  -0.00001   0.00000  -0.00004  -0.00004   1.98365
   A50        1.90576  -0.00001   0.00000  -0.00009  -0.00009   1.90567
   A51        1.90720   0.00001   0.00000   0.00014   0.00014   1.90734
   A52        1.90560   0.00001   0.00000   0.00005   0.00005   1.90564
   A53        1.90743  -0.00001   0.00000  -0.00009  -0.00009   1.90734
   A54        1.84936  -0.00000   0.00000   0.00004   0.00004   1.84940
   A55        1.97877   0.00002   0.00000   0.00011   0.00011   1.97888
   A56        1.90571  -0.00001   0.00000  -0.00005  -0.00005   1.90566
   A57        1.90377  -0.00001   0.00000  -0.00006  -0.00006   1.90371
   A58        1.91161  -0.00001   0.00000  -0.00007  -0.00007   1.91154
   A59        1.91087   0.00000   0.00000   0.00006   0.00006   1.91093
   A60        1.84855   0.00000   0.00000   0.00000   0.00000   1.84856
   A61        1.93991  -0.00001   0.00000  -0.00009  -0.00009   1.93982
   A62        1.93912  -0.00001   0.00000  -0.00005  -0.00005   1.93907
   A63        1.94504   0.00000   0.00000   0.00001   0.00001   1.94505
   A64        1.87763   0.00001   0.00000   0.00002   0.00002   1.87765
   A65        1.87834   0.00000   0.00000   0.00003   0.00003   1.87838
   A66        1.88082   0.00001   0.00000   0.00009   0.00009   1.88091
   A67        2.38935  -0.00002   0.00000  -0.00037  -0.00037   2.38898
   A68        1.14202  -0.00000   0.00000   0.00032   0.00032   1.14234
   A69        2.17012  -0.00000   0.00000  -0.00034  -0.00034   2.16977
   A70        2.18615   0.00001   0.00000   0.00037   0.00037   2.18652
   A71        1.12469  -0.00000   0.00000  -0.00038  -0.00038   1.12431
   A72        2.42554   0.00000   0.00000   0.00014   0.00014   2.42568
   A73        2.42556   0.00000   0.00000   0.00017   0.00017   2.42572
    D1        1.05403   0.00000   0.00000   0.00009   0.00009   1.05412
    D2       -1.07914   0.00000   0.00000   0.00010   0.00010  -1.07904
    D3       -3.09903   0.00000   0.00000   0.00016   0.00016  -3.09887
    D4       -1.03612   0.00000   0.00000   0.00002   0.00002  -1.03609
    D5        3.11390  -0.00000   0.00000   0.00004   0.00004   3.11393
    D6        1.09401   0.00000   0.00000   0.00010   0.00010   1.09411
    D7       -3.13130   0.00000   0.00000   0.00007   0.00007  -3.13123
    D8        1.01871   0.00000   0.00000   0.00008   0.00008   1.01880
    D9       -1.00118   0.00000   0.00000   0.00015   0.00015  -1.00103
   D10       -0.07653   0.00000   0.00000   0.00017   0.00017  -0.07635
   D11       -2.20292   0.00000   0.00000   0.00018   0.00018  -2.20274
   D12        2.05771   0.00000   0.00000   0.00020   0.00020   2.05791
   D13        3.13727   0.00000   0.00000  -0.00019  -0.00019   3.13708
   D14        1.00524   0.00000   0.00000  -0.00028  -0.00028   1.00495
   D15       -1.01035   0.00000   0.00000  -0.00023  -0.00023  -1.01058
   D16       -1.00944   0.00000   0.00000  -0.00024  -0.00024  -1.00968
   D17       -3.14147  -0.00000   0.00000  -0.00034  -0.00034   3.14138
   D18        1.12612   0.00000   0.00000  -0.00028  -0.00028   1.12585
   D19        1.00327   0.00000   0.00000  -0.00041  -0.00041   1.00286
   D20       -1.12876  -0.00000   0.00000  -0.00050  -0.00050  -1.12926
   D21        3.13883   0.00000   0.00000  -0.00045  -0.00045   3.13839
   D22       -0.35386   0.00000   0.00000   0.00038   0.00038  -0.35347
   D23       -1.79108   0.00000   0.00000   0.00073   0.00073  -1.79035
   D24        1.82060   0.00000   0.00000   0.00055   0.00055   1.82116
   D25        0.38338   0.00000   0.00000   0.00090   0.00090   0.38428
   D26       -2.41348   0.00001   0.00000   0.00045   0.00045  -2.41303
   D27        2.43249   0.00001   0.00000   0.00079   0.00079   2.43328
   D28       -3.13758   0.00000   0.00000   0.00028   0.00028  -3.13730
   D29        1.00921  -0.00000   0.00000   0.00026   0.00026   1.00947
   D30       -1.00334  -0.00000   0.00000   0.00028   0.00028  -1.00306
   D31       -1.00550   0.00000   0.00000   0.00031   0.00031  -1.00519
   D32        3.14129  -0.00000   0.00000   0.00029   0.00029   3.14157
   D33        1.12873  -0.00000   0.00000   0.00031   0.00031   1.12905
   D34        1.01002   0.00000   0.00000   0.00033   0.00033   1.01036
   D35       -1.12637   0.00000   0.00000   0.00031   0.00031  -1.12606
   D36       -3.13893  -0.00000   0.00000   0.00034   0.00034  -3.13859
   D37        0.14145   0.00000   0.00000  -0.00004  -0.00004   0.14141
   D38       -2.03702   0.00001   0.00000   0.00005   0.00005  -2.03697
   D39        2.19385   0.00000   0.00000  -0.00005  -0.00005   2.19380
   D40       -1.05402  -0.00000   0.00000   0.00009   0.00009  -1.05393
   D41        3.13135  -0.00000   0.00000   0.00009   0.00009   3.13143
   D42        1.03619  -0.00000   0.00000   0.00009   0.00009   1.03628
   D43        1.07908   0.00000   0.00000   0.00012   0.00012   1.07921
   D44       -1.01874   0.00000   0.00000   0.00012   0.00012  -1.01862
   D45       -3.11389   0.00000   0.00000   0.00012   0.00012  -3.11377
   D46        3.09896  -0.00000   0.00000   0.00006   0.00006   3.09902
   D47        1.00114  -0.00000   0.00000   0.00005   0.00005   1.00120
   D48       -1.09401  -0.00000   0.00000   0.00005   0.00005  -1.09396
   D49       -0.38396   0.00000   0.00000  -0.00017  -0.00017  -0.38413
   D50        1.79061   0.00001   0.00000  -0.00008  -0.00008   1.79053
   D51       -2.43296   0.00000   0.00000  -0.00015  -0.00015  -2.43310
   D52        0.70344   0.00000   0.00000  -0.00016  -0.00016   0.70327
   D53       -1.34128  -0.00000   0.00000  -0.00084  -0.00084  -1.34212
   D54       -1.34258  -0.00000   0.00000   0.00063   0.00063  -1.34194
   D55        0.70244  -0.00000   0.00000   0.00083   0.00083   0.70327
   D56       -1.11554  -0.00001   0.00000  -0.00084  -0.00084  -1.11638
   D57        1.26530  -0.00001   0.00000  -0.00095  -0.00095   1.26436
   D58       -3.13813  -0.00000   0.00000  -0.00012  -0.00012  -3.13825
   D59       -0.75729  -0.00000   0.00000  -0.00023  -0.00023  -0.75752
   D60       -0.75776   0.00000   0.00000   0.00015   0.00015  -0.75760
   D61        1.26462  -0.00000   0.00000  -0.00015  -0.00015   1.26447
   D62        1.11590   0.00001   0.00000   0.00036   0.00036   1.11626
   D63       -1.26492   0.00001   0.00000   0.00049   0.00049  -1.26443
   D64        1.05331   0.00000   0.00000   0.00065   0.00065   1.05396
   D65       -1.07974   0.00000   0.00000   0.00056   0.00056  -1.07918
   D66       -3.09957   0.00000   0.00000   0.00058   0.00058  -3.09899
   D67       -1.03686   0.00000   0.00000   0.00061   0.00061  -1.03625
   D68        3.11328   0.00000   0.00000   0.00052   0.00052   3.11380
   D69        1.09345   0.00000   0.00000   0.00054   0.00054   1.09399
   D70       -3.13196  -0.00000   0.00000   0.00056   0.00056  -3.13140
   D71        1.01818  -0.00000   0.00000   0.00047   0.00047   1.01865
   D72       -1.00165   0.00000   0.00000   0.00048   0.00048  -1.00117
   D73       -0.07525  -0.00000   0.00000  -0.00108  -0.00108  -0.07634
   D74       -2.20163  -0.00000   0.00000  -0.00110  -0.00110  -2.20272
   D75        2.05896   0.00000   0.00000  -0.00102  -0.00102   2.05794
   D76        3.13735   0.00000   0.00000  -0.00003  -0.00003   3.13732
   D77        1.00521  -0.00000   0.00000   0.00000   0.00000   1.00521
   D78       -1.01027  -0.00001   0.00000  -0.00007  -0.00007  -1.01034
   D79       -1.00959   0.00001   0.00000   0.00014   0.00014  -1.00945
   D80        3.14145   0.00000   0.00000   0.00018   0.00018  -3.14156
   D81        1.12598   0.00000   0.00000   0.00010   0.00010   1.12608
   D82        1.00307   0.00001   0.00000   0.00001   0.00001   1.00308
   D83       -1.12908   0.00000   0.00000   0.00005   0.00005  -1.12903
   D84        3.13863  -0.00000   0.00000  -0.00003  -0.00003   3.13861
   D85       -0.35391   0.00000   0.00000   0.00050   0.00050  -0.35341
   D86       -1.79061   0.00000   0.00000   0.00006   0.00006  -1.79055
   D87        1.82077   0.00000   0.00000   0.00049   0.00049   1.82126
   D88        0.38406   0.00000   0.00000   0.00005   0.00005   0.38411
   D89       -2.41335  -0.00000   0.00000   0.00039   0.00039  -2.41296
   D90        2.43313  -0.00001   0.00000  -0.00005  -0.00005   2.43308
   D91       -3.13738  -0.00000   0.00000   0.00032   0.00032  -3.13706
   D92        1.00933   0.00000   0.00000   0.00036   0.00036   1.00969
   D93       -1.00327   0.00001   0.00000   0.00042   0.00042  -1.00285
   D94       -1.00515  -0.00000   0.00000   0.00021   0.00021  -1.00494
   D95        3.14156  -0.00000   0.00000   0.00025   0.00025  -3.14137
   D96        1.12897   0.00000   0.00000   0.00031   0.00031   1.12928
   D97        1.01037  -0.00000   0.00000   0.00023   0.00023   1.01059
   D98       -1.12611  -0.00000   0.00000   0.00027   0.00027  -1.12583
   D99       -3.13870   0.00000   0.00000   0.00033   0.00033  -3.13837
   D100       0.14130  -0.00000   0.00000  -0.00003  -0.00003   0.14126
   D101       2.03732  -0.00000   0.00000  -0.00038  -0.00038   2.03694
   D102      -2.03717  -0.00000   0.00000   0.00005   0.00005  -2.03712
   D103      -0.14115   0.00000   0.00000  -0.00030  -0.00030  -0.14145
   D104       2.19356   0.00000   0.00000   0.00011   0.00011   2.19367
   D105      -2.19360   0.00001   0.00000  -0.00024  -0.00024  -2.19384
   D106       1.03598  -0.00000   0.00000   0.00013   0.00013   1.03611
   D107      -1.05430   0.00000   0.00000   0.00020   0.00020  -1.05410
   D108       3.13113  -0.00000   0.00000   0.00011   0.00011   3.13124
   D109      -3.11401   0.00000   0.00000   0.00009   0.00009  -3.11392
   D110       1.07890   0.00000   0.00000   0.00016   0.00016   1.07906
   D111      -1.01886  -0.00000   0.00000   0.00007   0.00007  -1.01878
   D112      -1.09418  -0.00000   0.00000   0.00009   0.00009  -1.09409
   D113       3.09872   0.00000   0.00000   0.00016   0.00016   3.09888
   D114       1.00097  -0.00000   0.00000   0.00007   0.00007   1.00104
         Item               Value     Threshold  Converged?
 Maximum Force            0.000027     0.000015     NO 
 RMS     Force            0.000006     0.000010     YES
 Maximum Displacement     0.002510     0.000060     NO 
 RMS     Displacement     0.000409     0.000040     NO 
 GradGradGradGradGradGradGradGradGradGradGradGradGradGradGradGradGradGrad

                    Distance matrix (angstroms):
                    1          2          3          4          5
     1  C    0.000000
     2  C    1.526067   0.000000
     3  C    2.552239   1.527875   0.000000
     4  C    3.922341   2.557743   1.527876   0.000000
     5  C    5.104472   3.922354   2.552258   1.526069   0.000000
     6  H    1.104749   2.182481   2.828868   4.253530   5.274583
     7  H    1.104481   2.182821   2.821441   4.246161   5.262488
     8  H    1.103561   2.185878   3.511870   4.738320   6.040616
     9  H    2.163563   1.106240   2.160809   2.786810   4.211579
    10  H    2.163194   1.106347   2.159450   2.782072   4.205207
    11  H    2.778752   2.161406   1.107054   2.161426   2.778905
    12  H    2.782977   2.163023   1.107545   2.163025   2.782901
    13  H    4.211545   2.786689   2.160788   1.106239   2.163564
    14  H    4.205215   2.782182   2.159469   1.106352   2.163196
    15  H    5.274497   4.253424   2.828804   2.182479   1.104747
    16  H    6.040612   4.738325   3.511885   2.185880   1.103562
    17  H    5.262607   4.246325   2.821568   2.182842   1.104481
    18  C    3.778613   3.976879   4.564359   5.373142   6.350929
    19  C    3.976670   3.939982   3.984729   4.697296   5.373124
    20  C    4.564294   3.984864   3.789531   3.984753   4.564366
    21  C    5.373166   4.697510   3.984871   3.940005   3.976886
    22  C    6.350823   5.373162   4.564303   3.976697   3.778634
    23  H    4.778900   4.840826   5.447020   6.063103   7.031266
    24  H    3.080791   3.165722   4.029743   4.825694   5.997254
    25  H    3.845199   4.437306   5.094607   6.112482   7.075125
    26  H    4.912181   4.996787   4.920511   5.613272   6.098057
    27  H    3.300627   3.421142   3.305817   4.268463   4.888676
    28  H    4.009134   3.160658   3.095621   3.160501   4.009117
    29  H    5.417096   4.824740   4.783006   4.824656   5.417219
    30  H    6.098203   5.613565   4.920750   4.996863   4.912469
    31  H    4.888799   4.268786   3.306099   3.421352   3.300995
    32  H    5.996996   4.825552   4.029534   3.165421   3.080714
    33  H    7.031186   6.063138   5.446969   4.840615   4.778884
    34  H    7.075008   6.112470   5.094522   4.437090   3.845158
                    6          7          8          9         10
     6  H    0.000000
     7  H    1.782549   0.000000
     8  H    1.783931   1.782064   0.000000
     9  H    2.528755   3.091711   2.511031   0.000000
    10  H    3.091164   2.534440   2.504117   1.766055   0.000000
    11  H    3.151333   2.593149   3.790288   3.075012   2.515794
    12  H    2.605726   3.144354   3.798856   2.517750   3.075405
    13  H    4.441229   4.777455   4.896840   2.557806   3.103918
    14  H    4.778292   4.431241   4.886174   3.104249   2.547646
    15  H    5.211177   5.495855   6.260225   4.441096   4.778179
    16  H    6.260298   6.246060   6.909856   4.896868   4.886157
    17  H    5.496035   5.186535   6.246172   4.777620   4.431435
    18  C    4.778863   3.080695   3.845127   4.912465   3.301000
    19  C    4.840592   3.165397   4.437057   4.996842   3.421337
    20  C    5.446968   4.029528   5.094501   4.920744   3.306090
    21  C    6.063155   4.825559   6.112462   5.613564   4.268780
    22  C    7.031200   5.997000   7.074994   6.098197   4.888784
    23  H    5.816102   4.159877   4.733740   5.698358   4.009260
    24  H    4.159955   2.671528   3.018624   3.987067   2.407339
    25  H    4.733743   3.018652   3.803807   5.369479   3.955619
    26  H    5.698004   3.986667   5.369183   6.071275   4.525399
    27  H    4.008876   2.406884   3.955218   4.525215   3.214688
    28  H    4.918231   3.731102   4.513181   3.984345   2.390000
    29  H    6.373800   4.904470   5.796468   5.682167   3.984793
    30  H    6.767552   5.400124   6.819405   6.588259   5.195846
    31  H    5.417540   4.359736   5.766250   5.195850   4.102002
    32  H    6.658200   5.833933   6.704367   5.400115   4.359720
    33  H    7.809183   6.658193   7.643038   6.767533   5.417512
    34  H    7.643069   6.704383   7.887586   6.819410   5.766244
                   11         12         13         14         15
    11  H    0.000000
    12  H    1.768224   0.000000
    13  H    3.075011   2.517810   0.000000
    14  H    2.515753   3.075423   1.766055   0.000000
    15  H    3.151410   2.605555   2.528813   3.091166   0.000000
    16  H    3.790458   3.798759   2.510966   2.504176   1.783924
    17  H    2.593437   3.144367   3.091723   2.534406   1.782537
    18  C    4.009102   5.417198   6.098087   4.888715   7.031237
    19  C    3.160469   4.824619   5.613280   4.268490   6.063050
    20  C    3.095611   4.783002   4.920547   3.305863   5.447001
    21  C    3.160658   4.824746   4.996815   3.421183   4.840804
    22  C    4.009136   5.417111   4.912216   3.300663   4.778905
    23  H    4.918177   6.373885   6.767407   5.417430   7.809202
    24  H    3.731217   4.904725   5.400139   4.359840   6.658383
    25  H    4.513167   5.796626   6.819355   5.766204   7.643116
    26  H    3.984043   5.681916   6.587919   5.195492   6.767332
    27  H    2.389695   3.984554   5.195466   4.101613   5.417352
    28  H    2.693746   4.174334   3.984087   2.389742   4.918176
    29  H    4.174326   5.817820   5.681968   3.984612   6.373882
    30  H    3.984346   5.682170   6.071301   4.525256   5.698327
    31  H    2.390005   3.984801   4.525415   3.214720   4.009222
    32  H    3.731098   4.904483   3.986702   2.406913   4.159889
    33  H    4.918225   6.373808   5.698037   4.008906   5.816111
    34  H    4.513196   5.796498   5.369220   3.955254   4.733755
                   16         17         18         19         20
    16  H    0.000000
    17  H    1.782065   0.000000
    18  C    7.075155   5.997239   0.000000
    19  C    6.112497   4.825666   1.526069   0.000000
    20  C    5.094650   4.029725   2.552257   1.527876   0.000000
    21  C    4.437349   3.165704   3.922354   2.557743   1.527875
    22  C    3.845261   3.080774   5.104471   3.922341   2.552239
    23  H    7.643183   6.658384   1.104747   2.182478   2.828816
    24  H    6.704659   5.834328   1.104481   2.182842   2.821555
    25  H    7.887750   6.704627   1.103562   2.185880   3.511884
    26  H    6.819364   5.400098   2.163564   1.106239   2.160789
    27  H    5.766192   4.359807   2.163197   1.106352   2.159469
    28  H    4.513211   3.731204   2.778911   2.161426   1.107054
    29  H    5.796689   4.904712   2.782894   2.163026   1.107545
    30  H    5.369519   3.987050   4.211579   2.786818   2.160809
    31  H    3.955642   2.407322   4.205209   2.782067   2.159450
    32  H    3.018714   2.671501   5.262492   4.246159   2.821445
    33  H    4.733810   4.159937   5.274575   4.253531   2.828862
    34  H    3.803874   3.018623   6.040615   4.738320   3.511870
                   21         22         23         24         25
    21  C    0.000000
    22  C    1.526067   0.000000
    23  H    4.253427   5.274509   0.000000
    24  H    4.246321   5.262591   1.782538   0.000000
    25  H    4.738326   6.040611   1.783924   1.782065   0.000000
    26  H    2.786684   4.211546   2.528801   3.091724   2.510976
    27  H    2.782190   4.205214   3.091165   2.534418   2.504167
    28  H    2.161405   2.778744   3.151443   2.593429   3.790456
    29  H    2.163022   2.782982   2.605562   3.144334   3.798761
    30  H    1.106240   2.163564   4.441085   4.777617   4.896877
    31  H    1.106347   2.163194   4.778183   4.431447   4.886151
    32  H    2.182821   1.104481   5.495884   5.186525   6.246056
    33  H    2.182481   1.104749   5.211182   5.496001   6.260298
    34  H    2.185879   1.103561   6.260231   6.246164   6.909856
                   26         27         28         29         30
    26  H    0.000000
    27  H    1.766055   0.000000
    28  H    3.075012   2.515744   0.000000
    29  H    2.517819   3.075422   1.768225   0.000000
    30  H    2.557807   3.104272   3.075012   2.517744   0.000000
    31  H    3.103897   2.547648   2.515800   3.075405   1.766055
    32  H    4.777454   4.431229   2.593146   3.144370   3.091711
    33  H    4.441241   4.778292   3.151313   2.605725   2.528761
    34  H    4.896836   4.886180   3.790285   3.798856   2.511027
                   31         32         33         34
    31  H    0.000000
    32  H    2.534434   0.000000
    33  H    3.091164   1.782549   0.000000
    34  H    2.504122   1.782064   1.783931   0.000000
 Framework group  C1[X(C10H24)]
 Deg. of freedom    96
                         Standard orientation:                         
 ---------------------------------------------------------------------
 Center     Atomic      Atomic             Coordinates (Angstroms)
 Number     Number       Type             X           Y           Z
 ---------------------------------------------------------------------
      1          6           0       -1.858635    2.553914   -0.325911
      2          6           0       -1.900618    1.280587    0.514180
      3          6           0       -1.867353    0.001694   -0.321122
      4          6           0       -1.902814   -1.277155    0.514158
      5          6           0       -1.863331   -2.550556   -0.325948
      6          1           0       -2.724789    2.608113   -1.009512
      7          1           0       -0.943535    2.594047   -0.943050
      8          1           0       -1.873483    3.456618    0.308717
      9          1           0       -2.811763    1.281461    1.141541
     10          1           0       -1.047395    1.274740    1.218438
     11          1           0       -0.955645    0.000933   -0.949100
     12          1           0       -2.722227    0.002435   -1.025286
     13          1           0       -2.813855   -1.276344    1.141669
     14          1           0       -1.049465   -1.272905    1.218283
     15          1           0       -2.729608   -2.603062   -1.009521
     16          1           0       -1.879930   -3.453235    0.308674
     17          1           0       -0.948339   -2.592486   -0.943127
     18          6           0        1.863329    2.550558    0.325927
     19          6           0        1.902793    1.277151   -0.514170
     20          6           0        1.867357   -0.001692    0.321121
     21          6           0        1.900627   -1.280591   -0.514170
     22          6           0        1.858646   -2.553911    0.325933
     23          1           0        2.729640    2.603086    1.009455
     24          1           0        0.948368    2.592477    0.943153
     25          1           0        1.879879    3.453232   -0.308703
     26          1           0        2.813817    1.276338   -1.141705
     27          1           0        1.049426    1.272892   -1.218272
     28          1           0        0.955655   -0.000936    0.949108
     29          1           0        2.722238   -0.002418    1.025276
     30          1           0        2.811772   -1.281467   -1.141530
     31          1           0        1.047404   -1.274755   -1.218428
     32          1           0        0.943539   -2.594046    0.943062
     33          1           0        2.724792   -2.608094    1.009546
     34          1           0        1.873511   -3.456621   -0.308685
 ---------------------------------------------------------------------
 Rotational constants (GHZ):           0.9181792           0.8898686           0.4900296
   188 basis functions,   346 primitive gaussians,   198 cartesian basis functions
    42 alpha electrons       42 beta electrons
       nuclear repulsion energy       577.9654227580 Hartrees.
 NAtoms=   34 NActive=   34 NUniq=   34 SFac= 1.00D+00 NAtFMM=   60 NAOKFM=F Big=F
 Nuclear repulsion after empirical dispersion term =      577.9377915530 Hartrees.
   1 Symmetry operations used in ECPInt.
 ECPInt:  NShTT=    5886 NPrTT=   23638 LenC2=    5826 LenP2D=   17581.
 LDataN:  DoStor=T MaxTD1= 4 Len=   56
 Initial guess from the checkpoint file:  "7.chk"
 B after Tr=    -0.000000    0.000000    0.000000
         Rot=    0.999988    0.000000   -0.000000    0.004892 Ang=   0.56 deg.
     Minimum is close to point  2 DX=  2.45D-06 DF=  0.00D+00 DXR=  2.45D-06 DFR=  0.00D+00 which will be used.
 SCF Done:  E(RwB97XD) =  -395.098422367     a.u. after    2 cycles
            Convg  =    0.8942D-07                     9 Fock formations.
              S**2 =  0.0000                  -V/T =  2.0122
   1 Symmetry operations used in ECPInt.
 ECPInt:  NShTT=    5886 NPrTT=   23638 LenC2=    5826 LenP2D=   17581.
 LDataN:  DoStor=T MaxTD1= 5 Len=  102
 Calling FoFJK, ICntrl=      2127 FMM=F ISym2X=0 I1Cent= 0 IOpClX= 0 NMat=1 NMatS=1 NMatT=0.

 GradGradGradGradGradGradGradGradGradGradGradGradGradGradGradGradGradGrad
 Using GEDIIS/GDIIS optimizer.
 FormGI is forming the generalized inverse of G from B-inverse, IUseBI=4.
 Internal  Forces:  Max     0.000006609 RMS     0.000001327
 Step number   2 out of a maximum of  204
 All quantities printed in internal units (Hartrees-Bohrs-Radians)
 Mixed Optimization -- En-DIIS/RFO-DIIS
 Swapping is turned off.
 Trust test= 4.04D+00 RLast= 4.74D-03 DXMaxT set to 3.00D-01
 ITU=  0  0
     Eigenvalues ---    0.00043   0.00050   0.00083   0.00093   0.00120
     Eigenvalues ---    0.00140   0.00168   0.00186   0.00222   0.00256
     Eigenvalues ---    0.00277   0.00346   0.00528   0.00717   0.01023
     Eigenvalues ---    0.01237   0.01403   0.02025   0.02373   0.02597
     Eigenvalues ---    0.02688   0.03073   0.03318   0.03525   0.03551
     Eigenvalues ---    0.03689   0.03786   0.03836   0.03961   0.04108
     Eigenvalues ---    0.04115   0.04283   0.04423   0.04477   0.04625
     Eigenvalues ---    0.04661   0.04669   0.04737   0.04841   0.05064
[...]
 0.00000045,-0.00002931,-0.00000566,0.00006841,-0.00004752,0.00099809,0
 .00153715,-0.00071308,0.02305099,-0.00130136,-0.01769179,-0.00140781,-
 0.04800165,0.00109581,-0.02300333,-0.00169913,0.01766792,-0.00102019,0
 .00152098,0.00070889,-0.00057035,-0.00044257,0.00048806,0.00000303,-0.
 00003197,0.00005005,-0.00028736,0.00028597,0.00011161,-0.00040504,0.00
 101552,0.00060710,-0.00018547,-0.00470046,-0.00339329,-0.00016085,-0.0
 0050075,0.00014966,0.00142845,0.05622558,-0.00009064,-0.00004922,-0.00
 004321,0.00007637,-0.00001345,-0.00009126,-0.00001705,-0.00000055,-0.0
 0011032,0.00007585,0.00001508,-0.00009150,-0.00009159,0.00004753,-0.00
 004315,0.00001128,0.00002287,0.00002480,0.00001512,0.00004913,0.000020
 43,0.00002725,0.00000143,0.00002383,-0.00004275,0.00000449,0.00005581,
 -0.00002904,-0.00006941,0.00008770,0.00000605,-0.00000003,-0.00003788,
 -0.00002880,-0.00000017,0.00001511,-0.00004278,-0.00000536,0.00005592,
 -0.00002655,0.00006982,0.00008664,0.00001169,-0.00002269,0.00002483,0.
 00002728,-0.00000095,0.00002383,0.00001596,-0.00004894,0.00002042,-0.0
 0041793,0.00104540,0.00062736,0.01530261,-0.00033781,-0.01238084,0.121
 76420,0.00108198,-0.14760702,0.01529431,0.00061023,-0.01238101,-0.0003
 9906,-0.00105273,0.00062734,-0.00009871,-0.00049104,0.00057115,-0.0000
 6851,-0.00007970,0.00001918,-0.00030489,0.00008878,0.00003674,-0.00003
 372,0.00057446,0.00014352,-0.00028360,-0.00326974,-0.00165519,-0.01404
 260,-0.00012487,0.01244146,-0.13576356,-0.00120722,0.16042035,-0.00001
 134,-0.00000249,-0.00004938,-0.00006039,-0.00006134,-0.00002117,0.0002
 2969,0.00004933,0.00020805,0.00016457,0.00000534,-0.00000485,0.0001450
 2,-0.00007960,0.00015922,-0.00000698,0.00000159,0.00001205,0.00001052,
 -0.00001103,0.00001308,-0.00000116,0.00003565,0.00000166,-0.00002574,0
 .00005623,-0.00002302,-0.00001195,-0.00000649,0.00002596,-0.00004056,-
 0.00014632,-0.00020495,-0.00013014,0.00002210,-0.00004274,-0.00008667,
 0.00000482,-0.00001424,0.00001202,-0.00000119,0.00014947,-0.00011297,-
 0.00001059,-0.00002814,-0.00007242,-0.00001518,-0.00004841,0.00002022,
 0.00017908,-0.00018452,0.00029005,0.00013142,0.00030235,0.00023807,-0.
 00030656,0.00009196,-0.00024565,-0.00038099,0.00018031,-0.22902318,-0.
 00143290,-0.11831041,0.00110932,0.00040800,0.00127655,-0.00001973,-0.0
 0003437,0.00000195,0.00000077,-0.00018308,0.00007779,-0.00002191,0.000
 08522,-0.00002999,0.00021993,0.00064229,0.00020753,-0.00007173,-0.0000
 0586,-0.00009366,0.00153829,0.00006960,-0.00001576,0.00089579,0.000402
 97,-0.00002345,0.24132079,0.00003430,0.00003844,-0.00001310,-0.0000756
 4,-0.00001150,0.00015407,-0.00008838,-0.00004058,-0.00002067,0.0000016
 0,-0.00002669,0.00000597,0.00002423,-0.00003841,0.00002495,0.00000743,
 -0.00001849,-0.00001837,-0.00000999,0.00000524,0.00000460,-0.00000239,
 0.00000171,0.00000337,0.00005623,-0.00001465,-0.00002945,0.00001219,0.
 00004996,-0.00010187,-0.00002840,0.00000492,0.00007297,0.00003710,0.00
 002928,0.00000449,-0.00000689,0.00002993,-0.00000114,0.00000360,-0.000
 14531,0.00001370,-0.00005054,0.00003507,-0.00000522,0.00004602,0.00006
 598,0.00000808,0.00004138,0.00000247,-0.00010882,-0.00013813,-0.000033
 00,0.00002363,0.00118274,0.00153226,0.00086689,0.02454719,-0.00134966,
 0.01567220,-0.00124319,-0.04806764,-0.00069517,-0.02480006,-0.00116965
 ,-0.01635222,0.00002858,0.00003248,0.00000715,-0.00015192,0.00009822,-
 0.00017063,-0.00006228,-0.00000014,-0.00006407,-0.00062852,-0.00054592
 ,-0.00042461,-0.00001284,-0.00001099,-0.00006741,0.00002045,-0.0047036
 9,0.00327785,-0.00045571,0.00101442,-0.00057489,0.00149552,0.05660122,
 -0.00003004,-0.00002457,0.00002254,0.00013304,0.00004261,-0.00007839,-
 0.00011452,-0.00006423,-0.00012358,0.00000761,-0.00000333,-0.00016686,
 -0.00009807,0.00009373,-0.00005498,-0.00000827,0.00001655,0.00001521,0
 .00000883,0.00000240,-0.00000605,0.00000413,-0.00000228,-0.00000288,-0
 .00002302,-0.00002945,0.00004117,-0.00002724,-0.00004877,0.00007237,0.
 00005610,0.00009501,0.00005262,0.00003840,0.00000228,0.00005581,-0.000
 01427,0.00000088,0.00004511,-0.00001343,-0.00000677,0.00006968,0.00002
 071,0.00000512,0.00004345,0.00009859,0.00003407,0.00004119,0.00000089,
 -0.00012234,0.00002799,0.00025934,-0.00002816,0.00011275,0.00028900,-0
 .00107204,0.00035627,-0.01656129,0.00059865,-0.01122781,-0.11665990,-0
 .00084804,-0.12885960,-0.01529530,-0.00036027,-0.01033103,-0.00001544,
 0.00000319,-0.00005998,0.00006375,-0.00018945,0.00005191,0.00003598,0.
 00004516,0.00002770,0.00019999,0.00042824,0.00059501,0.00009195,0.0000
 5742,0.00002235,0.00004259,0.00340948,-0.00168130,-0.00000136,-0.00060
 712,0.00014334,0.13019364,0.00095892,0.13875177,0.00002967,0.00001580,
 0.00000095,-0.00002828,-0.00001794,0.00004485,-0.00031051,0.00016462,0
 .00000242,0.00006865,0.00000493,0.00000236,-0.00038215,-0.00016642,-0.
 00011109,0.00001462,-0.00001284,-0.00000684,-0.00001360,-0.00003846,0.
 00001194,-0.00000985,0.00000601,-0.00001056,-0.00001195,0.00001219,-0.
 00002724,0.00000915,0.00001651,-0.00002719,-0.00107268,0.00055897,-0.0
 0013427,-0.00001134,-0.00001242,-0.00002904,0.00001214,-0.00000175,-0.
 00001375,-0.00022511,0.00000327,-0.00005984,0.00002344,0.00000422,-0.0
 0000742,-0.00002693,-0.00001698,-0.00000364,-0.00043436,-0.00030910,-0
 .00006549,0.00022734,-0.00011174,-0.00031538,0.00022003,0.00021399,-0.
 00004226,0.00129659,0.00029251,-0.00129584,-0.20701801,-0.00072124,0.1
 2495576,0.00183294,-0.00013272,-0.00179672,-0.00001677,0.00015431,-0.0
 0005963,-0.00001869,0.00002991,-0.00000522,-0.00001554,-0.00009006,0.0
 0003522,-0.00007292,0.00001144,0.00009346,0.00023124,-0.00052591,-0.00
 013287,0.00084239,-0.00046336,-0.00003566,0.00148647,0.00029509,-0.000
 34201,-0.01859371,-0.00013325,0.01682433,0.21982456,0.00004853,0.00000
 103,0.00000481,-0.00012004,-0.00008751,-0.00002155,0.00041840,0.000006
 42,0.00045695,0.00001736,0.00020739,-0.00001142,-0.00039359,0.00001493
 ,-0.00040489,-0.00000372,-0.00000247,-0.00000218,-0.00003078,-0.000008
 60,-0.00000857,-0.00001564,0.00000861,-0.00001036,-0.00000649,0.000049
 96,-0.00004877,0.00001651,0.00001281,-0.00001085,0.00059343,-0.0003379
 4,-0.00010950,-0.00012497,0.00000782,-0.00006941,0.00000407,-0.0001451
 1,0.00000629,-0.00000631,-0.00006685,-0.00000160,0.00013144,0.00000379
 ,0.00007618,0.00008884,-0.00000549,0.00006870,-0.00031819,-0.00021602,
 0.00007466,0.00010811,-0.00003351,0.00001889,-0.00108463,0.00148180,0.
 00089766,-0.02296961,-0.00167801,0.01771882,-0.00080962,-0.04771825,0.
 00073868,0.02330830,-0.00088599,-0.01835216,0.00014774,0.00010788,-0.0
 0018146,-0.00002211,0.00003433,0.00000845,0.00006158,0.00000486,-0.000
 07275,0.00000487,-0.00001053,-0.00005591,0.00053567,-0.00054606,-0.000
 43305,0.00041002,0.00099576,-0.00063364,0.00036694,-0.00469039,0.00326
 435,-0.00009323,-0.00053452,0.00018943,0.00032367,0.05686124,-0.000008
 46,-0.00002023,0.00009464,0.00019843,0.00012230,-0.00007004,-0.0003928
 4,-0.00012123,-0.00035535,-0.00027680,-0.00001124,-0.00016889,-0.00024
 418,0.00015503,-0.00027134,-0.00000964,0.00000883,-0.00000860,-0.00000
 024,0.00003157,-0.00003043,0.00001420,-0.00006311,0.00000128,0.0000259
 5,-0.00010187,0.00007237,-0.00002719,-0.00001085,0.00002289,-0.0000108
 0,0.00037424,0.00043793,0.00022404,-0.00003372,0.00008770,0.00014971,-
 0.00001064,0.00006966,-0.00005988,0.00000056,-0.00021025,0.00020531,0.
 00001945,0.00007298,0.00016388,0.00007571,0.00010320,-0.00009804,-0.00
 044269,0.00034181,-0.00025857,-0.00002336,0.00017443,-0.00024041,-0.00
 111886,0.00039092,0.01544618,0.00078950,-0.01252855,0.12339560,0.00057
 012,-0.14972706,0.01421951,-0.00014540,-0.01137031,-0.00005841,-0.0002
 0506,0.00005491,0.00001024,0.00000078,-0.00007703,-0.00003367,0.000066
 83,0.00002943,-0.00009472,0.00006581,0.00002230,-0.00014214,0.00043073
 ,0.00061386,-0.00004822,-0.00055785,0.00013063,-0.00031435,0.00338817,
 -0.00165536,-0.01403928,0.00000405,0.01256417,-0.13705330,-0.00064813,
 0.16164529,-0.00001562,-0.00000970,0.00000213,0.00004262,0.00000826,-0
 .00002162,0.00003237,-0.00001543,-0.00002881,-0.00072270,0.00012875,0.
 00020719,-0.00043451,0.00020896,0.00012633,-0.00000034,0.00000524,0.00
 000458,0.00000535,0.00000665,0.00000682,0.00000041,-0.00000220,0.00000
 042,0.00001052,-0.00000999,0.00000883,-0.00001360,-0.00003078,-0.00000
 025,0.00001421,0.00001413,0.00000271,-0.00000087,0.00000461,0.00001512
 ,0.00002395,-0.00004145,-0.00000122,-0.00051081,0.00031568,-0.00008628
 ,-0.00005832,0.00003044,-0.00001694,0.00005068,-0.00004551,0.00001249,
 -0.00017996,-0.00001947,0.00024139,-0.00001478,-0.00004798,-0.00005369
 ,0.00022690,-0.00006767,0.00028531,0.00030784,0.00025155,0.00014539,0.
 00099955,0.00018125,0.00068237,-0.23459048,-0.00766332,-0.12283299,-0.
 00001164,-0.00000357,0.00000099,0.00001391,-0.00001516,0.00000207,0.,-
 0.00002523,0.00001329,-0.00000519,0.00015010,0.00006037,-0.00001863,0.
 00002112,0.00001027,0.00014651,-0.00055419,0.00012984,-0.00009383,-0.0
 0000403,-0.00006998,0.00145390,0.00016964,0.00018216,0.00069766,-0.000
 49444,0.00002358,0.24872427,-0.00002419,-0.00001044,-0.00000491,0.0000
 5700,-0.00001792,-0.00002327,-0.00011348,-0.00012640,0.00006570,0.0005
 4527,0.00009815,-0.00057410,0.00006129,0.00021471,-0.00000687,-0.00000
 374,0.00000918,0.00001208,0.00000665,0.00000231,0.00000431,0.00000242,
 0.00001039,-0.00000096,-0.00001103,0.00000524,0.00000240,-0.00003846,-
 0.00000860,0.00003157,0.00001248,0.00000888,-0.00003343,-0.00003186,0.
 00006787,0.00004913,-0.00017835,-0.00000148,0.00012204,0.00031653,-0.0
 0020098,0.00044029,0.00000071,-0.00015941,0.00003514,-0.00015048,-0.00
 012765,-0.00007492,0.00001776,0.00008899,0.00008214,0.00007899,0.00004
 983,0.00009091,0.00009581,-0.00004850,-0.00010150,-0.00121739,0.001741
 37,-0.00069288,-0.02480948,-0.00095656,-0.01537483,-0.00665900,-0.0487
 7752,-0.00351169,-0.00000364,-0.00000846,-0.00000285,0.00001635,-0.000
 05313,0.00002693,-0.00000086,0.00002548,-0.00001088,0.00018127,0.00010
 398,0.00019046,-0.00003078,0.00003415,-0.00000061,0.00054998,-0.000471
 14,0.00038235,0.00001851,-0.00003173,0.00007822,0.00003709,-0.00472965
 ,-0.00336813,0.00037119,0.00104945,0.00063784,0.00797583,0.05075558,-0
 .00001570,0.00002593,-0.00006443,-0.00002358,-0.00000013,0.00012053,-0
 .00004258,-0.00003802,-0.00013128,-0.00005846,-0.00016413,-0.00000377,
 0.00028074,0.00013962,0.00016797,0.00000809,-0.00000277,0.00000522,0.0
 0000682,0.00000431,0.00002606,-0.00000202,0.00003970,0.00000665,0.0000
 1308,0.00000460,-0.00000605,0.00001194,-0.00000857,-0.00003043,0.00000
 034,-0.00002444,-0.00000421,-0.00002101,0.00004723,0.00002043,-0.00018
 662,0.00010563,0.00002808,-0.00005978,-0.00007876,0.00034240,-0.000283
 11,0.00010717,-0.00007002,0.00017429,0.00006165,0.00005276,0.00024494,
 -0.00007735,-0.00071629,0.00004454,-0.00001877,-0.00002241,0.00017611,
 0.00007084,0.00012808,0.00040309,0.00109505,0.00045921,-0.01584572,-0.
 00021790,-0.01062868,-0.12180173,-0.00419754,-0.13013428,0.00000611,0.
 00000319,0.00000672,0.00000256,-0.00002689,0.00003601,-0.00000683,-0.0
 0003413,-0.00000278,0.00007474,0.00017200,0.00005191,-0.00000505,-0.00
 000857,-0.00007706,0.00014897,-0.00042213,0.00055374,0.00009476,-0.000
 04847,0.00001912,0.00038020,-0.00367344,-0.00139286,0.00006749,0.00058
 788,0.00001623,0.13382977,0.00844178,0.13722388,0.00000080,0.00001682,
 -0.00003447,-0.00001750,-0.00001173,0.00006847,-0.00000380,-0.00003196
 ,-0.00001658,0.00006173,-0.00008701,-0.00007537,0.00004771,0.00005981,
 0.00020296,0.00000237,-0.00000470,0.00000325,-0.00000034,-0.00000374,0
 .00000809,-0.00000144,0.00002711,0.00000114,-0.00000698,0.00000743,-0.
 00000827,0.00001462,-0.00000372,-0.00000964,-0.00000883,-0.00001960,-0
 .00003529,-0.00001851,0.00003798,0.00001128,-0.00011401,0.00004788,0.0
 0002082,0.00002304,-0.00013180,0.00020716,-0.00015400,0.00005534,-0.00
 003186,0.00010494,0.00006814,0.00002144,-0.00005810,0.00000137,-0.0002
 8149,-0.00003006,0.00004230,0.00004847,0.00020021,0.00008973,-0.000295
 54,0.00023586,-0.00017222,-0.00018065,0.00200459,-0.00041091,-0.001736
 04,-0.21564894,0.00675786,0.12843810,0.00002317,0.00001754,-0.00000204
 ,-0.00001176,0.00000357,0.00000617,0.00000075,0.00001947,-0.00001453,-
 0.00001982,-0.00002951,-0.00001538,-0.00001145,-0.00014989,-0.00006205
 ,-0.00008898,-0.00000215,0.00008570,0.00008287,0.00057972,-0.00010748,
 0.00082878,0.00049868,-0.00007248,0.00139775,-0.00045817,-0.00032729,-
 0.01747565,0.00040401,0.01706398,0.22628774,-0.00000890,-0.00000160,0.
 00000288,0.00004654,0.00003459,0.00000365,-0.00009779,-0.00002712,-0.0
 0011307,-0.00002586,-0.00006095,0.00001079,-0.00002781,0.00005803,0.00
 011496,-0.00000470,0.00000212,0.00000193,0.00000524,0.00000918,-0.0000
 0277,0.00000441,-0.00000264,0.00000264,0.00000159,-0.00001849,0.000016
 55,-0.00001284,-0.00000247,0.00000883,0.00002043,0.00004632,0.00004178
 ,0.00002976,-0.00000375,0.00002287,0.00000794,0.00003611,-0.00000474,-
 0.00000390,0.00000149,-0.00001579,-0.00005863,0.00002966,-0.00001993,0
 .00008415,0.00002976,0.00005164,-0.00002826,-0.00015988,-0.00011240,-0
 .00006183,0.00004680,0.00009160,-0.00013215,-0.00006892,-0.00008076,0.
 00119811,0.00173715,-0.00085653,0.02363671,-0.00088761,-0.01726584,0.0
 0569565,-0.04881831,-0.00343245,-0.00001621,-0.00005178,0.00002899,0.0
 0000351,-0.00000833,-0.00000308,-0.00000533,0.00002847,-0.00000905,0.0
 0003344,0.00003255,-0.00000347,-0.00015684,0.00010241,0.00020406,-0.00
 002878,-0.00003142,0.00008498,-0.00057967,-0.00044269,0.00048918,-0.00
 030717,0.00110919,0.00067284,-0.00025336,-0.00470632,-0.00331989,-0.00
 038647,-0.00100643,0.00051180,-0.00700514,0.05055154,-0.00001058,0.000
 00209,-0.00000470,0.00002906,0.00002684,0.00002730,-0.00011757,-0.0000
 4633,-0.00007579,0.00004429,-0.00003361,-0.00004870,-0.00010422,0.0000
 3833,-0.00002356,0.00000325,0.00000193,-0.00000330,0.00000458,0.000012
 08,0.00000522,0.00000165,-0.00000429,0.00000557,0.00001205,-0.00001837
 ,0.00001521,-0.00000684,-0.00000217,-0.00000860,0.00002658,0.00004852,
 0.00004211,0.00002378,0.00001993,0.00002480,-0.00002822,0.00000470,0.0
 0004345,-0.00000880,-0.00007669,0.00007434,-0.00003223,0.00001934,0.00
 001332,0.00007210,0.00004313,0.00002466,-0.00001674,-0.00003521,-0.000
 07038,-0.00005010,-0.00001869,-0.00000781,-0.00018577,0.00006021,0.000
 15410,-0.00044268,0.00106940,0.00051647,0.01493130,-0.00019781,-0.0118
 3522,0.12782389,-0.00416714,-0.14850575,-0.00000152,-0.00002902,0.0000
 2391,0.00000094,0.00000287,0.00000672,0.00000549,-0.00002807,-0.000002
 59,0.00000207,-0.00000713,-0.00005998,-0.00006299,0.00018034,0.0000549
 3,-0.00008210,-0.00003932,0.00002004,-0.00009490,-0.00048982,0.0005711
 3,-0.00011120,0.00053136,0.00005485,-0.00057091,-0.00368077,-0.0013494
 7,-0.01469424,0.00044382,0.01313857,-0.14023025,0.00868126,0.15715348,
 -0.00000543,-0.00001017,0.00001199,0.00002124,-0.00000865,-0.00002853,
 -0.00005914,-0.00007440,0.00006063,0.00018669,0.00016637,-0.00029758,-
 0.00003593,0.00002253,-0.00021871,-0.00000144,0.00000441,0.00000165,0.
 00000041,0.00000242,-0.00000202,0.00000075,-0.00000597,-0.00000065,-0.
 00000116,-0.00000239,0.00000413,-0.00000985,-0.00001564,0.00001420,0.0
 0001993,0.00001251,-0.00000976,-0.00001122,0.00003518,0.00002725,-0.00
 007182,-0.00004849,0.00009917,-0.00002634,-0.00009037,0.00016585,0.000
 10767,-0.00008276,0.00007289,-0.00007485,-0.00004497,-0.00007811,0.000
 04797,0.00015373,0.00017523,-0.00001036,-0.00001068,-0.00000579,0.0005
 2465,-0.00001987,-0.00000016,0.00039661,-0.00008474,-0.00007314,-0.001
 41606,-0.00061174,0.00053572,-0.04961475,0.00482825,-0.00345332,0.0000
 0101,0.00000484,0.00000499,-0.00000044,0.00000040,-0.00000744,-0.00000
 554,-0.00000360,0.00000099,-0.00002149,0.00006190,0.00003678,-0.000016
 05,-0.00006196,-0.00003249,0.00021962,-0.00028465,0.00026978,0.0001767
 1,0.00028539,-0.00030328,0.00005850,-0.00031877,0.00038360,0.00004775,
 0.00036605,-0.00033818,0.00139625,0.02252362,-0.01468037,0.00235324,-0
 .02156584,0.01387083,0.04582286,-0.00001506,0.00001465,-0.00004262,-0.
 00004415,0.00000782,0.00006761,-0.00005642,0.00000709,-0.00008714,-0.0
 0011952,-0.00006025,0.00005976,0.00009850,0.00002332,0.00012626,0.0000
 2711,-0.00000264,-0.00000429,-0.00000220,0.00001039,0.00003970,-0.0000
 0597,0.00001190,0.00000542,0.00003565,0.00000171,-0.00000228,0.0000060
 1,0.00000860,-0.00006310,-0.00000533,-0.00002088,0.00006679,0.00004429
 ,0.00000095,0.00000143,0.00001274,0.00006541,-0.00003233,0.00001689,-0
 .00000692,-0.00007293,-0.00006679,0.00002708,-0.00004187,0.00004316,0.
 00002653,0.00002236,0.00004843,-0.00012422,-0.00005847,-0.00002269,-0.
 00041811,-0.00056833,0.00007571,-0.00079070,0.00162423,-0.00024206,-0.
 00347217,-0.00552854,0.00073851,-0.01993703,0.01766361,0.00481724,-0.2
 2479140,0.12748542,-0.00001996,0.00002822,0.00002816,0.00002478,0.0000
 2593,0.00003400,0.00000776,-0.00023931,0.00010864,-0.00008560,-0.00000
 055,-0.00004451,0.00008963,0.00000534,-0.00006742,0.00008228,0.0002946
 0,-0.00008963,-0.00009394,0.00028942,-0.00009418,-0.00054788,0.0007897
 1,0.00011897,0.00052893,0.00082551,0.00009259,-0.00003560,0.00247043,-
 0.00237637,-0.00021250,0.00244332,-0.00231170,-0.00512194,0.24248623,-
 0.00000727,-0.00000307,-0.00000407,0.00000952,-0.00001195,-0.00000823,
 -0.00003502,-0.00004594,0.00004301,0.00012283,0.00004879,-0.00019524,0
 .00002914,0.00004718,-0.00002143,0.00000114,0.00000264,0.00000557,0.00
 000042,-0.00000096,0.00000665,-0.00000065,0.00000543,-0.00000228,0.000
 00166,0.00000337,-0.00000288,-0.00001056,-0.00001036,0.00000128,0.0000
 0316,-0.00000764,-0.00000272,-0.00000753,0.00002917,0.00002383,-0.0000
 4825,-0.00000894,0.00004119,-0.00000323,-0.00006931,0.00010375,0.00002
 234,-0.00005125,0.00002464,-0.00007772,-0.00002376,-0.00007441,0.00001
 063,0.00007520,0.00005270,-0.00000408,-0.00024802,-0.00025346,0.000015
 29,-0.00082889,0.00085673,-0.00009961,-0.00255548,-0.00242658,0.000601
 86,-0.01775218,0.01312792,-0.00352570,0.12944125,-0.14176708,-0.000014
 69,0.00000879,-0.00000259,0.00001310,0.00001112,-0.00000278,0.00000292
 ,-0.00010861,0.00005470,-0.00003113,0.00006352,0.00002771,0.00003394,0
 .00007337,0.00002943,0.00022746,-0.00008142,-0.00002552,-0.00025690,-0
 .00011619,0.00003674,-0.00003657,0.00068686,0.00081806,0.00010743,0.00
 064522,0.00087605,0.00181260,0.01264472,-0.00911900,-0.00265034,0.0141
 9658,-0.00997430,0.00379381,-0.13605924,0.14775263\\0.00000004,0.00000
 018,-0.00000100,0.00000026,-0.00000036,-0.00000118,0.00000003,0.000000
 33,-0.00000112,0.00000070,-0.00000005,-0.00000123,-0.00000009,-0.00000
 006,-0.00000059,-0.00000050,-0.00000002,-0.00000136,-0.00000041,-0.000
 00014,-0.00000038,0.00000023,-0.00000008,-0.00000098,0.00000051,0.0000
 0007,-0.00000144,-0.00000127,-0.00000034,0.00000029,-0.00000178,0.0000
 0018,-0.00000054,-0.00000070,0.,-0.00000140,0.00000056,0.00000022,-0.0
 0000151,-0.00000064,0.00000010,-0.00000019,-0.00000050,0.,-0.00000144,
 0.,-0.00000002,-0.00000109,-0.00000110,-0.00000021,-0.00000022,0.00000
 041,0.00000018,0.00000076,-0.00000031,-0.00000019,0.00000098,-0.000000
 27,-0.00000034,0.00000088,-0.00000050,0.00000018,0.00000131,-0.0000002
 0,0.00000015,0.00000095,0.00000050,0.00000004,0.00000140,0.00000106,0.
 00000010,0.00000032,0.,0.00000010,0.00000104,-0.00000055,0.,0.00000141
 ,0.00000019,-0.00000009,0.00000058,0.00000194,-0.00000036,0.00000041,0
 .00000068,0.00000014,0.00000132,-0.00000051,-0.00000012,0.00000155,0.0
 0000141,0.00000040,-0.00000028,0.00000043,0.00000006,0.00000047,0.0000
 0059,-0.00000006,0.00000139,-0.00000023,0.00000002,0.00000090\\\@


 MAN IS A SINGULAR CREATURE.  HE HAS A SET OF GIFTS
 WHICH MAKE HIM UNIQUE AMONG THE ANIMALS: SO THAT, 
 UNLIKE THEM, HE IS NOT A FIGURE IN THE LANDSCAPE --
 HE IS A SHAPER OF THE LANDSCAPE.

                       -- JACOB BRONOWSKI
 File lengths (MBytes):  RWF=    148 Int=      0 D2E=      0 Chk=      5 Scr=      1
 Normal termination of Gaussian 16 at Mon Apr  1 18:03:01 2024.
real 1054.99
user 3857.58
sys 15.91
