 Entering Gaussian System, Link 0=g16
 Input=gaussian_test.inp
 Output=gaussian_test.log
 Initial command:
 /sw/restricted/lms/sw/Gaussian/g16_B01/g16/l1.exe "/scratch/user/peterchao1/peterchao1/8495292_1687847300000000638930641/Gau-84190.inp" -scrdir="/scratch/user/peterchao1/peterchao1/8495292_1687847300000000638930641/"
 Entering Link 1 = /sw/restricted/lms/sw/Gaussian/g16_B01/g16/l1.exe PID=     84191.
  
 Copyright (c) 1988-2017, Gaussian, Inc.  All Rights Reserved.
  
 This is part of the Gaussian(R) 16 program.  It is based on
 the Gaussian(R) 09 system (copyright 2009, Gaussian, Inc.),
 the Gaussian(R) 03 system (copyright 2003, Gaussian, Inc.),
 the Gaussian(R) 98 system (copyright 1998, Gaussian, Inc.),
 the Gaussian(R) 94 system (copyright 1995, Gaussian, Inc.),
 the Gaussian 92(TM) system (copyright 1992, Gaussian, Inc.),
 the Gaussian 90(TM) system (copyright 1990, Gaussian, Inc.),
 the Gaussian 88(TM) system (copyright 1988, Gaussian, Inc.),
 the Gaussian 86(TM) system (copyright 1986, Carnegie Mellon
 University), and the Gaussian 82(TM) system (copyright 1983,
 Carnegie Mellon University). Gaussian is a federally registered
 trademark of Gaussian, Inc.
  
 This software contains proprietary and confidential information,
 including trade secrets, belonging to Gaussian, Inc.
  
 This software is provided under written license and may be
 used, copied, transmitted, or stored only in accord with that
 written license.
  
 The following legend is applicable only to US Government
 contracts under FAR:
  
                    RESTRICTED RIGHTS LEGEND
  
 Use, reproduction and disclosure by the US Government is
 subject to restrictions as set forth in subparagraphs (a)
 and (c) of the Commercial Computer Software - Restricted
 Rights clause in FAR 52.227-19.
  
 Gaussian, Inc.
 340 Quinnipiac St., Bldg. 40, Wallingford CT 06492
  
  
 ---------------------------------------------------------------
 Warning -- This program may not be used in any manner that
 competes with the business of Gaussian, Inc. or will provide
 assistance to any competitor of Gaussian, Inc.  The licensee
 of this program is prohibited from giving any competitor of
 Gaussian, Inc. access to this program.  By using this program,
 the user acknowledges that Gaussian, Inc. is engaged in the
 business of creating and licensing software in the field of
 computational chemistry and represents and warrants to the
 licensee that it is not a competitor of Gaussian, Inc. and that
 it will not use this program in any manner prohibited above.
 ---------------------------------------------------------------
  

 Cite this work as:
 Gaussian 16, Revision B.01,
 M. J. Frisch, G. W. Trucks, H. B. Schlegel, G. E. Scuseria, 
 M. A. Robb, J. R. Cheeseman, G. Scalmani, V. Barone, 
 G. A. Petersson, H. Nakatsuji, X. Li, M. Caricato, A. V. Marenich, 
 J. Bloino, B. G. Janesko, R. Gomperts, B. Mennucci, H. P. Hratchian, 
 J. V. Ortiz, A. F. Izmaylov, J. L. Sonnenberg, D. Williams-Young, 
 F. Ding, F. Lipparini, F. Egidi, J. Goings, B. Peng, A. Petrone, 
 T. Henderson, D. Ranasinghe, V. G. Zakrzewski, J. Gao, N. Rega, 
 G. Zheng, W. Liang, M. Hada, M. Ehara, K. Toyota, R. Fukuda, 
 J. Hasegawa, M. Ishida, T. Nakajima, Y. Honda, O. Kitao, H. Nakai, 
 T. Vreven, K. Throssell, J. A. Montgomery, Jr., J. E. Peralta, 
 F. Ogliaro, M. J. Bearpark, J. J. Heyd, E. N. Brothers, K. N. Kudin, 
 V. N. Staroverov, T. A. Keith, R. Kobayashi, J. Normand, 
 K. Raghavachari, A. P. Rendell, J. C. Burant, S. S. Iyengar, 
 J. Tomasi, M. Cossi, J. M. Millam, M. Klene, C. Adamo, R. Cammi, 
 J. W. Ochterski, R. L. Martin, K. Morokuma, O. Farkas, 
 J. B. Foresman, and D. J. Fox, Gaussian, Inc., Wallingford CT, 2016.
 
 ******************************************
 Gaussian 16:  ES64L-G16RevB.01 20-Dec-2017
                27-Jun-2023 
 ******************************************
 %chk=44.chk
 %nprocshared=4
 Will use up to    4 processors via shared memory.
 %mem=8000mb
 ----------------------------------------------------------------------
 #T wB97XD/def2svpp opt=tight freq int(grid=ultrafine) scf=(verytight,q
 c)
 ----------------------------------------------------------------------
 --------------
 Comment gs min
 --------------
 Symbolic Z-matrix:
 Charge =  0 Multiplicity = 1
 C                     1.80164  -0.78093  -1.63422 
 C                     2.73623  -0.67956  -0.42559 
 C                     3.1811   -2.0829   -0.00463 
 C                     3.94466   0.16946  -0.82725 
 Cl                    5.13096   0.3346    0.49445 
 C                     2.00545  -0.05073   0.76136 
 Cl                    1.3747    1.57067   0.38764 
 H                     2.30208  -1.28287  -2.45822 
 H                     1.49052   0.20543  -1.968 
 H                     0.9165   -1.35136  -1.3657 
 H                     2.31639  -2.68825   0.25456 
 H                     3.84465  -2.03662   0.85483 
 H                     3.70928  -2.56718  -0.82205 
 H                     3.63643   1.18004  -1.09633 
 H                     4.47223  -0.28763  -1.66385 
 H                     2.67777   0.06913   1.61096 
 H                     1.1506   -0.66331   1.04439 
 C                    -1.80205   0.77671  -1.63685 
 C                    -2.73567   0.67828  -0.42722 
 C                    -3.17809   2.08283  -0.00773 
 C                    -3.94563  -0.16966  -0.82658 
 Cl                   -5.13142  -0.33043   0.49607 
 C                    -2.00474   0.05008   0.75997 
 Cl                   -1.37544  -1.57218   0.38754 
 H                    -1.49232  -0.2105   -1.96939 
 H                    -0.91606   1.34661  -1.37001 
 H                    -2.30272   1.27794  -2.46115 
 H                    -3.70765   2.56619  -0.8248 
 H                    -2.31213   2.68771   0.24836 
 H                    -3.83971   2.03883   0.85333 
 H                    -3.63907  -1.18122  -1.09388 
 H                    -4.47296   0.2866   -1.6638 
 H                    -2.67674  -0.06843   1.61001 
 H                    -1.14928   0.66228   1.04195 
 
 Add virtual bond connecting atoms Cl24       and H17        Dist= 5.22D+00.
 Add virtual bond connecting atoms H25        and H10        Dist= 5.16D+00.
 Add virtual bond connecting atoms H26        and H9         Dist= 5.16D+00.
 Add virtual bond connecting atoms H34        and Cl7        Dist= 5.22D+00.
 Add virtual bond connecting atoms H34        and H17        Dist= 5.02D+00.

 GradGradGradGradGradGradGradGradGradGradGradGradGradGradGradGradGradGrad
 Initialization pass.
                           ----------------------------
                           !    Initial Parameters    !
                           ! (Angstroms and Degrees)  !
 --------------------------                            --------------------------
 ! Name  Definition              Value          Derivative Info.                !
 --------------------------------------------------------------------------------
 ! R1    R(1,2)                  1.5312         estimate D2E/DX2                !
 ! R2    R(1,8)                  1.0869         estimate D2E/DX2                !
 ! R3    R(1,9)                  1.0868         estimate D2E/DX2                !
 ! R4    R(1,10)                 1.0867         estimate D2E/DX2                !
 ! R5    R(2,3)                  1.5312         estimate D2E/DX2                !
 ! R6    R(2,4)                  1.5305         estimate D2E/DX2                !
 ! R7    R(2,6)                  1.5292         estimate D2E/DX2                !
 ! R8    R(3,11)                 1.0869         estimate D2E/DX2                !
 ! R9    R(3,12)                 1.0868         estimate D2E/DX2                !
 ! R10   R(3,13)                 1.0871         estimate D2E/DX2                !
 ! R11   R(4,5)                  1.7837         estimate D2E/DX2                !
 ! R12   R(4,14)                 1.0903         estimate D2E/DX2                !
 ! R13   R(4,15)                 1.0896         estimate D2E/DX2                !
 ! R14   R(6,7)                  1.7795         estimate D2E/DX2                !
 ! R15   R(6,16)                 1.0901         estimate D2E/DX2                !
 ! R16   R(6,17)                 1.0891         estimate D2E/DX2                !
 ! R17   R(7,34)                 2.7611         estimate D2E/DX2                !
 ! R18   R(9,26)                 2.7297         estimate D2E/DX2                !
 ! R19   R(10,25)                2.7328         estimate D2E/DX2                !
 ! R20   R(17,24)                2.7638         estimate D2E/DX2                !
 ! R21   R(17,34)                2.6545         estimate D2E/DX2                !
 ! R22   R(18,19)                1.5312         estimate D2E/DX2                !
 ! R23   R(18,25)                1.0868         estimate D2E/DX2                !
 ! R24   R(18,26)                1.0867         estimate D2E/DX2                !
 ! R25   R(18,27)                1.0869         estimate D2E/DX2                !
 ! R26   R(19,20)                1.5312         estimate D2E/DX2                !
 ! R27   R(19,21)                1.5305         estimate D2E/DX2                !
 ! R28   R(19,23)                1.5292         estimate D2E/DX2                !
 ! R29   R(20,28)                1.087          estimate D2E/DX2                !
 ! R30   R(20,29)                1.0869         estimate D2E/DX2                !
 ! R31   R(20,30)                1.0868         estimate D2E/DX2                !
 ! R32   R(21,22)                1.7836         estimate D2E/DX2                !
 ! R33   R(21,31)                1.0903         estimate D2E/DX2                !
 ! R34   R(21,32)                1.0896         estimate D2E/DX2                !
 ! R35   R(23,24)                1.7795         estimate D2E/DX2                !
 ! R36   R(23,33)                1.09           estimate D2E/DX2                !
 ! R37   R(23,34)                1.0891         estimate D2E/DX2                !
 ! A1    A(2,1,8)              110.362          estimate D2E/DX2                !
 ! A2    A(2,1,9)              110.9202         estimate D2E/DX2                !
 ! A3    A(2,1,10)             109.686          estimate D2E/DX2                !
 ! A4    A(8,1,9)              108.5484         estimate D2E/DX2                !
 ! A5    A(8,1,10)             108.6592         estimate D2E/DX2                !
 ! A6    A(9,1,10)             108.61           estimate D2E/DX2                !
 ! A7    A(1,2,3)              109.4921         estimate D2E/DX2                !
 ! A8    A(1,2,4)              108.1498         estimate D2E/DX2                !
 ! A9    A(1,2,6)              110.3788         estimate D2E/DX2                !
 ! A10   A(3,2,4)              110.559          estimate D2E/DX2                !
 ! A11   A(3,2,6)              107.5982         estimate D2E/DX2                !
 ! A12   A(4,2,6)              110.6654         estimate D2E/DX2                !
 ! A13   A(2,3,11)             110.1738         estimate D2E/DX2                !
 ! A14   A(2,3,12)             110.8418         estimate D2E/DX2                !
 ! A15   A(2,3,13)             110.044          estimate D2E/DX2                !
 ! A16   A(11,3,12)            108.7162         estimate D2E/DX2                !
 ! A17   A(11,3,13)            108.5268         estimate D2E/DX2                !
 ! A18   A(12,3,13)            108.4802         estimate D2E/DX2                !
 ! A19   A(2,4,5)              112.459          estimate D2E/DX2                !
 ! A20   A(2,4,14)             110.8389         estimate D2E/DX2                !
 ! A21   A(2,4,15)             110.554          estimate D2E/DX2                !
 ! A22   A(5,4,14)             106.5643         estimate D2E/DX2                !
 ! A23   A(5,4,15)             106.6044         estimate D2E/DX2                !
 ! A24   A(14,4,15)            109.6481         estimate D2E/DX2                !
 ! A25   A(2,6,7)              112.4007         estimate D2E/DX2                !
 ! A26   A(2,6,16)             110.8216         estimate D2E/DX2                !
 ! A27   A(2,6,17)             110.2145         estimate D2E/DX2                !
 ! A28   A(7,6,16)             106.387          estimate D2E/DX2                !
 ! A29   A(7,6,17)             106.7893         estimate D2E/DX2                !
 ! A30   A(16,6,17)            110.0849         estimate D2E/DX2                !
 ! A31   A(6,7,34)              88.5377         estimate D2E/DX2                !
 ! A32   A(1,9,26)             124.3692         estimate D2E/DX2                !
 ! A33   A(1,10,25)            116.3732         estimate D2E/DX2                !
 ! A34   A(6,17,24)            147.2045         estimate D2E/DX2                !
 ! A35   A(6,17,34)            113.5117         estimate D2E/DX2                !
 ! A36   A(24,17,34)            51.1069         estimate D2E/DX2                !
 ! A37   A(19,18,25)           110.9225         estimate D2E/DX2                !
 ! A38   A(19,18,26)           109.6848         estimate D2E/DX2                !
 ! A39   A(19,18,27)           110.3596         estimate D2E/DX2                !
 ! A40   A(25,18,26)           108.6113         estimate D2E/DX2                !
 ! A41   A(25,18,27)           108.5489         estimate D2E/DX2                !
 ! A42   A(26,18,27)           108.6588         estimate D2E/DX2                !
 ! A43   A(18,19,20)           109.4899         estimate D2E/DX2                !
 ! A44   A(18,19,21)           108.1502         estimate D2E/DX2                !
 ! A45   A(18,19,23)           110.3826         estimate D2E/DX2                !
 ! A46   A(20,19,21)           110.5644         estimate D2E/DX2                !
 ! A47   A(20,19,23)           107.5935         estimate D2E/DX2                !
 ! A48   A(21,19,23)           110.6626         estimate D2E/DX2                !
 ! A49   A(19,20,28)           110.0432         estimate D2E/DX2                !
 ! A50   A(19,20,29)           110.1718         estimate D2E/DX2                !
 ! A51   A(19,20,30)           110.8445         estimate D2E/DX2                !
 ! A52   A(28,20,29)           108.5279         estimate D2E/DX2                !
 ! A53   A(28,20,30)           108.4792         estimate D2E/DX2                !
 ! A54   A(29,20,30)           108.7161         estimate D2E/DX2                !
 ! A55   A(19,21,22)           112.4589         estimate D2E/DX2                !
 ! A56   A(19,21,31)           110.8367         estimate D2E/DX2                !
 ! A57   A(19,21,32)           110.5552         estimate D2E/DX2                !
 ! A58   A(22,21,31)           106.5653         estimate D2E/DX2                !
 ! A59   A(22,21,32)           106.6058         estimate D2E/DX2                !
 ! A60   A(31,21,32)           109.6469         estimate D2E/DX2                !
 ! A61   A(19,23,24)           112.4007         estimate D2E/DX2                !
 ! A62   A(19,23,33)           110.8188         estimate D2E/DX2                !
 ! A63   A(19,23,34)           110.2151         estimate D2E/DX2                !
 ! A64   A(24,23,33)           106.3864         estimate D2E/DX2                !
 ! A65   A(24,23,34)           106.7902         estimate D2E/DX2                !
 ! A66   A(33,23,34)           110.0869         estimate D2E/DX2                !
 ! A67   A(17,24,23)            88.492          estimate D2E/DX2                !
 ! A68   A(10,25,18)           124.2515         estimate D2E/DX2                !
 ! A69   A(9,26,18)            116.4713         estimate D2E/DX2                !
 ! A70   A(7,34,17)             51.1359         estimate D2E/DX2                !
 ! A71   A(7,34,23)            147.3094         estimate D2E/DX2                !
 ! A72   A(17,34,23)           113.5826         estimate D2E/DX2                !
 ! D1    D(8,1,2,3)            -58.2776         estimate D2E/DX2                !
 ! D2    D(8,1,2,4)             62.2572         estimate D2E/DX2                !
 ! D3    D(8,1,2,6)           -176.5474         estimate D2E/DX2                !
 ! D4    D(9,1,2,3)           -178.6175         estimate D2E/DX2                !
 ! D5    D(9,1,2,4)            -58.0828         estimate D2E/DX2                !
 ! D6    D(9,1,2,6)             63.1126         estimate D2E/DX2                !
 ! D7    D(10,1,2,3)            61.4076         estimate D2E/DX2                !
 ! D8    D(10,1,2,4)          -178.0577         estimate D2E/DX2                !
 ! D9    D(10,1,2,6)           -56.8623         estimate D2E/DX2                !
 ! D10   D(2,1,9,26)          -100.1561         estimate D2E/DX2                !
 ! D11   D(8,1,9,26)           138.4324         estimate D2E/DX2                !
 ! D12   D(10,1,9,26)           20.4583         estimate D2E/DX2                !
 ! D13   D(2,1,10,25)          129.3703         estimate D2E/DX2                !
 ! D14   D(8,1,10,25)         -109.908          estimate D2E/DX2                !
 ! D15   D(9,1,10,25)            7.9958         estimate D2E/DX2                !
 ! D16   D(1,2,3,11)           -59.4838         estimate D2E/DX2                !
 ! D17   D(1,2,3,12)          -179.859          estimate D2E/DX2                !
 ! D18   D(1,2,3,13)            60.1456         estimate D2E/DX2                !
 ! D19   D(4,2,3,11)          -178.5404         estimate D2E/DX2                !
 ! D20   D(4,2,3,12)            61.0844         estimate D2E/DX2                !
 ! D21   D(4,2,3,13)           -58.9111         estimate D2E/DX2                !
 ! D22   D(6,2,3,11)            60.5033         estimate D2E/DX2                !
 ! D23   D(6,2,3,12)           -59.8719         estimate D2E/DX2                !
 ! D24   D(6,2,3,13)          -179.8673         estimate D2E/DX2                !
 ! D25   D(1,2,4,5)           -178.82           estimate D2E/DX2                !
 ! D26   D(1,2,4,14)            62.0083         estimate D2E/DX2                !
 ! D27   D(1,2,4,15)           -59.7921         estimate D2E/DX2                !
 ! D28   D(3,2,4,5)            -58.9534         estimate D2E/DX2                !
 ! D29   D(3,2,4,14)          -178.1251         estimate D2E/DX2                !
 ! D30   D(3,2,4,15)            60.0745         estimate D2E/DX2                !
 ! D31   D(6,2,4,5)             60.1623         estimate D2E/DX2                !
 ! D32   D(6,2,4,14)           -59.0094         estimate D2E/DX2                !
 ! D33   D(6,2,4,15)           179.1903         estimate D2E/DX2                !
 ! D34   D(1,2,6,7)            -58.37           estimate D2E/DX2                !
 ! D35   D(1,2,6,16)          -177.2661         estimate D2E/DX2                !
 ! D36   D(1,2,6,17)            60.6234         estimate D2E/DX2                !
 ! D37   D(3,2,6,7)           -177.7933         estimate D2E/DX2                !
 ! D38   D(3,2,6,16)            63.3106         estimate D2E/DX2                !
 ! D39   D(3,2,6,17)           -58.7999         estimate D2E/DX2                !
 ! D40   D(4,2,6,7)             61.3172         estimate D2E/DX2                !
 ! D41   D(4,2,6,16)           -57.5789         estimate D2E/DX2                !
 ! D42   D(4,2,6,17)          -179.6894         estimate D2E/DX2                !
 ! D43   D(2,6,7,34)           122.3996         estimate D2E/DX2                !
 ! D44   D(16,6,7,34)         -116.1365         estimate D2E/DX2                !
 ! D45   D(17,6,7,34)            1.4196         estimate D2E/DX2                !
 ! D46   D(2,6,17,24)          -70.0551         estimate D2E/DX2                !
 ! D47   D(2,6,17,34)         -123.9721         estimate D2E/DX2                !
 ! D48   D(7,6,17,24)           52.3073         estimate D2E/DX2                !
 ! D49   D(7,6,17,34)           -1.6098         estimate D2E/DX2                !
 ! D50   D(16,6,17,24)         167.4003         estimate D2E/DX2                !
 ! D51   D(16,6,17,34)         113.4832         estimate D2E/DX2                !
 ! D52   D(6,7,34,17)           -0.7161         estimate D2E/DX2                !
 ! D53   D(6,7,34,23)          -72.9942         estimate D2E/DX2                !
 ! D54   D(1,9,26,18)          -55.4732         estimate D2E/DX2                !
 ! D55   D(1,10,25,18)         -55.5331         estimate D2E/DX2                !
 ! D56   D(6,17,24,23)         -72.9592         estimate D2E/DX2                !
 ! D57   D(34,17,24,23)         -0.7568         estimate D2E/DX2                !
 ! D58   D(6,17,34,7)            1.2755         estimate D2E/DX2                !
 ! D59   D(6,17,34,23)         147.126          estimate D2E/DX2                !
 ! D60   D(24,17,34,7)        -144.5016         estimate D2E/DX2                !
 ! D61   D(24,17,34,23)          1.3489         estimate D2E/DX2                !
 ! D62   D(25,18,19,20)       -178.6403         estimate D2E/DX2                !
 ! D63   D(25,18,19,21)        -58.1            estimate D2E/DX2                !
 ! D64   D(25,18,19,23)         63.0946         estimate D2E/DX2                !
 ! D65   D(26,18,19,20)         61.3824         estimate D2E/DX2                !
 ! D66   D(26,18,19,21)       -178.0772         estimate D2E/DX2                !
 ! D67   D(26,18,19,23)        -56.8826         estimate D2E/DX2                !
 ! D68   D(27,18,19,20)        -58.2999         estimate D2E/DX2                !
 ! D69   D(27,18,19,21)         62.2404         estimate D2E/DX2                !
 ! D70   D(27,18,19,23)       -176.5649         estimate D2E/DX2                !
 ! D71   D(19,18,25,10)       -100.0779         estimate D2E/DX2                !
 ! D72   D(26,18,25,10)         20.5374         estimate D2E/DX2                !
 ! D73   D(27,18,25,10)        138.5119         estimate D2E/DX2                !
 ! D74   D(19,18,26,9)         129.2772         estimate D2E/DX2                !
 ! D75   D(25,18,26,9)           7.8998         estimate D2E/DX2                !
 ! D76   D(27,18,26,9)        -110.005          estimate D2E/DX2                !
 ! D77   D(18,19,20,28)         60.232          estimate D2E/DX2                !
 ! D78   D(18,19,20,29)        -59.397          estimate D2E/DX2                !
 ! D79   D(18,19,20,30)       -179.7725         estimate D2E/DX2                !
 ! D80   D(21,19,20,28)        -58.8272         estimate D2E/DX2                !
 ! D81   D(21,19,20,29)       -178.4563         estimate D2E/DX2                !
 ! D82   D(21,19,20,30)         61.1682         estimate D2E/DX2                !
 ! D83   D(23,19,20,28)       -179.7804         estimate D2E/DX2                !
 ! D84   D(23,19,20,29)         60.5906         estimate D2E/DX2                !
 ! D85   D(23,19,20,30)        -59.7849         estimate D2E/DX2                !
 ! D86   D(18,19,21,22)       -178.7812         estimate D2E/DX2                !
 ! D87   D(18,19,21,31)         62.0474         estimate D2E/DX2                !
 ! D88   D(18,19,21,32)        -59.7507         estimate D2E/DX2                !
 ! D89   D(20,19,21,22)        -58.9137         estimate D2E/DX2                !
 ! D90   D(20,19,21,31)       -178.0851         estimate D2E/DX2                !
 ! D91   D(20,19,21,32)         60.1167         estimate D2E/DX2                !
 ! D92   D(23,19,21,22)         60.1978         estimate D2E/DX2                !
 ! D93   D(23,19,21,31)        -58.9735         estimate D2E/DX2                !
 ! D94   D(23,19,21,32)        179.2283         estimate D2E/DX2                !
 ! D95   D(18,19,23,24)        -58.3245         estimate D2E/DX2                !
 ! D96   D(18,19,23,33)       -177.2179         estimate D2E/DX2                !
 ! D97   D(18,19,23,34)         60.6705         estimate D2E/DX2                !
 ! D98   D(20,19,23,24)       -177.7446         estimate D2E/DX2                !
 ! D99   D(20,19,23,33)         63.362          estimate D2E/DX2                !
 ! D100  D(20,19,23,34)        -58.7496         estimate D2E/DX2                !
 ! D101  D(21,19,23,24)         61.364          estimate D2E/DX2                !
 ! D102  D(21,19,23,33)        -57.5295         estimate D2E/DX2                !
 ! D103  D(21,19,23,34)       -179.641          estimate D2E/DX2                !
 ! D104  D(19,23,24,17)        122.4813         estimate D2E/DX2                !
 ! D105  D(33,23,24,17)       -116.0587         estimate D2E/DX2                !
 ! D106  D(34,23,24,17)          1.4998         estimate D2E/DX2                !
 ! D107  D(19,23,34,7)         -70.0416         estimate D2E/DX2                !
 ! D108  D(19,23,34,17)       -124.0666         estimate D2E/DX2                !
 ! D109  D(24,23,34,7)          52.3218         estimate D2E/DX2                !
 ! D110  D(24,23,34,17)         -1.7033         estimate D2E/DX2                !
 ! D111  D(33,23,34,7)         167.4156         estimate D2E/DX2                !
 ! D112  D(33,23,34,17)        113.3905         estimate D2E/DX2                !
 --------------------------------------------------------------------------------
 Number of steps in this run=    204 maximum allowed number of steps=    204.
 GradGradGradGradGradGradGradGradGradGradGradGradGradGradGradGradGradGrad

                    Distance matrix (angstroms):
                    1          2          3          4          5
     1  C    0.000000
     2  C    1.531185   0.000000
     3  C    2.500719   1.531164   0.000000
     4  C    2.479314   1.530511   2.516514   0.000000
     5  Cl   4.106099   2.758572   3.145682   1.783669   0.000000
     6  C    2.512674   1.529155   2.469528   2.516480   3.160458
     7  Cl   3.130530   2.752936   4.094568   3.169232   3.955853
     8  H    1.086901   2.164263   2.726321   2.732652   4.397389
     9  H    1.086791   2.171179   3.456777   2.706546   4.396946
    10  H    1.086718   2.155585   2.741544   3.431119   4.905538
    11  H    2.733188   2.161873   1.086900   3.462380   4.137263
    12  H    3.456300   2.170177   1.086787   2.775998   2.721602
    13  H    2.736676   2.160348   1.087054   2.746752   3.489225
    14  H    2.738836   2.172181   3.470721   1.090267   2.340721
    15  H    2.715937   2.168087   2.764603   1.089577   2.340808
    16  H    3.467197   2.170605   2.737647   2.749537   2.708356
    17  H    2.759107   2.162260   2.690469   3.464583   4.140233
    18  C    3.925921   4.917715   5.972714   5.835145   7.266676
    19  C    4.916631   5.637855   6.542994   6.711607   7.927887
    20  C    5.970285   6.540999   7.602144   7.420660   8.505814
    21  C    5.835839   6.713277   7.424712   7.897575   9.186071
    22  Cl   7.266937   7.929144   8.509982   9.185657  10.283905
    23  C    4.572875   4.941124   5.659246   6.158637   7.146299
    24  Cl   3.848038   4.285298   4.601807   5.728216   6.780886
    25  H    3.359748   4.525928   5.404354   5.568630   7.087704
    26  H    3.461520   4.282120   5.514753   5.030595   6.408344
    27  H    4.665669   5.776357   6.884904   6.551950   8.055123
    28  H    6.496973   7.226197   8.351142   8.018864   9.210944
    29  H    5.700761   6.105629   7.279989   6.829784   7.810078
    30  H    6.779656   7.229681   8.186356   8.180175   9.138166
    31  H    5.482105   6.429831   6.965211   7.707681   9.040680
    32  H    6.364830   7.378284   8.182418   8.459896   9.843557
    33  H    5.575707   5.815272   6.401512   7.059724   7.897279
    34  H    4.237054   4.364789   5.232919   5.448389   6.312564
                    6          7          8          9         10
     6  C    0.000000
     7  Cl   1.779452   0.000000
     8  H    3.460031   4.135408   0.000000
     9  H    2.789290   2.725122   1.764648   0.000000
    10  H    2.720635   3.438376   1.765816   1.765182   0.000000
    11  H    2.703704   4.363811   3.055237   3.741016   2.524322
    12  H    2.708346   4.396755   3.731479   4.305467   3.738233
    13  H    3.426766   4.902592   2.511317   3.731415   3.094085
    14  H    2.761499   2.733163   3.114670   2.512887   3.725399
    15  H    3.467387   4.154110   2.516163   3.037471   3.723392
    16  H    1.090051   2.334337   4.304335   3.773207   3.739043
    17  H    1.089101   2.339271   3.738726   3.153529   2.517301
    18  C    4.575278   3.849762   4.664808   3.358135   3.463059
    19  C    4.941902   4.284327   5.774940   4.523077   4.282351
    20  C    5.657980   4.598538   6.882229   5.400296   5.513934
    21  C    6.160447   5.727912   6.552508   5.567339   5.032635
    22  Cl   7.147279   6.779051   8.055550   7.085822   6.409826
    23  C    4.011457   3.724433   5.539144   4.436522   3.875068
    24  Cl   3.726254   4.176212   4.658990   4.113659   2.894067
    25  H    4.440380   4.116792   3.973212   3.011704   2.732846
    26  H    3.876926   2.896054   4.295901   2.729744   3.261497
    27  H    5.541681   4.660972   5.268954   3.972671   4.298440
    28  H    6.481030   5.318962   7.321214   5.822463   6.084621
    29  H    5.138459   3.854854   6.661982   5.053128   5.416954
    30  H    6.208111   5.256053   7.727974   6.303377   6.248124
    31  H    6.048185   5.908099   6.096638   5.385124   4.566844
    32  H    6.925678   6.328691   6.999678   5.971786   5.640753
    33  H    4.758512   4.538167   6.543236   5.499377   4.838610
    34  H    3.246449   2.761112   5.286456   4.029516   3.757524
                   11         12         13         14         15
    11  H    0.000000
    12  H    1.766501   0.000000
    13  H    1.764622   1.764013   0.000000
    14  H    4.304774   3.767926   3.757955   0.000000
    15  H    3.753790   3.129946   2.546975   1.781776   0.000000
    16  H    3.094120   2.523400   3.732791   3.079378   3.751241
    17  H    2.466433   3.029828   3.695296   3.762977   4.302211
    18  C    5.704818   6.782961   6.497715   5.480143   6.363981
    19  C    6.109138   7.232903   7.226769   6.426749   7.376726
    20  C    7.281572   8.187356   8.349945   6.959729   8.178591
    21  C    6.835572   8.185424   8.021580   7.705980   8.460224
    22  Cl   7.815848   9.143831   9.214034   9.038390   9.843642
    23  C    5.140621   6.211171   6.480955   6.045280   6.923879
    24  Cl   3.859125   5.261498   5.320474   5.907235   6.328787
    25  H    5.058803   6.308266   5.824687   5.385163   5.972876
    26  H    5.419228   6.249842   6.083730   4.563754   5.638335
    27  H    6.666470   7.731241   7.322270   6.094736   6.999046
    28  H    8.066177   9.002461   9.020109   7.478682   8.703956
    29  H    7.093950   7.784153   8.063313   6.282250   7.650939
    30  H    7.784683   8.698199   9.000523   7.773760   8.990942
    31  H    6.289427   7.780439   7.482845   7.649082   8.180257
    32  H    7.656702   8.995748   8.706412   8.178171   8.963607
    33  H    5.799308   6.853654   7.275977   6.981334   7.866003
    34  H    4.884345   5.679645   6.124495   5.267190   6.310711
                   16         17         18         19         20
    16  H    0.000000
    17  H    1.785983   0.000000
    18  C    5.578332   4.240384   0.000000
    19  C    5.816405   4.366753   1.531183   0.000000
    20  C    6.400493   5.233143   2.500686   1.531166   0.000000
    21  C    7.061736   5.451217   2.479329   1.530523   2.516608
    22  Cl   7.898490   6.314682   4.106067   2.758550   3.145333
    23  C    4.759248   3.247451   2.512726   1.529151   2.469452
    24  Cl   4.540834   2.763756   3.130092   2.752933   4.094498
    25  H    5.503349   4.033978   1.086789   2.171205   3.456774
    26  H    4.840848   3.760345   1.086720   2.155570   2.741280
    27  H    6.545882   5.289860   1.086903   2.164231   2.726421
    28  H    7.276117   6.125857   2.737326   2.160335   1.087047
    29  H    5.797651   4.883999   2.732415   2.161850   1.086901
    30  H    6.850639   5.678132   3.456292   2.170211   1.086784
    31  H    6.984414   5.270801   2.739148   2.172163   3.470763
    32  H    7.867930   6.313558   2.715635   2.168115   2.765076
    33  H    5.356276   3.914368   3.467190   2.170563   2.737947
    34  H    3.914318   2.654541   2.759560   2.162256   2.689963
                   21         22         23         24         25
    21  C    0.000000
    22  Cl   1.783634   0.000000
    23  C    2.516444   3.160789   0.000000
    24  Cl   3.169712   3.957417   1.779452   0.000000
    25  H    2.706734   4.397264   2.789243   2.724518   0.000000
    26  H    3.431132   4.905504   2.720847   3.437931   1.765196
    27  H    2.732491   4.396993   3.460057   4.134981   1.764654
    28  H    2.746183   3.487442   3.426694   4.902567   3.731996
    29  H    3.462421   4.137499   2.704313   4.363877   3.740339
    30  H    2.776821   2.722048   2.707575   4.396475   4.305516
    31  H    1.090266   2.340703   2.761137   2.733405   2.513431
    32  H    1.089579   2.340797   3.467377   4.154244   3.037218
    33  H    2.749056   2.708317   1.090046   2.334325   3.772949
    34  H    3.464554   4.140163   1.089090   2.339276   3.153984
                   26         27         28         29         30
    26  H    0.000000
    27  H    1.765814   0.000000
    28  H    3.094772   2.512185   0.000000
    29  H    2.523233   3.054339   1.764629   0.000000
    30  H    3.737664   3.731898   1.763995   1.766498   0.000000
    31  H    3.725710   3.114915   3.757684   4.304759   3.768365
    32  H    3.723095   2.515643   2.546791   3.753776   3.131650
    33  H    3.739363   4.304289   3.732602   3.095691   2.523014
    34  H    2.517987   3.739138   3.695258   2.466653   3.028019
                   31         32         33         34
    31  H    0.000000
    32  H    1.781763   0.000000
    33  H    3.078212   3.751036   0.000000
    34  H    3.762887   4.302218   1.785991   0.000000
 Framework group  C1[X(C10H20Cl4)]
 Deg. of freedom    96
                         Standard orientation:                         
 ---------------------------------------------------------------------
 Center     Atomic      Atomic             Coordinates (Angstroms)
 Number     Number       Type             X           Y           Z
 ---------------------------------------------------------------------
      1          6           0        1.817941    0.742036    1.588043
      2          6           0        2.750147    0.620640    0.379415
      3          6           0        3.225015    2.014108   -0.041549
      4          6           0        3.940082   -0.254111    0.781071
      5         17           0        5.122567   -0.444657   -0.540632
      6          6           0        2.006047    0.007630   -0.807534
      7         17           0        1.340654   -1.599864   -0.433816
      8          1           0        2.329036    1.233120    2.412041
      9          1           0        1.485737   -0.237428    1.921817
     10          1           0        0.945247    1.331324    1.319527
     11          1           0        2.373490    2.637870   -0.300739
     12          1           0        3.887422    1.953607   -0.901003
     13          1           0        3.763460    2.486952    0.775874
     14          1           0        3.610246   -1.257848    1.050149
     15          1           0        4.477341    0.191561    1.617677
     16          1           0        2.675639   -0.126630   -1.657142
     17          1           0        1.164527    0.638403   -1.090572
     18          6           0       -1.818336   -0.737944    1.590670
     19          6           0       -2.749621   -0.619503    0.381042
     20          6           0       -3.222079   -2.014238   -0.038444
     21          6           0       -3.941118    0.254195    0.780404
     22         17           0       -5.123186    0.440369   -0.542247
     23          6           0       -2.005383   -0.007129   -0.806144
     24         17           0       -1.341426    1.601259   -0.433722
     25          1           0       -1.487498    0.242398    1.923217
     26          1           0       -0.944773   -1.326714    1.323836
     27          1           0       -2.329636   -1.228311    2.414970
     28          1           0       -3.761882   -2.486132    0.778624
     29          1           0       -2.369292   -2.637555   -0.294541
     30          1           0       -3.882597   -1.956056   -0.899508
     31          1           0       -3.612926    1.258944    1.047702
     32          1           0       -4.478113   -0.190649    1.617621
     33          1           0       -2.674687    0.125769   -1.656186
     34          1           0       -1.163252   -0.637539   -1.088127
 ---------------------------------------------------------------------
 Rotational constants (GHZ):           0.9594360           0.1539945           0.1455928
   252 basis functions,   478 primitive gaussians,   266 cartesian basis functions
    74 alpha electrons       74 beta electrons
       nuclear repulsion energy      1438.9351548033 Hartrees.
 NAtoms=   34 NActive=   34 NUniq=   34 SFac= 1.00D+00 NAtFMM=   60 NAOKFM=F Big=F
 Nuclear repulsion after empirical dispersion term =     1438.9058026306 Hartrees.
   1 Symmetry operations used in ECPInt.
 ECPInt:  NShTT=    8778 NPrTT=   37410 LenC2=    8083 LenP2D=   23676.
 LDataN:  DoStor=T MaxTD1= 4 Len=   56
 ExpMin= 1.22D-01 ExpMax= 1.04D+04 ExpMxC= 1.57D+03 IAcc=3 IRadAn=         5 AccDes= 0.00D+00
 Harris functional with IExCor= 4639 and IRadAn=       5 diagonalized for initial guess.
 HarFok:  IExCor= 4639 AccDes= 0.00D+00 IRadAn=         5 IDoV= 1 UseB2=F ITyADJ=14
 ICtDFT=  3500011 ScaDFX=  1.000000  1.000000  1.000000  1.000000
 FoFCou: FMM=F IPFlag=           0 FMFlag=      100000 FMFlg1=           0
         NFxFlg=           0 DoJE=T BraDBF=F KetDBF=T FulRan=T
         wScrn=  0.000000 ICntrl=       500 IOpCl=  0 I1Cent=   200000004 NGrid=           0
         NMat0=    1 NMatS0=      1 NMatT0=    0 NMatD0=    1 NMtDS0=    0 NMtDT0=    0
 Petite list used in FoFCou.
     Accept linear search using points  2 and  3.
     Accept linear search using points  1 and  2.
     Accept linear search using points  1 and  2.
     Minimum is close to point  2 DX= -4.67D-05 DF=  0.00D+00 DXR=  4.67D-05 DFR=  0.00D+00 which will be used.
 SCF Done:  E(RwB97XD) =  -2232.92306440     a.u. after    7 cycles
            Convg  =    0.3383D-08                    32 Fock formations.
              S**2 =  0.0000                  -V/T =  2.0035

 **********************************************************************

            Population analysis using the SCF Density.

 **********************************************************************

 Orbital symmetries:
       Occupied  (A) (A) (A) (A) (A) (A) (A) (A) (A) (A) (A) (A)
                 (A) (A) (A) (A) (A) (A) (A) (A) (A) (A) (A) (A)
                 (A) (A) (A) (A) (A) (A) (A) (A) (A) (A) (A) (A)
                 (A) (A) (A) (A) (A) (A) (A) (A) (A) (A) (A) (A)
                 (A) (A) (A) (A) (A) (A) (A) (A) (A) (A) (A) (A)
                 (A) (A) (A) (A) (A) (A) (A) (A) (A) (A) (A) (A)
                 (A) (A)
       Virtual   (A) (A) (A) (A) (A) (A) (A) (A) (A) (A) (A) (A)
                 (A) (A) (A) (A) (A) (A) (A) (A) (A) (A) (A) (A)
                 (A) (A) (A) (A) (A) (A) (A) (A) (A) (A) (A) (A)
                 (A) (A) (A) (A) (A) (A) (A) (A) (A) (A) (A) (A)
                 (A) (A) (A) (A) (A) (A) (A) (A) (A) (A) (A) (A)
                 (A) (A) (A) (A) (A) (A) (A) (A) (A) (A) (A) (A)
                 (A) (A) (A) (A) (A) (A) (A) (A) (A) (A) (A) (A)
                 (A) (A) (A) (A) (A) (A) (A) (A) (A) (A) (A) (A)
                 (A) (A) (A) (A) (A) (A) (A) (A) (A) (A) (A) (A)
                 (A) (A) (A) (A) (A) (A) (A) (A) (A) (A) (A) (A)
                 (A) (A) (A) (A) (A) (A) (A) (A) (A) (A) (A) (A)
                 (A) (A) (A) (A) (A) (A) (A) (A) (A) (A) (A) (A)
                 (A) (A) (A) (A) (A) (A) (A) (A) (A) (A) (A) (A)
                 (A) (A) (A) (A) (A) (A) (A) (A) (A) (A) (A) (A)
                 (A) (A) (A) (A) (A) (A) (A) (A) (A) (A)
 The electronic state is 1-A.
 Alpha  occ. eigenvalues -- -101.67241-101.67238-101.66250-101.66249 -10.34791
 Alpha  occ. eigenvalues --  -10.34790 -10.34685 -10.34682 -10.33101 -10.33099
 Alpha  occ. eigenvalues --  -10.28821 -10.28820 -10.28678 -10.28677  -9.58005
 Alpha  occ. eigenvalues --   -9.58003  -9.57053  -9.57052  -7.33349  -7.33346
 Alpha  occ. eigenvalues --   -7.32443  -7.32440  -7.32420  -7.32420  -7.32411
 Alpha  occ. eigenvalues --   -7.32409  -7.31475  -7.31475  -7.31445  -7.31445
 Alpha  occ. eigenvalues --   -0.98820  -0.98620  -0.94878  -0.94702  -0.89785
 Alpha  occ. eigenvalues --   -0.89685  -0.79628  -0.79446  -0.76835  -0.76776
 Alpha  occ. eigenvalues --   -0.76407  -0.76312  -0.64188  -0.64075  -0.58545
 Alpha  occ. eigenvalues --   -0.58103  -0.57987  -0.57611  -0.54747  -0.54318
 Alpha  occ. eigenvalues --   -0.53274  -0.52742  -0.51052  -0.50784  -0.50049
 Alpha  occ. eigenvalues --   -0.48996  -0.47549  -0.47187  -0.46975  -0.46751
 Alpha  occ. eigenvalues --   -0.45464  -0.45329  -0.43917  -0.43640  -0.42840
 Alpha  occ. eigenvalues --   -0.42326  -0.39501  -0.38565  -0.38562  -0.37852
 Alpha  occ. eigenvalues --   -0.37389  -0.37308  -0.36962  -0.36641
 Alpha virt. eigenvalues --    0.10960   0.11362   0.12380   0.12869   0.13846
 Alpha virt. eigenvalues --    0.14956   0.16798   0.17535   0.17787   0.18158
 Alpha virt. eigenvalues --    0.18445   0.19072   0.19086   0.19870   0.20836
 Alpha virt. eigenvalues --    0.21468   0.21848   0.22586   0.24015   0.24080
 Alpha virt. eigenvalues --    0.25479   0.25783   0.26184   0.27302   0.27438
 Alpha virt. eigenvalues --    0.28130   0.28140   0.29152   0.29722   0.30364
 Alpha virt. eigenvalues --    0.31259   0.32125   0.43372   0.45792   0.46778
 Alpha virt. eigenvalues --    0.48103   0.48446   0.48904   0.49247   0.51174
 Alpha virt. eigenvalues --    0.51181   0.53171   0.55253   0.55334   0.58497
 Alpha virt. eigenvalues --    0.59855   0.60412   0.63746   0.64757   0.65613
 Alpha virt. eigenvalues --    0.66029   0.67371   0.67535   0.67957   0.68251
 Alpha virt. eigenvalues --    0.71090   0.72352   0.72709   0.73003   0.73814
 Alpha virt. eigenvalues --    0.74235   0.74413   0.75644   0.75781   0.75991
 Alpha virt. eigenvalues --    0.76919   0.77173   0.77585   0.78468   0.78647
 Alpha virt. eigenvalues --    0.78774   0.79465   0.79562   0.80576   0.80590
 Alpha virt. eigenvalues --    0.81293   0.81477   0.81954   0.82289   0.83037
 Alpha virt. eigenvalues --    0.84050   0.84919   0.85493   0.86071   0.86524
 Alpha virt. eigenvalues --    0.87559   0.87676   0.88593   0.88715   0.88880
 Alpha virt. eigenvalues --    0.88934   0.89250   0.90096   0.90435   0.90585
 Alpha virt. eigenvalues --    0.91475   0.91717   0.91835   0.92939   0.93532
 Alpha virt. eigenvalues --    0.95928   0.97315   0.97392   0.97908   1.00662
 Alpha virt. eigenvalues --    1.00670   1.06475   1.08063   1.09917   1.11270
 Alpha virt. eigenvalues --    1.16176   1.17342   1.17526   1.17986   1.18864
 Alpha virt. eigenvalues --    1.20469   1.21420   1.22965   1.25249   1.25576
 Alpha virt. eigenvalues --    1.27444   1.29686   1.30150   1.32044   1.40896
 Alpha virt. eigenvalues --    1.41343   1.45153   1.45451   1.50439   1.51928
 Alpha virt. eigenvalues --    1.56193   1.56256   1.79452   1.79567   1.81381
 Alpha virt. eigenvalues --    1.81535   1.82064   1.82427   1.87759   1.89529
 Alpha virt. eigenvalues --    1.89948   1.90735   1.92375   1.93745   2.10132
 Alpha virt. eigenvalues --    2.10431   2.10835   2.10970   2.11323   2.11683
 Alpha virt. eigenvalues --    2.12467   2.12882   2.13288   2.17225   2.22310
 Alpha virt. eigenvalues --    2.23272   2.23342   2.24140   2.24276   2.25979
 Alpha virt. eigenvalues --    2.26099   2.27645   2.28524   2.30214   2.31159
 Alpha virt. eigenvalues --    2.31193   2.32123   2.32645   2.61182   2.62217
 Alpha virt. eigenvalues --    2.63095   2.63290   2.75005   2.75205   2.75803
 Alpha virt. eigenvalues --    2.76812   2.77281   2.78162
          Condensed to atoms (all electrons):
 Mulliken charges:
               1
     1  C   -0.270568
     2  C   -0.301063
     3  C   -0.254429
     4  C   -0.113299
     5  Cl  -0.158445
     6  C   -0.124728
     7  Cl  -0.145258
     8  H    0.115387
     9  H    0.130515
    10  H    0.129318
    11  H    0.123935
    12  H    0.129954
    13  H    0.119587
    14  H    0.157772
    15  H    0.149177
    16  H    0.160948
    17  H    0.151245
    18  C   -0.270518
    19  C   -0.301051
    20  C   -0.254400
    21  C   -0.113306
    22  Cl  -0.158449
    23  C   -0.124811
    24  Cl  -0.145300
    25  H    0.130487
    26  H    0.129317
    27  H    0.115387
    28  H    0.119586
    29  H    0.123928
    30  H    0.129943
    31  H    0.157758
    32  H    0.149176
    33  H    0.160923
    34  H    0.151284
 Sum of Mulliken charges =   0.00000
 Mulliken charges with hydrogens summed into heavy atoms:
               1
     1  C    0.104652
     2  C   -0.301063
     3  C    0.119047
     4  C    0.193650
     5  Cl  -0.158445
     6  C    0.187465
     7  Cl  -0.145258
    18  C    0.104672
    19  C   -0.301051
    20  C    0.119057
    21  C    0.193629
    22  Cl  -0.158449
    23  C    0.187395
    24  Cl  -0.145300
 Electronic spatial extent (au):  <R**2>=           7111.5890
 Charge=              0.0000 electrons
 Dipole moment (field-independent basis, Debye):
    X=              0.0019    Y=              0.0032    Z=              1.9661  Tot=              1.9661
   1 Symmetry operations used in ECPInt.
 ECPInt:  NShTT=    8778 NPrTT=   37410 LenC2=    8083 LenP2D=   23676.
 LDataN:  DoStor=T MaxTD1= 5 Len=  102
 Calling FoFJK, ICntrl=      2127 FMM=F ISym2X=0 I1Cent= 0 IOpClX= 0 NMat=1 NMatS=1 NMatT=0.

 GradGradGradGradGradGradGradGradGradGradGradGradGradGradGradGradGradGrad
 FormGI is forming the generalized inverse of G from B-inverse, IUseBI=4.
 Internal  Forces:  Max     0.011663212 RMS     0.003561019
 Step number   1 out of a maximum of  204
 All quantities printed in internal units (Hartrees-Bohrs-Radians)
 Mixed Optimization -- RFO/linear search
 Second derivative matrix not updated -- first step.
 ITU=  0
     Eigenvalues ---    0.00354   0.00354   0.00362   0.00362   0.00364
     Eigenvalues ---    0.00410   0.00511   0.00812   0.00879   0.01188
     Eigenvalues ---    0.01617   0.01950   0.01958   0.02339   0.02961
     Eigenvalues ---    0.03041   0.03648   0.04015   0.04708   0.04734
     Eigenvalues ---    0.04746   0.04792   0.04845   0.04916   0.04945
     Eigenvalues ---    0.05426   0.05444   0.05444   0.05589   0.05589
     Eigenvalues ---    0.05609   0.05678   0.05678   0.05698   0.05757
     Eigenvalues ---    0.05757   0.05949   0.07193   0.07329   0.07881
     Eigenvalues ---    0.08296   0.08538   0.08684   0.09460   0.10593
     Eigenvalues ---    0.10948   0.12280   0.12913   0.13632   0.14135
     Eigenvalues ---    0.14232   0.15044   0.16000   0.16000   0.16000
     Eigenvalues ---    0.16000   0.16000   0.16000   0.16000   0.16000
     Eigenvalues ---    0.16000   0.16000   0.22323   0.22323   0.24752
     Eigenvalues ---    0.25813   0.27168   0.27447   0.27450   0.27914
     Eigenvalues ---    0.29224   0.29316   0.29316   0.29375   0.29376
     Eigenvalues ---    0.29415   0.29832   0.32001   0.32860   0.33122
     Eigenvalues ---    0.34336   0.34719   0.34782   0.34782   0.34807
     Eigenvalues ---    0.34807   0.34861   0.34862   0.35155   0.35156
     Eigenvalues ---    0.35173   0.35173   0.35173   0.35173   0.35187
     Eigenvalues ---    0.35187
 Linear search not attempted -- first point.
 Iteration  1 RMS(Cart)=  0.03530490 RMS(Int)=  0.00065407
 Iteration  2 RMS(Cart)=  0.00087832 RMS(Int)=  0.00010679
 Iteration  3 RMS(Cart)=  0.00000083 RMS(Int)=  0.00010679
 Variable       Old X    -DE/DX   Delta X   Delta X   Delta X     New X
                                 (Linear)    (Quad)   (Total)
    R1        2.89352   0.00485   0.00000   0.01512   0.01503   2.90855
    R2        2.05395   0.01166   0.00000   0.03223   0.03223   2.08618
    R3        2.05374   0.01024   0.00000   0.02855   0.02856   2.08229
    R4        2.05360   0.01083   0.00000   0.02993   0.02987   2.08347
    R5        2.89348   0.00433   0.00000   0.01427   0.01427   2.90775
    R6        2.89225   0.00536   0.00000   0.01763   0.01763   2.90988
    R7        2.88968   0.00597   0.00000   0.02039   0.02044   2.91013
    R8        2.05394   0.01142   0.00000   0.03157   0.03157   2.08551
    R9        2.05373   0.01033   0.00000   0.02853   0.02853   2.08226
   R10        2.05423   0.01131   0.00000   0.03128   0.03128   2.08552
   R11        3.37065   0.00831   0.00000   0.02921   0.02921   3.39985
   R12        2.06031   0.00629   0.00000   0.01758   0.01758   2.07788
   R13        2.05900   0.00740   0.00000   0.02064   0.02064   2.07964
   R14        3.36268   0.01051   0.00000   0.04067   0.04089   3.40357
   R15        2.05990   0.00618   0.00000   0.01726   0.01726   2.07715
   R16        2.05810   0.00731   0.00000   0.02134   0.02137   2.07948
   R17        5.21774   0.00016   0.00000   0.01531   0.01548   5.23322
   R18        5.15847   0.00047   0.00000   0.00516   0.00510   5.16357
   R19        5.16433   0.00047   0.00000   0.00506   0.00500   5.16933
   R20        5.22274   0.00014   0.00000   0.01510   0.01526   5.23801
   R21        5.01636   0.00233   0.00000   0.02291   0.02247   5.03882
   R22        2.89352   0.00486   0.00000   0.01514   0.01505   2.90857
   R23        2.05373   0.01024   0.00000   0.02855   0.02855   2.08229
   R24        2.05360   0.01083   0.00000   0.02994   0.02988   2.08348
   R25        2.05395   0.01166   0.00000   0.03223   0.03223   2.08618
   R26        2.89348   0.00432   0.00000   0.01426   0.01426   2.90774
   R27        2.89227   0.00534   0.00000   0.01757   0.01757   2.90984
   R28        2.88968   0.00597   0.00000   0.02040   0.02046   2.91014
   R29        2.05422   0.01132   0.00000   0.03130   0.03130   2.08552
   R30        2.05395   0.01142   0.00000   0.03156   0.03156   2.08551
   R31        2.05372   0.01034   0.00000   0.02855   0.02855   2.08228
   R32        3.37058   0.00832   0.00000   0.02923   0.02923   3.39981
   R33        2.06030   0.00630   0.00000   0.01759   0.01759   2.07789
   R34        2.05901   0.00740   0.00000   0.02064   0.02064   2.07964
   R35        3.36268   0.01051   0.00000   0.04069   0.04090   3.40358
   R36        2.05989   0.00618   0.00000   0.01727   0.01727   2.07716
   R37        2.05808   0.00731   0.00000   0.02134   0.02137   2.07946
    A1        1.92618   0.00064   0.00000   0.00368   0.00374   1.92992
    A2        1.93592  -0.00050   0.00000   0.00738   0.00733   1.94325
    A3        1.91438   0.00127   0.00000   0.00639   0.00638   1.92076
    A4        1.89453   0.00049   0.00000  -0.00135  -0.00143   1.89310
    A5        1.89646  -0.00095   0.00000  -0.00610  -0.00610   1.89036
    A6        1.89560  -0.00099   0.00000  -0.01059  -0.01060   1.88500
    A7        1.91100   0.00040   0.00000  -0.00754  -0.00746   1.90354
    A8        1.88757  -0.00197   0.00000  -0.01638  -0.01647   1.87110
    A9        1.92647   0.00039   0.00000   0.00897   0.00898   1.93546
   A10        1.92962   0.00103   0.00000   0.00873   0.00867   1.93829
   A11        1.87794  -0.00140   0.00000  -0.01081  -0.01090   1.86704
   A12        1.93148   0.00160   0.00000   0.01719   0.01727   1.94874
   A13        1.92290   0.00064   0.00000   0.00346   0.00344   1.92633
   A14        1.93455   0.00198   0.00000   0.01307   0.01303   1.94759
   A15        1.92063   0.00067   0.00000   0.00287   0.00286   1.92348
   A16        1.89746  -0.00107   0.00000  -0.00420  -0.00425   1.89321
   A17        1.89415  -0.00105   0.00000  -0.00896  -0.00896   1.88519
   A18        1.89334  -0.00128   0.00000  -0.00694  -0.00697   1.88637
   A19        1.96278   0.00874   0.00000   0.04138   0.04129   2.00407
   A20        1.93450  -0.00105   0.00000  -0.00652  -0.00669   1.92781
   A21        1.92953  -0.00179   0.00000  -0.01067  -0.01081   1.91872
   A22        1.85990  -0.00307   0.00000  -0.00691  -0.00702   1.85288
   A23        1.86060  -0.00255   0.00000  -0.00330  -0.00335   1.85725
   A24        1.91372  -0.00045   0.00000  -0.01457  -0.01478   1.89894
   A25        1.96176   0.00298   0.00000   0.03297   0.03299   1.99476
   A26        1.93420   0.00045   0.00000  -0.00331  -0.00353   1.93067
   A27        1.92361  -0.00135   0.00000  -0.00389  -0.00376   1.91985
   A28        1.85680  -0.00113   0.00000  -0.00960  -0.00954   1.84727
   A29        1.86383  -0.00070   0.00000  -0.00136  -0.00184   1.86198
   A30        1.92134  -0.00031   0.00000  -0.01550  -0.01561   1.90574
   A31        1.54528  -0.00037   0.00000  -0.00121  -0.00145   1.54383
   A32        2.17065  -0.00136   0.00000  -0.00353  -0.00360   2.16706
   A33        2.03110   0.00159   0.00000   0.00326   0.00303   2.03413
   A34        2.56920   0.00157   0.00000   0.01070   0.01063   2.57983
   A35        1.98115  -0.00158   0.00000  -0.00334  -0.00332   1.97783
   A36        0.89198   0.00268   0.00000   0.00714   0.00702   0.89900
   A37        1.93596  -0.00049   0.00000   0.00739   0.00734   1.94330
   A38        1.91436   0.00127   0.00000   0.00646   0.00645   1.92081
   A39        1.92614   0.00064   0.00000   0.00367   0.00372   1.92986
   A40        1.89562  -0.00100   0.00000  -0.01059  -0.01061   1.88501
   A41        1.89453   0.00048   0.00000  -0.00139  -0.00147   1.89307
   A42        1.89645  -0.00095   0.00000  -0.00611  -0.00612   1.89033
   A43        1.91096   0.00040   0.00000  -0.00750  -0.00742   1.90354
   A44        1.88758  -0.00197   0.00000  -0.01635  -0.01644   1.87113
   A45        1.92654   0.00039   0.00000   0.00901   0.00903   1.93557
   A46        1.92971   0.00101   0.00000   0.00860   0.00854   1.93825
   A47        1.87786  -0.00139   0.00000  -0.01078  -0.01087   1.86699
   A48        1.93143   0.00160   0.00000   0.01719   0.01727   1.94869
   A49        1.92062   0.00068   0.00000   0.00291   0.00290   1.92351
   A50        1.92286   0.00064   0.00000   0.00348   0.00346   1.92632
   A51        1.93460   0.00197   0.00000   0.01296   0.01292   1.94752
   A52        1.89417  -0.00105   0.00000  -0.00893  -0.00893   1.88524
   A53        1.89332  -0.00128   0.00000  -0.00696  -0.00699   1.88632
   A54        1.89745  -0.00106   0.00000  -0.00414  -0.00419   1.89326
   A55        1.96278   0.00872   0.00000   0.04131   0.04122   2.00400
   A56        1.93446  -0.00104   0.00000  -0.00648  -0.00665   1.92781
   A57        1.92955  -0.00179   0.00000  -0.01067  -0.01081   1.91874
   A58        1.85991  -0.00307   0.00000  -0.00688  -0.00699   1.85293
   A59        1.86062  -0.00255   0.00000  -0.00331  -0.00336   1.85726
   A60        1.91370  -0.00045   0.00000  -0.01455  -0.01476   1.89894
   A61        1.96176   0.00300   0.00000   0.03307   0.03309   1.99485
   A62        1.93415   0.00046   0.00000  -0.00328  -0.00350   1.93066
   A63        1.92362  -0.00136   0.00000  -0.00401  -0.00388   1.91974
   A64        1.85679  -0.00113   0.00000  -0.00963  -0.00957   1.84722
   A65        1.86384  -0.00070   0.00000  -0.00136  -0.00185   1.86200
   A66        1.92138  -0.00030   0.00000  -0.01546  -0.01557   1.90581
   A67        1.54448  -0.00036   0.00000  -0.00114  -0.00138   1.54310
   A68        2.16860  -0.00135   0.00000  -0.00348  -0.00354   2.16505
   A69        2.03281   0.00158   0.00000   0.00320   0.00297   2.03578
   A70        0.89249   0.00268   0.00000   0.00711   0.00700   0.89949
   A71        2.57103   0.00156   0.00000   0.01063   0.01056   2.58160
   A72        1.98239  -0.00159   0.00000  -0.00336  -0.00334   1.97905
    D1       -1.01714  -0.00060   0.00000  -0.00640  -0.00647  -1.02360
    D2        1.08659  -0.00031   0.00000  -0.01014  -0.01007   1.07652
    D3       -3.08133   0.00064   0.00000   0.00606   0.00608  -3.07526
    D4       -3.11746  -0.00130   0.00000  -0.01196  -0.01201  -3.12947
    D5       -1.01374  -0.00101   0.00000  -0.01570  -0.01561  -1.02935
    D6        1.10152  -0.00007   0.00000   0.00050   0.00054   1.10206
    D7        1.07176  -0.00057   0.00000  -0.00760  -0.00763   1.06414
    D8       -3.10769  -0.00028   0.00000  -0.01134  -0.01123  -3.11892
    D9       -0.99243   0.00067   0.00000   0.00486   0.00492  -0.98751
   D10       -1.74805   0.00111   0.00000   0.02014   0.02018  -1.72787
   D11        2.41610   0.00031   0.00000   0.01183   0.01185   2.42795
   D12        0.35707   0.00173   0.00000   0.02578   0.02572   0.38279
   D13        2.25794  -0.00037   0.00000  -0.00515  -0.00527   2.25267
   D14       -1.91826   0.00059   0.00000  -0.00053  -0.00062  -1.91888
   D15        0.13955   0.00008   0.00000  -0.01150  -0.01150   0.12805
   D16       -1.03819  -0.00011   0.00000   0.00393   0.00387  -1.03432
   D17       -3.13913  -0.00047   0.00000  -0.00158  -0.00166  -3.14079
   D18        1.04974  -0.00058   0.00000  -0.00317  -0.00326   1.04648
   D19       -3.11612   0.00144   0.00000   0.02346   0.02350  -3.09262
   D20        1.06612   0.00108   0.00000   0.01795   0.01797   1.08410
   D21       -1.02819   0.00097   0.00000   0.01636   0.01638  -1.01182
   D22        1.05598  -0.00024   0.00000   0.00403   0.00409   1.06007
   D23       -1.04496  -0.00061   0.00000  -0.00148  -0.00144  -1.04640
   D24       -3.13928  -0.00071   0.00000  -0.00307  -0.00303   3.14087
   D25       -3.12100  -0.00003   0.00000   0.00006   0.00004  -3.12096
   D26        1.08225  -0.00123   0.00000  -0.01427  -0.01429   1.06796
   D27       -1.04357   0.00127   0.00000   0.01586   0.01577  -1.02780
   D28       -1.02893  -0.00016   0.00000  -0.01413  -0.01416  -1.04309
   D29       -3.10887  -0.00137   0.00000  -0.02846  -0.02848  -3.13735
   D30        1.04850   0.00114   0.00000   0.00166   0.00157   1.05007
   D31        1.05003  -0.00023   0.00000  -0.01101  -0.01090   1.03913
   D32       -1.02991  -0.00143   0.00000  -0.02534  -0.02522  -1.05513
   D33        3.12746   0.00107   0.00000   0.00479   0.00484   3.13230
   D34       -1.01875   0.00057   0.00000  -0.00837  -0.00828  -1.02702
   D35       -3.09388  -0.00028   0.00000  -0.01577  -0.01579  -3.10967
   D36        1.05808   0.00071   0.00000   0.00870   0.00866   1.06674
   D37       -3.10308   0.00072   0.00000   0.00216   0.00225  -3.10083
   D38        1.10498  -0.00014   0.00000  -0.00524  -0.00527   1.09971
   D39       -1.02625   0.00086   0.00000   0.01923   0.01918  -1.00707
   D40        1.07019  -0.00061   0.00000  -0.01196  -0.01176   1.05843
   D41       -1.00494  -0.00147   0.00000  -0.01936  -0.01927  -1.02421
   D42       -3.13617  -0.00047   0.00000   0.00511   0.00518  -3.13099
   D43        2.13628  -0.00133   0.00000  -0.01942  -0.01924   2.11704
   D44       -2.02696   0.00027   0.00000  -0.01019  -0.01017  -2.03714
   D45        0.02478  -0.00099   0.00000  -0.03347  -0.03358  -0.00880
   D46       -1.22269   0.00049   0.00000   0.00316   0.00302  -1.21967
   D47       -2.16372  -0.00125   0.00000   0.00103   0.00112  -2.16260
   D48        0.91293   0.00289   0.00000   0.04019   0.03995   0.95288
   D49       -0.02810   0.00115   0.00000   0.03805   0.03805   0.00995
   D50        2.92169   0.00103   0.00000   0.02032   0.02010   2.94179
   D51        1.98066  -0.00071   0.00000   0.01818   0.01821   1.99886
   D52       -0.01250   0.00048   0.00000   0.01688   0.01694   0.00444
   D53       -1.27399   0.00114   0.00000   0.02539   0.02552  -1.24847
   D54       -0.96819  -0.00037   0.00000  -0.02219  -0.02217  -0.99036
   D55       -0.96923  -0.00038   0.00000  -0.02212  -0.02210  -0.99133
   D56       -1.27338   0.00114   0.00000   0.02546   0.02558  -1.24780
   D57       -0.01321   0.00048   0.00000   0.01691   0.01697   0.00376
   D58        0.02226  -0.00089   0.00000  -0.03006  -0.03018  -0.00792
   D59        2.56783   0.00138   0.00000  -0.01598  -0.01623   2.55161
   D60       -2.52203  -0.00315   0.00000  -0.04421  -0.04421  -2.56624
   D61        0.02354  -0.00089   0.00000  -0.03013  -0.03025  -0.00671
   D62       -3.11786  -0.00129   0.00000  -0.01153  -0.01158  -3.12944
   D63       -1.01404  -0.00101   0.00000  -0.01539  -0.01530  -1.02934
   D64        1.10121  -0.00006   0.00000   0.00085   0.00088   1.10209
   D65        1.07133  -0.00056   0.00000  -0.00721  -0.00723   1.06409
   D66       -3.10803  -0.00029   0.00000  -0.01108  -0.01096  -3.11899
   D67       -0.99279   0.00067   0.00000   0.00516   0.00523  -0.98756
   D68       -1.01753  -0.00059   0.00000  -0.00602  -0.00609  -1.02362
   D69        1.08630  -0.00031   0.00000  -0.00989  -0.00981   1.07649
   D70       -3.08164   0.00064   0.00000   0.00635   0.00637  -3.07527
   D71       -1.74669   0.00110   0.00000   0.01996   0.02001  -1.72668
   D72        0.35844   0.00173   0.00000   0.02568   0.02563   0.38407
   D73        2.41749   0.00030   0.00000   0.01169   0.01171   2.42920
   D74        2.25631  -0.00037   0.00000  -0.00506  -0.00518   2.25113
   D75        0.13788   0.00008   0.00000  -0.01145  -0.01145   0.12642
   D76       -1.91995   0.00060   0.00000  -0.00043  -0.00052  -1.92047
   D77        1.05125  -0.00058   0.00000  -0.00355  -0.00364   1.04761
   D78       -1.03667  -0.00011   0.00000   0.00348   0.00342  -1.03326
   D79       -3.13762  -0.00048   0.00000  -0.00204  -0.00212  -3.13974
   D80       -1.02673   0.00097   0.00000   0.01601   0.01603  -1.01070
   D81       -3.11465   0.00144   0.00000   0.02304   0.02308  -3.09157
   D82        1.06759   0.00107   0.00000   0.01752   0.01754   1.08513
   D83       -3.13776  -0.00071   0.00000  -0.00336  -0.00332  -3.14108
   D84        1.05751  -0.00024   0.00000   0.00367   0.00373   1.06124
   D85       -1.04344  -0.00061   0.00000  -0.00185  -0.00181  -1.04525
   D86       -3.12032  -0.00003   0.00000   0.00004   0.00001  -3.12031
   D87        1.08293  -0.00123   0.00000  -0.01431  -0.01432   1.06861
   D88       -1.04285   0.00127   0.00000   0.01577   0.01569  -1.02716
   D89       -1.02824  -0.00016   0.00000  -0.01417  -0.01420  -1.04244
   D90       -3.10817  -0.00137   0.00000  -0.02852  -0.02854  -3.13671
   D91        1.04924   0.00113   0.00000   0.00156   0.00147   1.05071
   D92        1.05065  -0.00023   0.00000  -0.01110  -0.01099   1.03966
   D93       -1.02928  -0.00143   0.00000  -0.02545  -0.02533  -1.05461
   D94        3.12812   0.00107   0.00000   0.00464   0.00468   3.13281
   D95       -1.01795   0.00056   0.00000  -0.00879  -0.00869  -1.02664
   D96       -3.09304  -0.00029   0.00000  -0.01622  -0.01624  -3.10928
   D97        1.05890   0.00071   0.00000   0.00826   0.00822   1.06712
   D98       -3.10223   0.00070   0.00000   0.00166   0.00175  -3.10048
   D99        1.10588  -0.00015   0.00000  -0.00578  -0.00580   1.10007
   D100      -1.02537   0.00085   0.00000   0.01870   0.01866  -1.00672
   D101       1.07100  -0.00061   0.00000  -0.01231  -0.01211   1.05889
   D102      -1.00408  -0.00147   0.00000  -0.01975  -0.01966  -1.02374
   D103      -3.13533  -0.00047   0.00000   0.00473   0.00480  -3.13053
   D104       2.13770  -0.00134   0.00000  -0.01957  -0.01938   2.11832
   D105      -2.02561   0.00026   0.00000  -0.01026  -0.01024  -2.03585
   D106       0.02618  -0.00099   0.00000  -0.03352  -0.03363  -0.00745
   D107      -1.22246   0.00049   0.00000   0.00323   0.00308  -1.21937
   D108      -2.16537  -0.00125   0.00000   0.00110   0.00120  -2.16417
   D109       0.91319   0.00289   0.00000   0.04029   0.04005   0.95323
   D110      -0.02973   0.00116   0.00000   0.03817   0.03816   0.00844
   D111       2.92195   0.00102   0.00000   0.02040   0.02018   2.94213
   D112       1.97904  -0.00071   0.00000   0.01827   0.01829   1.99733
         Item               Value     Threshold  Converged?
 Maximum Force            0.011663     0.000015     NO 
 RMS     Force            0.003561     0.000010     NO 
 Maximum Displacement     0.158385     0.000060     NO 
 RMS     Displacement     0.035647     0.000040     NO 
 GradGradGradGradGradGradGradGradGradGradGradGradGradGradGradGradGradGrad

                    Distance matrix (angstroms):
                    1          2          3          4          5
     1  C    0.000000
     2  C    1.539138   0.000000
     3  C    2.506737   1.538716   0.000000
     4  C    2.478350   1.539840   2.537967   0.000000
     5  Cl   4.146519   2.816774   3.236994   1.799125   0.000000
     6  C    2.535954   1.539972   2.474404   2.548080   3.247250
     7  Cl   3.213692   2.810236   4.140310   3.249161   4.035830
     8  H    1.103957   2.186779   2.742756   2.732461   4.427861
     9  H    1.101903   2.194877   3.481438   2.720284   4.437116
    10  H    1.102525   2.179027   2.753381   3.451360   4.980662
    11  H    2.744391   2.183532   1.103606   3.498054   4.254701
    12  H    3.483412   2.197604   1.101884   2.823898   2.845203
    13  H    2.747660   2.181455   1.103608   2.770490   3.565513
    14  H    2.724838   2.182570   3.495342   1.099569   2.355252
    15  H    2.697894   2.176636   2.782906   1.100499   2.359409
    16  H    3.494782   2.184470   2.737980   2.793286   2.814780
    17  H    2.788902   2.177511   2.684123   3.500012   4.240918
    18  C    3.950399   4.940165   5.987287   5.863687   7.333786
    19  C    4.939188   5.656215   6.546779   6.744223   8.010499
    20  C    5.985264   6.545215   7.594904   7.441814   8.565417
    21  C    5.864223   6.745605   7.445052   7.936328   9.284648
    22  Cl   7.334013   8.011562   8.568801   9.284335  10.459879
    23  C    4.599244   4.961136   5.657744   6.199348   7.248344
    24  Cl   3.897124   4.311456   4.588335   5.771928   6.883621
    25  H    3.375547   4.547198   5.417092   5.589123   7.155294
    26  H    3.473035   4.289309   5.518571   5.044546   6.453472
    27  H    4.704771   5.813223   6.918199   6.589041   8.121781
    28  H    6.523033   7.242336   8.360765   8.045085   9.268152
    29  H    5.704388   6.093991   7.259909   6.836106   7.846293
    30  H    6.814392   7.251242   8.194435   8.219609   9.220196
    31  H    5.498416   6.459496   6.985562   7.737300   9.140007
    32  H    6.380725   7.398104   8.197578   8.479127   9.915396
    33  H    5.615123   5.847574   6.412867   7.112684   8.016481
    34  H    4.270307   4.386335   5.235549   5.493738   6.411543
                    6          7          8          9         10
     6  C    0.000000
     7  Cl   1.801089   0.000000
     8  H    3.498236   4.238941   0.000000
     9  H    2.825933   2.821830   1.789841   0.000000
    10  H    2.753932   3.517720   1.788578   1.783447   0.000000
    11  H    2.716345   4.406400   3.077938   3.766971   2.529217
    12  H    2.727239   4.448334   3.765184   4.353536   3.770085
    13  H    3.450712   4.976323   2.520458   3.762713   3.108388
    14  H    2.804943   2.828616   3.099632   2.502323   3.734128
    15  H    3.499596   4.245249   2.484824   3.037680   3.722560
    16  H    1.099183   2.352212   4.343578   3.820212   3.776214
    17  H    1.100411   2.364911   3.780890   3.198933   2.551471
    18  C    4.601313   3.898239   4.703982   3.373956   3.474534
    19  C    4.961784   4.310349   5.811954   4.544485   4.289601
    20  C    5.656788   4.585515   6.915923   5.413469   5.518057
    21  C    6.200840   5.771325   6.589474   5.587770   5.046359
    22  Cl   7.249125   6.881742   8.122214   7.153457   6.454866
    23  C    4.032533   3.747489   5.578697   4.470777   3.886792
    24  Cl   3.749237   4.232384   4.717265   4.182074   2.930593
    25  H    4.474349   4.184580   3.996922   3.017492   2.735490
    26  H    3.888280   2.931931   4.324803   2.732443   3.267397
    27  H    5.580840   4.718495   5.322285   3.996333   4.327237
    28  H    6.492368   5.318079   7.365901   5.839706   6.102173
    29  H    5.118556   3.813960   6.686297   5.056477   5.414927
    30  H    6.221538   5.246709   7.781122   6.337556   6.273001
    31  H    6.094844   5.961867   6.114907   5.390616   4.569687
    32  H    6.953513   6.356650   7.024976   5.971802   5.646891
    33  H    4.788929   4.553741   6.595776   5.544730   4.865889
    34  H    3.262510   2.769301   5.335719   4.072462   3.781213
                   11         12         13         14         15
    11  H    0.000000
    12  H    1.789614   0.000000
    13  H    1.785827   1.785196   0.000000
    14  H    4.339808   3.826905   3.782903   0.000000
    15  H    3.780097   3.179646   2.559629   1.788892   0.000000
    16  H    3.104605   2.528920   3.752002   3.148754   3.798271
    17  H    2.456370   3.032466   3.707899   3.810819   4.331743
    18  C    5.707653   6.817173   6.523639   5.496744   6.380052
    19  C    6.096712   7.253831   7.242713   6.456886   7.396812
    20  C    7.261110   8.195306   8.359766   6.981115   8.194530
    21  C    6.840677   8.223802   8.047223   7.735830   8.479402
    22  Cl   7.850946   9.224743   9.270678   9.138063   9.915531
    23  C    5.120185   6.223962   6.492210   6.092387   6.952023
    24  Cl   3.817450   5.251240   5.319474   5.961455   6.357074
    25  H    5.061324   6.341885   5.841761   5.390817   5.972943
    26  H    5.416546   6.274336   6.101231   4.566949   5.644741
    27  H    6.689974   7.783910   7.366845   6.113254   7.024508
    28  H    8.065115   9.027848   9.046288   7.497698   8.725248
    29  H    7.064940   7.778667   8.062855   6.291672   7.657204
    30  H    7.778939   8.718043   9.026190   7.815898   9.025726
    31  H    6.297409   7.821266   7.501061   7.666154   8.183336
    32  H    7.661737   9.029562   8.727164   8.181549   8.963973
    33  H    5.792446   6.875684   7.299908   7.041553   7.907468
    34  H    4.872153   5.695251   6.144582   5.322525   6.349487
                   16         17         18         19         20
    16  H    0.000000
    17  H    1.792846   0.000000
    18  C    5.617356   4.273435   0.000000
    19  C    5.848550   4.388190   1.539146   0.000000
    20  C    6.412114   5.235993   2.506739   1.538712   0.000000
    21  C    7.114405   5.496294   2.478371   1.539822   2.537918
    22  Cl   8.017536   6.413427   4.146467   2.816674   3.236420
    23  C    4.789622   3.263506   2.536062   1.539977   2.474356
    24  Cl   4.556299   2.771834   3.213713   2.810333   4.140324
    25  H    5.548410   4.076842   1.101900   2.194916   3.481456
    26  H    4.867640   3.783770   1.102532   2.179074   2.753406
    27  H    6.597949   5.338890   1.103958   2.186746   2.742716
    28  H    7.300090   6.145999   2.748222   2.181474   1.103611
    29  H    5.791182   4.872162   2.743877   2.183516   1.103602
    30  H    6.873344   5.694203   3.483395   2.197560   1.101894
    31  H    7.044238   5.325783   2.725176   2.182555   3.495305
    32  H    7.909098   6.352085   2.697630   2.176636   2.783163
    33  H    5.393613   3.939700   3.494852   2.184465   2.738088
    34  H    3.939606   2.666429   2.789107   2.177425   2.683789
                   21         22         23         24         25
    21  C    0.000000
    22  Cl   1.799104   0.000000
    23  C    2.548026   3.247401   0.000000
    24  Cl   3.249513   4.036889   1.801097   0.000000
    25  H    2.720351   4.437349   2.826116   2.821964   0.000000
    26  H    3.451399   4.980617   2.754132   3.517641   1.783461
    27  H    2.732428   4.427553   3.498292   4.239009   1.789822
    28  H    2.769955   3.563832   3.450692   4.976427   3.763143
    29  H    3.497982   4.254537   2.716841   4.406633   3.766594
    30  H    2.824268   2.845025   2.726573   4.447957   4.353535
    31  H    1.099572   2.355277   2.804639   2.828748   2.502757
    32  H    1.100499   2.359401   3.499569   4.245373   3.037273
    33  H    2.793001   2.814710   1.099183   2.352181   3.820272
    34  H    3.499904   4.240787   1.100401   2.364923   3.199321
                   26         27         28         29         30
    26  H    0.000000
    27  H    1.788570   0.000000
    28  H    3.109218   2.521035   0.000000
    29  H    2.528687   3.077129   1.785857   0.000000
    30  H    3.769853   3.765384   1.785179   1.789654   0.000000
    31  H    3.734419   3.100075   3.782669   4.339762   3.826992
    32  H    3.722367   2.484485   2.559398   3.779984   3.180736
    33  H    3.776477   4.343576   3.751772   3.105626   2.528380
    34  H    2.551817   3.781008   3.707917   2.456631   3.031189
                   31         32         33         34
    31  H    0.000000
    32  H    1.788892   0.000000
    33  H    3.147979   3.798185   0.000000
    34  H    3.810654   4.331653   1.792883   0.000000
 Framework group  C1[X(C10H20Cl4)]
 Deg. of freedom    96
                         Standard orientation:                         
 ---------------------------------------------------------------------
 Center     Atomic      Atomic             Coordinates (Angstroms)
 Number     Number       Type             X           Y           Z
 ---------------------------------------------------------------------
      1          6           0        1.822512    0.762425    1.590395
      2          6           0        2.755147    0.639742    0.372164
      3          6           0        3.199878    2.046718   -0.064050
      4          6           0        3.962114   -0.212146    0.806473
      5         17           0        5.209726   -0.458669   -0.466139
      6          6           0        2.016554    0.010745   -0.823812
      7         17           0        1.347878   -1.630323   -0.501805
      8          1           0        2.336203    1.275181    2.422214
      9          1           0        1.490433   -0.227501    1.942473
     10          1           0        0.926809    1.347217    1.323382
     11          1           0        2.322531    2.663291   -0.324905
     12          1           0        3.870943    2.007301   -0.937129
     13          1           0        3.737398    2.548802    0.758710
     14          1           0        3.633850   -1.216158    1.111846
     15          1           0        4.473752    0.267037    1.654830
     16          1           0        2.695264   -0.104648   -1.680690
     17          1           0        1.167357    0.645766   -1.117951
     18          6           0       -1.822810   -0.759835    1.592295
     19          6           0       -2.754633   -0.638963    0.373251
     20          6           0       -3.197502   -2.046702   -0.062376
     21          6           0       -3.962879    0.211863    0.806019
     22         17           0       -5.210154    0.455200   -0.467506
     23          6           0       -2.015926   -0.009970   -0.822662
     24         17           0       -1.348692    1.631820   -0.501302
     25          1           0       -1.492074    0.230659    1.944034
     26          1           0       -0.926268   -1.343875    1.326426
     27          1           0       -2.336651   -1.272591    2.424023
     28          1           0       -3.736138   -2.548410    0.759889
     29          1           0       -2.319214   -2.662830   -0.321092
     30          1           0       -3.867079   -2.008579   -0.936666
     31          1           0       -3.636043    1.216657    1.110368
     32          1           0       -4.474301   -0.266975    1.654700
     33          1           0       -2.694295    0.104433   -1.679944
     34          1           0       -1.166095   -0.644522   -1.115941
 ---------------------------------------------------------------------
 Rotational constants (GHZ):           0.9323285           0.1508601           0.1423362
   252 basis functions,   478 primitive gaussians,   266 cartesian basis functions
    74 alpha electrons       74 beta electrons
       nuclear repulsion energy      1421.7705791412 Hartrees.
 NAtoms=   34 NActive=   34 NUniq=   34 SFac= 1.00D+00 NAtFMM=   60 NAOKFM=F Big=F
 Nuclear repulsion after empirical dispersion term =     1421.7410955841 Hartrees.
   1 Symmetry operations used in ECPInt.
 ECPInt:  NShTT=    8778 NPrTT=   37410 LenC2=    8068 LenP2D=   23579.
 LDataN:  DoStor=T MaxTD1= 4 Len=   56
 Initial guess from the checkpoint file:  "44.chk"
 B after Tr=     0.000000    0.000000   -0.000000
         Rot=    0.999999   -0.000146    0.000006   -0.001568 Ang=  -0.18 deg.
 ExpMin= 1.22D-01 ExpMax= 1.04D+04 ExpMxC= 1.57D+03 IAcc=3 IRadAn=         5 AccDes= 0.00D+00
 Harris functional with IExCor= 4639 and IRadAn=       5 diagonalized for initial guess.
 HarFok:  IExCor= 4639 AccDes= 0.00D+00 IRadAn=         5 IDoV= 1 UseB2=F ITyADJ=14
 ICtDFT=  3500011 ScaDFX=  1.000000  1.000000  1.000000  1.000000
 FoFCou: FMM=F IPFlag=           0 FMFlag=      100000 FMFlg1=           0
         NFxFlg=           0 DoJE=T BraDBF=F KetDBF=T FulRan=T
         wScrn=  0.000000 ICntrl=       500 IOpCl=  0 I1Cent=   200000004 NGrid=           0
         NMat0=    1 NMatS0=      1 NMatT0=    0 NMatD0=    1 NMtDS0=    0 NMtDT0=    0
 Petite list used in FoFCou.
     Accept linear search using points  3 and  4.
     Minimum is close to point  3 DX=  1.07D-01 DF= -6.46D-06 DXR=  8.89D-02 DFR=  7.97D-03 which will be used.
     Accept linear search using points  1 and  2.
     Minimum is close to point  2 DX= -3.08D-02 DF= -3.08D-07 DXR=  2.88D-02 DFR=  9.81D-04 which will be used.
     Accept linear search using points  1 and  2.
     Minimum is close to point  2 DX=  3.76D-02 DF= -9.62D-08 DXR=  3.63D-02 DFR=  1.32D-03 which will be used.
     Accept linear search using points  1 and  2.
     Minimum is close to point  2 DX= -2.34D-04 DF= -4.55D-12 DXR=  2.34D-04 DFR=  5.31D-08 which will be used.
 SCF Done:  E(RwB97XD) =  -2232.92763325     a.u. after    8 cycles
            Convg  =    0.4593D-08                    32 Fock formations.
              S**2 =  0.0000                  -V/T =  2.0038
   1 Symmetry operations used in ECPInt.
 ECPInt:  NShTT=    8778 NPrTT=   37410 LenC2=    8068 LenP2D=   23579.
 LDataN:  DoStor=T MaxTD1= 5 Len=  102
 Calling FoFJK, ICntrl=      2127 FMM=F ISym2X=0 I1Cent= 0 IOpClX= 0 NMat=1 NMatS=1 NMatT=0.

 GradGradGradGradGradGradGradGradGradGradGradGradGradGradGradGradGradGrad
 Using GEDIIS/GDIIS optimizer.
 FormGI is forming the generalized inverse of G from B-inverse, IUseBI=4.
 Internal  Forces:  Max     0.004052804 RMS     0.000752304
 Step number   2 out of a maximum of  204
 All quantities printed in internal units (Hartrees-Bohrs-Radians)
 Mixed Optimization -- En-DIIS/RFO-DIIS
 Trust test= 8.48D-01 RLast= 2.54D-01 DXMaxT set to 5.05D-01
 ITU=  1  0
 Use linear search instead of GDIIS.
     Eigenvalues ---    0.00354   0.00354   0.00362   0.00363   0.00364
     Eigenvalues ---    0.00413   0.00518   0.00810   0.00888   0.01167
     Eigenvalues ---    0.01632   0.01968   0.01970   0.02323   0.02926
     Eigenvalues ---    0.03017   0.03698   0.03986   0.04632   0.04659
     Eigenvalues ---    0.04742   0.04866   0.04869   0.04931   0.04980
     Eigenvalues ---    0.05176   0.05176   0.05378   0.05480   0.05483
     Eigenvalues ---    0.05576   0.05647   0.05647   0.05649   0.05841
     Eigenvalues ---    0.05909   0.05947   0.07206   0.07334   0.07898
     Eigenvalues ---    0.08350   0.08501   0.08781   0.09458   0.10536
     Eigenvalues ---    0.10848   0.12254   0.13063   0.13618   0.14205
     Eigenvalues ---    0.14208   0.14992   0.15961   0.16000   0.16000
     Eigenvalues ---    0.16000   0.16000   0.16000   0.16000   0.16000
     Eigenvalues ---    0.16000   0.16011   0.22301   0.23029   0.24084
     Eigenvalues ---    0.25865   0.27013   0.27448   0.27501   0.27916
     Eigenvalues ---    0.29273   0.29289   0.29316   0.29376   0.29415
     Eigenvalues ---    0.29831   0.30282   0.32018   0.32910   0.33127
     Eigenvalues ---    0.34516   0.34745   0.34782   0.34789   0.34797
[...]
 000148,-0.00001595,-0.00001289,0.00000382,-0.00000697,-0.00000434,0.00
 000272,-0.00000386,-0.00000346,-0.00000851,0.00001875,0.00000518,0.000
 01423,0.00000496,-0.00002396,-0.00001534,0.00000544,0.00000074,-0.0000
 1842,0.00005522,0.00000081,-0.00000436,-0.00002738,0.00001243,-0.00112
 878,0.00106310,0.00098968,-0.02607342,-0.01493756,-0.00524672,-0.11367
 628,-0.11648023,-0.02462845,0.00319058,-0.00555061,-0.00153640,0.00024
 271,0.00033344,0.00008191,-0.00155189,-0.00032759,-0.00079426,0.000128
 28,0.00082387,0.00009013,0.00016558,0.00016462,0.00031571,0.00069750,0
 .00005888,-0.00054766,0.00014071,-0.00002038,-0.00005111,0.01378153,0.
 00882127,0.00176191,0.12337989,0.12730617,-0.00000762,-0.00002571,0.00
 000867,0.00000645,0.00001974,0.00001038,-0.00001030,-0.00000907,-0.000
 00789,0.00002310,-0.00000769,0.00000589,-0.00001424,0.00000058,-0.0000
 1782,-0.00001749,-0.00009653,-0.00006155,0.00003516,0.00006708,-0.0000
 7313,-0.00000770,0.00000764,-0.00000661,0.00002277,0.00001380,-0.00000
 744,0.00000060,-0.00001654,0.00001083,0.00000105,0.00000435,0.00000357
 ,-0.00000441,0.00000465,-0.00000359,0.00000272,-0.00000005,-0.00000037
 ,-0.00000144,0.00000245,0.00000342,0.00000262,0.,-0.00000287,-0.000017
 44,0.00004054,-0.00000021,-0.00000908,0.00002181,0.00001594,-0.0010125
 9,-0.00021024,0.00015266,-0.00803259,-0.00441636,-0.00339676,-0.041304
 97,-0.02453253,-0.05842373,0.00154867,-0.00231400,-0.00102089,0.000000
 70,0.00067388,0.00046072,0.00021415,0.00114888,0.00012359,0.00009697,-
 0.00009738,-0.00015934,0.00011516,0.00025076,0.00006069,0.00055680,-0.
 00044902,-0.00016119,-0.00013526,-0.00002259,-0.00010528,-0.01841267,-
 0.01333420,-0.00293352,0.04516766,0.02891043,0.05683639,-0.00000399,-0
 .00001224,-0.00000312,0.00000483,0.00002160,0.00000286,-0.00001111,-0.
 00000739,-0.00000104,0.00002109,0.00000017,0.00000464,-0.00001563,-0.0
 0000261,-0.00001529,-0.00001924,-0.00008318,-0.00000315,0.00000345,0.0
 0005969,-0.00005037,-0.00000573,0.00000576,-0.00000404,0.00002252,0.00
 001439,-0.00001089,0.00000236,-0.00002388,0.00001908,0.00000054,0.0000
 0273,0.00000440,-0.00000431,0.00000331,-0.00000325,0.00000308,0.000002
 69,-0.00000124,0.00000256,0.00000266,-0.00000105,0.00000095,0.00000059
 ,-0.00000251,-0.00001639,0.00002687,-0.00000185,-0.00000513,0.00001528
 ,0.00001904,-0.00000271,0.00187694,-0.00005463,-0.00424439,-0.00008253
 ,0.00419053,-0.13767500,0.00034963,0.12771915,-0.00005356,-0.00005425,
 -0.00044138,-0.00130181,-0.00225379,-0.00046511,-0.00026335,0.00011378
 ,0.00098277,0.00021431,-0.00040039,-0.00031988,0.00011318,-0.00008516,
 0.00060165,0.00036237,-0.00002911,-0.00020750,0.00003604,-0.00014646,0
 .00013847,0.01109329,-0.00077508,-0.01456448,-0.01174390,0.00166358,0.
 02159863,0.14357964,0.00000711,-0.00001186,0.00002871,0.00000358,0.000
 00535,-0.00004179,0.00000749,0.00001123,0.00001758,-0.00000255,-0.0000
 0495,0.00001288,0.00000726,0.00000317,0.00000819,0.00000683,-0.0000527
 6,-0.00001141,-0.00001009,0.00004633,0.00002420,0.00000576,0.00000003,
 0.00000346,-0.00002686,-0.00002271,0.00000204,-0.00000827,0.00004112,-
 0.00004289,0.00000133,-0.00000386,-0.00000465,0.00000332,-0.00000495,0
 .00000315,-0.00000507,0.00000360,0.00000074,0.00000180,-0.00000171,-0.
 00000398,-0.00000527,0.00000088,0.00000076,-0.00000473,0.00001817,0.00
 000387,0.00000620,0.00000714,-0.00000317,0.00052776,-0.00605573,-0.000
 99326,0.01749148,0.00209783,-0.02477421,-0.00111790,-0.04905308,0.0020
 1361,0.00114423,0.00129198,-0.00085654,-0.00176721,-0.00173980,0.00059
 326,0.00057157,0.00046120,-0.00157697,-0.00048831,0.00058560,0.0001789
 3,0.00111849,-0.00000402,-0.00159552,0.00004322,-0.00004858,0.00020962
 ,-0.00021661,-0.00002923,-0.00006263,-0.00954720,-0.00003279,0.0108489
 7,-0.00712346,0.00000893,0.01415202,-0.00080720,0.05310038,0.00000215,
 -0.00000466,0.00000935,-0.00000168,0.00000072,-0.00001930,0.00000531,0
 .00000502,0.00000961,-0.00002074,-0.00000705,-0.00000662,0.00002171,0.
 00000434,0.00001477,-0.00000943,-0.00000893,0.00000164,0.00002881,0.00
 001333,0.00001934,0.00001110,-0.00000334,0.00000045,-0.00002324,-0.000
 01746,0.00000647,-0.00000452,0.00003306,-0.00001623,-0.00000199,0.0000
 0346,-0.00000359,0.00000325,-0.00000314,0.00000456,-0.00000071,0.00000
 065,-0.00000263,-0.00000169,-0.00000202,0.00000101,0.00000008,-0.00000
 008,0.00000122,0.00000162,0.00000356,0.00000164,-0.00000487,0.00000383
 ,-0.00000730,-0.00002894,-0.00262940,-0.00002281,0.00338337,0.00030179
 ,-0.00682203,0.12678299,-0.00016901,-0.23404535,0.00131992,0.00023529,
 -0.00099804,-0.00007607,0.00119011,0.00086752,-0.00082735,0.00090322,0
 .00033605,-0.00012372,-0.00016026,0.00011113,0.00061317,0.00009680,-0.
 00028041,0.00000449,0.00013739,0.00006915,-0.00009912,0.00001679,0.000
 44882,0.01344083,-0.00117762,-0.01551745,-0.00527450,0.00054117,0.0079
 4039,-0.13912282,0.00076141,0.24740711,-0.00002021,-0.00001741,-0.0000
 0523,0.00000218,0.00002815,-0.00001316,-0.00001738,-0.00000971,0.00001
 064,-0.00001351,-0.00001198,-0.00000776,0.00001971,0.00000752,0.000007
 25,-0.00001565,-0.00009861,0.00003038,0.00001221,0.00006900,-0.0000082
 7,0.00001532,0.00000190,-0.00000538,0.00000616,0.00000858,-0.00000097,
 0.00000990,0.00000057,0.00002738,-0.00000100,0.00001424,0.00000142,0.0
 0000256,0.00000181,0.00000169,0.00000591,0.00000460,-0.00000621,0.0000
 0123,0.00000222,0.00000135,0.00000390,-0.00000023,-0.00000008,0.000005
 95,0.00002114,-0.00000587,-0.00002403,-0.00000530,-0.00001085,0.001229
 80,-0.00069215,-0.00094617,0.00723161,-0.02517369,-0.00655520,-0.00521
 493,-0.00174736,-0.00131095,-0.05964770,0.06151942,0.01155559,-0.01047
 916,0.01230842,0.01317440,0.00119698,-0.00105118,0.00009811,-0.0009875
 9,0.00101340,-0.00046246,-0.00060707,-0.00000451,0.00058957,0.00010004
 ,0.00018895,-0.00008808,-0.00005733,0.00012456,0.00003357,-0.00002598,
 0.00014349,0.00018732,0.00038547,-0.00160716,-0.00060058,-0.00001038,0
 .00004267,-0.00009008,0.06860139,-0.00001015,-0.00001127,0.00001286,0.
 00000038,0.00001373,-0.00002129,-0.00000400,0.00000022,0.00001262,-0.0
 0000763,-0.00000703,0.00000007,0.00001028,0.00000467,0.00000854,0.0000
 1272,-0.00006989,0.00001914,-0.00000990,0.00004754,0.00001012,0.000002
 38,0.00000275,0.00000019,-0.00000514,-0.00000539,-0.00000361,-0.000000
 70,0.00001174,-0.00001065,-0.00000069,0.00000499,-0.00000245,0.0000026
 6,-0.00000170,0.00000202,-0.00000052,0.00000424,-0.00000167,0.00000222
 ,-0.00000007,-0.00000286,-0.00000135,0.00000145,0.00000058,0.00000296,
 0.00001377,-0.00000089,-0.00001961,-0.00000323,-0.00001664,0.00074177,
 0.00021563,-0.00030926,0.00351739,-0.01364513,-0.00366970,-0.00355555,
 -0.00039390,-0.00047263,0.05993415,-0.30014807,-0.06854438,-0.00429600
 ,0.00807106,0.00484939,0.00053720,-0.00072674,0.00038520,0.00106369,0.
 00061787,0.00095723,-0.00067187,0.00021701,0.00048298,-0.00004661,0.00
 035771,0.00005913,-0.00002887,-0.00003590,-0.00007307,-0.00000288,0.00
 037732,0.00007156,0.00023176,-0.00082365,-0.00044807,0.00004160,0.0000
 4117,-0.00002576,-0.05847812,0.31508013,-0.00002234,-0.00002550,-0.000
 02307,-0.00000233,0.00002285,0.00001664,-0.00002169,-0.00001847,-0.000
 00054,-0.00002028,-0.00001360,-0.00002272,0.00002361,0.00000645,0.0000
 0523,-0.00003826,-0.00007149,0.00004359,0.00002788,0.00004679,-0.00002
 282,0.00002412,0.00000078,-0.00000948,0.00000956,0.00001153,0.00000222
 ,-0.00001799,0.00001012,0.00005176,-0.00000761,0.00002396,0.00000339,0
 .00000104,0.00000399,0.00000100,0.00001220,0.00000154,-0.00000851,-0.0
 0000135,0.00000287,0.00000638,0.00000944,-0.00000079,-0.00000077,0.000
 01323,0.00001564,-0.00001037,-0.00004228,-0.00001728,-0.00004036,0.000
 35062,0.00101721,0.00030017,0.00149786,-0.00914662,-0.00168749,-0.0016
 0611,-0.00013831,0.00005571,0.00891023,-0.06842685,-0.06441926,0.01398
 594,-0.01562776,-0.01436315,0.00077209,-0.00143540,-0.00033344,-0.0000
 8136,0.00073659,0.00003801,0.00038237,0.00014833,0.00033397,-0.0000627
 3,0.00008838,-0.00016864,-0.00008882,0.00010168,0.00001072,0.00008962,
 -0.00023101,0.00012770,0.00014293,-0.00048428,0.00014880,0.00016550,0.
 00026074,0.00006417,-0.01951910,0.07093320,0.07027566,0.00001695,0.000
 02314,0.00001158,-0.00000267,-0.00003365,-0.00002638,0.00001206,0.0000
 1165,0.00001288,0.00000843,0.00001527,0.00002280,-0.00001459,-0.000003
 21,0.00000123,0.00005834,0.00002906,-0.00001952,-0.00005916,-0.0000112
 1,0.00005113,-0.00001088,-0.00000078,0.00001026,-0.00001614,-0.0000157
 1,-0.00000343,0.00000789,0.00000630,-0.00003743,0.00000462,-0.00001535
 ,-0.00000260,0.00000095,-0.00000527,-0.00000007,-0.00000901,0.00000326
 ,0.00000541,0.00000390,-0.00000136,-0.00000943,-0.00001128,0.00000100,
 0.00000155,-0.00000857,-0.00001249,0.00001016,0.00004945,-0.00003918,0
 .00000868,0.00053475,0.00071343,-0.00119100,-0.01161994,0.01261868,-0.
 01926209,0.00072594,0.00111951,0.00061141,-0.10880235,0.06279524,-0.10
 449461,0.00076970,-0.00987461,0.02469403,-0.00408210,-0.00404555,-0.00
 031401,0.00016220,-0.00018767,0.00019459,-0.00001520,0.00005197,-0.000
 00872,0.00028539,-0.00008282,0.00019378,-0.00053183,-0.00064554,0.0007
 1455,0.00030127,-0.00072475,0.00003952,0.00007438,0.00007248,0.0002563
 3,-0.00003271,-0.00012362,0.00000692,-0.00155460,0.00108031,-0.0049231
 5,0.12439110,-0.00001105,-0.00000422,-0.00000730,-0.00000038,-0.000004
 45,0.00000111,-0.00000696,-0.00000528,0.00000206,-0.00000573,0.0000001
 6,0.00000043,0.00000548,0.00000126,0.00000058,0.00000609,-0.00000635,0
 .00001148,-0.00000793,0.00000356,0.00000839,0.00001067,-0.00000218,-0.
 00000132,-0.00000113,0.00000374,0.00000344,-0.00000645,0.00000310,0.00
 001556,-0.00000197,0.00000544,-0.00000001,0.00000060,0.00000088,0.0000
 0008,0.00000347,0.00000081,-0.00000242,-0.00000023,0.00000145,0.000000
 78,0.00000100,-0.00000105,-0.00000024,0.00000289,-0.00000051,-0.000001
 01,-0.00000003,-0.00002947,-0.00001754,0.00030479,0.00049174,-0.000518
 53,-0.00944389,0.00735220,-0.01356278,-0.00044972,0.00145214,-0.000994
 75,0.06359392,-0.11188010,0.09628448,-0.00128369,0.00220457,-0.0012011
 4,-0.00295096,-0.00272960,-0.00062251,0.00050412,0.00043773,0.00048703
 ,0.00006565,-0.00011988,0.00019066,0.00014964,-0.00004723,-0.00021378,
 -0.00005414,0.00007569,0.00021261,-0.00000013,-0.00036663,0.00029303,0
 .00012640,0.00010656,0.00017201,0.00001800,-0.00011124,-0.00006608,0.0
 1323400,-0.00913206,0.02202980,-0.06348444,0.11169389,0.00000080,0.000
 00352,0.00000175,-0.00000150,-0.00000974,-0.00000481,0.00000294,0.0000
 0197,0.00000336,-0.00000615,0.00000123,0.00000071,0.00000460,0.0000001
 3,0.00000543,0.00001318,0.00001135,-0.00000111,-0.00002393,-0.00001392
 ,0.00002098,0.00000212,-0.00000146,0.00000189,-0.00000549,-0.00000592,
 0.00000247,-0.00000231,0.00000837,-0.00000657,-0.00000115,-0.00000075,
 -0.00000287,0.00000251,-0.00000076,0.00000122,-0.00000127,0.00000002,0
 .00000037,0.00000008,-0.00000059,-0.00000077,-0.00000155,0.00000025,0.
 00000075,0.00000460,-0.00000416,0.00000127,0.00000741,-0.00001589,-0.0
 0000790,0.00107609,0.00019451,0.00073541,-0.00475467,0.00459943,-0.006
 08427,0.00043486,0.00069122,-0.00009017,-0.10680687,0.09494340,-0.2011
 0606,0.00210013,0.00766272,-0.01952591,-0.00109322,-0.00158262,0.00057
 234,0.00021839,0.00010490,0.00025597,-0.00009250,-0.00013074,-0.000002
 60,0.00015679,-0.00026134,0.00009286,0.00011866,0.00012314,0.00049260,
 -0.00006627,-0.00071733,0.00003579,0.00016644,-0.00004651,0.00027477,-
 0.00001785,0.00003665,0.00001007,0.00381158,-0.00414866,0.00947758,0.1
 0466888,-0.10174852,0.21494223,0.00002424,0.00001586,0.00001424,0.0000
 2142,0.00001110,-0.00002725,0.00000596,0.00001181,0.00001133,0.0000271
 4,0.00000559,0.00002631,-0.00002724,-0.00000472,-0.00001636,0.00013794
 ,-0.00011921,-0.00002744,-0.00034578,-0.00004400,-0.00001769,-0.000018
 49,0.00000133,0.00000355,-0.00001387,-0.00000597,-0.00001509,0.0000156
 8,0.00000291,-0.00005232,0.00001702,-0.00001840,0.00001747,-0.00001639
 ,-0.00000473,-0.00000161,-0.00000395,0.00000715,-0.00000272,0.00000595
 ,0.00000294,-0.00001324,-0.00000858,0.00000289,-0.00000460,-0.00007474
 ,-0.00000979,0.00002096,0.00015895,-0.00009116,0.00015213,-0.00193715,
 0.00136564,-0.00234228,0.01105894,0.00102402,-0.01298730,0.00061116,-0
 .00063141,-0.00034507,0.00118228,-0.00030212,-0.00077027,-0.00101364,-
 0.00028473,0.00010605,-0.15098083,-0.01499343,0.13642518,-0.00204858,0
 .00365575,0.00308098,-0.00002143,-0.00007688,0.00005942,0.00004347,0.0
 0012361,0.00001133,0.00060810,0.00009802,-0.00088142,0.00002211,-0.000
 15045,-0.00005138,-0.00010990,0.00000154,0.00014890,0.00008048,0.00033
 064,0.00010920,-0.00015127,-0.00007238,0.00003578,-0.00001272,0.000126
 72,0.00029780,0.15340293,-0.00013651,-0.00002829,-0.00002234,0.0000004
 4,0.00000298,-0.00006574,-0.00009614,-0.00007322,0.00007060,-0.0000264
 3,0.00000240,0.00002000,0.00002569,0.00002168,0.00001781,0.00011920,-0
 .00033167,0.00005799,-0.00032952,0.00013458,-0.00003590,0.00001119,0.0
 0002126,-0.00000090,0.00009134,0.00006332,-0.00004691,-0.00004603,-0.0
 0015536,0.00015692,-0.00003049,0.00005517,-0.00004062,0.00002687,0.000
 01815,-0.00000359,0.00000824,0.00002853,-0.00001034,0.00002115,0.00001
 375,-0.00001568,-0.00001251,-0.00000051,0.00000417,-0.00000982,0.00004
 833,0.00000196,0.00001943,-0.00015014,-0.00003671,0.00200962,-0.001043
 78,0.00190755,-0.00788761,0.00031496,0.00917860,-0.00078552,0.00056021
 ,0.00104325,-0.00014912,-0.00012386,-0.00052905,-0.00002630,-0.0000843
 4,-0.00025490,-0.01685557,-0.04239018,0.01665065,0.02057639,-0.0156875
 6,-0.02252756,0.00002032,-0.00000293,0.00022107,0.00028073,0.00006935,
 -0.00027950,-0.00036009,0.00023754,0.00088978,-0.00002404,0.00002554,-
 0.00023636,-0.00004994,0.00002383,0.00002085,0.00060896,-0.00058056,0.
 00016199,0.00007965,-0.00002690,0.00006165,-0.00001873,-0.00001482,0.0
 0006436,0.01054818,0.05718564,-0.00000122,-0.00000007,0.00001274,0.000
 00384,-0.00001540,-0.00004306,-0.00000606,0.00000075,0.00002847,-0.000
 00707,0.00000528,0.00001743,0.00000286,0.00000416,0.00000862,0.0000724
 9,-0.00009372,0.00000525,-0.00016724,0.00000928,0.00002506,0.00000077,
 -0.00000005,0.00000748,-0.00002075,-0.00001403,-0.00000575,-0.00000234
 ,0.00003393,-0.00003438,0.00000318,-0.00000090,-0.00000014,0.00000181,
 -0.00000390,0.00000165,-0.00000438,0.00000955,-0.00000163,0.00000584,0
 .00000085,-0.00001034,-0.00001014,0.00000101,0.00000126,-0.00002094,-0
 .00000203,0.00001075,0.00004747,-0.00004539,0.00001891,-0.00378130,0.0
 0247406,-0.00250295,0.01467754,0.00199192,-0.01894481,0.00047761,-0.00
 097397,0.00051656,0.00193261,0.00016334,-0.00101122,0.00048106,-0.0002
 1334,0.00169666,0.13378093,0.01786651,-0.23243787,0.00094108,-0.001640
 27,0.00043197,-0.00001118,-0.00015430,0.00015664,-0.00007822,0.0000132
 7,0.00026990,0.00083755,0.00001737,-0.00120627,-0.00023081,-0.00017634
 ,0.00022829,-0.00011457,-0.00000618,-0.00000774,-0.00028125,0.00065285
 ,0.00044615,-0.00013869,-0.00004171,-0.00003022,0.00007045,0.00005097,
 0.00015189,-0.14261838,-0.02017384,0.24342884,0.00004963,-0.00002511,-
 0.00002355,0.00006255,0.00013158,0.00016203,0.00004159,0.00001115,-0.0
 0010321,-0.00002786,-0.00005105,-0.00011780,0.00004419,-0.00001201,0.0
 0000166,-0.00111573,0.00012784,0.00022681,-0.00165618,-0.00075028,0.00
 015222,0.00000739,-0.00001734,-0.00003389,0.00000114,-0.00000140,0.000
 03663,0.00006719,0.00002032,-0.00004651,0.00000510,-0.00000435,0.00000
 908,-0.00000513,0.00000621,0.00000486,0.00001930,-0.00004016,-0.000000
 76,-0.00002402,-0.00001954,0.00004229,0.00004942,-0.00000005,-0.000007
 41,0.00015876,0.00001927,-0.00004743,-0.00114252,0.00086934,-0.0000951
 0,0.00080250,0.00012037,0.00095046,-0.01132084,-0.00743345,-0.00209198
 ,0.00006733,-0.00075317,0.00011783,-0.00041950,0.00194346,-0.00197968,
 0.00010839,0.00011578,-0.00032655,-0.24420667,-0.12517415,-0.05090299,
 0.00901184,0.01478959,0.00442304,-0.00000111,0.00006235,-0.00001048,0.
 00049618,0.00003027,-0.00027725,0.00004896,0.00009083,0.00014973,0.000
 32580,0.00009531,0.00019261,0.00010623,0.00081953,-0.00021005,-0.00013
 136,-0.00006641,-0.00002344,-0.00000252,0.00003049,0.00000138,-0.00062
 357,-0.00044462,-0.00021312,-0.01063923,-0.00760307,-0.00584255,0.2598
 4275,-0.00004335,0.00003881,-0.00000724,-0.00005651,-0.00029300,-0.000
 01453,-0.00000694,-0.00002129,0.00000432,-0.00004188,0.00009635,0.0000
 6973,-0.00000737,0.00000123,0.00001829,0.00027196,0.00069988,-0.000125
 88,-0.00076117,-0.00045751,0.00005521,-0.00002035,-0.00000180,0.000023
 03,0.00003813,0.00002470,-0.00000468,-0.00003420,-0.00007649,0.0000242
 4,-0.00000467,-0.00002743,-0.00002174,0.00001526,0.00000714,-0.0000038
 5,-0.00001233,-0.00000252,0.00000746,-0.00000528,-0.00000317,0.0000172
 2,-0.00003919,-0.00002942,0.00001593,-0.00009132,-0.00014994,0.0000456
 4,0.00086989,-0.00080251,-0.00006928,0.00035563,0.00011187,-0.00043423
 ,0.01080554,0.00745076,0.00327740,0.00116710,0.00101104,0.00083571,0.0
 0119003,-0.00139855,0.00262222,-0.00012117,-0.00001689,-0.00004104,-0.
 12624321,-0.11796303,-0.03203648,-0.01069602,-0.02470420,-0.00709801,-
 0.00007247,-0.00001802,0.00008780,-0.00012847,0.00005297,-0.00002104,0
 .00005864,0.00001979,-0.00003598,0.00001876,0.00008141,-0.00013432,0.0
 0020612,-0.00064229,0.00046850,-0.00006500,0.00003371,-0.00013915,0.00
 008311,-0.00005211,0.00011327,0.00078464,0.00062015,0.00024174,-0.0005
 2632,0.00186689,0.00026033,0.12311244,0.13454347,0.00002173,0.00004847
 ,0.00006049,0.00008480,0.00009377,-0.00005836,-0.00004722,-0.00000731,
 0.00004138,0.00004928,-0.00001238,0.00002901,-0.00005576,0.00000143,-0
 .00003231,0.00028965,-0.00057374,0.00011253,-0.00022536,0.00025000,-0.
 00033819,-0.00007446,0.00001177,0.00000824,0.00004196,0.00002871,-0.00
 006554,-0.00002420,-0.00012369,-0.00004027,0.00001690,-0.00001236,0.00
 001599,-0.00001907,0.00000314,-0.00000730,-0.00000636,0.00002476,-0.00
 000311,0.00001087,0.00001659,-0.00004044,-0.00000863,0.00001758,-0.000
 00795,-0.00015205,0.00003696,0.00001882,0.00009412,0.00007080,0.000328
 16,-0.00091781,-0.00116954,0.00105548,-0.02243432,-0.01280173,-0.00604
 683,0.00035735,-0.00106825,0.00061709,-0.00120346,0.00352446,-0.004482
 79,0.00056302,0.00001743,0.00081449,-0.04949961,-0.02895368,-0.0648539
 0,-0.00262130,-0.00560381,-0.00046995,0.00003247,0.00001694,-0.0000794
 8,0.00050735,0.00045514,-0.00068956,0.00021868,0.00011503,0.00034142,0
 .00033950,-0.00013343,-0.00008545,0.00004790,0.00064151,0.00033321,0.0
 0012598,0.00015340,-0.00002887,0.00024485,-0.00001154,0.00017814,-0.00
 129370,-0.00080657,-0.00024867,0.01965379,0.01375077,0.00877185,0.0558
 8312,0.03199937,0.06485267\\-0.00000125,0.00000132,-0.00000144,0.00000
 092,0.00000176,0.00000042,0.00000119,-0.00000044,0.00000033,-0.0000017
 8,0.00000119,-0.00000124,0.00000053,0.00000189,0.00000094,0.00000049,0
 .00000042,0.00000087,-0.00000055,0.00000059,-0.00000015,0.00000058,0.0
 0000065,0.00000013,0.00000032,0.00000058,0.00000007,0.00000052,-0.0000
 0002,0.00000027,0.00000082,0.00000095,0.00000006,0.00000074,0.00000140
 ,0.00000012,0.00000088,0.00000160,-0.00000006,-0.00000038,0.00000148,0
 .00000024,0.00000017,0.00000150,0.00000023,-0.00000003,0.00000123,0.,-
 0.00000002,0.00000037,-0.00000110,0.00000107,-0.00000114,-0.00000127,-
 0.00000078,-0.00000172,0.00000045,-0.00000091,0.00000053,0.00000015,0.
 00000128,-0.00000135,-0.00000143,-0.00000100,-0.00000214,0.00000081,0.
 00000007,-0.00000010,0.00000059,0.00000068,-0.00000075,0.00000022,-0.0
 0000016,-0.00000048,0.00000035,-0.00000060,0.00000013,0.00000041,-0.00
 000064,-0.00000063,0.00000018,-0.00000088,-0.00000157,-0.00000010,-0.0
 0000079,-0.00000092,0.00000005,-0.00000058,-0.00000145,0.,0.00000024,-
 0.00000146,0.00000022,-0.00000037,-0.00000160,0.00000022,0.00000006,-0
 .00000116,-0.00000018,0.00000014,-0.00000065,-0.00000037\\\@


 LOVE IS BLIND, THAT'S WHY ALL THE WORLD LOVES A LOUVER.
 File lengths (MBytes):  RWF=    298 Int=      0 D2E=      0 Chk=      6 Scr=      1
 Normal termination of Gaussian 16 at Tue Jun 27 03:04:34 2023.
real 5773.46
user 22897.17
sys 29.22
