 Entering Gaussian System, Link 0=g16
 Input=gaussian_test.inp
 Output=gaussian_test.log
 Initial command:
 /sw/restricted/lms/sw/Gaussian/g16_B01/g16/l1.exe "/scratch/user/peterchao1/peterchao1/6113324_1660079103000000798945007/Gau-109725.inp" -scrdir="/scratch/user/peterchao1/peterchao1/6113324_1660079103000000798945007/"
 Entering Link 1 = /sw/restricted/lms/sw/Gaussian/g16_B01/g16/l1.exe PID=    109726.
  
 Copyright (c) 1988-2017, Gaussian, Inc.  All Rights Reserved.
  
 This is part of the Gaussian(R) 16 program.  It is based on
 the Gaussian(R) 09 system (copyright 2009, Gaussian, Inc.),
 the Gaussian(R) 03 system (copyright 2003, Gaussian, Inc.),
 the Gaussian(R) 98 system (copyright 1998, Gaussian, Inc.),
 the Gaussian(R) 94 system (copyright 1995, Gaussian, Inc.),
 the Gaussian 92(TM) system (copyright 1992, Gaussian, Inc.),
 the Gaussian 90(TM) system (copyright 1990, Gaussian, Inc.),
 the Gaussian 88(TM) system (copyright 1988, Gaussian, Inc.),
 the Gaussian 86(TM) system (copyright 1986, Carnegie Mellon
 University), and the Gaussian 82(TM) system (copyright 1983,
 Carnegie Mellon University). Gaussian is a federally registered
 trademark of Gaussian, Inc.
  
 This software contains proprietary and confidential information,
 including trade secrets, belonging to Gaussian, Inc.
  
 This software is provided under written license and may be
 used, copied, transmitted, or stored only in accord with that
 written license.
  
 The following legend is applicable only to US Government
 contracts under FAR:
  
                    RESTRICTED RIGHTS LEGEND
  
 Use, reproduction and disclosure by the US Government is
 subject to restrictions as set forth in subparagraphs (a)
 and (c) of the Commercial Computer Software - Restricted
 Rights clause in FAR 52.227-19.
  
 Gaussian, Inc.
 340 Quinnipiac St., Bldg. 40, Wallingford CT 06492
  
  
 ---------------------------------------------------------------
 Warning -- This program may not be used in any manner that
 competes with the business of Gaussian, Inc. or will provide
 assistance to any competitor of Gaussian, Inc.  The licensee
 of this program is prohibited from giving any competitor of
 Gaussian, Inc. access to this program.  By using this program,
 the user acknowledges that Gaussian, Inc. is engaged in the
 business of creating and licensing software in the field of
 computational chemistry and represents and warrants to the
 licensee that it is not a competitor of Gaussian, Inc. and that
 it will not use this program in any manner prohibited above.
 ---------------------------------------------------------------
  

 Cite this work as:
 Gaussian 16, Revision B.01,
 M. J. Frisch, G. W. Trucks, H. B. Schlegel, G. E. Scuseria, 
 M. A. Robb, J. R. Cheeseman, G. Scalmani, V. Barone, 
 G. A. Petersson, H. Nakatsuji, X. Li, M. Caricato, A. V. Marenich, 
 J. Bloino, B. G. Janesko, R. Gomperts, B. Mennucci, H. P. Hratchian, 
 J. V. Ortiz, A. F. Izmaylov, J. L. Sonnenberg, D. Williams-Young, 
 F. Ding, F. Lipparini, F. Egidi, J. Goings, B. Peng, A. Petrone, 
 T. Henderson, D. Ranasinghe, V. G. Zakrzewski, J. Gao, N. Rega, 
 G. Zheng, W. Liang, M. Hada, M. Ehara, K. Toyota, R. Fukuda, 
 J. Hasegawa, M. Ishida, T. Nakajima, Y. Honda, O. Kitao, H. Nakai, 
 T. Vreven, K. Throssell, J. A. Montgomery, Jr., J. E. Peralta, 
 F. Ogliaro, M. J. Bearpark, J. J. Heyd, E. N. Brothers, K. N. Kudin, 
 V. N. Staroverov, T. A. Keith, R. Kobayashi, J. Normand, 
 K. Raghavachari, A. P. Rendell, J. C. Burant, S. S. Iyengar, 
 J. Tomasi, M. Cossi, J. M. Millam, M. Klene, C. Adamo, R. Cammi, 
 J. W. Ochterski, R. L. Martin, K. Morokuma, O. Farkas, 
 J. B. Foresman, and D. J. Fox, Gaussian, Inc., Wallingford CT, 2016.
 
 ******************************************
 Gaussian 16:  ES64L-G16RevB.01 20-Dec-2017
                 9-Aug-2022 
 ******************************************
 %nprocshared=4
 Will use up to    4 processors via shared memory.
 %mem=8000mb
 ----------------------------------------------------------------------
 #T wB97XD/def2svpp opt=tight freq int(grid=ultrafine) scf=(verytight,q
 c)
 ----------------------------------------------------------------------
 -----
 dimer
 -----
 Symbolic Z-matrix:
 Charge =  0 Multiplicity = 1
 C                    -2.72388   1.32969  -0.82416 
 C                    -2.56188   0.1929    0.17544 
 C                    -1.88856   0.67817   1.45208 
 C                    -3.89991  -0.46895   0.47767 
 S                    -1.49459  -1.11378  -0.59517 
 H                    -3.39804   2.0837   -0.42088 
 H                    -3.13726   0.96004  -1.76027 
 H                    -1.76364   1.80007  -1.02944 
 H                    -2.51824   1.41755   1.94432 
 H                    -0.928     1.13824   1.22817 
 H                    -1.72667  -0.15074   2.13813 
 H                    -4.57576   0.24909   0.93848 
 H                    -3.76504  -1.30736   1.15823 
 H                    -4.35639  -0.84036  -0.43761 
 H                    -0.47508  -0.29068  -0.84067 
 C                     3.94238   0.30359   0.44894 
 C                     2.54111  -0.22429   0.17254 
 C                     2.5615   -1.34924  -0.85233 
 C                     1.85895  -0.67285   1.45795 
 S                     1.51988   1.17997  -0.49755 
 H                     4.55338  -0.48341   0.88763 
 H                     3.90535   1.14045   1.14329 
 H                     4.42171   0.6381   -0.4698 
 H                     3.13307  -2.18825  -0.45943 
 H                     3.02551  -1.02498  -1.78257 
 H                     1.55217  -1.69354  -1.06784 
 H                     2.44067  -1.46394   1.92643 
 H                     0.86278  -1.0549    1.24723 
 H                     1.77437   0.1567    2.15718 
 H                     2.20007   1.32306  -1.63174 
 
 Add virtual bond connecting atoms S20        and H15        Dist= 4.73D+00.
 Add virtual bond connecting atoms H26        and H15        Dist= 4.68D+00.
 Add virtual bond connecting atoms H28        and H15        Dist= 4.90D+00.

 GradGradGradGradGradGradGradGradGradGradGradGradGradGradGradGradGradGrad
 Initialization pass.
                           ----------------------------
                           !    Initial Parameters    !
                           ! (Angstroms and Degrees)  !
 --------------------------                            --------------------------
 ! Name  Definition              Value          Derivative Info.                !
 --------------------------------------------------------------------------------
 ! R1    R(1,2)                  1.5224         estimate D2E/DX2                !
 ! R2    R(1,6)                  1.0889         estimate D2E/DX2                !
 ! R3    R(1,7)                  1.088          estimate D2E/DX2                !
 ! R4    R(1,8)                  1.0888         estimate D2E/DX2                !
 ! R5    R(2,3)                  1.5227         estimate D2E/DX2                !
 ! R6    R(2,4)                  1.5231         estimate D2E/DX2                !
 ! R7    R(2,5)                  1.8548         estimate D2E/DX2                !
 ! R8    R(3,9)                  1.0888         estimate D2E/DX2                !
 ! R9    R(3,10)                 1.0883         estimate D2E/DX2                !
 ! R10   R(3,11)                 1.0881         estimate D2E/DX2                !
 ! R11   R(4,12)                 1.0884         estimate D2E/DX2                !
 ! R12   R(4,13)                 1.0882         estimate D2E/DX2                !
 ! R13   R(4,14)                 1.0881         estimate D2E/DX2                !
 ! R14   R(5,15)                 1.3331         estimate D2E/DX2                !
 ! R15   R(15,20)                2.5021         estimate D2E/DX2                !
 ! R16   R(15,26)                2.4758         estimate D2E/DX2                !
 ! R17   R(15,28)                2.5949         estimate D2E/DX2                !
 ! R18   R(16,17)                1.5227         estimate D2E/DX2                !
 ! R19   R(16,21)                1.0886         estimate D2E/DX2                !
 ! R20   R(16,22)                1.088          estimate D2E/DX2                !
 ! R21   R(16,23)                1.0889         estimate D2E/DX2                !
 ! R22   R(17,18)                1.5219         estimate D2E/DX2                !
 ! R23   R(17,19)                1.5228         estimate D2E/DX2                !
 ! R24   R(17,20)                1.8612         estimate D2E/DX2                !
 ! R25   R(18,24)                1.0886         estimate D2E/DX2                !
 ! R26   R(18,25)                1.0889         estimate D2E/DX2                !
 ! R27   R(18,26)                1.088          estimate D2E/DX2                !
 ! R28   R(19,27)                1.088          estimate D2E/DX2                !
 ! R29   R(19,28)                1.0875         estimate D2E/DX2                !
 ! R30   R(19,29)                1.0882         estimate D2E/DX2                !
 ! R31   R(20,30)                1.3302         estimate D2E/DX2                !
 ! A1    A(2,1,6)              109.8628         estimate D2E/DX2                !
 ! A2    A(2,1,7)              110.588          estimate D2E/DX2                !
 ! A3    A(2,1,8)              110.6429         estimate D2E/DX2                !
 ! A4    A(6,1,7)              108.5829         estimate D2E/DX2                !
 ! A5    A(6,1,8)              108.4634         estimate D2E/DX2                !
 ! A6    A(7,1,8)              108.6415         estimate D2E/DX2                !
 ! A7    A(1,2,3)              111.0741         estimate D2E/DX2                !
 ! A8    A(1,2,4)              111.1799         estimate D2E/DX2                !
 ! A9    A(1,2,5)              108.3294         estimate D2E/DX2                !
 ! A10   A(3,2,4)              111.1359         estimate D2E/DX2                !
 ! A11   A(3,2,5)              108.5652         estimate D2E/DX2                !
 ! A12   A(4,2,5)              106.3687         estimate D2E/DX2                !
 ! A13   A(2,3,9)              109.8594         estimate D2E/DX2                !
 ! A14   A(2,3,10)             110.6402         estimate D2E/DX2                !
 ! A15   A(2,3,11)             110.5871         estimate D2E/DX2                !
 ! A16   A(9,3,10)             108.4437         estimate D2E/DX2                !
 ! A17   A(9,3,11)             108.5611         estimate D2E/DX2                !
 ! A18   A(10,3,11)            108.6896         estimate D2E/DX2                !
 ! A19   A(2,4,12)             110.0499         estimate D2E/DX2                !
 ! A20   A(2,4,13)             110.488          estimate D2E/DX2                !
 ! A21   A(2,4,14)             110.4838         estimate D2E/DX2                !
 ! A22   A(12,4,13)            108.6895         estimate D2E/DX2                !
 ! A23   A(12,4,14)            108.7111         estimate D2E/DX2                !
 ! A24   A(13,4,14)            108.3642         estimate D2E/DX2                !
 ! A25   A(2,5,15)              94.6804         estimate D2E/DX2                !
 ! A26   A(5,15,20)            161.3364         estimate D2E/DX2                !
 ! A27   A(5,15,26)            107.0526         estimate D2E/DX2                !
 ! A28   A(5,15,28)             93.685          estimate D2E/DX2                !
 ! A29   A(20,15,26)            72.1072         estimate D2E/DX2                !
 ! A30   A(20,15,28)            69.6153         estimate D2E/DX2                !
 ! A31   A(26,15,28)            58.9869         estimate D2E/DX2                !
 ! A32   A(17,16,21)           109.8168         estimate D2E/DX2                !
 ! A33   A(17,16,22)           110.5585         estimate D2E/DX2                !
 ! A34   A(17,16,23)           111.0042         estimate D2E/DX2                !
 ! A35   A(21,16,22)           108.5397         estimate D2E/DX2                !
 ! A36   A(21,16,23)           108.3619         estimate D2E/DX2                !
 ! A37   A(22,16,23)           108.4904         estimate D2E/DX2                !
 ! A38   A(16,17,18)           111.4788         estimate D2E/DX2                !
 ! A39   A(16,17,19)           111.1705         estimate D2E/DX2                !
 ! A40   A(16,17,20)           107.9828         estimate D2E/DX2                !
 ! A41   A(18,17,19)           110.8979         estimate D2E/DX2                !
 ! A42   A(18,17,20)           108.8205         estimate D2E/DX2                !
 ! A43   A(19,17,20)           106.282          estimate D2E/DX2                !
 ! A44   A(17,18,24)           109.4924         estimate D2E/DX2                !
 ! A45   A(17,18,25)           111.1532         estimate D2E/DX2                !
 ! A46   A(17,18,26)           110.7857         estimate D2E/DX2                !
 ! A47   A(24,18,25)           108.3059         estimate D2E/DX2                !
 ! A48   A(24,18,26)           108.3422         estimate D2E/DX2                !
 ! A49   A(25,18,26)           108.6825         estimate D2E/DX2                !
 ! A50   A(17,19,27)           109.7636         estimate D2E/DX2                !
 ! A51   A(17,19,28)           110.5032         estimate D2E/DX2                !
 ! A52   A(17,19,29)           110.6498         estimate D2E/DX2                !
 ! A53   A(27,19,28)           108.5278         estimate D2E/DX2                !
 ! A54   A(27,19,29)           108.6126         estimate D2E/DX2                !
 ! A55   A(28,19,29)           108.7293         estimate D2E/DX2                !
 ! A56   A(15,20,17)            92.4869         estimate D2E/DX2                !
 ! A57   A(15,20,30)           110.7318         estimate D2E/DX2                !
 ! A58   A(17,20,30)            96.175          estimate D2E/DX2                !
 ! A59   A(15,26,18)           124.204          estimate D2E/DX2                !
 ! A60   A(15,28,19)           121.6493         estimate D2E/DX2                !
 ! D1    D(6,1,2,3)            -64.3721         estimate D2E/DX2                !
 ! D2    D(6,1,2,4)             59.9422         estimate D2E/DX2                !
 ! D3    D(6,1,2,5)            176.4776         estimate D2E/DX2                !
 ! D4    D(7,1,2,3)            175.783          estimate D2E/DX2                !
 ! D5    D(7,1,2,4)            -59.9027         estimate D2E/DX2                !
 ! D6    D(7,1,2,5)             56.6327         estimate D2E/DX2                !
 ! D7    D(8,1,2,3)             55.3592         estimate D2E/DX2                !
 ! D8    D(8,1,2,4)            179.6734         estimate D2E/DX2                !
 ! D9    D(8,1,2,5)            -63.7911         estimate D2E/DX2                !
 ! D10   D(1,2,3,9)             63.3298         estimate D2E/DX2                !
 ! D11   D(1,2,3,10)           -56.3731         estimate D2E/DX2                !
 ! D12   D(1,2,3,11)          -176.8551         estimate D2E/DX2                !
 ! D13   D(4,2,3,9)            -61.0094         estimate D2E/DX2                !
 ! D14   D(4,2,3,10)           179.2877         estimate D2E/DX2                !
 ! D15   D(4,2,3,11)            58.8057         estimate D2E/DX2                !
 ! D16   D(5,2,3,9)           -177.6613         estimate D2E/DX2                !
 ! D17   D(5,2,3,10)            62.6358         estimate D2E/DX2                !
 ! D18   D(5,2,3,11)           -57.8462         estimate D2E/DX2                !
 ! D19   D(1,2,4,12)           -62.493          estimate D2E/DX2                !
 ! D20   D(1,2,4,13)           177.4732         estimate D2E/DX2                !
 ! D21   D(1,2,4,14)            57.565          estimate D2E/DX2                !
 ! D22   D(3,2,4,12)            61.7862         estimate D2E/DX2                !
 ! D23   D(3,2,4,13)           -58.2475         estimate D2E/DX2                !
 ! D24   D(3,2,4,14)          -178.1558         estimate D2E/DX2                !
 ! D25   D(5,2,4,12)           179.7761         estimate D2E/DX2                !
 ! D26   D(5,2,4,13)            59.7424         estimate D2E/DX2                !
 ! D27   D(5,2,4,14)           -60.1659         estimate D2E/DX2                !
 ! D28   D(1,2,5,15)            56.2048         estimate D2E/DX2                !
 ! D29   D(3,2,5,15)           -64.5159         estimate D2E/DX2                !
 ! D30   D(4,2,5,15)           175.8082         estimate D2E/DX2                !
 ! D31   D(2,5,15,20)           73.6912         estimate D2E/DX2                !
 ! D32   D(2,5,15,26)          158.1752         estimate D2E/DX2                !
 ! D33   D(2,5,15,28)           99.5269         estimate D2E/DX2                !
 ! D34   D(5,15,20,17)          61.2771         estimate D2E/DX2                !
 ! D35   D(5,15,20,30)         158.8369         estimate D2E/DX2                !
 ! D36   D(26,15,20,17)        -29.131          estimate D2E/DX2                !
 ! D37   D(26,15,20,30)         68.4287         estimate D2E/DX2                !
 ! D38   D(28,15,20,17)         33.6352         estimate D2E/DX2                !
 ! D39   D(28,15,20,30)        131.1949         estimate D2E/DX2                !
 ! D40   D(5,15,26,18)        -152.845          estimate D2E/DX2                !
 ! D41   D(20,15,26,18)          7.5995         estimate D2E/DX2                !
 ! D42   D(28,15,26,18)        -68.9276         estimate D2E/DX2                !
 ! D43   D(5,15,28,19)         176.5893         estimate D2E/DX2                !
 ! D44   D(20,15,28,19)        -11.9667         estimate D2E/DX2                !
 ! D45   D(26,15,28,19)         68.8821         estimate D2E/DX2                !
 ! D46   D(21,16,17,18)        -63.206          estimate D2E/DX2                !
 ! D47   D(21,16,17,19)         61.0891         estimate D2E/DX2                !
 ! D48   D(21,16,17,20)        177.3083         estimate D2E/DX2                !
 ! D49   D(22,16,17,18)        177.0507         estimate D2E/DX2                !
 ! D50   D(22,16,17,19)        -58.6541         estimate D2E/DX2                !
 ! D51   D(22,16,17,20)         57.5651         estimate D2E/DX2                !
 ! D52   D(23,16,17,18)         56.5981         estimate D2E/DX2                !
 ! D53   D(23,16,17,19)       -179.1067         estimate D2E/DX2                !
 ! D54   D(23,16,17,20)        -62.8875         estimate D2E/DX2                !
 ! D55   D(16,17,18,24)         62.6004         estimate D2E/DX2                !
 ! D56   D(16,17,18,25)        -57.0181         estimate D2E/DX2                !
 ! D57   D(16,17,18,26)       -177.9655         estimate D2E/DX2                !
 ! D58   D(19,17,18,24)        -61.8481         estimate D2E/DX2                !
 ! D59   D(19,17,18,25)        178.5335         estimate D2E/DX2                !
 ! D60   D(19,17,18,26)         57.5861         estimate D2E/DX2                !
 ! D61   D(20,17,18,24)       -178.4119         estimate D2E/DX2                !
 ! D62   D(20,17,18,25)         61.9697         estimate D2E/DX2                !
 ! D63   D(20,17,18,26)        -58.9777         estimate D2E/DX2                !
 ! D64   D(16,17,19,27)        -59.8904         estimate D2E/DX2                !
 ! D65   D(16,17,19,28)       -179.5503         estimate D2E/DX2                !
 ! D66   D(16,17,19,29)         59.9668         estimate D2E/DX2                !
 ! D67   D(18,17,19,27)         64.733          estimate D2E/DX2                !
 ! D68   D(18,17,19,28)        -54.927          estimate D2E/DX2                !
 ! D69   D(18,17,19,29)       -175.4098         estimate D2E/DX2                !
 ! D70   D(20,17,19,27)       -177.1502         estimate D2E/DX2                !
 ! D71   D(20,17,19,28)         63.1898         estimate D2E/DX2                !
 ! D72   D(20,17,19,29)        -57.293          estimate D2E/DX2                !
 ! D73   D(16,17,20,15)        177.0568         estimate D2E/DX2                !
 ! D74   D(16,17,20,30)         65.8894         estimate D2E/DX2                !
 ! D75   D(18,17,20,15)         55.9031         estimate D2E/DX2                !
 ! D76   D(18,17,20,30)        -55.2643         estimate D2E/DX2                !
 ! D77   D(19,17,20,15)        -63.5787         estimate D2E/DX2                !
 ! D78   D(19,17,20,30)       -174.7461         estimate D2E/DX2                !
 ! D79   D(17,18,26,15)         26.6477         estimate D2E/DX2                !
 ! D80   D(24,18,26,15)        146.7707         estimate D2E/DX2                !
 ! D81   D(25,18,26,15)        -95.7509         estimate D2E/DX2                !
 ! D82   D(17,19,28,15)        -25.6478         estimate D2E/DX2                !
 ! D83   D(27,19,28,15)       -146.05           estimate D2E/DX2                !
 ! D84   D(29,19,28,15)         95.9764         estimate D2E/DX2                !
 --------------------------------------------------------------------------------
 Number of steps in this run=    180 maximum allowed number of steps=    180.
 GradGradGradGradGradGradGradGradGradGradGradGradGradGradGradGradGradGrad

                    Distance matrix (angstroms):
                    1          2          3          4          5
     1  C    0.000000
     2  C    1.522411   0.000000
     3  C    2.510686   1.522720   0.000000
     4  C    2.512559   1.523061   2.512151   0.000000
     5  S    2.744842   1.854822   2.749092   2.711523   0.000000
     6  H    1.088875   2.151712   2.786048   2.752327   3.725234
     7  H    1.088036   2.160212   3.458022   2.762614   2.890772
     8  H    1.088782   2.161460   2.726210   3.461719   2.958301
     9  H    2.777498   2.151885   1.088802   2.760245   3.728872
    10  H    2.733846   2.161361   1.088332   3.461005   2.952485
    11  H    3.458508   2.160517   1.088094   2.753425   2.907271
    12  H    2.775627   2.154323   2.769292   1.088441   3.701772
    13  H    3.459468   2.159685   2.747698   1.088241   2.875204
    14  H    2.742924   2.159562   3.459344   1.088146   2.879145
    15  H    2.771814   2.370880   2.862393   3.674137   1.333108
    16  C    6.863869   6.510955   5.928445   7.880306   5.714873
    17  C    5.579283   5.120020   4.698256   6.452885   4.203265
    18  C    5.925593   5.448257   5.405889   6.655342   4.071044
    19  C    5.497323   4.683818   3.983602   5.845255   3.956760
    20  S    4.258936   4.252995   3.958569   5.748399   3.789175
    21  H    7.692599   7.182728   6.570113   8.463238   6.258913
    22  H    6.917615   6.607551   5.820520   7.997210   6.104356
    23  H    7.187723   7.027457   6.596569   8.448236   6.171502
    24  H    6.841986   6.205273   6.089904   7.300476   4.752698
    25  H    6.286377   6.044504   6.124685   7.306118   4.674307
    26  H    5.242509   4.693594   4.879917   5.797705   3.137240
    27  H    6.484039   5.553079   4.853438   6.579659   4.686935
    28  H    4.779233   3.799220   3.258117   4.859916   2.992506
    29  H    5.522548   4.767776   3.766444   5.950599   4.458208
    30  H    4.989736   5.217215   5.161657   6.698558   4.545679
                    6          7          8          9         10
     6  H    0.000000
     7  H    1.767645   0.000000
     8  H    1.766924   1.768218   0.000000
     9  H    2.609977   3.783712   3.091757   0.000000
    10  H    3.116788   3.720667   2.496623   1.766280   0.000000
    11  H    3.786122   4.291981   3.720284   1.767390   1.768432
    12  H    2.569185   3.139746   3.766468   2.571071   3.765724
    13  H    3.758662   3.748709   4.295066   3.097994   3.746279
    14  H    3.077145   2.545021   3.747595   3.761719   4.294592
    15  H    3.789136   3.081743   2.463182   3.853404   2.554809
    16  C    7.603101   7.445324   6.081430   6.724339   5.002448
    17  C    6.399411   6.114105   4.906499   5.606416   3.873705
    18  C    6.891099   6.215540   5.353167   6.424958   4.763676
    19  C    6.226117   6.163230   5.042387   4.875053   3.331657
    20  S    5.000846   4.830294   3.383626   4.724991   2.995322
    21  H    8.457381   8.260803   6.985288   7.398517   5.726363
    22  H    7.528339   7.619816   6.106831   6.479276   4.834101
    23  H    7.952400   7.675092   6.318389   7.389078   5.634952
    24  H    7.804253   7.135889   6.341091   7.121594   5.514145
    25  H    7.264991   6.474610   5.611078   7.112586   5.419812
    26  H    6.260242   5.432465   4.816789   5.943082   4.409295
    27  H    7.224002   7.112017   6.088289   5.735343   4.313568
    28  H    5.548690   5.394937   4.498020   4.246203   2.831448
    29  H    6.092086   6.333707   5.037135   4.479011   3.021467
    30  H    5.777848   5.351202   4.037489   5.921112   4.242415
                   11         12         13         14         15
    11  H    0.000000
    12  H    3.117104   0.000000
    13  H    2.540260   1.768639   0.000000
    14  H    3.745055   1.768801   1.764791   0.000000
    15  H    3.234091   4.502481   3.981592   3.940706   0.000000
    16  C    5.932789   8.532376   7.905860   8.424026   4.640069
    17  C    4.699248   7.173608   6.473958   6.951785   3.182518
    18  C    5.363547   7.530080   6.638457   6.948961   3.215819
    19  C    3.686725   6.521148   5.667600   6.500129   3.298098
    20  S    4.388356   6.331314   6.071139   6.214162   2.502078
    21  H    6.411978   9.158623   8.363504   9.014858   5.320677
    22  H    5.863155   8.530288   8.051515   8.641715   5.017213
    23  H    6.725042   9.115326   8.570774   8.901794   4.997876
    24  H    5.875021   8.204930   7.139796   7.609814   4.094493
    25  H    6.222497   8.173542   7.405378   7.505696   3.698720
    26  H    4.838315   6.734291   5.777300   6.003011   2.475758
    27  H    4.374482   7.289780   6.255040   7.223407   4.187488
    28  H    2.883831   5.601202   4.635556   5.488575   2.594851
    29  H    3.514565   6.466678   5.816048   6.731512   3.774559
    30  H    5.639442   7.326074   7.091229   7.006672   3.222787
                   16         17         18         19         20
    16  C    0.000000
    17  C    1.522703   0.000000
    18  C    2.516347   1.521931   0.000000
    19  C    2.512420   1.522772   2.507682   0.000000
    20  S    2.744526   1.861158   2.758219   2.715129   0.000000
    21  H    1.088645   2.151215   2.782936   2.760633   3.726625
    22  H    1.088035   2.160099   3.462223   2.752242   2.895586
    23  H    1.088907   2.166328   2.748864   3.464471   2.952130
    24  H    2.772975   2.146372   1.088575   2.756114   3.734805
    25  H    2.754158   2.167534   1.088949   3.462060   2.963118
    26  H    3.464434   2.162232   1.087995   2.741452   2.929741
    27  H    2.749967   2.150107   2.783749   1.087979   3.703222
    28  H    3.459294   2.159086   2.716691   1.087527   2.910442
    29  H    2.764049   2.161446   3.456092   1.088225   2.856473
    30  H    2.899000   2.401261   2.807014   3.694084   1.330237
                   21         22         23         24         25
    21  H    0.000000
    22  H    1.766977   0.000000
    23  H    1.765710   1.766642   0.000000
    24  H    2.595830   3.774299   3.106271   0.000000
    25  H    3.123728   3.744844   2.537437   1.765064   0.000000
    26  H    3.780950   4.296287   3.745463   1.764695   1.768774
    27  H    2.550308   3.088925   3.752999   2.587735   3.780400
    28  H    3.751855   3.753343   4.298884   3.058004   3.722633
    29  H    3.121601   2.556723   3.760477   3.767162   4.299230
    30  H    3.892131   3.262229   2.599040   3.817605   2.493478
                   26         27         28         29         30
    26  H    0.000000
    27  H    3.131745   0.000000
    28  H    2.498534   1.765893   0.000000
    29  H    3.724720   1.767399   1.768324   0.000000
    30  H    3.136507   4.526135   3.966296   3.987173   0.000000
 Framework group  C1[X(C8H20S2)]
 Deg. of freedom    84
                         Standard orientation:                         
 ---------------------------------------------------------------------
 Center     Atomic      Atomic             Coordinates (Angstroms)
 Number     Number       Type             X           Y           Z
 ---------------------------------------------------------------------
      1          6           0       -2.750124    1.325666   -0.784071
      2          6           0       -2.571334    0.137918    0.151357
      3          6           0       -1.910363    0.562838    1.455671
      4          6           0       -3.898527   -0.562689    0.411019
      5         16           0       -1.479158   -1.105238   -0.686546
      6          1           0       -3.438509    2.044315   -0.342123
      7          1           0       -3.154216    1.001666   -1.740918
      8          1           0       -1.797619    1.823218   -0.959065
      9          1           0       -2.554292    1.262702    1.985799
     10          1           0       -0.957304    1.051141    1.261496
     11          1           0       -1.736114   -0.300081    2.095166
     12          1           0       -4.588150    0.116823    0.908401
     13          1           0       -3.751103   -1.435254    1.044394
     14          1           0       -4.345741   -0.890340   -0.525307
     15          1           0       -0.473411   -0.252300   -0.881852
     16          6           0        3.929175    0.345197    0.456232
     17          6           0        2.538137   -0.190528    0.145368
     18          6           0        2.581159   -1.256123   -0.940418
     19          6           0        1.860067   -0.721672    1.401132
     20         16           0        1.494602    1.231091   -0.449565
     21          1           0        4.552474   -0.454383    0.852866
     22          1           0        3.875511    1.141312    1.195922
     23          1           0        4.405341    0.738560   -0.440567
     24          1           0        3.166086   -2.105743   -0.592564
     25          1           0        3.042228   -0.872608   -1.849341
     26          1           0        1.578626   -1.605216   -1.178732
     27          1           0        2.454080   -1.527495    1.827157
     28          1           0        0.871334   -1.108484    1.165552
     29          1           0        1.758970    0.066065    2.145096
     30          1           0        2.175574    1.448828   -1.571348
 ---------------------------------------------------------------------
 Rotational constants (GHZ):           1.6672126           0.4094024           0.3954782
   188 basis functions,   354 primitive gaussians,   198 cartesian basis functions
    50 alpha electrons       50 beta electrons
       nuclear repulsion energy       766.4079007526 Hartrees.
 NAtoms=   30 NActive=   30 NUniq=   30 SFac= 1.00D+00 NAtFMM=   60 NAOKFM=F Big=F
 Nuclear repulsion after empirical dispersion term =      766.3862505411 Hartrees.
   1 Symmetry operations used in ECPInt.
 ECPInt:  NShTT=    5460 NPrTT=   22788 LenC2=    5282 LenP2D=   15855.
 LDataN:  DoStor=T MaxTD1= 4 Len=   56
 ExpMin= 1.22D-01 ExpMax= 9.18D+03 ExpMxC= 1.38D+03 IAcc=3 IRadAn=         5 AccDes= 0.00D+00
 Harris functional with IExCor= 4639 and IRadAn=       5 diagonalized for initial guess.
 HarFok:  IExCor= 4639 AccDes= 0.00D+00 IRadAn=         5 IDoV= 1 UseB2=F ITyADJ=14
 ICtDFT=  3500011 ScaDFX=  1.000000  1.000000  1.000000  1.000000
 FoFCou: FMM=F IPFlag=           0 FMFlag=      100000 FMFlg1=           0
         NFxFlg=           0 DoJE=T BraDBF=F KetDBF=T FulRan=T
         wScrn=  0.000000 ICntrl=       500 IOpCl=  0 I1Cent=   200000004 NGrid=           0
         NMat0=    1 NMatS0=      1 NMatT0=    0 NMatD0=    1 NMtDS0=    0 NMtDT0=    0
 Petite list used in FoFCou.
     Minimum is close to point  3 DX=  4.22D-02 DF= -8.57D-04 DXR=  6.56D-02 DFR=  4.29D-03 which will be used.
     Accept linear search using points  2 and  3.
     Accept linear search using points  1 and  2.
     Accept linear search using points  1 and  2.
     Minimum is close to point  2 DX= -1.12D-04 DF= -4.55D-13 DXR=  1.12D-04 DFR=  1.35D-08 which will be used.
 SCF Done:  E(RwB97XD) =  -1112.67631302     a.u. after    7 cycles
            Convg  =    0.6019D-09                    33 Fock formations.
              S**2 =  0.0000                  -V/T =  2.0046

 **********************************************************************

            Population analysis using the SCF Density.

 **********************************************************************

 Orbital symmetries:
       Occupied  (A) (A) (A) (A) (A) (A) (A) (A) (A) (A) (A) (A)
                 (A) (A) (A) (A) (A) (A) (A) (A) (A) (A) (A) (A)
                 (A) (A) (A) (A) (A) (A) (A) (A) (A) (A) (A) (A)
                 (A) (A) (A) (A) (A) (A) (A) (A) (A) (A) (A) (A)
                 (A) (A)
       Virtual   (A) (A) (A) (A) (A) (A) (A) (A) (A) (A) (A) (A)
                 (A) (A) (A) (A) (A) (A) (A) (A) (A) (A) (A) (A)
                 (A) (A) (A) (A) (A) (A) (A) (A) (A) (A) (A) (A)
                 (A) (A) (A) (A) (A) (A) (A) (A) (A) (A) (A) (A)
                 (A) (A) (A) (A) (A) (A) (A) (A) (A) (A) (A) (A)
                 (A) (A) (A) (A) (A) (A) (A) (A) (A) (A) (A) (A)
                 (A) (A) (A) (A) (A) (A) (A) (A) (A) (A) (A) (A)
                 (A) (A) (A) (A) (A) (A) (A) (A) (A) (A) (A) (A)
                 (A) (A) (A) (A) (A) (A) (A) (A) (A) (A) (A) (A)
                 (A) (A) (A) (A) (A) (A) (A) (A) (A) (A) (A) (A)
                 (A) (A) (A) (A) (A) (A) (A) (A) (A) (A) (A) (A)
                 (A) (A) (A) (A) (A) (A)
 The electronic state is 1-A.
 Alpha  occ. eigenvalues --  -89.00081 -88.97475 -10.34489 -10.32972 -10.28755
 Alpha  occ. eigenvalues --  -10.28748 -10.28477 -10.27861 -10.27500 -10.27474
 Alpha  occ. eigenvalues --   -8.05404  -8.02872  -6.00849  -6.00478  -5.99818
 Alpha  occ. eigenvalues --   -5.98292  -5.97953  -5.97300  -0.93858  -0.92443
 Alpha  occ. eigenvalues --   -0.80935  -0.79257  -0.79052  -0.78754  -0.78021
 Alpha  occ. eigenvalues --   -0.77812  -0.63693  -0.62311  -0.56170  -0.54952
 Alpha  occ. eigenvalues --   -0.54202  -0.53954  -0.53136  -0.52933  -0.49547
 Alpha  occ. eigenvalues --   -0.48935  -0.48281  -0.47681  -0.45946  -0.45777
 Alpha  occ. eigenvalues --   -0.44903  -0.44112  -0.43054  -0.42796  -0.41818
 Alpha  occ. eigenvalues --   -0.41762  -0.38815  -0.37538  -0.31770  -0.29871
 Alpha virt. eigenvalues --    0.08997   0.11058   0.12802   0.14443   0.15298
 Alpha virt. eigenvalues --    0.16904   0.18593   0.19505   0.19732   0.20199
 Alpha virt. eigenvalues --    0.20495   0.20888   0.21422   0.21908   0.22617
 Alpha virt. eigenvalues --    0.22995   0.24583   0.24699   0.25486   0.25804
 Alpha virt. eigenvalues --    0.26927   0.27475   0.28717   0.29172   0.29454
 Alpha virt. eigenvalues --    0.30056   0.31420   0.32289   0.41007   0.44232
 Alpha virt. eigenvalues --    0.46757   0.47127   0.48178   0.49068   0.50722
 Alpha virt. eigenvalues --    0.51246   0.52209   0.54283   0.54527   0.58890
 Alpha virt. eigenvalues --    0.60399   0.61351   0.63591   0.64158   0.66143
 Alpha virt. eigenvalues --    0.67642   0.69247   0.71028   0.72067   0.73065
 Alpha virt. eigenvalues --    0.73605   0.73904   0.74211   0.74757   0.75416
 Alpha virt. eigenvalues --    0.76023   0.76473   0.76939   0.77883   0.78243
 Alpha virt. eigenvalues --    0.79161   0.79406   0.79539   0.81255   0.81374
 Alpha virt. eigenvalues --    0.82074   0.82309   0.82911   0.83573   0.84631
 Alpha virt. eigenvalues --    0.85128   0.85681   0.86812   0.87355   0.88403
 Alpha virt. eigenvalues --    0.88534   0.89251   0.89648   0.90864   0.91738
 Alpha virt. eigenvalues --    0.93105   0.96264   0.98512   1.00849   1.03931
 Alpha virt. eigenvalues --    1.04245   1.05155   1.09806   1.10575   1.17288
 Alpha virt. eigenvalues --    1.18725   1.21579   1.21934   1.22992   1.24592
 Alpha virt. eigenvalues --    1.29400   1.31592   1.32335   1.50874   1.52464
 Alpha virt. eigenvalues --    1.52850   1.53990   1.79287   1.80468   1.89361
 Alpha virt. eigenvalues --    1.89570   1.90896   1.92010   1.98217   1.99790
 Alpha virt. eigenvalues --    2.02374   2.03014   2.03355   2.05424   2.10952
 Alpha virt. eigenvalues --    2.11272   2.12378   2.12721   2.16952   2.19224
 Alpha virt. eigenvalues --    2.24002   2.24505   2.24866   2.25455   2.25912
 Alpha virt. eigenvalues --    2.26050   2.26932   2.28396   2.53244   2.54114
 Alpha virt. eigenvalues --    2.54358   2.54532   2.55351   2.56361   2.74408
 Alpha virt. eigenvalues --    2.74927   2.75814   2.76155
          Condensed to atoms (all electrons):
 Mulliken charges:
               1
     1  C   -0.218542
     2  C   -0.390796
     3  C   -0.220202
     4  C   -0.230487
     5  S   -0.209466
     6  H    0.107312
     7  H    0.121806
     8  H    0.117841
     9  H    0.107379
    10  H    0.125480
    11  H    0.123701
    12  H    0.115976
    13  H    0.123170
    14  H    0.124828
    15  H    0.184451
    16  C   -0.205374
    17  C   -0.395964
    18  C   -0.220368
    19  C   -0.253085
    20  S   -0.157189
    21  H    0.113832
    22  H    0.126009
    23  H    0.110423
    24  H    0.116197
    25  H    0.111803
    26  H    0.132108
    27  H    0.121573
    28  H    0.137615
    29  H    0.127381
    30  H    0.152589
 Sum of Mulliken charges =   0.00000
 Mulliken charges with hydrogens summed into heavy atoms:
               1
     1  C    0.128417
     2  C   -0.390796
     3  C    0.136358
     4  C    0.133487
     5  S   -0.025015
    16  C    0.144889
    17  C   -0.395964
    18  C    0.139740
    19  C    0.133484
    20  S   -0.004599
 Electronic spatial extent (au):  <R**2>=           3129.2434
 Charge=              0.0000 electrons
 Dipole moment (field-independent basis, Debye):
    X=              1.5632    Y=              0.6113    Z=              0.3610  Tot=              1.7168
   1 Symmetry operations used in ECPInt.
 ECPInt:  NShTT=    5460 NPrTT=   22788 LenC2=    5282 LenP2D=   15855.
 LDataN:  DoStor=T MaxTD1= 5 Len=  102
 Calling FoFJK, ICntrl=      2127 FMM=F ISym2X=0 I1Cent= 0 IOpClX= 0 NMat=1 NMatS=1 NMatT=0.

 GradGradGradGradGradGradGradGradGradGradGradGradGradGradGradGradGradGrad
 FormGI is forming the generalized inverse of G from B-inverse, IUseBI=4.
 Internal  Forces:  Max     0.015016317 RMS     0.003965949
 Step number   1 out of a maximum of  180
 All quantities printed in internal units (Hartrees-Bohrs-Radians)
 Mixed Optimization -- RFO/linear search
 Second derivative matrix not updated -- first step.
 ITU=  0
     Eigenvalues ---    0.00230   0.00421   0.00461   0.00465   0.00466
     Eigenvalues ---    0.00469   0.00540   0.00592   0.00755   0.01230
     Eigenvalues ---    0.02089   0.02721   0.03266   0.03677   0.03945
     Eigenvalues ---    0.04340   0.04449   0.04798   0.05577   0.05630
     Eigenvalues ---    0.05659   0.05663   0.05691   0.05693   0.05723
     Eigenvalues ---    0.05746   0.05753   0.05753   0.05806   0.06142
     Eigenvalues ---    0.06443   0.07685   0.08630   0.09160   0.11077
     Eigenvalues ---    0.11176   0.11236   0.11785   0.13401   0.13910
     Eigenvalues ---    0.15283   0.16000   0.16000   0.16000   0.16000
     Eigenvalues ---    0.16000   0.16000   0.16000   0.16000   0.16000
     Eigenvalues ---    0.16000   0.16000   0.16000   0.16000   0.16206
     Eigenvalues ---    0.16419   0.20496   0.22234   0.26981   0.27219
     Eigenvalues ---    0.27714   0.28190   0.30074   0.30106   0.30108
     Eigenvalues ---    0.30136   0.30768   0.33749   0.34934   0.34939
     Eigenvalues ---    0.34943   0.34951   0.34954   0.34970   0.34978
     Eigenvalues ---    0.34993   0.35006   0.35017   0.35019   0.35028
     Eigenvalues ---    0.35034   0.35041   0.35041   0.35047
 Linear search not attempted -- first point.
 Iteration  1 RMS(Cart)=  0.05603016 RMS(Int)=  0.00057100
 Iteration  2 RMS(Cart)=  0.00131680 RMS(Int)=  0.00005774
 Iteration  3 RMS(Cart)=  0.00000096 RMS(Int)=  0.00005774
 Variable       Old X    -DE/DX   Delta X   Delta X   Delta X     New X
                                 (Linear)    (Quad)   (Total)
    R1        2.87694   0.00614   0.00000   0.01977   0.01977   2.89671
    R2        2.05768   0.01188   0.00000   0.03311   0.03311   2.09079
    R3        2.05609   0.00995   0.00000   0.02766   0.02766   2.08375
    R4        2.05750   0.00993   0.00000   0.02768   0.02768   2.08518
    R5        2.87752   0.00635   0.00000   0.02046   0.02046   2.89798
    R6        2.87817   0.00495   0.00000   0.01597   0.01597   2.89414
    R7        3.50511   0.00314   0.00000   0.01355   0.01355   3.51866
    R8        2.05754   0.01207   0.00000   0.03366   0.03366   2.09119
    R9        2.05665   0.01005   0.00000   0.02797   0.02797   2.08462
   R10        2.05620   0.00995   0.00000   0.02768   0.02768   2.08388
   R11        2.05686   0.01095   0.00000   0.03050   0.03050   2.08735
   R12        2.05648   0.01062   0.00000   0.02956   0.02956   2.08604
   R13        2.05630   0.01053   0.00000   0.02929   0.02929   2.08559
   R14        2.51921   0.01502   0.00000   0.05382   0.05382   2.57302
   R15        4.72824   0.00381   0.00000   0.07609   0.07612   4.80436
   R16        4.67850   0.00111   0.00000   0.02521   0.02517   4.70367
   R17        4.90356  -0.00039   0.00000  -0.00444  -0.00446   4.89910
   R18        2.87749   0.00570   0.00000   0.01836   0.01836   2.89585
   R19        2.05724   0.01177   0.00000   0.03278   0.03278   2.09002
   R20        2.05609   0.00980   0.00000   0.02725   0.02725   2.08334
   R21        2.05774   0.01007   0.00000   0.02807   0.02807   2.08581
   R22        2.87603   0.00485   0.00000   0.01832   0.01835   2.89438
   R23        2.87762   0.00467   0.00000   0.01767   0.01768   2.89530
   R24        3.51708   0.00141   0.00000   0.00532   0.00534   3.52242
   R25        2.05711   0.01160   0.00000   0.03232   0.03232   2.08943
   R26        2.05781   0.01008   0.00000   0.02811   0.02811   2.08593
   R27        2.05601   0.00964   0.00000   0.02736   0.02732   2.08333
   R28        2.05598   0.01102   0.00000   0.03062   0.03062   2.08661
   R29        2.05513   0.01009   0.00000   0.03059   0.03060   2.08572
   R30        2.05645   0.01073   0.00000   0.02986   0.02986   2.08631
   R31        2.51378   0.01298   0.00000   0.04614   0.04614   2.55992
    A1        1.91747   0.00081   0.00000   0.00450   0.00449   1.92196
    A2        1.93012   0.00095   0.00000   0.00636   0.00633   1.93646
    A3        1.93108   0.00115   0.00000   0.00631   0.00630   1.93738
    A4        1.89513  -0.00077   0.00000  -0.00366  -0.00368   1.89145
    A5        1.89304  -0.00120   0.00000  -0.00853  -0.00853   1.88451
    A6        1.89615  -0.00103   0.00000  -0.00556  -0.00559   1.89057
    A7        1.93861  -0.00101   0.00000  -0.00676  -0.00711   1.93150
    A8        1.94046  -0.00013   0.00000  -0.01098  -0.01111   1.92935
    A9        1.89071   0.00126   0.00000   0.01820   0.01814   1.90885
   A10        1.93969  -0.00042   0.00000  -0.01202  -0.01213   1.92755
   A11        1.89482   0.00166   0.00000   0.02151   0.02147   1.91629
   A12        1.85648  -0.00126   0.00000  -0.00814  -0.00797   1.84851
   A13        1.91741   0.00093   0.00000   0.00515   0.00514   1.92254
   A14        1.93104   0.00138   0.00000   0.00780   0.00778   1.93882
   A15        1.93011   0.00098   0.00000   0.00643   0.00640   1.93651
   A16        1.89270  -0.00135   0.00000  -0.00926  -0.00927   1.88343
   A17        1.89475  -0.00088   0.00000  -0.00457  -0.00459   1.89016
   A18        1.89699  -0.00115   0.00000  -0.00619  -0.00622   1.89077
   A19        1.92073  -0.00047   0.00000  -0.00524  -0.00521   1.91552
   A20        1.92838   0.00174   0.00000   0.01135   0.01129   1.93967
   A21        1.92831   0.00166   0.00000   0.01123   0.01117   1.93948
   A22        1.89699  -0.00102   0.00000  -0.00877  -0.00875   1.88824
   A23        1.89737  -0.00090   0.00000  -0.00742  -0.00740   1.88997
   A24        1.89131  -0.00110   0.00000  -0.00170  -0.00184   1.88947
   A25        1.65248   0.00494   0.00000   0.02921   0.02921   1.68170
   A26        2.81585   0.00051   0.00000   0.00251   0.00246   2.81831
   A27        1.86842  -0.00091   0.00000  -0.00522  -0.00521   1.86321
   A28        1.63511  -0.00072   0.00000   0.00166   0.00171   1.63682
   A29        1.25851   0.00101   0.00000   0.00019   0.00021   1.25871
   A30        1.21502   0.00102   0.00000  -0.00239  -0.00240   1.21261
   A31        1.02952   0.00148   0.00000   0.00399   0.00399   1.03351
   A32        1.91666   0.00060   0.00000   0.00313   0.00312   1.91979
   A33        1.92961   0.00110   0.00000   0.00750   0.00748   1.93709
   A34        1.93739   0.00091   0.00000   0.00482   0.00480   1.94219
   A35        1.89437  -0.00072   0.00000  -0.00318  -0.00320   1.89118
   A36        1.89127  -0.00104   0.00000  -0.00802  -0.00802   1.88325
   A37        1.89351  -0.00095   0.00000  -0.00481  -0.00484   1.88868
   A38        1.94567  -0.00085   0.00000  -0.00734  -0.00760   1.93808
   A39        1.94029  -0.00017   0.00000  -0.00546  -0.00550   1.93479
   A40        1.88466   0.00168   0.00000   0.01799   0.01801   1.90267
   A41        1.93553   0.00005   0.00000  -0.00777  -0.00776   1.92777
   A42        1.89928   0.00039   0.00000   0.01327   0.01326   1.91253
   A43        1.85497  -0.00105   0.00000  -0.00946  -0.00942   1.84555
   A44        1.91100   0.00142   0.00000   0.00692   0.00688   1.91788
   A45        1.93999   0.00055   0.00000   0.00436   0.00436   1.94435
   A46        1.93358  -0.00087   0.00000   0.00341   0.00346   1.93704
   A47        1.89029  -0.00087   0.00000  -0.00775  -0.00777   1.88252
   A48        1.89093  -0.00014   0.00000  -0.00467  -0.00467   1.88625
   A49        1.89687  -0.00012   0.00000  -0.00281  -0.00288   1.89398
   A50        1.91574  -0.00035   0.00000  -0.00774  -0.00769   1.90804
   A51        1.92864  -0.00000   0.00000   0.00941   0.00938   1.93802
   A52        1.93120   0.00140   0.00000   0.01217   0.01210   1.94330
   A53        1.89417  -0.00011   0.00000  -0.00608  -0.00607   1.88810
   A54        1.89565  -0.00067   0.00000  -0.00833  -0.00830   1.88734
   A55        1.89768  -0.00030   0.00000  -0.00000  -0.00016   1.89753
   A56        1.61420   0.00085   0.00000  -0.00583  -0.00583   1.60837
   A57        1.93263  -0.00013   0.00000   0.00105   0.00113   1.93376
   A58        1.67857   0.00000   0.00000   0.00849   0.00848   1.68705
   A59        2.16777  -0.00057   0.00000   0.00013   0.00005   2.16782
   A60        2.12318  -0.00122   0.00000  -0.00130  -0.00131   2.12187
    D1       -1.12350   0.00148   0.00000   0.03281   0.03278  -1.09072
    D2        1.04619   0.00010   0.00000   0.00423   0.00427   1.05046
    D3        3.08012  -0.00075   0.00000  -0.00093  -0.00094   3.07918
    D4        3.06799   0.00132   0.00000   0.03044   0.03041   3.09841
    D5       -1.04550  -0.00006   0.00000   0.00187   0.00191  -1.04359
    D6        0.98843  -0.00091   0.00000  -0.00329  -0.00330   0.98513
    D7        0.96620   0.00123   0.00000   0.02909   0.02906   0.99526
    D8        3.13589  -0.00015   0.00000   0.00052   0.00055   3.13644
    D9       -1.11337  -0.00100   0.00000  -0.00464  -0.00466  -1.11802
   D10        1.10531  -0.00130   0.00000  -0.03016  -0.03013   1.07518
   D11       -0.98390  -0.00108   0.00000  -0.02688  -0.02685  -1.01075
   D12       -3.08670  -0.00118   0.00000  -0.02848  -0.02845  -3.11515
   D13       -1.06482  -0.00008   0.00000  -0.00218  -0.00223  -1.06705
   D14        3.12916   0.00013   0.00000   0.00109   0.00105   3.13021
   D15        1.02635   0.00003   0.00000  -0.00050  -0.00055   1.02580
   D16       -3.10078   0.00069   0.00000   0.00162   0.00164  -3.09913
   D17        1.09320   0.00091   0.00000   0.00489   0.00492   1.09812
   D18       -1.00961   0.00080   0.00000   0.00330   0.00332  -1.00628
   D19       -1.09071   0.00076   0.00000   0.01099   0.01097  -1.07973
   D20        3.09749   0.00122   0.00000   0.01802   0.01805   3.11554
   D21        1.00470   0.00040   0.00000   0.00556   0.00550   1.01020
   D22        1.07837  -0.00096   0.00000  -0.01463  -0.01462   1.06375
   D23       -1.01661  -0.00049   0.00000  -0.00760  -0.00755  -1.02416
   D24       -3.10940  -0.00131   0.00000  -0.02006  -0.02010  -3.12950
   D25        3.13769   0.00006   0.00000  -0.00013  -0.00013   3.13756
   D26        1.04270   0.00053   0.00000   0.00690   0.00695   1.04965
   D27       -1.05009  -0.00030   0.00000  -0.00556  -0.00560  -1.05569
   D28        0.98096   0.00033   0.00000   0.01719   0.01738   0.99834
   D29       -1.12601  -0.00016   0.00000   0.00206   0.00187  -1.12414
   D30        3.06843   0.00016   0.00000   0.00937   0.00937   3.07780
   D31        1.28615  -0.00041   0.00000  -0.02487  -0.02485   1.26130
   D32        2.76068   0.00009   0.00000  -0.03959  -0.03961   2.72107
   D33        1.73707  -0.00133   0.00000  -0.04490  -0.04490   1.69217
   D34        1.06949  -0.00019   0.00000  -0.01255  -0.01255   1.05694
   D35        2.77223   0.00013   0.00000  -0.00560  -0.00561   2.76662
   D36       -0.50843  -0.00019   0.00000   0.00403   0.00406  -0.50437
   D37        1.19431   0.00013   0.00000   0.01098   0.01100   1.20531
   D38        0.58705   0.00098   0.00000   0.00870   0.00873   0.59578
   D39        2.28978   0.00130   0.00000   0.01566   0.01567   2.30546
   D40       -2.66765  -0.00081   0.00000  -0.00162  -0.00163  -2.66928
   D41        0.13264  -0.00018   0.00000   0.00155   0.00152   0.13416
   D42       -1.20301  -0.00056   0.00000   0.00522   0.00522  -1.19779
   D43        3.08206  -0.00020   0.00000  -0.01175  -0.01170   3.07037
   D44       -0.20886   0.00037   0.00000  -0.00454  -0.00452  -0.21338
   D45        1.20222   0.00061   0.00000  -0.00411  -0.00408   1.19814
   D46       -1.10315   0.00087   0.00000   0.02555   0.02552  -1.07763
   D47        1.06621   0.00018   0.00000   0.00597   0.00601   1.07222
   D48        3.09461  -0.00018   0.00000   0.00218   0.00219   3.09680
   D49        3.09012   0.00068   0.00000   0.02277   0.02274   3.11285
   D50       -1.02371  -0.00000   0.00000   0.00319   0.00323  -1.02048
   D51        1.00470  -0.00036   0.00000  -0.00060  -0.00060   1.00410
   D52        0.98782   0.00054   0.00000   0.02065   0.02061   1.00843
   D53       -3.12600  -0.00014   0.00000   0.00107   0.00110  -3.12490
   D54       -1.09759  -0.00050   0.00000  -0.00272  -0.00272  -1.10032
   D55        1.09258  -0.00085   0.00000  -0.02201  -0.02197   1.07062
   D56       -0.99515  -0.00103   0.00000  -0.01958  -0.01952  -1.01468
   D57       -3.10608  -0.00067   0.00000  -0.02128  -0.02119  -3.12727
   D58       -1.07945  -0.00005   0.00000  -0.00378  -0.00381  -1.08326
   D59        3.11600  -0.00023   0.00000  -0.00135  -0.00137   3.11463
   D60        1.00507   0.00014   0.00000  -0.00305  -0.00303   1.00204
   D61       -3.11387   0.00096   0.00000   0.00422   0.00423  -3.10964
   D62        1.08158   0.00078   0.00000   0.00664   0.00667   1.08825
   D63       -1.02936   0.00114   0.00000   0.00495   0.00501  -1.02435
   D64       -1.04528   0.00085   0.00000   0.01427   0.01431  -1.03097
   D65       -3.13374   0.00121   0.00000   0.02081   0.02088  -3.11286
   D66        1.04662   0.00067   0.00000   0.00665   0.00664   1.05326
   D67        1.12980  -0.00034   0.00000  -0.00496  -0.00499   1.12481
   D68       -0.95866   0.00002   0.00000   0.00158   0.00158  -0.95708
   D69       -3.06148  -0.00052   0.00000  -0.01258  -0.01267  -3.07415
   D70       -3.09185  -0.00046   0.00000   0.00120   0.00122  -3.09064
   D71        1.10287  -0.00010   0.00000   0.00774   0.00778   1.11065
   D72       -0.99995  -0.00064   0.00000  -0.00642  -0.00646  -1.00641
   D73        3.09022  -0.00008   0.00000   0.00222   0.00240   3.09262
   D74        1.14999  -0.00006   0.00000   0.00118   0.00132   1.15130
   D75        0.97569  -0.00028   0.00000  -0.00738  -0.00739   0.96830
   D76       -0.96454  -0.00026   0.00000  -0.00841  -0.00847  -0.97302
   D77       -1.10966   0.00003   0.00000   0.00005   0.00011  -1.10955
   D78       -3.04989   0.00005   0.00000  -0.00098  -0.00097  -3.05087
   D79        0.46509  -0.00082   0.00000  -0.01167  -0.01162   0.45347
   D80        2.56163   0.00031   0.00000  -0.00407  -0.00404   2.55760
   D81       -1.67117  -0.00087   0.00000  -0.01743  -0.01737  -1.68854
   D82       -0.44764  -0.00029   0.00000   0.00079   0.00081  -0.44682
   D83       -2.54905   0.00021   0.00000   0.00840   0.00843  -2.54062
   D84        1.67510   0.00124   0.00000   0.02178   0.02178   1.69689
         Item               Value     Threshold  Converged?
 Maximum Force            0.015016     0.000015     NO 
 RMS     Force            0.003966     0.000010     NO 
 Maximum Displacement     0.190959     0.000060     NO 
 RMS     Displacement     0.056818     0.000040     NO 
 GradGradGradGradGradGradGradGradGradGradGradGradGradGradGradGradGradGrad

                    Distance matrix (angstroms):
                    1          2          3          4          5
     1  C    0.000000
     2  C    1.532875   0.000000
     3  C    2.522053   1.533545   0.000000
     4  C    2.518505   1.531511   2.517489   0.000000
     5  S    2.776672   1.861994   2.784389   2.715911   0.000000
     6  H    1.106397   2.177292   2.790471   2.767923   3.770086
     7  H    1.102673   2.185029   3.487779   2.775840   2.936278
     8  H    1.103428   2.186268   2.758612   3.486059   3.007533
     9  H    2.783898   2.178473   1.106612   2.774940   3.776831
    10  H    2.766932   2.187674   1.103132   3.485745   3.007587
    11  H    3.487975   2.185712   1.102739   2.766386   2.957235
    12  H    2.774986   2.170019   2.765898   1.104579   3.720727
    13  H    3.487639   2.187061   2.768320   1.103884   2.895578
    14  H    2.763276   2.186741   3.486917   1.103646   2.898672
    15  H    2.856236   2.425305   2.938975   3.727710   1.361586
    16  C    7.000636   6.594447   6.031773   7.955568   5.779772
    17  C    5.683550   5.180235   4.779180   6.508372   4.254573
    18  C    6.044089   5.501465   5.474731   6.692934   4.111908
    19  C    5.536608   4.695071   4.004643   5.857560   3.988462
    20  S    4.400687   4.358147   4.092603   5.856057   3.857740
    21  H    7.820062   7.251171   6.655551   8.516400   6.315584
    22  H    7.067355   6.714767   5.946764   8.101921   6.193034
    23  H    7.368712   7.146259   6.736424   8.558210   6.258696
    24  H    6.956565   6.250320   6.145298   7.322941   4.796264
    25  H    6.446781   6.130754   6.231433   7.374830   4.729356
    26  H    5.344233   4.730750   4.933842   5.817858   3.162808
    27  H    6.525951   5.557795   4.860989   6.576004   4.718347
    28  H    4.789679   3.781353   3.247310   4.844553   3.006782
    29  H    5.562555   4.794878   3.799944   5.984622   4.509696
    30  H    5.172404   5.347902   5.320439   6.828755   4.628621
                    6          7          8          9         10
     6  H    0.000000
     7  H    1.791386   0.000000
     8  H    1.787500   1.788405   0.000000
     9  H    2.594773   3.803892   3.118326   0.000000
    10  H    3.140802   3.774970   2.543875   1.786729   0.000000
    11  H    3.804707   4.341468   3.772765   1.790775   1.788348
    12  H    2.564740   3.145717   3.783597   2.563230   3.780878
    13  H    3.789270   3.786363   4.343990   3.128691   3.784225
    14  H    3.107897   2.562640   3.784532   3.791045   4.344422
    15  H    3.888410   3.174531   2.555656   3.947355   2.641778
    16  C    7.755148   7.596599   6.239045   6.857319   5.112803
    17  C    6.515193   6.234486   5.029612   5.711532   3.962615
    18  C    7.021394   6.355625   5.500959   6.517941   4.853657
    19  C    6.265816   6.226794   5.098813   4.914828   3.348775
    20  S    5.164759   4.973084   3.533384   4.886818   3.135045
    21  H    8.596313   8.406398   7.140526   7.512023   5.823764
    22  H    7.692896   7.782047   6.269858   6.635626   4.957733
    23  H    8.155285   7.867904   6.519575   7.562152   5.783866
    24  H    7.925895   7.276681   6.490289   7.198777   5.594224
    25  H    7.444986   6.651558   5.800913   7.247957   5.549925
    26  H    6.372674   5.556554   4.948889   6.019074   4.488709
    27  H    7.261760   7.181802   6.155506   5.759089   4.325380
    28  H    5.557908   5.432617   4.528984   4.254158   2.822468
    29  H    6.128698   6.397349   5.086248   4.527832   3.035072
    30  H    5.989538   5.533190   4.231586   6.111696   4.409174
                   11         12         13         14         15
    11  H    0.000000
    12  H    3.119930   0.000000
    13  H    2.558484   1.788816   0.000000
    14  H    3.782602   1.789740   1.788854   0.000000
    15  H    3.314484   4.571225   4.044235   4.007729   0.000000
    16  C    6.014654   8.624131   7.972229   8.519660   4.685274
    17  C    4.769161   7.242339   6.527767   7.027955   3.208438
    18  C    5.411767   7.584708   6.662496   7.010348   3.239793
    19  C    3.706428   6.536315   5.685968   6.538565   3.306912
    20  S    4.512632   6.457762   6.182503   6.333628   2.542360
    21  H    6.470616   9.226606   8.402082   9.090798   5.364080
    22  H    5.970448   8.649692   8.151375   8.765584   5.085110
    23  H    6.839746   9.247022   8.668308   9.030353   5.064255
    24  H    5.903505   8.241508   7.142014   7.659737   4.128612
    25  H    6.305004   8.265680   7.457088   7.593363   3.738308
    26  H    4.875367   6.772009   5.784832   6.046320   2.489076
    27  H    4.368453   7.286922   6.248086   7.249756   4.203913
    28  H    2.876346   5.587539   4.629016   5.502136   2.592493
    29  H    3.553810   6.498558   5.862580   6.789958   3.805200
    30  H    5.784773   7.480942   7.219800   7.146853   3.277841
                   16         17         18         19         20
    16  C    0.000000
    17  C    1.532420   0.000000
    18  C    2.525834   1.531642   0.000000
    19  C    2.523377   1.532127   2.516621   0.000000
    20  S    2.772015   1.863986   2.780988   2.715049   0.000000
    21  H    1.105992   2.175001   2.787732   2.781945   3.766327
    22  H    1.102455   2.184918   3.490173   2.771703   2.939659
    23  H    1.103761   2.189587   2.774637   3.492150   2.995550
    24  H    2.782454   2.172688   1.105679   2.777110   3.772077
    25  H    2.779153   2.190504   1.103826   3.488069   3.002416
    26  H    3.490436   2.184193   1.102451   2.754850   2.961944
    27  H    2.751544   2.164765   2.788056   1.104185   3.716688
    28  H    3.490180   2.186288   2.736282   1.103717   2.926312
    29  H    2.792647   2.190328   3.486881   1.104028   2.873045
    30  H    2.945142   2.428021   2.851398   3.724913   1.354652
                   21         22         23         24         25
    21  H    0.000000
    22  H    1.790703   0.000000
    23  H    1.786620   1.787276   0.000000
    24  H    2.586825   3.798343   3.130901   0.000000
    25  H    3.142956   3.789776   2.570557   1.785947   0.000000
    26  H    3.799557   4.341887   3.789542   1.787258   1.790750
    27  H    2.549901   3.096600   3.771868   2.591893   3.801085
    28  H    3.785494   3.796770   4.347600   3.088010   3.758505
    29  H    3.161875   2.585344   3.804521   3.804713   4.348819
    30  H    3.951640   3.321966   2.651585   3.877768   2.543717
                   26         27         28         29         30
    26  H    0.000000
    27  H    3.142335   0.000000
    28  H    2.512209   1.788270   0.000000
    29  H    3.760841   1.788030   1.794224   0.000000
    30  H    3.189709   4.567483   4.011474   4.034100   0.000000
 Framework group  C1[X(C8H20S2)]
 Deg. of freedom    84
                         Standard orientation:                         
 ---------------------------------------------------------------------
 Center     Atomic      Atomic             Coordinates (Angstroms)
 Number     Number       Type             X           Y           Z
 ---------------------------------------------------------------------
      1          6           0       -2.829944    1.344391   -0.758105
      2          6           0       -2.602456    0.131191    0.150795
      3          6           0       -1.962273    0.560587    1.476520
      4          6           0       -3.921717   -0.603259    0.407038
      5         16           0       -1.497607   -1.091389   -0.716169
      6          1           0       -3.536531    2.049849   -0.281473
      7          1           0       -3.249486    1.035758   -1.730020
      8          1           0       -1.884610    1.882464   -0.943512
      9          1           0       -2.634099    1.253889    2.017421
     10          1           0       -1.004817    1.080851    1.304750
     11          1           0       -1.771724   -0.311988    2.123309
     12          1           0       -4.627951    0.068328    0.926942
     13          1           0       -3.764836   -1.494451    1.039276
     14          1           0       -4.386314   -0.928434   -0.539770
     15          1           0       -0.456864   -0.237037   -0.918291
     16          6           0        3.981383    0.305891    0.481346
     17          6           0        2.568113   -0.185106    0.149833
     18          6           0        2.604911   -1.296085   -0.903874
     19          6           0        1.848450   -0.668849    1.412961
     20         16           0        1.561407    1.247987   -0.488312
     21          1           0        4.579717   -0.522121    0.905150
     22          1           0        3.951957    1.125482    1.218103
     23          1           0        4.500298    0.671998   -0.421418
     24          1           0        3.173377   -2.162183   -0.517548
     25          1           0        3.096298   -0.955204   -1.831651
     26          1           0        1.586846   -1.638459   -1.152310
     27          1           0        2.427534   -1.489424    1.871809
     28          1           0        0.840885   -1.050453    1.173412
     29          1           0        1.752839    0.141799    2.156322
     30          1           0        2.267886    1.441191   -1.627891
 ---------------------------------------------------------------------
 Rotational constants (GHZ):           1.6373790           0.3976120           0.3847695
   188 basis functions,   354 primitive gaussians,   198 cartesian basis functions
    50 alpha electrons       50 beta electrons
       nuclear repulsion energy       758.0219666451 Hartrees.
 NAtoms=   30 NActive=   30 NUniq=   30 SFac= 1.00D+00 NAtFMM=   60 NAOKFM=F Big=F
 Nuclear repulsion after empirical dispersion term =      758.0005098672 Hartrees.
   1 Symmetry operations used in ECPInt.
 ECPInt:  NShTT=    5460 NPrTT=   22788 LenC2=    5274 LenP2D=   15747.
 LDataN:  DoStor=T MaxTD1= 4 Len=   56
 Initial guess from the checkpoint file:  "/scratch/user/peterchao1/peterchao1/6113324_1660079103000000798945007/Gau-109726.chk"
 B after Tr=    -0.000000   -0.000000    0.000000
         Rot=    0.999997    0.001778    0.001179    0.000721 Ang=   0.26 deg.
 ExpMin= 1.22D-01 ExpMax= 9.18D+03 ExpMxC= 1.38D+03 IAcc=3 IRadAn=         5 AccDes= 0.00D+00
 Harris functional with IExCor= 4639 and IRadAn=       5 diagonalized for initial guess.
 HarFok:  IExCor= 4639 AccDes= 0.00D+00 IRadAn=         5 IDoV= 1 UseB2=F ITyADJ=14
 ICtDFT=  3500011 ScaDFX=  1.000000  1.000000  1.000000  1.000000
 FoFCou: FMM=F IPFlag=           0 FMFlag=      100000 FMFlg1=           0
         NFxFlg=           0 DoJE=T BraDBF=F KetDBF=T FulRan=T
         wScrn=  0.000000 ICntrl=       500 IOpCl=  0 I1Cent=   200000004 NGrid=           0
         NMat0=    1 NMatS0=      1 NMatT0=    0 NMatD0=    1 NMtDS0=    0 NMtDT0=    0
 Petite list used in FoFCou.
     Accept linear search using points  3 and  4.
     Minimum is close to point  3 DX=  4.77D-02 DF= -1.02D-06 DXR=  4.15D-02 DFR=  1.73D-03 which will be used.
     Accept linear search using points  1 and  2.
     Minimum is close to point  2 DX= -9.01D-02 DF= -1.74D-06 DXR=  8.92D-02 DFR=  9.32D-03 which will be used.
     Accept linear search using points  1 and  2.
     Accept linear search using points  1 and  2.
     Minimum is close to point  2 DX= -9.70D-05 DF= -4.55D-13 DXR=  9.70D-05 DFR=  8.52D-09 which will be used.
 SCF Done:  E(RwB97XD) =  -1112.68092091     a.u. after    7 cycles
            Convg  =    0.3762D-09                    32 Fock formations.
              S**2 =  0.0000                  -V/T =  2.0051
   1 Symmetry operations used in ECPInt.
 ECPInt:  NShTT=    5460 NPrTT=   22788 LenC2=    5274 LenP2D=   15747.
 LDataN:  DoStor=T MaxTD1= 5 Len=  102
 Calling FoFJK, ICntrl=      2127 FMM=F ISym2X=0 I1Cent= 0 IOpClX= 0 NMat=1 NMatS=1 NMatT=0.

 GradGradGradGradGradGradGradGradGradGradGradGradGradGradGradGradGradGrad
 Using GEDIIS/GDIIS optimizer.
 FormGI is forming the generalized inverse of G from B-inverse, IUseBI=4.
 Internal  Forces:  Max     0.003266417 RMS     0.000434889
 Step number   2 out of a maximum of  180
 All quantities printed in internal units (Hartrees-Bohrs-Radians)
 Mixed Optimization -- En-DIIS/RFO-DIIS
 Trust test= 9.51D-01 RLast= 2.27D-01 DXMaxT set to 5.05D-01
 ITU=  1  0
 Use linear search instead of GDIIS.
     Eigenvalues ---    0.00230   0.00419   0.00461   0.00465   0.00466
     Eigenvalues ---    0.00469   0.00539   0.00588   0.00745   0.01228
     Eigenvalues ---    0.02074   0.02696   0.03240   0.03651   0.03883
     Eigenvalues ---    0.04536   0.04558   0.04760   0.05529   0.05564
     Eigenvalues ---    0.05567   0.05584   0.05596   0.05636   0.05693
     Eigenvalues ---    0.05699   0.05701   0.05724   0.05767   0.05909
     Eigenvalues ---    0.06476   0.07682   0.08622   0.09100   0.11121
     Eigenvalues ---    0.11272   0.11291   0.11841   0.13494   0.13931
     Eigenvalues ---    0.15275   0.15911   0.16000   0.16000   0.16000
     Eigenvalues ---    0.16000   0.16000   0.16000   0.16000   0.16000
     Eigenvalues ---    0.16000   0.16000   0.16000   0.16041   0.16247
     Eigenvalues ---    0.16333   0.20515   0.22250   0.27091   0.27368
     Eigenvalues ---    0.27930   0.28204   0.30058   0.30107   0.30126
     Eigenvalues ---    0.30581   0.30820   0.33834   0.34885   0.34936
     Eigenvalues ---    0.34946   0.34947   0.34961   0.34972   0.34977
     Eigenvalues ---    0.34995   0.35003   0.35018   0.35024   0.35031
     Eigenvalues ---    0.35037   0.35041   0.35043   0.35788
 Quartic linear search produced a step of  0.01720.
 Iteration  1 RMS(Cart)=  0.09473292 RMS(Int)=  0.00227957
 Iteration  2 RMS(Cart)=  0.00518675 RMS(Int)=  0.00001480
 Iteration  3 RMS(Cart)=  0.00001192 RMS(Int)=  0.00001352
 Iteration  4 RMS(Cart)=  0.00000000 RMS(Int)=  0.00001352
 Variable       Old X    -DE/DX   Delta X   Delta X   Delta X     New X
                                 (Linear)    (Quad)   (Total)
    R1        2.89671  -0.00126   0.00034  -0.00389  -0.00355   2.89316
    R2        2.09079  -0.00002   0.00057   0.00054   0.00111   2.09189
    R3        2.08375   0.00008   0.00048   0.00074   0.00122   2.08497
    R4        2.08518   0.00025   0.00048   0.00121   0.00168   2.08686
    R5        2.89798  -0.00142   0.00035  -0.00440  -0.00405   2.89393
    R6        2.89414  -0.00026   0.00027  -0.00058  -0.00030   2.89383
    R7        3.51866  -0.00327   0.00023  -0.01464  -0.01441   3.50425
    R8        2.09119  -0.00007   0.00058   0.00041   0.00099   2.09218
    R9        2.08462   0.00042   0.00048   0.00171   0.00219   2.08680
   R10        2.08388   0.00013   0.00048   0.00089   0.00136   2.08524
   R11        2.08735   0.00019   0.00052   0.00110   0.00162   2.08898
   R12        2.08604   0.00007   0.00051   0.00072   0.00123   2.08727
   R13        2.08559   0.00004   0.00050   0.00065   0.00116   2.08675
   R14        2.57302  -0.00051   0.00093  -0.00096  -0.00003   2.57299
   R15        4.80436   0.00131   0.00131   0.04878   0.05008   4.85444
   R16        4.70367   0.00025   0.00043   0.01427   0.01471   4.71838
   R17        4.89910  -0.00029  -0.00008  -0.00680  -0.00687   4.89223
   R18        2.89585  -0.00129   0.00032  -0.00400  -0.00368   2.89217
   R19        2.09002  -0.00002   0.00056   0.00052   0.00108   2.09110
   R20        2.08334   0.00011   0.00047   0.00081   0.00128   2.08462
   R21        2.08581   0.00021   0.00048   0.00110   0.00158   2.08739
   R22        2.89438  -0.00067   0.00032  -0.00200  -0.00169   2.89270
   R23        2.89530  -0.00010   0.00030   0.00029   0.00060   2.89590
   R24        3.52242  -0.00186   0.00009  -0.00982  -0.00972   3.51270
   R25        2.08943   0.00001   0.00056   0.00062   0.00117   2.09060
   R26        2.08593   0.00019   0.00048   0.00104   0.00153   2.08745
   R27        2.08333   0.00013   0.00047   0.00056   0.00103   2.08436
   R28        2.08661   0.00027   0.00053   0.00134   0.00187   2.08847
   R29        2.08572  -0.00008   0.00053   0.00108   0.00162   2.08735
   R30        2.08631   0.00005   0.00051   0.00067   0.00118   2.08749
   R31        2.55992  -0.00018   0.00079   0.00014   0.00093   2.56085
    A1        1.92196  -0.00015   0.00008  -0.00085  -0.00078   1.92118
    A2        1.93646   0.00015   0.00011   0.00132   0.00143   1.93789
    A3        1.93738   0.00008   0.00011   0.00035   0.00046   1.93784
    A4        1.89145   0.00006  -0.00006   0.00083   0.00076   1.89222
    A5        1.88451  -0.00002  -0.00015  -0.00074  -0.00089   1.88362
    A6        1.89057  -0.00013  -0.00010  -0.00094  -0.00104   1.88953
    A7        1.93150  -0.00039  -0.00012  -0.00208  -0.00221   1.92929
    A8        1.92935   0.00012  -0.00019   0.00017  -0.00003   1.92932
    A9        1.90885   0.00029   0.00031   0.00293   0.00324   1.91209
   A10        1.92755   0.00023  -0.00021   0.00056   0.00035   1.92791
   A11        1.91629   0.00014   0.00037   0.00165   0.00202   1.91830
   A12        1.84851  -0.00038  -0.00014  -0.00318  -0.00332   1.84520
   A13        1.92254  -0.00020   0.00009  -0.00116  -0.00107   1.92147
   A14        1.93882   0.00008   0.00013   0.00038   0.00051   1.93933
   A15        1.93651   0.00020   0.00011   0.00158   0.00169   1.93820
   A16        1.88343   0.00002  -0.00016  -0.00045  -0.00061   1.88282
   A17        1.89016   0.00006  -0.00008   0.00077   0.00069   1.89085
   A18        1.89077  -0.00015  -0.00011  -0.00116  -0.00127   1.88950
   A19        1.91552  -0.00006  -0.00009  -0.00129  -0.00138   1.91414
   A20        1.93967   0.00027   0.00019   0.00225   0.00244   1.94211
   A21        1.93948   0.00029   0.00019   0.00251   0.00270   1.94217
   A22        1.88824  -0.00020  -0.00015  -0.00230  -0.00245   1.88580
   A23        1.88997  -0.00019  -0.00013  -0.00198  -0.00211   1.88786
   A24        1.88947  -0.00013  -0.00003   0.00061   0.00056   1.89003
   A25        1.68170  -0.00224   0.00050  -0.01363  -0.01312   1.66857
   A26        2.81831  -0.00025   0.00004  -0.00102  -0.00108   2.81724
   A27        1.86321   0.00013  -0.00009  -0.00467  -0.00478   1.85843
   A28        1.63682   0.00008   0.00003   0.00012   0.00020   1.63702
   A29        1.25871  -0.00026   0.00000  -0.00428  -0.00428   1.25444
   A30        1.21261  -0.00036  -0.00004  -0.00529  -0.00535   1.20727
   A31        1.03351   0.00003   0.00007   0.00221   0.00226   1.03577
   A32        1.91979  -0.00015   0.00005  -0.00104  -0.00098   1.91880
   A33        1.93709   0.00021   0.00013   0.00188   0.00201   1.93909
   A34        1.94219   0.00003   0.00008  -0.00001   0.00007   1.94227
   A35        1.89118   0.00003  -0.00005   0.00070   0.00065   1.89183
   A36        1.88325  -0.00003  -0.00014  -0.00111  -0.00125   1.88200
   A37        1.88868  -0.00010  -0.00008  -0.00048  -0.00056   1.88811
   A38        1.93808  -0.00023  -0.00013  -0.00320  -0.00336   1.93471
   A39        1.93479   0.00003  -0.00009  -0.00274  -0.00284   1.93195
   A40        1.90267   0.00001   0.00031   0.00295   0.00325   1.90592
   A41        1.92777  -0.00011  -0.00013  -0.00135  -0.00149   1.92628
   A42        1.91253   0.00044   0.00023   0.00693   0.00716   1.91970
   A43        1.84555  -0.00012  -0.00016  -0.00228  -0.00244   1.84311
   A44        1.91788  -0.00004   0.00012  -0.00132  -0.00120   1.91668
   A45        1.94435  -0.00008   0.00008  -0.00021  -0.00014   1.94421
   A46        1.93704   0.00033   0.00006   0.00476   0.00483   1.94187
   A47        1.88252  -0.00003  -0.00013  -0.00192  -0.00206   1.88047
   A48        1.88625  -0.00016  -0.00008  -0.00048  -0.00056   1.88570
   A49        1.89398  -0.00003  -0.00005  -0.00102  -0.00108   1.89290
   A50        1.90804   0.00006  -0.00013  -0.00148  -0.00160   1.90645
   A51        1.93802   0.00025   0.00016   0.00606   0.00621   1.94423
   A52        1.94330   0.00005   0.00021   0.00102   0.00120   1.94450
   A53        1.88810  -0.00025  -0.00010  -0.00251  -0.00263   1.88547
   A54        1.88734  -0.00017  -0.00014  -0.00365  -0.00379   1.88355
   A55        1.89753   0.00004  -0.00000   0.00021   0.00020   1.89773
   A56        1.60837   0.00002  -0.00010  -0.00608  -0.00619   1.60218
   A57        1.93376  -0.00010   0.00002   0.00028   0.00034   1.93410
   A58        1.68705   0.00005   0.00015   0.00361   0.00375   1.69080
   A59        2.16782  -0.00031   0.00000  -0.00120  -0.00119   2.16663
   A60        2.12187  -0.00010  -0.00002   0.00282   0.00280   2.12467
    D1       -1.09072   0.00015   0.00056   0.02165   0.02221  -1.06851
    D2        1.05046   0.00026   0.00007   0.02105   0.02113   1.07159
    D3        3.07918   0.00003  -0.00002   0.01902   0.01900   3.09818
    D4        3.09841   0.00008   0.00052   0.02033   0.02085   3.11925
    D5       -1.04359   0.00019   0.00003   0.01973   0.01976  -1.02383
    D6        0.98513  -0.00004  -0.00006   0.01769   0.01763   1.00276
    D7        0.99526   0.00008   0.00050   0.02039   0.02089   1.01615
    D8        3.13644   0.00019   0.00001   0.01979   0.01981  -3.12694
    D9       -1.11802  -0.00003  -0.00008   0.01776   0.01768  -1.10035
   D10        1.07518  -0.00018  -0.00052  -0.01972  -0.02023   1.05495
   D11       -1.01075  -0.00013  -0.00046  -0.01865  -0.01911  -1.02985
   D12       -3.11515  -0.00012  -0.00049  -0.01850  -0.01898  -3.13414
   D13       -1.06705  -0.00023  -0.00004  -0.01889  -0.01893  -1.08598
   D14        3.13021  -0.00017   0.00002  -0.01782  -0.01780   3.11241
   D15        1.02580  -0.00016  -0.00001  -0.01767  -0.01768   1.00812
   D16       -3.09913   0.00002   0.00003  -0.01632  -0.01630  -3.11543
   D17        1.09812   0.00008   0.00008  -0.01525  -0.01517   1.08295
   D18       -1.00628   0.00009   0.00006  -0.01510  -0.01505  -1.02133
   D19       -1.07973   0.00013   0.00019  -0.00016   0.00003  -1.07971
   D20        3.11554   0.00025   0.00031   0.00212   0.00243   3.11797
   D21        1.01020   0.00004   0.00009  -0.00188  -0.00179   1.00841
   D22        1.06375  -0.00012  -0.00025  -0.00230  -0.00255   1.06120
   D23       -1.02416  -0.00000  -0.00013  -0.00002  -0.00015  -1.02431
   D24       -3.12950  -0.00021  -0.00035  -0.00402  -0.00437  -3.13387
   D25        3.13756  -0.00006  -0.00000  -0.00189  -0.00189   3.13567
   D26        1.04965   0.00006   0.00012   0.00039   0.00051   1.05016
   D27       -1.05569  -0.00014  -0.00010  -0.00361  -0.00371  -1.05940
   D28        0.99834   0.00016   0.00030   0.09042   0.09073   1.08907
   D29       -1.12414   0.00036   0.00003   0.09008   0.09010  -1.03404
   D30        3.07780   0.00023   0.00016   0.09036   0.09052  -3.11486
   D31        1.26130  -0.00029  -0.00043  -0.07362  -0.07406   1.18724
   D32        2.72107  -0.00072  -0.00068  -0.10092  -0.10160   2.61947
   D33        1.69217  -0.00076  -0.00077  -0.10376  -0.10452   1.58765
   D34        1.05694  -0.00015  -0.00022  -0.02658  -0.02680   1.03014
   D35        2.76662  -0.00010  -0.00010  -0.02505  -0.02514   2.74148
   D36       -0.50437   0.00013   0.00007   0.00063   0.00070  -0.50368
   D37        1.20531   0.00018   0.00019   0.00217   0.00235   1.20766
   D38        0.59578   0.00029   0.00015   0.00502   0.00518   0.60096
   D39        2.30546   0.00034   0.00027   0.00656   0.00684   2.31229
   D40       -2.66928   0.00014  -0.00003   0.00182   0.00176  -2.66752
   D41        0.13416  -0.00013   0.00003   0.00134   0.00136   0.13552
   D42       -1.19779   0.00017   0.00009   0.00570   0.00581  -1.19198
   D43        3.07037  -0.00004  -0.00020  -0.01495  -0.01518   3.05519
   D44       -0.21338  -0.00002  -0.00008  -0.00628  -0.00633  -0.21971
   D45        1.19814  -0.00014  -0.00007  -0.00916  -0.00921   1.18893
   D46       -1.07763   0.00037   0.00044   0.02158   0.02201  -1.05562
   D47        1.07222   0.00009   0.00010   0.01564   0.01575   1.08797
   D48        3.09680  -0.00004   0.00004   0.01306   0.01310   3.10990
   D49        3.11285   0.00029   0.00039   0.02018   0.02057   3.13342
   D50       -1.02048   0.00001   0.00006   0.01424   0.01430  -1.00618
   D51        1.00410  -0.00011  -0.00001   0.01166   0.01165   1.01575
   D52        1.00843   0.00026   0.00035   0.01952   0.01986   1.02830
   D53       -3.12490  -0.00002   0.00002   0.01357   0.01360  -3.11130
   D54       -1.10032  -0.00015  -0.00005   0.01099   0.01095  -1.08937
   D55        1.07062  -0.00027  -0.00038  -0.01280  -0.01317   1.05745
   D56       -1.01468  -0.00015  -0.00034  -0.00941  -0.00973  -1.02441
   D57       -3.12727  -0.00029  -0.00036  -0.01124  -0.01159  -3.13886
   D58       -1.08326  -0.00007  -0.00007  -0.00609  -0.00616  -1.08942
   D59        3.11463   0.00005  -0.00002  -0.00269  -0.00272   3.11191
   D60        1.00204  -0.00009  -0.00005  -0.00453  -0.00458   0.99746
   D61       -3.10964  -0.00012   0.00007  -0.00663  -0.00655  -3.11620
   D62        1.08825  -0.00000   0.00011  -0.00323  -0.00311   1.08513
   D63       -1.02435  -0.00014   0.00009  -0.00507  -0.00497  -1.02932
   D64       -1.03097   0.00018   0.00025   0.00424   0.00450  -1.02647
   D65       -3.11286   0.00030   0.00036   0.00455   0.00493  -3.10793
   D66        1.05326   0.00004   0.00011  -0.00061  -0.00049   1.05277
   D67        1.12481  -0.00017  -0.00009  -0.00272  -0.00281   1.12201
   D68       -0.95708  -0.00005   0.00003  -0.00242  -0.00237  -0.95945
   D69       -3.07415  -0.00031  -0.00022  -0.00757  -0.00779  -3.08194
   D70       -3.09064   0.00022   0.00002   0.00349   0.00352  -3.08712
   D71        1.11065   0.00034   0.00013   0.00379   0.00395   1.11460
   D72       -1.00641   0.00008  -0.00011  -0.00136  -0.00147  -1.00788
   D73        3.09262  -0.00012   0.00004   0.00254   0.00263   3.09525
   D74        1.15130  -0.00002   0.00002   0.00280   0.00285   1.15415
   D75        0.96830  -0.00011  -0.00013   0.00030   0.00019   0.96849
   D76       -0.97302  -0.00002  -0.00015   0.00055   0.00041  -0.97261
   D77       -1.10955  -0.00015   0.00000  -0.00042  -0.00039  -1.10993
   D78       -3.05087  -0.00005  -0.00002  -0.00017  -0.00017  -3.05104
   D79        0.45347  -0.00017  -0.00020  -0.00399  -0.00420   0.44927
   D80        2.55760  -0.00013  -0.00007  -0.00304  -0.00311   2.55449
   D81       -1.68854  -0.00027  -0.00030  -0.00612  -0.00641  -1.69495
   D82       -0.44682   0.00009   0.00001   0.00592   0.00595  -0.44087
   D83       -2.54062   0.00002   0.00014   0.00568   0.00586  -2.53477
   D84        1.69689   0.00034   0.00037   0.01128   0.01168   1.70857
         Item               Value     Threshold  Converged?
 Maximum Force            0.003266     0.000015     NO 
 RMS     Force            0.000435     0.000010     NO 
 Maximum Displacement     0.374980     0.000060     NO 
 RMS     Displacement     0.096545     0.000040     NO 
[...]
 91,0.00091584,0.01181781,-0.01847340,0.01058917,0.09836630,-0.20249819
 ,0.08383554,-0.00049448,0.00083207,0.00122564,0.00122190,-0.00445454,-
 0.00225732,-0.00083809,-0.00001094,-0.00069681,-0.00004985,0.00045475,
 -0.00008047,0.00002109,-0.00007561,-0.00006289,-0.10882442,0.21810012,
 -0.00002522,0.00000097,0.00002296,0.00002088,-0.00007092,-0.00004413,-
 0.00003329,0.00000221,-0.00000020,-0.00000753,0.00003309,0.00001041,0.
 00001774,0.00010128,0.00000971,-0.00000504,0.00001349,0.00000003,0.000
 00922,0.00000127,-0.00000370,0.00000025,-0.00000735,-0.00000978,-0.000
 00373,0.00001037,0.00000691,-0.00000013,-0.00002360,0.00002065,0.00001
 855,0.00001045,-0.00001091,-0.00001193,-0.00000108,0.00000637,0.000005
 50,0.00000041,-0.00000146,0.00000228,-0.00000123,-0.00000367,-0.000017
 75,-0.00012208,-0.00002296,0.00036526,-0.00000892,0.00053872,0.0098736
 4,-0.01522321,0.00754088,-0.05457727,0.08503373,-0.09545978,0.00041885
 ,-0.00060403,0.00119426,0.00146981,-0.00390597,-0.00030223,-0.00027423
 ,-0.00017919,-0.00008386,0.00024207,0.00016251,0.00006468,-0.00009991,
 0.00009795,-0.00007498,0.05915661,-0.08893444,0.09869723,-0.00005272,0
 .00001576,0.00005147,0.00001039,-0.00006120,-0.00016644,-0.00001738,-0
 .00000953,-0.00001056,-0.00000942,0.00003943,0.00001146,-0.00006989,0.
 00012076,0.00004224,-0.00000308,0.00003100,-0.00001293,-0.00000549,-0.
 00000517,-0.00000100,0.00001089,0.00000805,0.00000616,-0.00000714,0.00
 001088,0.00000500,0.00000204,-0.00002227,0.00000908,0.00002054,0.00000
 822,-0.00002045,-0.00001413,-0.00000171,0.00000945,0.00000808,0.000001
 10,-0.00000609,0.00000040,-0.00000266,-0.00000339,0.00000092,-0.000185
 73,0.00020745,0.00044455,0.00021866,-0.00107168,-0.00175191,-0.0001050
 0,0.00028148,-0.11084769,-0.03500049,0.10718127,0.00036961,0.00085480,
 0.00003486,-0.00033219,-0.00018813,-0.00002846,-0.00004172,0.00007762,
 -0.00008111,-0.00001434,0.00011726,0.00004543,0.00021337,-0.00028093,-
 0.00004574,0.00877650,0.00351329,-0.01446633,0.11256627,-0.00000931,0.
 00002617,0.00003184,0.00001305,-0.00006279,-0.00010552,-0.00000160,0.0
 0001489,0.00000143,-0.00000225,0.00003056,0.00002018,-0.00004987,0.000
 04733,0.00005606,-0.00000904,0.00001704,-0.00000303,-0.00000016,-0.000
 00691,0.00000244,0.00000374,-0.00000580,0.00000111,0.00000004,0.000005
 96,0.00001170,-0.00000551,0.00001137,-0.00002381,-0.00001617,-0.000018
 79,0.00000275,-0.00001366,0.00000183,0.00000638,0.00000395,-0.00000405
 ,-0.00000459,0.00000486,-0.00000100,-0.00000229,0.00003973,-0.00004199
 ,0.00003785,0.00107246,0.00094358,0.00026128,0.01322814,0.00590484,-0.
 02147154,-0.03572425,-0.06778831,0.06222631,-0.00002818,-0.00402191,-0
 .00301193,0.00008902,0.00148215,-0.00117928,-0.00011388,-0.00005454,0.
 00007175,0.00019603,0.00004887,0.00021222,-0.00035786,-0.00011317,0.00
 017045,-0.01315848,-0.00494377,0.01849127,0.03708894,0.07135855,0.0000
 0584,0.00001596,0.00001556,-0.00001276,-0.00002347,-0.00004977,-0.0000
 0088,0.00001367,0.00000526,0.00000016,0.00001062,0.00001708,0.00003408
 ,-0.00000083,0.00008287,-0.00000144,0.00000062,-0.00000414,0.00000446,
 -0.00000152,0.00000735,-0.00000164,-0.00000011,-0.00000385,0.00001780,
 -0.00000520,0.00001064,-0.00000248,0.00004068,-0.00003698,-0.00003843,
 -0.00002886,0.00002290,-0.00000439,-0.00000248,-0.00000081,-0.00000416
 ,-0.00000524,-0.00000100,0.00000719,0.00000307,0.00000433,0.00001153,-
 0.00000647,-0.00003043,0.00076002,0.00091614,0.00054796,0.00947808,0.0
 0783450,-0.01679276,0.10650584,0.05951170,-0.23492335,-0.00047349,-0.0
 0472237,-0.00178825,-0.00068605,0.00056969,0.00070093,0.00006046,-0.00
 004372,-0.00007329,-0.00010250,-0.00005446,0.00040123,-0.00075526,-0.0
 0059164,0.00008455,0.00594244,0.00149307,-0.00875071,-0.11696548,-0.06
 208684,0.25193259,0.00005170,-0.00003909,-0.00005488,-0.00015952,0.000
 03024,0.00018805,0.00003857,-0.00003180,-0.00001215,-0.00000361,-0.000
 02069,0.00000221,-0.00030948,0.00033225,-0.00016342,-0.00000140,-0.000
 02640,0.00001598,0.00000666,0.00000697,-0.00000208,-0.00000647,-0.0000
 0207,-0.00000458,-0.00000022,-0.00000636,-0.00000980,-0.00000401,-0.00
 000188,-0.00000365,0.00000035,0.00000056,-0.00000149,0.00000675,0.0000
 0240,-0.00000264,-0.00000803,0.00000213,0.00000304,0.00000273,0.000001
 07,0.00000367,-0.00024959,0.00016539,-0.00010366,0.00095768,-0.0001553
 9,0.00002479,0.00191466,0.00228514,0.00126166,-0.28328327,-0.07790180,
 -0.06038566,0.00059606,0.00047159,0.00033843,0.00095392,0.00020362,0.0
 0060163,0.00017953,0.00005452,0.00024185,0.00023157,-0.00009670,-0.000
 02590,0.00013078,0.00022503,0.00001348,-0.01047984,-0.00512709,-0.0016
 9020,-0.01028185,-0.00257835,-0.00443739,0.29946664,0.00000242,0.00000
 214,0.00002656,-0.00007698,-0.00031198,-0.00012421,-0.00002907,0.00003
 377,-0.00001001,-0.00005611,0.00013993,0.00006066,0.00041981,0.0002521
 4,0.00004929,-0.00001132,0.00002518,0.00000742,0.00000569,-0.00000721,
 0.00000220,0.00000324,-0.00002352,-0.00000640,-0.00001383,0.00001502,0
 .00002456,-0.00000113,-0.00002167,-0.00001923,-0.00000185,-0.00001035,
 -0.00000041,-0.00004696,-0.00001032,0.00002363,0.00001452,-0.00000730,
 -0.00000307,0.00001328,0.00000058,-0.00000693,0.00042594,-0.00028592,0
 .00010698,0.00139614,-0.00384426,-0.00345889,-0.02371844,-0.00817029,-
 0.00529691,-0.07504204,-0.07255741,-0.01842215,-0.00034278,0.00047632,
 0.00129729,-0.00064757,0.00101662,0.00024486,-0.00006799,0.00023364,-0
 .00014314,-0.00154763,-0.00015389,-0.00068652,0.00032958,0.00009648,0.
 00009894,0.02285213,0.00939316,0.00479957,-0.00657629,-0.00295469,-0.0
 0260807,0.08223486,0.07661260,-0.00009161,0.00004433,0.00008445,-0.000
 02662,-0.00000635,-0.00034948,-0.00002107,-0.00001219,-0.00000505,-0.0
 0000474,0.00002665,0.00000374,-0.00007919,0.00006302,0.00021175,-0.000
 00451,0.00005400,-0.00001912,-0.00000458,-0.00000814,0.00000533,0.0000
 1439,0.00000187,0.00000481,-0.00002544,0.00001490,-0.00000204,0.000004
 86,-0.00002630,0.00001006,0.00002034,0.00000554,-0.00002510,-0.0000129
 2,0.00000423,0.00001197,0.00001925,0.00000218,-0.00001155,-0.00000082,
 0.00000136,-0.00000445,-0.00002902,-0.00005160,0.00050640,0.00115375,-
 0.00345856,-0.00272616,-0.02004484,-0.00452608,-0.00562061,-0.05764037
 ,-0.01871279,-0.06386459,-0.00145016,-0.00001149,0.00067249,0.00020940
 ,0.00082931,0.00040187,0.00036454,0.00008187,0.00011989,-0.00126448,-0
 .00067888,0.00000085,-0.00012880,-0.00014107,0.00018767,-0.01109412,-0
 .00514563,-0.00315300,0.02470660,0.00761760,0.00865181,0.06437041,0.02
 420327,0.06540980,-0.00002828,-0.00003423,-0.00000984,0.00006502,-0.00
 006959,0.00015358,0.00000380,0.00020174,-0.00003949,-0.00002166,0.0000
 4421,-0.00006478,-0.00024596,0.00001999,-0.00031704,-0.00000262,0.0000
 1422,0.00001006,-0.00000396,-0.00000177,-0.00001543,0.00000274,-0.0000
 1005,0.00001560,-0.00016061,0.00000934,-0.00002479,-0.00006068,-0.0002
 8161,0.00013264,0.00013024,0.00009147,-0.00012603,-0.00000877,0.000002
 36,0.00001193,0.00000960,-0.00000250,0.00000437,-0.00001706,-0.0000182
 2,-0.00000839,0.00000748,-0.00015511,0.00024017,0.00093566,-0.00093533
 ,0.00046336,0.00678151,-0.01282444,0.00790057,0.00041828,-0.00045322,-
 0.00029562,-0.11097370,0.09790756,-0.06027848,-0.00135619,-0.00096434,
 0.00226811,-0.00037534,0.00011441,0.00019319,-0.00003815,-0.00002857,-
 0.00008090,0.00024353,0.00011904,-0.00013237,0.00009748,0.00012511,-0.
 00007547,0.00000995,-0.00020751,-0.00016689,-0.00008861,0.00014697,-0.
 00004424,0.11497836,-0.00001623,-0.00000243,0.00001233,0.00006486,-0.0
 0001584,-0.00005152,-0.00007280,-0.00004998,0.00010274,0.00000462,0.00
 000393,0.00003228,-0.00002467,0.00001720,-0.00006252,0.00000163,0.0000
 0156,-0.00000540,0.00000692,0.00000292,0.00000544,0.00000004,0.0000083
 2,-0.00000986,0.00001400,0.00001081,-0.00000589,0.00001139,0.00002099,
 -0.00005286,0.00000690,0.00000170,-0.00000833,-0.00000050,-0.00000496,
 -0.00000207,-0.00000209,0.00000420,-0.00000245,0.00001155,0.00000758,0
 .00000079,-0.00006134,-0.00007026,0.00003496,0.00068189,0.00013825,-0.
 00031535,0.00417958,-0.00759711,0.00358844,-0.00006905,0.00052573,-0.0
 0110388,0.09647914,-0.19772084,0.09108245,-0.00180217,0.00059077,0.000
 75629,-0.00074323,0.00016386,0.00006402,0.00006009,-0.00014039,0.00007
 486,-0.00010008,0.00026225,-0.00023991,0.00006922,0.00042522,0.0000456
 7,-0.00017483,0.00006667,-0.00004890,-0.00009907,-0.00003011,-0.000003
 56,-0.10455285,0.20863136,0.00003311,0.00002472,-0.00000285,0.00003108
 ,-0.00005077,-0.00004510,0.00001661,-0.00002915,0.00008015,0.00000214,
 0.00002365,0.00003522,-0.00007296,-0.00005059,-0.00004322,-0.00001033,
 -0.00000145,0.00000560,0.00000049,-0.00000707,0.00000771,0.00000220,-0
 .00001591,-0.00000033,0.00001342,0.00000397,0.00000250,-0.00002456,0.0
 0004684,-0.00009992,-0.00002838,-0.00002027,0.00000714,-0.00001046,-0.
 00000109,0.00000327,-0.00000247,-0.00000470,0.00000221,0.00001261,0.00
 000568,-0.00000110,0.00014653,0.00006982,0.00003539,-0.00124730,-0.000
 36115,0.00076700,-0.01307095,0.01975195,-0.01297498,-0.00095695,0.0008
 8006,0.00080596,-0.05871631,0.09011489,-0.10296680,0.00291522,-0.00010
 641,-0.00362216,0.00066464,-0.00009612,0.00033042,0.00009610,-0.000096
 50,-0.00003394,-0.00012230,-0.00035578,0.00004878,0.00055124,-0.000699
 86,-0.00043661,0.00010035,-0.00017863,0.00042124,-0.00001526,0.0000273
 8,-0.00005642,0.06129098,-0.10096132,0.11046674,0.00005116,-0.00000552
 ,-0.00001707,-0.00020060,0.00010477,0.00007589,-0.00060148,0.00049007,
 -0.00002923,0.00001211,-0.00002435,-0.00001878,-0.00062874,0.00011670,
 -0.00032519,0.00000860,-0.00003177,0.00000282,-0.00001173,-0.00000575,
 0.00000295,-0.00000553,0.00000388,0.00000300,-0.00010208,-0.00002886,-
 0.00004027,-0.00098494,0.00074744,0.00025340,-0.00027711,0.00028316,0.
 00016301,0.00002366,-0.00000234,-0.00000231,0.00001257,0.00000109,0.00
 000699,0.00000652,-0.00000121,-0.00000046,-0.00020309,-0.00003892,-0.0
 0039103,-0.00054108,-0.00080628,0.00354929,-0.01354615,-0.00365835,-0.
 00461166,0.00033782,-0.00009423,-0.00103355,-0.27772696,-0.07784249,-0
 .06048808,0.00034315,-0.00027972,-0.00028818,0.00034407,0.00005013,-0.
 00000062,0.00012340,0.00002596,-0.00007238,-0.00074457,-0.00043836,-0.
 00017196,-0.00011223,-0.00002557,0.00005756,0.00036440,0.00002908,-0.0
 0007425,0.00026876,0.00036542,0.00069834,-0.01002152,-0.00508892,-0.00
 196913,0.29769110,0.00002757,-0.00013230,-0.00017234,-0.00006110,0.000
 09761,0.00054430,0.00029839,-0.00020634,-0.00017476,-0.00005096,-0.000
 00322,-0.00013701,-0.00006633,-0.00021046,-0.00027432,0.00002316,-0.00
 004046,0.00003846,-0.00003122,0.00001752,-0.00004610,0.00001173,-0.000
 00904,0.00002255,-0.00021656,-0.00000897,-0.00006956,0.00089507,-0.001
 02868,0.00002616,0.00033949,0.00013960,-0.00013101,0.00002088,0.000002
 03,0.00000925,-0.00000476,0.00000954,0.00002037,-0.00004294,-0.0000341
 7,-0.00001115,0.00011521,0.00001008,0.00024921,-0.00040993,-0.00019404
 ,0.00176515,-0.00765034,-0.00421133,-0.00248112,0.00109725,0.00012498,
 -0.00038194,-0.07754610,-0.07709373,-0.02143046,-0.00110116,-0.0005110
 5,0.00003969,-0.00024625,0.00013299,-0.00009818,0.00029742,0.00022486,
 0.00013085,-0.00068239,0.00038150,-0.00006220,0.00012418,-0.00005429,0
 .00005657,0.00002972,-0.00016181,0.00005139,0.00011568,0.00038178,-0.0
 0025859,0.02278866,0.00969362,0.00522594,0.08373818,0.07820596,0.00008
 342,-0.00017858,-0.00024260,-0.00028928,0.00060044,0.00064635,0.000101
 63,-0.00035763,0.00014463,0.00003196,-0.00018932,-0.00010550,-0.000120
 00,-0.00004466,-0.00068660,0.00002617,-0.00010869,0.00003071,-0.000045
 03,0.00005251,-0.00006453,-0.00001211,0.00002354,0.00002382,-0.0001292
 3,0.00002230,-0.00018217,0.00000584,-0.00013659,0.00014384,0.00042421,
 0.00010914,-0.00021838,0.00007795,0.00000243,-0.00003102,-0.00001457,0
 .00003297,0.00001751,-0.00007022,-0.00000082,-0.00001624,-0.00047464,0
 .00016599,-0.00074860,0.00217206,0.00130241,-0.00499548,0.02638072,0.0
 0833800,0.00754823,0.00066289,0.00083191,0.00135934,-0.06415439,-0.022
 58489,-0.06651062,0.00028708,0.00004315,0.00068693,-0.00000093,-0.0001
 9246,-0.00007913,-0.00008652,0.00019366,-0.00002009,0.00172922,0.00053
 835,0.00054018,-0.00008975,-0.00004684,-0.00002548,-0.00024042,0.00009
 817,0.00017486,-0.00005960,-0.00041536,-0.00065154,-0.01133431,-0.0057
 6296,-0.00340756,0.06309105,0.02155401,0.07051151,-0.00001261,0.000103
 26,0.00012257,0.00018073,-0.00027600,-0.00042832,-0.00001331,-0.000017
 08,0.00016724,0.00000642,0.00006587,0.00013016,-0.00034856,0.00012804,
 -0.00009151,-0.00001980,0.00004231,-0.00001808,0.00002608,-0.00002073,
 0.00004021,0.00000214,-0.00000412,-0.00002167,0.00010580,0.00001777,0.
 00004508,-0.00002540,0.00020293,-0.00026365,-0.00009580,-0.00018126,0.
 00006171,-0.00003516,-0.00000268,0.00000500,-0.00000060,-0.00001228,-0
 .00001835,0.00004793,0.00002263,0.00000993,0.00000607,-0.00012107,0.00
 012975,0.00061677,0.00127273,0.00045071,-0.00209230,0.01389977,0.00912
 763,-0.00165120,-0.00156825,0.00255563,-0.05124539,0.01339916,0.011200
 44,0.00062026,-0.00011158,-0.00067476,-0.00006440,0.00004371,0.0000371
 2,-0.00043699,-0.00057468,0.00008147,0.00017082,-0.00012709,-0.0002770
 5,0.00003592,-0.00029407,-0.00018038,0.00038935,0.00066548,0.00084643,
 0.00021932,0.00010538,0.00018065,-0.00107900,0.01069908,0.01093692,0.0
 0596349,-0.02212831,-0.01788151,0.04892544,0.00000030,0.00006298,0.000
 07028,0.00009056,-0.00017838,-0.00019788,0.00004837,0.00004415,0.00006
 632,0.00000456,0.00005552,0.00006261,-0.00018877,0.00006373,-0.0000490
 0,-0.00001673,0.00002791,-0.00000658,0.00001318,-0.00001845,0.00002209
 ,0.00000075,-0.00001091,-0.00000540,0.00004189,0.00000954,0.00002487,0
 .00003874,0.00009885,-0.00008992,-0.00012401,-0.00010923,0.00000333,-0
 .00002733,0.00000399,0.00000528,0.00000227,-0.00001489,-0.00001221,0.0
 0002542,0.00000608,0.00000374,0.00003960,-0.00004526,0.00006624,0.0003
 0131,0.00049421,0.00048267,-0.00082018,0.00749729,0.00757124,-0.000842
 01,0.00013833,0.00131689,0.01519566,-0.20824959,-0.13276930,-0.0002498
 9,0.00063943,0.00008562,-0.00000918,-0.00007732,-0.00010796,0.00013331
 ,0.00010412,-0.00010741,0.00015427,0.00011906,0.00008120,-0.00025158,0
 .00020573,0.00016468,-0.00010757,0.00072131,0.00021746,0.00005250,-0.0
 0006727,0.00016586,-0.00032689,-0.01477054,-0.01492088,0.00213772,-0.0
 0568118,-0.00358972,-0.01535268,0.21871499,-0.00001706,0.00004053,0.00
 005936,0.00010829,-0.00009102,-0.00023675,-0.00007204,-0.00011538,0.00
 014327,0.00001342,0.00004690,0.00009092,-0.00007508,0.00007252,0.00000
 564,-0.00001224,0.00001903,-0.00000944,0.00001843,-0.00000671,0.000018
 83,0.00000306,-0.00000106,-0.00002083,0.00009235,0.00001356,0.00001381
 ,-0.00009064,0.00012641,-0.00015793,-0.00006734,-0.00002646,0.00002050
 ,-0.00001937,-0.00000509,0.00000272,-0.00000273,-0.00000443,-0.0000088
 8,0.00003452,0.00001546,0.00000257,0.00000294,-0.00009472,0.00002731,-
 0.00133469,-0.00035096,0.00066973,0.00048922,-0.02155766,-0.01639579,0
 .00313282,0.00313556,-0.00412033,0.01212462,-0.13016550,-0.15623823,-0
 .00031003,-0.00053447,-0.00064774,-0.00002830,0.00010172,-0.00003123,0
 .00061396,0.00037191,0.00040100,-0.00019740,0.00024140,0.00012245,0.00
 008729,-0.00001604,0.00019577,0.00036165,-0.00140653,-0.00106744,-0.00
 001318,0.00025668,0.00026583,-0.00040765,0.01220634,0.01126878,0.00159
 579,-0.00395112,-0.00399666,-0.01611526,0.14151246,0.16905234,0.000054
 16,0.00001304,-0.00009799,0.00003360,-0.00000082,0.00024392,0.00046418
 ,0.00041309,0.00002154,-0.00001616,0.00002632,-0.00013010,-0.00025886,
 -0.00029887,-0.00032885,-0.00000710,0.00001014,0.00000519,-0.00008985,
 -0.00003396,-0.00001840,0.00003938,-0.00005017,0.00017383,-0.00021697,
 -0.00008565,0.00004984,-0.00021768,-0.00030571,-0.00015690,-0.00013753
 ,-0.00008777,0.00003107,-0.00000326,0.00001750,0.00002431,0.00001900,0
 .00000781,0.00000047,-0.00004175,-0.00003675,-0.00002128,0.00018501,0.
 00026489,0.00070648,0.00135012,-0.00034826,-0.00073276,0.00638364,0.00
 118604,-0.00945261,0.00006062,-0.00020939,-0.00065299,-0.00160520,0.00
 208444,-0.00156841,-0.10385685,-0.00706159,0.13026562,0.00025013,-0.00
 001087,0.00018122,-0.00010571,-0.00007085,-0.00003380,-0.00032307,0.00
 016242,0.00013436,-0.00002488,0.00008575,-0.00018977,0.00026168,-0.000
 15845,0.00005315,-0.00014978,-0.00013538,0.00022503,0.00079847,0.00051
 693,-0.00056629,0.00015701,0.00031576,-0.00007169,-0.00019601,0.000036
 39,0.00008467,0.09719366,-0.00004286,-0.00000777,0.00005766,0.00008897
 ,-0.00005134,-0.00016680,-0.00014534,-0.00004775,0.00009625,0.00001278
 ,0.00004003,0.00006847,-0.00026101,-0.00018850,-0.00015822,-0.00000185
 ,0.00001653,-0.00001832,0.00002032,0.00001045,0.00000913,-0.00001483,0
 .00002442,-0.00004338,0.00002222,0.00002169,-0.00000515,-0.00009597,-0
 .00013387,0.00002041,0.00008726,0.00005441,-0.00004596,-0.00001582,0.0
 0000022,0.00000510,0.00000232,0.00000445,-0.00001148,0.00003057,0.0000
 1261,0.00000176,0.00011528,0.00003395,0.00040245,-0.00081806,0.0002787
 2,-0.00068459,-0.01197844,-0.00272840,0.01676225,-0.00168168,0.0013876
 3,0.00058801,0.00377081,-0.00527489,0.00180573,0.00688954,-0.01507092,
 0.00953495,-0.00010082,-0.00010195,-0.00004503,0.00014572,-0.00004349,
 -0.00012831,0.00010586,0.00039615,-0.00005480,-0.00006164,0.00057155,0
 .00005654,0.00058600,-0.00050160,-0.00044839,-0.00009725,-0.00022316,-
 0.00007475,-0.00071884,-0.00017447,0.00178276,0.00027904,0.00015901,-0
 .00030045,0.00012376,0.00021581,0.00016668,0.00375396,0.02132048,0.000
 00677,0.00001868,0.00001491,0.00008409,-0.00006125,-0.00006373,-0.0000
 4521,0.00007727,0.00009767,-0.00000496,0.00004511,0.00002969,-0.000218
 28,-0.00022840,-0.00007716,-0.00001199,0.00000912,-0.00000355,-0.00000
 730,-0.00000829,0.00000529,0.00001056,-0.00001314,0.00002353,-0.000031
 99,-0.00001010,0.00002891,0.00001489,-0.00007384,-0.00016643,-0.000025
 64,-0.00002850,0.00001448,-0.00001758,0.00000432,0.00001043,0.00000194
 ,-0.00000375,-0.00000594,0.00001379,-0.00000133,-0.00000253,0.00026157
 ,0.00024170,0.00030807,0.00104071,-0.00094065,0.00014680,0.00736964,0.
 00097549,-0.00994575,-0.00003030,-0.00108534,0.00060318,-0.00326690,0.
 00302230,-0.00114904,0.11316678,0.02666428,-0.17204640,0.00015575,-0.0
 0008680,0.00037819,0.00000737,0.00006309,-0.00016097,-0.00077011,0.000
 06074,0.00014401,-0.00012432,-0.00010296,0.00007486,0.00006615,0.00015
 323,0.00044163,-0.00007965,-0.00002799,-0.00005963,0.00073715,0.000630
 17,-0.00059711,0.00003405,-0.00005405,0.00015429,-0.00015812,-0.000066
 58,0.00057042,-0.11817885,-0.02917253,0.18123189\\-0.00000002,-0.00000
 086,-0.00000099,0.00000003,-0.00000011,0.00000017,-0.00000010,0.000000
 73,-0.00000060,-0.00000009,-0.00000006,0.00000039,0.00000017,-0.000000
 41,0.00000055,-0.00000005,-0.00000061,-0.00000157,0.,-0.00000148,-0.00
 000063,-0.00000022,-0.00000103,-0.00000128,0.,0.00000100,-0.00000102,-
 0.00000025,0.00000057,-0.00000068,0.00000001,0.00000134,0.00000010,-0.
 00000005,0.00000026,-0.00000011,0.00000003,0.00000059,0.00000094,0.000
 00012,-0.00000058,0.00000075,0.00000003,-0.00000113,-0.00000019,-0.000
 00013,0.00000046,-0.00000030,0.00000022,-0.00000003,0.00000012,-0.0000
 0006,-0.00000025,0.00000101,-0.00000015,0.00000104,0.00000049,-0.00000
 022,-0.00000047,-0.00000087,0.00000002,0.00000093,0.00000034,0.,0.0000
 0087,-0.00000083,0.,-0.00000017,-0.00000029,0.00000002,-0.00000020,0.0
 0000153,0.00000005,-0.00000129,0.00000083,0.00000006,-0.00000130,0.000
 00128,0.,0.00000142,0.00000101,0.00000064,0.00000056,0.00000088,0.,0.0
 0000134,-0.00000027,-0.00000006,-0.00000114,-0.00000080\\\@


 ALTHOUGH J.J. COULD DIAGNOSE THE FAULTS OF AN
 APPARATUS WITH UNCANNY ACCURACY, IT WAS JUST AS
 WELL NOT TO LET HIM HANDLE IT.
   -- GEORGE THOMPSON, ABOUT HIS FATHER
 Job cpu time:       0 days  0 hours 18 minutes 43.7 seconds.
 Elapsed time:       0 days  0 hours  4 minutes 43.0 seconds.
 File lengths (MBytes):  RWF=    142 Int=      0 D2E=      0 Chk=      4 Scr=      1
 Normal termination of Gaussian 16 at Tue Aug  9 16:48:31 2022.
real 2607.14
user 9665.24
sys 60.79
