 Entering Gaussian System, Link 0=g16
 Input=gaussian_test.inp
 Output=gaussian_test.log
 Initial command:
 /sw/restricted/lms/sw/Gaussian/g16_B01/g16/l1.exe "/scratch/user/peterchao1/peterchao1/9982561_1711744440000000538834391/Gau-111191.inp" -scrdir="/scratch/user/peterchao1/peterchao1/9982561_1711744440000000538834391/"
 Entering Link 1 = /sw/restricted/lms/sw/Gaussian/g16_B01/g16/l1.exe PID=    111192.
  
 Copyright (c) 1988-2017, Gaussian, Inc.  All Rights Reserved.
  
 This is part of the Gaussian(R) 16 program.  It is based on
 the Gaussian(R) 09 system (copyright 2009, Gaussian, Inc.),
 the Gaussian(R) 03 system (copyright 2003, Gaussian, Inc.),
 the Gaussian(R) 98 system (copyright 1998, Gaussian, Inc.),
 the Gaussian(R) 94 system (copyright 1995, Gaussian, Inc.),
 the Gaussian 92(TM) system (copyright 1992, Gaussian, Inc.),
 the Gaussian 90(TM) system (copyright 1990, Gaussian, Inc.),
 the Gaussian 88(TM) system (copyright 1988, Gaussian, Inc.),
 the Gaussian 86(TM) system (copyright 1986, Carnegie Mellon
 University), and the Gaussian 82(TM) system (copyright 1983,
 Carnegie Mellon University). Gaussian is a federally registered
 trademark of Gaussian, Inc.
  
 This software contains proprietary and confidential information,
 including trade secrets, belonging to Gaussian, Inc.
  
 This software is provided under written license and may be
 used, copied, transmitted, or stored only in accord with that
 written license.
  
 The following legend is applicable only to US Government
 contracts under FAR:
  
                    RESTRICTED RIGHTS LEGEND
  
 Use, reproduction and disclosure by the US Government is
 subject to restrictions as set forth in subparagraphs (a)
 and (c) of the Commercial Computer Software - Restricted
 Rights clause in FAR 52.227-19.
  
 Gaussian, Inc.
 340 Quinnipiac St., Bldg. 40, Wallingford CT 06492
  
  
 ---------------------------------------------------------------
 Warning -- This program may not be used in any manner that
 competes with the business of Gaussian, Inc. or will provide
 assistance to any competitor of Gaussian, Inc.  The licensee
 of this program is prohibited from giving any competitor of
 Gaussian, Inc. access to this program.  By using this program,
 the user acknowledges that Gaussian, Inc. is engaged in the
 business of creating and licensing software in the field of
 computational chemistry and represents and warrants to the
 licensee that it is not a competitor of Gaussian, Inc. and that
 it will not use this program in any manner prohibited above.
 ---------------------------------------------------------------
  

 Cite this work as:
 Gaussian 16, Revision B.01,
 M. J. Frisch, G. W. Trucks, H. B. Schlegel, G. E. Scuseria, 
 M. A. Robb, J. R. Cheeseman, G. Scalmani, V. Barone, 
 G. A. Petersson, H. Nakatsuji, X. Li, M. Caricato, A. V. Marenich, 
 J. Bloino, B. G. Janesko, R. Gomperts, B. Mennucci, H. P. Hratchian, 
 J. V. Ortiz, A. F. Izmaylov, J. L. Sonnenberg, D. Williams-Young, 
 F. Ding, F. Lipparini, F. Egidi, J. Goings, B. Peng, A. Petrone, 
 T. Henderson, D. Ranasinghe, V. G. Zakrzewski, J. Gao, N. Rega, 
 G. Zheng, W. Liang, M. Hada, M. Ehara, K. Toyota, R. Fukuda, 
 J. Hasegawa, M. Ishida, T. Nakajima, Y. Honda, O. Kitao, H. Nakai, 
 T. Vreven, K. Throssell, J. A. Montgomery, Jr., J. E. Peralta, 
 F. Ogliaro, M. J. Bearpark, J. J. Heyd, E. N. Brothers, K. N. Kudin, 
 V. N. Staroverov, T. A. Keith, R. Kobayashi, J. Normand, 
 K. Raghavachari, A. P. Rendell, J. C. Burant, S. S. Iyengar, 
 J. Tomasi, M. Cossi, J. M. Millam, M. Klene, C. Adamo, R. Cammi, 
 J. W. Ochterski, R. L. Martin, K. Morokuma, O. Farkas, 
 J. B. Foresman, and D. J. Fox, Gaussian, Inc., Wallingford CT, 2016.
 
 ******************************************
 Gaussian 16:  ES64L-G16RevB.01 20-Dec-2017
                29-Mar-2024 
 ******************************************
 %nprocshared=4
 Will use up to    4 processors via shared memory.
 %mem=8000mb
 %chk=monomer.chk
 %nprocshared=4
 Will use up to    4 processors via shared memory.
 %mem=8000mb
 ----------------------------------------------------------------------
 #T wB97XD/def2svpp opt=tight freq int(grid=ultrafine) scf=(verytight,q
 c) Volume=tight
 ----------------------------------------------------------------------
 -------
 Monomer
 -------
 Symbolic Z-matrix:
 Charge =  0 Multiplicity = 1
 C                    -1.57855  -0.98381  -0.48895 
 C                    -0.69832   0.2584   -0.39907 
 C                    -1.22346   1.22456   0.66682 
 C                     0.7227   -0.13687  -0.0086 
 N                     1.68138   0.68516  -0.50193 
 O                     0.99152  -1.07721   0.70189 
 H                    -2.61542  -0.70579  -0.6625 
 H                    -1.50993  -1.54507   0.43926 
 H                    -1.24687  -1.62731  -1.30046 
 H                    -0.67721   0.76756  -1.36858 
 H                    -2.24011   1.53004   0.42935 
 H                    -0.59945   2.114     0.72954 
 H                    -1.22559   0.73529   1.63788 
 H                     1.46835   1.47761  -1.0798 
 H                     2.64159   0.51455  -0.25265 
 

 GradGradGradGradGradGradGradGradGradGradGradGradGradGradGradGradGradGrad
 Initialization pass.
                           ----------------------------
                           !    Initial Parameters    !
                           ! (Angstroms and Degrees)  !
 --------------------------                            --------------------------
 ! Name  Definition              Value          Derivative Info.                !
 --------------------------------------------------------------------------------
 ! R1    R(1,2)                  1.5251         estimate D2E/DX2                !
 ! R2    R(1,7)                  1.0874         estimate D2E/DX2                !
 ! R3    R(1,8)                  1.0869         estimate D2E/DX2                !
 ! R4    R(1,9)                  1.0875         estimate D2E/DX2                !
 ! R5    R(2,3)                  1.5315         estimate D2E/DX2                !
 ! R6    R(2,4)                  1.5258         estimate D2E/DX2                !
 ! R7    R(2,10)                 1.0953         estimate D2E/DX2                !
 ! R8    R(3,11)                 1.0878         estimate D2E/DX2                !
 ! R9    R(3,12)                 1.0883         estimate D2E/DX2                !
 ! R10   R(3,13)                 1.0874         estimate D2E/DX2                !
 ! R11   R(4,5)                  1.3558         estimate D2E/DX2                !
 ! R12   R(4,6)                  1.2088         estimate D2E/DX2                !
 ! R13   R(5,14)                 1.0036         estimate D2E/DX2                !
 ! R14   R(5,15)                 1.0066         estimate D2E/DX2                !
 ! A1    A(2,1,7)              110.5782         estimate D2E/DX2                !
 ! A2    A(2,1,8)              109.5018         estimate D2E/DX2                !
 ! A3    A(2,1,9)              110.4819         estimate D2E/DX2                !
 ! A4    A(7,1,8)              109.1786         estimate D2E/DX2                !
 ! A5    A(7,1,9)              108.8448         estimate D2E/DX2                !
 ! A6    A(8,1,9)              108.208          estimate D2E/DX2                !
 ! A7    A(1,2,3)              110.9137         estimate D2E/DX2                !
 ! A8    A(1,2,4)              109.9748         estimate D2E/DX2                !
 ! A9    A(1,2,10)             109.7303         estimate D2E/DX2                !
 ! A10   A(3,2,4)              107.7386         estimate D2E/DX2                !
 ! A11   A(3,2,10)             109.233          estimate D2E/DX2                !
 ! A12   A(4,2,10)             109.2088         estimate D2E/DX2                !
 ! A13   A(2,3,11)             110.2244         estimate D2E/DX2                !
 ! A14   A(2,3,12)             111.0443         estimate D2E/DX2                !
 ! A15   A(2,3,13)             109.7771         estimate D2E/DX2                !
 ! A16   A(11,3,12)            108.5994         estimate D2E/DX2                !
 ! A17   A(11,3,13)            108.6321         estimate D2E/DX2                !
 ! A18   A(12,3,13)            108.5055         estimate D2E/DX2                !
 ! A19   A(2,4,5)              114.1019         estimate D2E/DX2                !
 ! A20   A(2,4,6)              123.9896         estimate D2E/DX2                !
 ! A21   A(5,4,6)              121.8877         estimate D2E/DX2                !
 ! A22   A(4,5,14)             122.5576         estimate D2E/DX2                !
 ! A23   A(4,5,15)             118.7923         estimate D2E/DX2                !
 ! A24   A(14,5,15)            118.6127         estimate D2E/DX2                !
 ! D1    D(7,1,2,3)             54.9168         estimate D2E/DX2                !
 ! D2    D(7,1,2,4)            173.9905         estimate D2E/DX2                !
 ! D3    D(7,1,2,10)           -65.8596         estimate D2E/DX2                !
 ! D4    D(8,1,2,3)            -65.4295         estimate D2E/DX2                !
 ! D5    D(8,1,2,4)             53.6443         estimate D2E/DX2                !
 ! D6    D(8,1,2,10)           173.7941         estimate D2E/DX2                !
 ! D7    D(9,1,2,3)            175.4834         estimate D2E/DX2                !
 ! D8    D(9,1,2,4)            -65.4429         estimate D2E/DX2                !
 ! D9    D(9,1,2,10)            54.707          estimate D2E/DX2                !
 ! D10   D(1,2,3,11)           -59.3426         estimate D2E/DX2                !
 ! D11   D(1,2,3,12)          -179.7366         estimate D2E/DX2                !
 ! D12   D(1,2,3,13)            60.2806         estimate D2E/DX2                !
 ! D13   D(4,2,3,11)          -179.7531         estimate D2E/DX2                !
 ! D14   D(4,2,3,12)            59.8529         estimate D2E/DX2                !
 ! D15   D(4,2,3,13)           -60.1299         estimate D2E/DX2                !
 ! D16   D(10,2,3,11)           61.7275         estimate D2E/DX2                !
 ! D17   D(10,2,3,12)          -58.6665         estimate D2E/DX2                !
 ! D18   D(10,2,3,13)         -178.6493         estimate D2E/DX2                !
 ! D19   D(1,2,4,5)            149.7384         estimate D2E/DX2                !
 ! D20   D(1,2,4,6)            -31.8987         estimate D2E/DX2                !
 ! D21   D(3,2,4,5)            -89.2618         estimate D2E/DX2                !
 ! D22   D(3,2,4,6)             89.1011         estimate D2E/DX2                !
 ! D23   D(10,2,4,5)            29.2731         estimate D2E/DX2                !
 ! D24   D(10,2,4,6)          -152.364          estimate D2E/DX2                !
 ! D25   D(2,4,5,14)            -0.5375         estimate D2E/DX2                !
 ! D26   D(2,4,5,15)           177.2053         estimate D2E/DX2                !
 ! D27   D(6,4,5,14)          -178.9388         estimate D2E/DX2                !
 ! D28   D(6,4,5,15)            -1.1961         estimate D2E/DX2                !
 --------------------------------------------------------------------------------
 Number of steps in this run=     76 maximum allowed number of steps=    100.
 GradGradGradGradGradGradGradGradGradGradGradGradGradGradGradGradGradGrad

                    Distance matrix (angstroms):
                    1          2          3          4          5
     1  C    0.000000
     2  C    1.525112   0.000000
     3  C    2.517700   1.531462   0.000000
     4  C    2.498757   1.525778   2.469256   0.000000
     5  N    3.662348   2.419854   3.177274   1.355798   0.000000
     6  O    2.834087   2.418986   3.194604   1.208836   2.242997
     7  H    1.087439   2.162023   2.725971   3.448814   4.519191
     8  H    1.086874   2.148022   2.793686   2.677356   4.005527
     9  H    1.087494   2.160857   3.464666   2.787385   3.815735
    10  H    2.157190   1.095286   2.156414   2.151120   2.514131
    11  H    2.756878   2.163436   1.087788   3.427623   4.118155
    12  H    3.469841   2.174120   1.088314   2.712810   2.959782
    13  H    2.757413   2.157458   1.087356   2.695813   3.609964
    14  H    3.961226   2.577664   3.218793   2.076059   1.003636
    15  H    4.484477   3.352921   4.035864   2.041095   1.006605
                    6          7          8          9         10
     6  O    0.000000
     7  H    3.874211   0.000000
     8  H    2.558341   1.772108   0.000000
     9  H    3.053255   1.768934   1.761417   0.000000
    10  H    3.236461   2.534954   3.051226   2.462633   0.000000
    11  H    4.161179   2.516332   3.160621   3.734648   2.501314
    12  H    3.565914   3.735392   3.781799   4.305514   2.494208
    13  H    3.012777   3.049608   2.591829   3.770437   3.056241
    14  H    3.151010   4.649584   4.507139   4.130574   2.278382
    15  H    2.483463   5.412343   4.685716   4.561319   3.510528
                   11         12         13         14         15
    11  H    0.000000
    12  H    1.767170   0.000000
    13  H    1.766754   1.765779   0.000000
    14  H    4.004123   2.820381   3.897976   0.000000
    15  H    5.032628   3.745302   4.310217   1.728625   0.000000
 Framework group  C1[X(C4H9NO)]
 Deg. of freedom    39
                         Standard orientation:                         
 ---------------------------------------------------------------------
 Center     Atomic      Atomic             Coordinates (Angstroms)
 Number     Number       Type             X           Y           Z
 ---------------------------------------------------------------------
      1          6           0       -1.554182   -0.972817   -0.445637
      2          6           0       -0.619591    0.231769   -0.407147
      3          6           0       -1.116264    1.277208    0.595723
      4          6           0        0.775751   -0.204859    0.029172
      5          7           0        1.778420    0.545255   -0.490612
      6          8           0        0.990438   -1.116123    0.793889
      7          1           0       -2.574499   -0.658514   -0.652254
      8          1           0       -1.525470   -1.485093    0.512509
      9          1           0       -1.239892   -1.673849   -1.215324
     10          1           0       -0.560433    0.685812   -1.402132
     11          1           0       -2.114144    1.614505    0.324158
     12          1           0       -0.453295    2.139898    0.621535
     13          1           0       -1.155584    0.842246    1.591516
     14          1           0        1.610676    1.313731   -1.113983
     15          1           0        2.725911    0.345663   -0.215519
 ---------------------------------------------------------------------
 Rotational constants (GHZ):           4.9433767           2.9200222           2.3564068
   102 basis functions,   186 primitive gaussians,   108 cartesian basis functions
    24 alpha electrons       24 beta electrons
       nuclear repulsion energy       249.2241518219 Hartrees.
 NAtoms=   15 NActive=   15 NUniq=   15 SFac= 1.00D+00 NAtFMM=   60 NAOKFM=F Big=F
 Nuclear repulsion after empirical dispersion term =      249.2166926601 Hartrees.
   1 Symmetry operations used in ECPInt.
 ECPInt:  NShTT=    1485 NPrTT=    5991 LenC2=    1482 LenP2D=    4957.
 LDataN:  DoStor=T MaxTD1= 4 Len=   56
 ExpMin= 1.22D-01 ExpMax= 2.27D+03 ExpMxC= 3.41D+02 IAcc=3 IRadAn=         5 AccDes= 0.00D+00
 Harris functional with IExCor= 4639 and IRadAn=       5 diagonalized for initial guess.
 HarFok:  IExCor= 4639 AccDes= 0.00D+00 IRadAn=         5 IDoV= 1 UseB2=F ITyADJ=14
 ICtDFT=  3500011 ScaDFX=  1.000000  1.000000  1.000000  1.000000
 FoFCou: FMM=F IPFlag=           0 FMFlag=      100000 FMFlg1=           0
         NFxFlg=           0 DoJE=T BraDBF=F KetDBF=T FulRan=T
         wScrn=  0.000000 ICntrl=       500 IOpCl=  0 I1Cent=   200000004 NGrid=           0
         NMat0=    1 NMatS0=      1 NMatT0=    0 NMatD0=    1 NMtDS0=    0 NMtDT0=    0
 Petite list used in FoFCou.
     Minimum is close to point  3 DX=  5.80D-02 DF= -3.54D-04 DXR=  8.81D-02 DFR=  7.80D-03 which will be used.
     Minimum is close to point  3 DX=  2.95D-02 DF= -4.92D-06 DXR=  3.18D-02 DFR=  1.01D-03 which will be used.
     Accept linear search using points  1 and  2.
     Accept linear search using points  1 and  2.
     Minimum is close to point  2 DX= -6.80D-04 DF= -1.00D-11 DXR=  6.80D-04 DFR=  4.63D-07 which will be used.
 SCF Done:  E(RwB97XD) =  -287.522666800     a.u. after    7 cycles
            Convg  =    0.1035D-08                    34 Fock formations.
              S**2 =  0.0000                  -V/T =  2.0089

 **********************************************************************

            Population analysis using the SCF Density.

 **********************************************************************

 Orbital symmetries:
       Occupied  (A) (A) (A) (A) (A) (A) (A) (A) (A) (A) (A) (A)
                 (A) (A) (A) (A) (A) (A) (A) (A) (A) (A) (A) (A)
       Virtual   (A) (A) (A) (A) (A) (A) (A) (A) (A) (A) (A) (A)
                 (A) (A) (A) (A) (A) (A) (A) (A) (A) (A) (A) (A)
                 (A) (A) (A) (A) (A) (A) (A) (A) (A) (A) (A) (A)
                 (A) (A) (A) (A) (A) (A) (A) (A) (A) (A) (A) (A)
                 (A) (A) (A) (A) (A) (A) (A) (A) (A) (A) (A) (A)
                 (A) (A) (A) (A) (A) (A) (A) (A) (A) (A) (A) (A)
                 (A) (A) (A) (A) (A) (A)
 The electronic state is 1-A.
 Alpha  occ. eigenvalues --  -19.21177 -14.45690 -10.39115 -10.30499 -10.28574
 Alpha  occ. eigenvalues --  -10.27393  -1.12450  -0.99524  -0.89493  -0.77917
 Alpha  occ. eigenvalues --   -0.73106  -0.65927  -0.61852  -0.58490  -0.53386
 Alpha  occ. eigenvalues --   -0.52098  -0.50051  -0.47661  -0.46261  -0.44507
 Alpha  occ. eigenvalues --   -0.42610  -0.42136  -0.35095  -0.32968
 Alpha virt. eigenvalues --    0.11136   0.12490   0.15971   0.18060   0.19583
 Alpha virt. eigenvalues --    0.20813   0.21751   0.22971   0.25158   0.25877
 Alpha virt. eigenvalues --    0.28319   0.29550   0.34063   0.38353   0.45664
 Alpha virt. eigenvalues --    0.48270   0.53344   0.53488   0.56412   0.57783
 Alpha virt. eigenvalues --    0.62030   0.67459   0.69707   0.72043   0.74871
 Alpha virt. eigenvalues --    0.75178   0.76857   0.77412   0.79145   0.80192
 Alpha virt. eigenvalues --    0.81196   0.81350   0.82607   0.82735   0.84254
 Alpha virt. eigenvalues --    0.87048   0.89330   0.89948   0.95284   1.01256
 Alpha virt. eigenvalues --    1.04859   1.11290   1.13041   1.24464   1.25819
 Alpha virt. eigenvalues --    1.36079   1.45453   1.47216   1.59562   1.64550
 Alpha virt. eigenvalues --    1.70661   1.82248   1.85594   1.88105   1.99258
 Alpha virt. eigenvalues --    2.00909   2.05313   2.11566   2.12110   2.15496
 Alpha virt. eigenvalues --    2.19852   2.24792   2.25337   2.31741   2.44430
 Alpha virt. eigenvalues --    2.47478   2.50860   2.58363   2.60462   2.69470
 Alpha virt. eigenvalues --    2.72040   2.82166   2.87363   2.96177   3.10514
 Alpha virt. eigenvalues --    3.28348   3.55178   3.73820
          Condensed to atoms (all electrons):
 Mulliken charges:
               1
     1  C   -0.269688
     2  C   -0.273050
     3  C   -0.275553
     4  C    0.161956
     5  N   -0.405813
     6  O   -0.261804
     7  H    0.110236
     8  H    0.135939
     9  H    0.118331
    10  H    0.090668
    11  H    0.124780
    12  H    0.109608
    13  H    0.130224
    14  H    0.249457
    15  H    0.254709
 Sum of Mulliken charges =   0.00000
 Mulliken charges with hydrogens summed into heavy atoms:
               1
     1  C    0.094818
     2  C   -0.182383
     3  C    0.089059
     4  C    0.161956
     5  N    0.098353
     6  O   -0.261804
 Electronic spatial extent (au):  <R**2>=            609.9146
 Charge=              0.0000 electrons
 Dipole moment (field-independent basis, Debye):
    X=              0.2292    Y=              2.9563    Z=             -2.1684  Tot=              3.6734
 Evaluate density.
 Using the total density.
 Monte-Carlo method of calculating molar volume:
 based on  0.001 e/bohr**3 density envelope.
 Number of points per bohr**3 =  100 CutOff= 1.00D-04
 Using the SCF density.
 There are      1679 points.  Will hold      1679 in memory.
 LenV=  1048376813 MDV=  1048576000.
 Box volume = 4738.929 fraction occupied=0.174
 Integrated density= 3.2499403634701999D+01 error=-1.5500596365298001D+01
 Molar volume =  824.162 bohr**3/mol ( 73.547 cm**3/mol)
 Recommended a0 for SCRF calculation =  3.89 angstrom (  7.35 bohr)
   1 Symmetry operations used in ECPInt.
 ECPInt:  NShTT=    1485 NPrTT=    5991 LenC2=    1482 LenP2D=    4957.
 LDataN:  DoStor=T MaxTD1= 5 Len=  102
 Calling FoFJK, ICntrl=      2127 FMM=F ISym2X=0 I1Cent= 0 IOpClX= 0 NMat=1 NMatS=1 NMatT=0.

 GradGradGradGradGradGradGradGradGradGradGradGradGradGradGradGradGradGrad
 FormGI is forming the generalized inverse of G from B-inverse, IUseBI=4.
 Internal  Forces:  Max     0.010809648 RMS     0.004080354
 Step number   1 out of a maximum of   76
 All quantities printed in internal units (Hartrees-Bohrs-Radians)
 Mixed Optimization -- RFO/linear search
 Second derivative matrix not updated -- first step.
 ITU=  0
     Eigenvalues ---    0.00350   0.00425   0.00434   0.01147   0.02276
     Eigenvalues ---    0.02282   0.04302   0.04672   0.05570   0.05650
     Eigenvalues ---    0.05693   0.05740   0.05782   0.16000   0.16000
     Eigenvalues ---    0.16000   0.16000   0.16000   0.16000   0.16000
     Eigenvalues ---    0.16000   0.16314   0.17365   0.24991   0.25000
     Eigenvalues ---    0.29289   0.29817   0.29879   0.34209   0.35008
     Eigenvalues ---    0.35070   0.35104   0.35110   0.35120   0.35176
     Eigenvalues ---    0.46546   0.47055   0.53806   1.00506
 Linear search not attempted -- first point.
 Iteration  1 RMS(Cart)=  0.02185280 RMS(Int)=  0.00020229
 Iteration  2 RMS(Cart)=  0.00025399 RMS(Int)=  0.00009256
 Iteration  3 RMS(Cart)=  0.00000005 RMS(Int)=  0.00009256
 Variable       Old X    -DE/DX   Delta X   Delta X   Delta X     New X
                                 (Linear)    (Quad)   (Total)
    R1        2.88204   0.00266   0.00000   0.00882   0.00882   2.89087
    R2        2.05496   0.01080   0.00000   0.03048   0.03048   2.08544
    R3        2.05389   0.01017   0.00000   0.02863   0.02863   2.08253
    R4        2.05507   0.01055   0.00000   0.02977   0.02977   2.08484
    R5        2.89404   0.00490   0.00000   0.01656   0.01656   2.91060
    R6        2.88330   0.00401   0.00000   0.01332   0.01332   2.89662
    R7        2.06979   0.00618   0.00000   0.01790   0.01790   2.08769
    R8        2.05562   0.01068   0.00000   0.03017   0.03017   2.08580
    R9        2.05662   0.01043   0.00000   0.02952   0.02952   2.08613
   R10        2.05481   0.01081   0.00000   0.03050   0.03050   2.08530
   R11        2.56209   0.01061   0.00000   0.01960   0.01960   2.58169
   R12        2.28437   0.00778   0.00000   0.00771   0.00771   2.29208
   R13        1.89660   0.00671   0.00000   0.01416   0.01416   1.91076
   R14        1.90221   0.00643   0.00000   0.01372   0.01372   1.91593
    A1        1.92995   0.00004   0.00000   0.00003   0.00002   1.92997
    A2        1.91117   0.00060   0.00000   0.00369   0.00367   1.91484
    A3        1.92827   0.00237   0.00000   0.01474   0.01471   1.94298
    A4        1.90553  -0.00039   0.00000  -0.00282  -0.00282   1.90271
    A5        1.89970  -0.00127   0.00000  -0.00777  -0.00778   1.89192
    A6        1.88859  -0.00143   0.00000  -0.00828  -0.00832   1.88027
    A7        1.93581   0.00104   0.00000   0.01436   0.01412   1.94993
    A8        1.91942  -0.00021   0.00000   0.00793   0.00758   1.92700
    A9        1.91515  -0.00044   0.00000  -0.01223  -0.01216   1.90300
   A10        1.88039   0.00101   0.00000   0.01611   0.01587   1.89626
   A11        1.90647  -0.00090   0.00000  -0.01314  -0.01301   1.89346
   A12        1.90605  -0.00050   0.00000  -0.01308  -0.01299   1.89307
   A13        1.92378   0.00099   0.00000   0.00598   0.00596   1.92974
   A14        1.93809   0.00184   0.00000   0.01158   0.01155   1.94963
   A15        1.91597   0.00055   0.00000   0.00309   0.00307   1.91904
   A16        1.89542  -0.00142   0.00000  -0.00816  -0.00820   1.88722
   A17        1.89599  -0.00085   0.00000  -0.00586  -0.00587   1.89012
   A18        1.89378  -0.00121   0.00000  -0.00730  -0.00732   1.88645
   A19        1.99145   0.00382   0.00000   0.01484   0.01471   2.00616
   A20        2.16403  -0.00563   0.00000  -0.02246  -0.02258   2.14144
   A21        2.12734   0.00180   0.00000   0.00685   0.00670   2.13404
   A22        2.13903   0.00006   0.00000   0.00034   0.00034   2.13937
   A23        2.07332  -0.00074   0.00000  -0.00456  -0.00457   2.06875
   A24        2.07018   0.00067   0.00000   0.00403   0.00403   2.07421
    D1        0.95848  -0.00074   0.00000  -0.00088  -0.00092   0.95756
    D2        3.03671   0.00103   0.00000   0.03320   0.03323   3.06993
    D3       -1.14947   0.00001   0.00000   0.01433   0.01433  -1.13513
    D4       -1.14196  -0.00067   0.00000   0.00023   0.00020  -1.14176
    D5        0.93627   0.00110   0.00000   0.03431   0.03435   0.97062
    D6        3.03328   0.00007   0.00000   0.01544   0.01546   3.04873
    D7        3.06276  -0.00074   0.00000  -0.00092  -0.00097   3.06180
    D8       -1.14219   0.00103   0.00000   0.03316   0.03318  -1.10902
    D9        0.95482   0.00000   0.00000   0.01429   0.01429   0.96910
   D10       -1.03572   0.00053   0.00000   0.01341   0.01350  -1.02222
   D11       -3.13700   0.00046   0.00000   0.01213   0.01220  -3.12479
   D12        1.05210   0.00044   0.00000   0.01184   0.01192   1.06401
   D13       -3.13728  -0.00046   0.00000  -0.01500  -0.01508   3.13082
   D14        1.04463  -0.00054   0.00000  -0.01629  -0.01638   1.02825
   D15       -1.04946  -0.00055   0.00000  -0.01657  -0.01666  -1.06613
   D16        1.07735   0.00006   0.00000  -0.00130  -0.00128   1.07606
   D17       -1.02392  -0.00002   0.00000  -0.00258  -0.00258  -1.02651
   D18       -3.11802  -0.00004   0.00000  -0.00287  -0.00287  -3.12089
   D19        2.61343  -0.00080   0.00000  -0.01265  -0.01280   2.60063
   D20       -0.55674  -0.00119   0.00000  -0.04265  -0.04257  -0.59931
   D21       -1.55791   0.00096   0.00000   0.01945   0.01939  -1.53852
   D22        1.55511   0.00057   0.00000  -0.01055  -0.01039   1.54472
   D23        0.51091   0.00018   0.00000   0.00570   0.00558   0.51649
   D24       -2.65925  -0.00021   0.00000  -0.02430  -0.02420  -2.68345
   D25       -0.00938  -0.00051   0.00000  -0.02438  -0.02455  -0.03393
   D26        3.09282  -0.00065   0.00000  -0.02998  -0.03015   3.06267
   D27       -3.12307   0.00001   0.00000   0.00546   0.00563  -3.11744
   D28       -0.02088  -0.00013   0.00000  -0.00014   0.00003  -0.02085
         Item               Value     Threshold  Converged?
 Maximum Force            0.010810     0.000015     NO 
 RMS     Force            0.004080     0.000010     NO 
 Maximum Displacement     0.056370     0.000060     NO 
 RMS     Displacement     0.021823     0.000040     NO 
 GradGradGradGradGradGradGradGradGradGradGradGradGradGradGradGradGradGrad

                    Distance matrix (angstroms):
                    1          2          3          4          5
     1  C    0.000000
     2  C    1.529781   0.000000
     3  C    2.540997   1.540223   0.000000
     4  C    2.514998   1.532825   2.496324   0.000000
     5  N    3.690201   2.445877   3.211736   1.366169   0.000000
     6  O    2.843792   2.414395   3.206095   1.212918   2.259889
     7  H    1.103569   2.178285   2.757188   3.479286   4.557403
     8  H    1.102027   2.166094   2.827927   2.718603   4.057803
     9  H    1.103248   2.187438   3.505763   2.807697   3.847864
    10  H    2.159407   1.104757   2.161459   2.154694   2.534014
    11  H    2.788673   2.187451   1.103756   3.467845   4.165355
    12  H    3.508584   2.201963   1.103935   2.751357   3.001058
    13  H    2.798186   2.179446   1.103494   2.742565   3.661053
    14  H    3.992373   2.613255   3.260624   2.091976   1.011132
    15  H    4.516900   3.380494   4.067421   2.053650   1.013865
                    6          7          8          9         10
     6  O    0.000000
     7  H    3.901018   0.000000
     8  H    2.585620   1.795802   0.000000
     9  H    3.069623   1.789857   1.781060   0.000000
    10  H    3.240304   2.537040   3.072493   2.486308   0.000000
    11  H    4.188026   2.547451   3.198815   3.784976   2.515561
    12  H    3.590808   3.779305   3.834580   4.361900   2.514240
    13  H    3.037059   3.100870   2.636730   3.827170   3.080021
    14  H    3.173222   4.687358   4.563815   4.165923   2.303119
    15  H    2.501753   5.456582   4.739059   4.599414   3.539490
                   11         12         13         14         15
    11  H    0.000000
    12  H    1.787526   0.000000
    13  H    1.789047   1.786819   0.000000
    14  H    4.055963   2.868467   3.956709   0.000000
    15  H    5.079266   3.780982   4.353629   1.743391   0.000000
 Framework group  C1[X(C4H9NO)]
 Deg. of freedom    39
                         Standard orientation:                         
 ---------------------------------------------------------------------
 Center     Atomic      Atomic             Coordinates (Angstroms)
 Number     Number       Type             X           Y           Z
 ---------------------------------------------------------------------
      1          6           0       -1.561673   -0.981759   -0.449586
      2          6           0       -0.622460    0.224712   -0.399241
      3          6           0       -1.124243    1.297062    0.585932
      4          6           0        0.784661   -0.210634    0.025068
      5          7           0        1.801432    0.536353   -0.498959
      6          8           0        0.982022   -1.109175    0.815538
      7          1           0       -2.591740   -0.661985   -0.683193
      8          1           0       -1.557784   -1.496764    0.524692
      9          1           0       -1.240607   -1.708474   -1.215065
     10          1           0       -0.560599    0.675402   -1.405989
     11          1           0       -2.133723    1.641926    0.302565
     12          1           0       -0.455328    2.174942    0.609377
     13          1           0       -1.174915    0.877664    1.605362
     14          1           0        1.640612    1.299551   -1.142430
     15          1           0        2.750171    0.340383   -0.199939
 ---------------------------------------------------------------------
 Rotational constants (GHZ):           4.8730331           2.8741052           2.3240544
   102 basis functions,   186 primitive gaussians,   108 cartesian basis functions
    24 alpha electrons       24 beta electrons
       nuclear repulsion energy       247.4075320741 Hartrees.
 NAtoms=   15 NActive=   15 NUniq=   15 SFac= 1.00D+00 NAtFMM=   60 NAOKFM=F Big=F
 Nuclear repulsion after empirical dispersion term =      247.4000864540 Hartrees.
   1 Symmetry operations used in ECPInt.
 ECPInt:  NShTT=    1485 NPrTT=    5991 LenC2=    1482 LenP2D=    4939.
 LDataN:  DoStor=T MaxTD1= 4 Len=   56
 Initial guess from the checkpoint file:  "monomer.chk"
 B after Tr=     0.000000    0.000000   -0.000000
         Rot=    0.999982    0.005381    0.002046    0.001426 Ang=   0.68 deg.
 ExpMin= 1.22D-01 ExpMax= 2.27D+03 ExpMxC= 3.41D+02 IAcc=3 IRadAn=         5 AccDes= 0.00D+00
 Harris functional with IExCor= 4639 and IRadAn=       5 diagonalized for initial guess.
 HarFok:  IExCor= 4639 AccDes= 0.00D+00 IRadAn=         5 IDoV= 1 UseB2=F ITyADJ=14
 ICtDFT=  3500011 ScaDFX=  1.000000  1.000000  1.000000  1.000000
 FoFCou: FMM=F IPFlag=           0 FMFlag=      100000 FMFlg1=           0
         NFxFlg=           0 DoJE=T BraDBF=F KetDBF=T FulRan=T
         wScrn=  0.000000 ICntrl=       500 IOpCl=  0 I1Cent=   200000004 NGrid=           0
         NMat0=    1 NMatS0=      1 NMatT0=    0 NMatD0=    1 NMtDS0=    0 NMtDT0=    0
 Petite list used in FoFCou.
     Accept linear search using points  3 and  4.
     Accept linear search using points  2 and  3.
     Accept linear search using points  1 and  2.
     Minimum is close to point  2 DX= -3.59D-04 DF= -9.32D-12 DXR=  3.59D-04 DFR=  1.29D-07 which will be used.
 SCF Done:  E(RwB97XD) =  -287.524173680     a.u. after    5 cycles
            Convg  =    0.2316D-08                    31 Fock formations.
              S**2 =  0.0000                  -V/T =  2.0098
   1 Symmetry operations used in ECPInt.
 ECPInt:  NShTT=    1485 NPrTT=    5991 LenC2=    1482 LenP2D=    4939.
 LDataN:  DoStor=T MaxTD1= 5 Len=  102
 Calling FoFJK, ICntrl=      2127 FMM=F ISym2X=0 I1Cent= 0 IOpClX= 0 NMat=1 NMatS=1 NMatT=0.

 GradGradGradGradGradGradGradGradGradGradGradGradGradGradGradGradGradGrad
 Using GEDIIS/GDIIS optimizer.
 FormGI is forming the generalized inverse of G from B-inverse, IUseBI=4.
 Internal  Forces:  Max     0.002469484 RMS     0.000522390
 Step number   2 out of a maximum of   76
 All quantities printed in internal units (Hartrees-Bohrs-Radians)
 Mixed Optimization -- En-DIIS/RFO-DIIS
 Trust test= 9.09D-01 RLast= 1.39D-01 DXMaxT set to 4.18D-01
 ITU=  1  0
 Use linear search instead of GDIIS.
     Eigenvalues ---    0.00350   0.00425   0.00432   0.01218   0.02270
     Eigenvalues ---    0.02284   0.04156   0.04722   0.05476   0.05580
     Eigenvalues ---    0.05643   0.05724   0.05803   0.15814   0.16000
     Eigenvalues ---    0.16000   0.16000   0.16000   0.16000   0.16000
     Eigenvalues ---    0.16110   0.16643   0.17628   0.24942   0.25036
     Eigenvalues ---    0.29391   0.29743   0.30060   0.33834   0.35020
     Eigenvalues ---    0.35062   0.35082   0.35111   0.35162   0.35606
     Eigenvalues ---    0.46607   0.47118   0.54595   1.00627
 Quartic linear search produced a step of -0.05714.
 Iteration  1 RMS(Cart)=  0.01962434 RMS(Int)=  0.00029537
 Iteration  2 RMS(Cart)=  0.00041290 RMS(Int)=  0.00016526
 Iteration  3 RMS(Cart)=  0.00000007 RMS(Int)=  0.00016526
 Variable       Old X    -DE/DX   Delta X   Delta X   Delta X     New X
                                 (Linear)    (Quad)   (Total)
    R1        2.89087  -0.00198  -0.00050  -0.00512  -0.00562   2.88524
    R2        2.08544  -0.00004  -0.00174   0.00373   0.00199   2.08743
    R3        2.08253   0.00006  -0.00164   0.00377   0.00214   2.08467
    R4        2.08484  -0.00021  -0.00170   0.00320   0.00149   2.08633
    R5        2.91060  -0.00247  -0.00095  -0.00586  -0.00681   2.90379
    R6        2.89662  -0.00101  -0.00076  -0.00151  -0.00227   2.89435
    R7        2.08769   0.00070  -0.00102   0.00418   0.00315   2.09084
    R8        2.08580  -0.00013  -0.00172   0.00346   0.00174   2.08753
    R9        2.08613  -0.00018  -0.00169   0.00325   0.00156   2.08769
   R10        2.08530   0.00011  -0.00174   0.00414   0.00240   2.08770
   R11        2.58169  -0.00134  -0.00112   0.00012  -0.00100   2.58069
   R12        2.29208  -0.00051  -0.00044   0.00050   0.00006   2.29214
   R13        1.91076  -0.00030  -0.00081   0.00119   0.00038   1.91114
   R14        1.91593  -0.00033  -0.00078   0.00107   0.00028   1.91621
    A1        1.92997  -0.00004  -0.00000  -0.00040  -0.00041   1.92957
    A2        1.91484   0.00054  -0.00021   0.00410   0.00389   1.91873
    A3        1.94298  -0.00015  -0.00084   0.00069  -0.00015   1.94283
    A4        1.90271  -0.00020   0.00016  -0.00098  -0.00082   1.90189
    A5        1.89192   0.00000   0.00044  -0.00179  -0.00134   1.89057
    A6        1.88027  -0.00017   0.00048  -0.00175  -0.00127   1.87899
    A7        1.94993   0.00001  -0.00081   0.00048  -0.00031   1.94962
    A8        1.92700  -0.00011  -0.00043  -0.00001  -0.00043   1.92658
    A9        1.90300   0.00005   0.00069  -0.00059   0.00010   1.90310
   A10        1.89626  -0.00003  -0.00091   0.00098   0.00009   1.89635
   A11        1.89346  -0.00014   0.00074  -0.00334  -0.00261   1.89086
   A12        1.89307   0.00023   0.00074   0.00249   0.00323   1.89630
   A13        1.92974  -0.00017  -0.00034  -0.00033  -0.00067   1.92907
   A14        1.94963  -0.00030  -0.00066  -0.00057  -0.00122   1.94841
   A15        1.91904   0.00044  -0.00018   0.00328   0.00311   1.92215
   A16        1.88722   0.00018   0.00047  -0.00059  -0.00012   1.88710
   A17        1.89012  -0.00008   0.00034  -0.00066  -0.00033   1.88979
   A18        1.88645  -0.00007   0.00042  -0.00123  -0.00081   1.88565
   A19        2.00616  -0.00003  -0.00084   0.00297   0.00136   2.00752
   A20        2.14144   0.00043   0.00129  -0.00013   0.00038   2.14183
   A21        2.13404  -0.00035  -0.00038   0.00087  -0.00029   2.13375
   A22        2.13937  -0.00024  -0.00002  -0.00130  -0.00132   2.13805
   A23        2.06875  -0.00033   0.00026  -0.00246  -0.00220   2.06655
   A24        2.07421   0.00057  -0.00023   0.00389   0.00366   2.07787
    D1        0.95756   0.00014   0.00005   0.01740   0.01746   0.97502
    D2        3.06993   0.00003  -0.00190   0.01897   0.01707   3.08700
    D3       -1.13513   0.00028  -0.00082   0.02165   0.02083  -1.11430
    D4       -1.14176   0.00006  -0.00001   0.01623   0.01622  -1.12553
    D5        0.97062  -0.00005  -0.00196   0.01780   0.01584   0.98645
    D6        3.04873   0.00020  -0.00088   0.02048   0.01960   3.06834
    D7        3.06180   0.00002   0.00006   0.01533   0.01538   3.07718
    D8       -1.10902  -0.00009  -0.00190   0.01689   0.01499  -1.09402
    D9        0.96910   0.00015  -0.00082   0.01958   0.01876   0.98786
   D10       -1.02222  -0.00011  -0.00077  -0.00244  -0.00322  -1.02544
   D11       -3.12479  -0.00002  -0.00070  -0.00110  -0.00180  -3.12659
   D12        1.06401  -0.00004  -0.00068  -0.00139  -0.00207   1.06194
   D13        3.13082   0.00005   0.00086  -0.00341  -0.00255   3.12828
   D14        1.02825   0.00014   0.00094  -0.00207  -0.00113   1.02713
   D15       -1.06613   0.00012   0.00095  -0.00235  -0.00140  -1.06752
   D16        1.07606  -0.00013   0.00007  -0.00507  -0.00499   1.07107
   D17       -1.02651  -0.00004   0.00015  -0.00372  -0.00357  -1.03008
   D18       -3.12089  -0.00006   0.00016  -0.00401  -0.00384  -3.12473
   D19        2.60063  -0.00042   0.00073  -0.04360  -0.04286   2.55777
   D20       -0.59931   0.00050   0.00243   0.02679   0.02923  -0.57009
   D21       -1.53852  -0.00050  -0.00111  -0.04235  -0.04346  -1.58199
   D22        1.54472   0.00042   0.00059   0.02804   0.02863   1.57335
   D23        0.51649  -0.00056  -0.00032  -0.04441  -0.04472   0.47177
   D24       -2.68345   0.00036   0.00138   0.02598   0.02736  -2.65609
   D25       -0.03393   0.00028   0.00140   0.02619   0.02759  -0.00634
   D26        3.06267   0.00039   0.00172   0.03003   0.03175   3.09442
   D27       -3.11744  -0.00066  -0.00032  -0.04383  -0.04415   3.12159
   D28       -0.02085  -0.00055  -0.00000  -0.03999  -0.03999  -0.06084
         Item               Value     Threshold  Converged?
 Maximum Force            0.002469     0.000015     NO 
 RMS     Force            0.000522     0.000010     NO 
 Maximum Displacement     0.057725     0.000060     NO 
 RMS     Displacement     0.019595     0.000040     NO 
 GradGradGradGradGradGradGradGradGradGradGradGradGradGradGradGradGradGrad

                    Distance matrix (angstroms):
                    1          2          3          4          5
     1  C    0.000000
     2  C    1.526805   0.000000
     3  C    2.535285   1.536621   0.000000
     4  C    2.511197   1.531623   2.492499   0.000000
     5  N    3.675633   2.445458   3.233425   1.365640   0.000000
     6  O    2.832633   2.413581   3.216214   1.212950   2.259267
     7  H    1.104620   2.176163   2.759678   3.477060   4.544610
     8  H    1.103158   2.167175   2.818746   2.725846   4.060274
     9  H    1.104039   2.185301   3.501270   2.797040   3.814139
    10  H    2.158118   1.106426   2.157592   2.157283   2.527032
    11  H    2.784493   2.184483   1.104674   3.464841   4.182095
    12  H    3.503307   2.198527   1.104760   2.746305   3.032184
    13  H    2.795070   2.179505   1.104765   2.742655   3.690620
    14  H    3.975596   2.612254   3.287617   2.090926   1.011332
    15  H    4.498883   3.379937   4.095403   2.051992   1.014014
                    6          7          8          9         10
     6  O    0.000000
     7  H    3.896839   0.000000
     8  H    2.591437   1.797053   0.000000
     9  H    3.036777   1.790482   1.781785   0.000000
    10  H    3.238780   2.527512   3.075385   2.491440   0.000000
    11  H    4.196721   2.550178   3.187567   3.785297   2.508859
    12  H    3.602946   3.780653   3.827766   4.357331   2.510133
    13  H    3.056095   3.109569   2.627640   3.822094   3.080165
    14  H    3.172428   4.670066   4.563417   4.131601   2.290564
    15  H    2.499607   5.441955   4.740633   4.554999   3.531688
                   11         12         13         14         15
    11  H    0.000000
    12  H    1.788861   0.000000
    13  H    1.790608   1.787992   0.000000
    14  H    4.076998   2.910299   3.990312   0.000000
    15  H    5.102509   3.821543   4.392319   1.745575   0.000000
 Framework group  C1[X(C4H9NO)]
 Deg. of freedom    39
                         Standard orientation:                         
 ---------------------------------------------------------------------
 Center     Atomic      Atomic             Coordinates (Angstroms)
 Number     Number       Type             X           Y           Z
 ---------------------------------------------------------------------
      1          6           0       -1.534821   -0.998554   -0.460019
      2          6           0       -0.622027    0.223635   -0.395252
      3          6           0       -1.157387    1.281602    0.582144
      4          6           0        0.785953   -0.184940    0.048065
      5          7           0        1.799602    0.547492   -0.500601
      6          8           0        0.991376   -1.099889    0.817426
      7          1           0       -2.564704   -0.699859   -0.725179
      8          1           0       -1.549980   -1.508930    0.517858
      9          1           0       -1.179825   -1.725212   -1.211582
     10          1           0       -0.557793    0.679865   -1.401187
     11          1           0       -2.168972    1.609094    0.282561
     12          1           0       -0.504138    2.171864    0.616691
     13          1           0       -1.217157    0.861332    1.602098
     14          1           0        1.633470    1.300072   -1.155441
     15          1           0        2.750574    0.347979   -0.210649
 ---------------------------------------------------------------------
 Rotational constants (GHZ):           4.8814863           2.8700944           2.3267853
   102 basis functions,   186 primitive gaussians,   108 cartesian basis functions
    24 alpha electrons       24 beta electrons
       nuclear repulsion energy       247.4955096562 Hartrees.
 NAtoms=   15 NActive=   15 NUniq=   15 SFac= 1.00D+00 NAtFMM=   60 NAOKFM=F Big=F
 Nuclear repulsion after empirical dispersion term =      247.4880774061 Hartrees.
   1 Symmetry operations used in ECPInt.
 ECPInt:  NShTT=    1485 NPrTT=    5991 LenC2=    1482 LenP2D=    4940.
 LDataN:  DoStor=T MaxTD1= 4 Len=   56
 Initial guess from the checkpoint file:  "monomer.chk"
 B after Tr=    -0.000000   -0.000000   -0.000000
         Rot=    0.999974    0.000250    0.002974   -0.006509 Ang=   0.82 deg.
 ExpMin= 1.22D-01 ExpMax= 2.27D+03 ExpMxC= 3.41D+02 IAcc=3 IRadAn=         5 AccDes= 0.00D+00
 Harris functional with IExCor= 4639 and IRadAn=       5 diagonalized for initial guess.
 HarFok:  IExCor= 4639 AccDes= 0.00D+00 IRadAn=         5 IDoV= 1 UseB2=F ITyADJ=14
 ICtDFT=  3500011 ScaDFX=  1.000000  1.000000  1.000000  1.000000
 FoFCou: FMM=F IPFlag=           0 FMFlag=      100000 FMFlg1=           0
         NFxFlg=           0 DoJE=T BraDBF=F KetDBF=T FulRan=T
         wScrn=  0.000000 ICntrl=       500 IOpCl=  0 I1Cent=   200000004 NGrid=           0
         NMat0=    1 NMatS0=      1 NMatT0=    0 NMatD0=    1 NMtDS0=    0 NMtDT0=    0
 Petite list used in FoFCou.
     Minimum is close to point  4 DX=  6.37D-03 DF= -1.93D-08 DXR=  5.28D-03 DFR=  2.79D-05 which will be used.
     Accept linear search using points  1 and  2.
     Minimum is close to point  2 DX= -6.31D-02 DF= -3.29D-07 DXR=  6.73D-02 DFR=  4.55D-03 which will be used.
     Accept linear search using points  1 and  2.
     Accept linear search using points  1 and  2.
     Minimum is close to point  2 DX= -8.59D-05 DF= -4.55D-13 DXR=  8.59D-05 DFR=  7.62D-09 which will be used.
 SCF Done:  E(RwB97XD) =  -287.524096595     a.u. after    7 cycles
            Convg  =    0.8509D-09                    33 Fock formations.
              S**2 =  0.0000                  -V/T =  2.0098
   1 Symmetry operations used in ECPInt.
 ECPInt:  NShTT=    1485 NPrTT=    5991 LenC2=    1482 LenP2D=    4940.
 LDataN:  DoStor=T MaxTD1= 5 Len=  102
 Calling FoFJK, ICntrl=      2127 FMM=F ISym2X=0 I1Cent= 0 IOpClX= 0 NMat=1 NMatS=1 NMatT=0.

 GradGradGradGradGradGradGradGradGradGradGradGradGradGradGradGradGradGrad
 Using GEDIIS/GDIIS optimizer.
 FormGI is forming the generalized inverse of G from B-inverse, IUseBI=4.
 Internal  Forces:  Max     0.001365277 RMS     0.000513811
 Step number   3 out of a maximum of   76
 All quantities printed in internal units (Hartrees-Bohrs-Radians)
 Mixed Optimization -- En-DIIS/RFO-DIIS
 Swapping is turned off.
 Trust test=-6.58D-01 RLast= 1.28D-01 DXMaxT set to 2.09D-01
 ITU= -1  1  0
     Eigenvalues ---    0.00349   0.00392   0.00427   0.02234   0.02273
     Eigenvalues ---    0.03903   0.04279   0.04812   0.05482   0.05571
     Eigenvalues ---    0.05626   0.05699   0.05802   0.14691   0.16000
     Eigenvalues ---    0.16000   0.16000   0.16000   0.16000   0.16026
     Eigenvalues ---    0.16105   0.16668   0.17664   0.24380   0.25096
     Eigenvalues ---    0.26968   0.29599   0.29884   0.33740   0.35019
     Eigenvalues ---    0.35050   0.35081   0.35112   0.35166   0.35740
     Eigenvalues ---    0.46612   0.47152   0.54818   1.00580
 En-DIIS/RFO-DIIS/Sim-DIIS IScMMF=       -3 using points:     3    2
 RFO step:  Lambda=-2.84880679D-04.
 DidBck=T Rises=T En-DIIS coefs:    0.43733    0.56267
 Iteration  1 RMS(Cart)=  0.00929099 RMS(Int)=  0.00009971
 Iteration  2 RMS(Cart)=  0.00016002 RMS(Int)=  0.00001421
 Iteration  3 RMS(Cart)=  0.00000001 RMS(Int)=  0.00001421
 Variable       Old X    -DE/DX   Delta X   Delta X   Delta X     New X
                                 (Linear)    (Quad)   (Total)
    R1        2.88524  -0.00046   0.00316  -0.00477  -0.00161   2.88363
    R2        2.08743  -0.00065  -0.00112   0.00023  -0.00089   2.08654
    R3        2.08467  -0.00072  -0.00120   0.00030  -0.00090   2.08377
    R4        2.08633  -0.00068  -0.00084  -0.00015  -0.00099   2.08534
    R5        2.90379  -0.00015   0.00383  -0.00542  -0.00159   2.90220
    R6        2.89435  -0.00022   0.00128  -0.00215  -0.00088   2.89347
    R7        2.09084  -0.00043  -0.00177   0.00151  -0.00026   2.09058
    R8        2.08753  -0.00064  -0.00098   0.00005  -0.00092   2.08661
    R9        2.08769  -0.00060  -0.00088  -0.00002  -0.00090   2.08679
   R10        2.08770  -0.00066  -0.00135   0.00051  -0.00084   2.08687
   R11        2.58069  -0.00079   0.00056  -0.00161  -0.00105   2.57964
   R12        2.29214  -0.00040  -0.00003  -0.00024  -0.00028   2.29187
   R13        1.91114  -0.00055  -0.00021  -0.00040  -0.00061   1.91053
   R14        1.91621  -0.00045  -0.00016  -0.00039  -0.00055   1.91566
    A1        1.92957  -0.00007   0.00023  -0.00047  -0.00025   1.92932
    A2        1.91873   0.00024  -0.00219   0.00329   0.00111   1.91984
    A3        1.94283  -0.00002   0.00009  -0.00042  -0.00033   1.94250
    A4        1.90189  -0.00009   0.00046  -0.00073  -0.00026   1.90163
    A5        1.89057   0.00003   0.00076  -0.00081  -0.00005   1.89052
    A6        1.87899  -0.00010   0.00072  -0.00094  -0.00023   1.87877
    A7        1.94962  -0.00010   0.00018  -0.00038  -0.00021   1.94942
    A8        1.92658  -0.00035   0.00024  -0.00096  -0.00072   1.92586
    A9        1.90310   0.00016  -0.00006   0.00019   0.00013   1.90323
   A10        1.89635   0.00054  -0.00005   0.00120   0.00115   1.89750
   A11        1.89086  -0.00014   0.00147  -0.00198  -0.00051   1.89035
   A12        1.89630  -0.00011  -0.00182   0.00198   0.00016   1.89646
   A13        1.92907   0.00028   0.00038   0.00003   0.00040   1.92947
   A14        1.94841  -0.00009   0.00069  -0.00131  -0.00063   1.94778
   A15        1.92215   0.00016  -0.00175   0.00253   0.00078   1.92294
   A16        1.88710  -0.00010   0.00007  -0.00015  -0.00009   1.88701
   A17        1.88979  -0.00020   0.00019  -0.00051  -0.00032   1.88947
   A18        1.88565  -0.00006   0.00045  -0.00063  -0.00017   1.88547
   A19        2.00752  -0.00005  -0.00076   0.00030  -0.00040   2.00712
   A20        2.14183   0.00040  -0.00022   0.00099   0.00083   2.14266
   A21        2.13375  -0.00032   0.00016  -0.00117  -0.00095   2.13280
   A22        2.13805  -0.00005   0.00074  -0.00111  -0.00037   2.13768
   A23        2.06655  -0.00009   0.00124  -0.00175  -0.00051   2.06604
   A24        2.07787   0.00013  -0.00206   0.00282   0.00076   2.07863
    D1        0.97502  -0.00011  -0.00982   0.01640   0.00657   0.98159
    D2        3.08700   0.00027  -0.00960   0.01701   0.00740   3.09440
    D3       -1.11430   0.00002  -0.01172   0.01897   0.00725  -1.10705
    D4       -1.12553  -0.00011  -0.00913   0.01547   0.00634  -1.11919
    D5        0.98645   0.00026  -0.00891   0.01608   0.00717   0.99362
    D6        3.06834   0.00002  -0.01103   0.01804   0.00702   3.07535
    D7        3.07718  -0.00013  -0.00866   0.01477   0.00612   3.08330
    D8       -1.09402   0.00025  -0.00844   0.01538   0.00695  -1.08708
    D9        0.98786   0.00000  -0.01056   0.01735   0.00679   0.99465
   D10       -1.02544  -0.00007   0.00181  -0.00248  -0.00067  -1.02612
   D11       -3.12659  -0.00007   0.00101  -0.00143  -0.00042  -3.12701
   D12        1.06194  -0.00004   0.00117  -0.00148  -0.00031   1.06163
   D13        3.12828   0.00007   0.00143  -0.00185  -0.00042   3.12786
   D14        1.02713   0.00007   0.00063  -0.00080  -0.00016   1.02696
   D15       -1.06752   0.00009   0.00079  -0.00085  -0.00006  -1.06758
   D16        1.07107  -0.00002   0.00281  -0.00377  -0.00096   1.07010
   D17       -1.03008  -0.00002   0.00201  -0.00272  -0.00071  -1.03079
   D18       -3.12473   0.00000   0.00216  -0.00277  -0.00061  -3.12534
   D19        2.55777   0.00101   0.02412  -0.00328   0.02085   2.57862
   D20       -0.57009  -0.00115  -0.01645  -0.01312  -0.02959  -0.59967
   D21       -1.58199   0.00102   0.02445  -0.00358   0.02089  -1.56110
   D22        1.57335  -0.00113  -0.01611  -0.01342  -0.02954   1.54380
   D23        0.47177   0.00109   0.02516  -0.00416   0.02102   0.49278
   D24       -2.65609  -0.00107  -0.01540  -0.01400  -0.02942  -2.68550
   D25       -0.00634  -0.00079  -0.01552  -0.00651  -0.02201  -0.02834
   D26        3.09442  -0.00107  -0.01786  -0.00770  -0.02555   3.06887
   D27        3.12159   0.00137   0.02484   0.00330   0.02812  -3.13347
   D28       -0.06084   0.00108   0.02250   0.00210   0.02459  -0.03626
         Item               Value     Threshold  Converged?
 Maximum Force            0.001365     0.000015     NO 
 RMS     Force            0.000514     0.000010     NO 
 Maximum Displacement     0.029734     0.000060     NO 
 RMS     Displacement     0.009322     0.000040     NO 
 GradGradGradGradGradGradGradGradGradGradGradGradGradGradGradGradGradGrad

                    Distance matrix (angstroms):
                    1          2          3          4          5
     1  C    0.000000
     2  C    1.525954   0.000000
     3  C    2.533706   1.535779   0.000000
     4  C    2.509489   1.531160   2.492468   0.000000
     5  N    3.678809   2.444290   3.221221   1.365085   0.000000
     6  O    2.840015   2.413574   3.203157   1.212803   2.258057
     7  H    1.104148   2.174880   2.760672   3.475203   4.545227
     8  H    1.102682   2.166877   2.814969   2.728073   4.063989
     9  H    1.103514   2.183912   3.499292   2.791449   3.821513
    10  H    2.157369   1.106289   2.156375   2.156897   2.530958
    11  H    2.783439   2.183666   1.104186   3.464323   4.171651
    12  H    3.501083   2.196970   1.104283   2.745751   3.014258
    13  H    2.793916   2.179005   1.104322   2.743424   3.676864
    14  H    3.977927   2.610648   3.275362   2.089943   1.011009
    15  H    4.504025   3.377855   4.076374   2.050951   1.013722
                    6          7          8          9         10
     6  O    0.000000
     7  H    3.902557   0.000000
     8  H    2.600150   1.796113   0.000000
     9  H    3.047914   1.789639   1.780829   0.000000
    10  H    3.243003   2.523552   3.075019   2.492607   0.000000
    11  H    4.186287   2.552013   3.182547   3.785318   2.507310
    12  H    3.585886   3.780359   3.824170   4.354613   2.508326
    13  H    3.038584   3.112491   2.624087   3.819191   3.079158
    14  H    3.171033   4.669403   4.565545   4.139087   2.294346
    15  H    2.496997   5.444083   4.745346   4.567977   3.536681
                   11         12         13         14         15
    11  H    0.000000
    12  H    1.788024   0.000000
    13  H    1.789645   1.787135   0.000000
    14  H    4.066008   2.891705   3.977120   0.000000
    15  H    5.085828   3.794129   4.369384   1.745433   0.000000
 Framework group  C1[X(C4H9NO)]
 Deg. of freedom    39
                         Standard orientation:                         
 ---------------------------------------------------------------------
 Center     Atomic      Atomic             Coordinates (Angstroms)
 Number     Number       Type             X           Y           Z
 ---------------------------------------------------------------------
      1          6           0       -1.547318   -0.987506   -0.456592
      2          6           0       -0.622337    0.224673   -0.396880
      3          6           0       -1.139133    1.285219    0.586371
      4          6           0        0.784535   -0.199956    0.033062
      5          7           0        1.799286    0.539503   -0.502605
      6          8           0        0.986572   -1.099415    0.821126
      7          1           0       -2.574302   -0.678628   -0.719350
      8          1           0       -1.565539   -1.496509    0.521413
      9          1           0       -1.202085   -1.718485   -1.207744
     10          1           0       -0.562105    0.682711   -1.402090
     11          1           0       -2.149070    1.623928    0.295630
     12          1           0       -0.476514    2.168065    0.617340
     13          1           0       -1.195499    0.864238    1.605745
     14          1           0        1.635237    1.294622   -1.154542
     15          1           0        2.747824    0.344281   -0.202946
 ---------------------------------------------------------------------
 Rotational constants (GHZ):           4.8878283           2.8716377           2.3325034
   102 basis functions,   186 primitive gaussians,   108 cartesian basis functions
    24 alpha electrons       24 beta electrons
       nuclear repulsion energy       247.6199107814 Hartrees.
 NAtoms=   15 NActive=   15 NUniq=   15 SFac= 1.00D+00 NAtFMM=   60 NAOKFM=F Big=F
 Nuclear repulsion after empirical dispersion term =      247.6124665530 Hartrees.
   1 Symmetry operations used in ECPInt.
 ECPInt:  NShTT=    1485 NPrTT=    5991 LenC2=    1482 LenP2D=    4940.
 LDataN:  DoStor=T MaxTD1= 4 Len=   56
 Initial guess from the checkpoint file:  "monomer.chk"
 B after Tr=    -0.000000    0.000000    0.000000
         Rot=    0.999993   -0.000000   -0.001473    0.003342 Ang=  -0.42 deg.
 ExpMin= 1.22D-01 ExpMax= 2.27D+03 ExpMxC= 3.41D+02 IAcc=3 IRadAn=         5 AccDes= 0.00D+00
 Harris functional with IExCor= 4639 and IRadAn=       5 diagonalized for initial guess.
 HarFok:  IExCor= 4639 AccDes= 0.00D+00 IRadAn=         5 IDoV= 1 UseB2=F ITyADJ=14
 ICtDFT=  3500011 ScaDFX=  1.000000  1.000000  1.000000  1.000000
 FoFCou: FMM=F IPFlag=           0 FMFlag=      100000 FMFlg1=           0
         NFxFlg=           0 DoJE=T BraDBF=F KetDBF=T FulRan=T
         wScrn=  0.000000 ICntrl=       500 IOpCl=  0 I1Cent=   200000004 NGrid=           0
         NMat0=    1 NMatS0=      1 NMatT0=    0 NMatD0=    1 NMtDS0=    0 NMtDT0=    0
 Petite list used in FoFCou.
     Accept linear search using points  3 and  4.
     Accept linear search using points  2 and  3.
     Accept linear search using points  1 and  2.
     Minimum is close to point  2 DX= -1.54D-04 DF= -1.93D-12 DXR=  1.54D-04 DFR=  2.34D-08 which will be used.
 SCF Done:  E(RwB97XD) =  -287.524241505     a.u. after    5 cycles
            Convg  =    0.3901D-08                    30 Fock formations.
              S**2 =  0.0000                  -V/T =  2.0097
   1 Symmetry operations used in ECPInt.
 ECPInt:  NShTT=    1485 NPrTT=    5991 LenC2=    1482 LenP2D=    4940.
 LDataN:  DoStor=T MaxTD1= 5 Len=  102
 Calling FoFJK, ICntrl=      2127 FMM=F ISym2X=0 I1Cent= 0 IOpClX= 0 NMat=1 NMatS=1 NMatT=0.

 GradGradGradGradGradGradGradGradGradGradGradGradGradGradGradGradGradGrad
 Using GEDIIS/GDIIS optimizer.
 FormGI is forming the generalized inverse of G from B-inverse, IUseBI=4.
 Internal  Forces:  Max     0.000403971 RMS     0.000128988
 Step number   4 out of a maximum of   76
 All quantities printed in internal units (Hartrees-Bohrs-Radians)
 Mixed Optimization -- En-DIIS/RFO-DIIS
 Swapping is turned off.
 Trust test= 1.01D+00 RLast= 8.31D-02 DXMaxT set to 2.49D-01
 ITU=  1 -1  1  0
     Eigenvalues ---    0.00351   0.00355   0.00428   0.02246   0.02280
     Eigenvalues ---    0.03981   0.04318   0.04798   0.05485   0.05590
     Eigenvalues ---    0.05623   0.05694   0.05797   0.14980   0.16000
     Eigenvalues ---    0.16000   0.16000   0.16000   0.16002   0.16035
     Eigenvalues ---    0.16187   0.16838   0.17733   0.24810   0.25172
     Eigenvalues ---    0.29467   0.29809   0.30646   0.34041   0.35028
     Eigenvalues ---    0.35080   0.35098   0.35122   0.35175   0.35693
     Eigenvalues ---    0.46610   0.47135   0.54514   1.00707
 En-DIIS/RFO-DIIS/Sim-DIIS IScMMF=       -3 using points:     4    3    2
 RFO step:  Lambda=-6.30925948D-06.
 DidBck=F Rises=F RFO-DIIS coefs:    1.45749   -0.14782   -0.30967
 Iteration  1 RMS(Cart)=  0.00560779 RMS(Int)=  0.00002322
 Iteration  2 RMS(Cart)=  0.00001927 RMS(Int)=  0.00001672
 Iteration  3 RMS(Cart)=  0.00000000 RMS(Int)=  0.00001672
 Variable       Old X    -DE/DX   Delta X   Delta X   Delta X     New X
                                 (Linear)    (Quad)   (Total)
    R1        2.88363   0.00022  -0.00248   0.00318   0.00070   2.88433
    R2        2.08654  -0.00033   0.00021  -0.00118  -0.00098   2.08556
    R3        2.08377  -0.00038   0.00025  -0.00141  -0.00116   2.08260
    R4        2.08534  -0.00032   0.00001  -0.00096  -0.00095   2.08439
    R5        2.90220   0.00006  -0.00284   0.00286   0.00002   2.90223
    R6        2.89347  -0.00013  -0.00110   0.00052  -0.00058   2.89289
    R7        2.09058  -0.00025   0.00086  -0.00158  -0.00072   2.08986
    R8        2.08661  -0.00034   0.00012  -0.00115  -0.00104   2.08557
    R9        2.08679  -0.00031   0.00007  -0.00099  -0.00092   2.08587
   R10        2.08687  -0.00040   0.00036  -0.00158  -0.00122   2.08564
   R11        2.57964  -0.00016  -0.00079   0.00043  -0.00036   2.57928
   R12        2.29187  -0.00005  -0.00011   0.00008  -0.00003   2.29184
   R13        1.91053  -0.00024  -0.00016  -0.00041  -0.00058   1.90995
   R14        1.91566  -0.00020  -0.00017  -0.00031  -0.00047   1.91518
    A1        1.92932   0.00009  -0.00024   0.00089   0.00065   1.92998
    A2        1.91984   0.00004   0.00171  -0.00129   0.00042   1.92025
    A3        1.94250   0.00009  -0.00020   0.00104   0.00084   1.94334
    A4        1.90163  -0.00009  -0.00037  -0.00059  -0.00096   1.90066
    A5        1.89052  -0.00007  -0.00044   0.00001  -0.00044   1.89008
    A6        1.87877  -0.00006  -0.00050  -0.00010  -0.00060   1.87817
    A7        1.94942   0.00008  -0.00019   0.00104   0.00085   1.95026
    A8        1.92586   0.00003  -0.00046   0.00090   0.00043   1.92629
    A9        1.90323  -0.00007   0.00009  -0.00109  -0.00100   1.90223
   A10        1.89750  -0.00007   0.00055  -0.00059  -0.00003   1.89747
   A11        1.89035   0.00001  -0.00104   0.00082  -0.00022   1.89013
   A12        1.89646   0.00002   0.00107  -0.00113  -0.00005   1.89640
   A13        1.92947   0.00004  -0.00002   0.00035   0.00032   1.92979
   A14        1.94778   0.00006  -0.00067   0.00119   0.00052   1.94830
   A15        1.92294   0.00005   0.00132  -0.00083   0.00049   1.92343
   A16        1.88701  -0.00005  -0.00008  -0.00031  -0.00039   1.88662
   A17        1.88947  -0.00005  -0.00025  -0.00025  -0.00050   1.88897
   A18        1.88547  -0.00006  -0.00033  -0.00018  -0.00050   1.88497
   A19        2.00712   0.00006   0.00024   0.00024   0.00040   2.00752
   A20        2.14266  -0.00010   0.00050  -0.00102  -0.00060   2.14205
   A21        2.13280   0.00004  -0.00052   0.00080   0.00020   2.13300
   A22        2.13768   0.00001  -0.00058   0.00064   0.00007   2.13775
   A23        2.06604  -0.00006  -0.00091   0.00033  -0.00058   2.06546
   A24        2.07863   0.00005   0.00148  -0.00092   0.00056   2.07918
    D1        0.98159   0.00002   0.00841  -0.00039   0.00802   0.98961
    D2        3.09440   0.00000   0.00867   0.00017   0.00885   3.10325
    D3       -1.10705   0.00001   0.00977  -0.00135   0.00842  -1.09863
    D4       -1.11919   0.00005   0.00793   0.00060   0.00853  -1.11066
    D5        0.99362   0.00003   0.00818   0.00117   0.00935   1.00298
    D6        3.07535   0.00003   0.00928  -0.00035   0.00893   3.08428
    D7        3.08330   0.00005   0.00756   0.00091   0.00847   3.09177
    D8       -1.08708   0.00003   0.00782   0.00147   0.00929  -1.07778
    D9        0.99465   0.00003   0.00892  -0.00005   0.00887   1.00352
   D10       -1.02612   0.00003  -0.00130   0.00370   0.00240  -1.02372
   D11       -3.12701   0.00003  -0.00075   0.00307   0.00233  -3.12469
   D12        1.06163   0.00003  -0.00078   0.00308   0.00229   1.06392
   D13        3.12786  -0.00001  -0.00098   0.00231   0.00133   3.12918
   D14        1.02696  -0.00001  -0.00042   0.00168   0.00125   1.02822
   D15       -1.06758  -0.00001  -0.00046   0.00168   0.00122  -1.06636
   D16        1.07010   0.00000  -0.00199   0.00352   0.00153   1.07164
   D17       -1.03079  -0.00000  -0.00143   0.00289   0.00146  -1.02933
   D18       -3.12534  -0.00000  -0.00147   0.00289   0.00143  -3.12391
   D19        2.57862  -0.00007  -0.00374  -0.00504  -0.00878   2.56984
   D20       -0.59967  -0.00006  -0.00448  -0.00433  -0.00881  -0.60848
   D21       -1.56110   0.00000  -0.00390  -0.00356  -0.00747  -1.56856
   D22        1.54380   0.00001  -0.00465  -0.00285  -0.00750   1.53630
   D23        0.49278  -0.00002  -0.00424  -0.00354  -0.00778   0.48501
   D24       -2.68550  -0.00001  -0.00498  -0.00283  -0.00781  -2.69332
   D25       -0.02834  -0.00000  -0.00152   0.00105  -0.00047  -0.02882
   D26        3.06887   0.00002  -0.00186   0.00250   0.00064   3.06952
   D27       -3.13347  -0.00001  -0.00081   0.00039  -0.00042  -3.13389
   D28       -0.03626   0.00002  -0.00114   0.00184   0.00070  -0.03556
         Item               Value     Threshold  Converged?
 Maximum Force            0.000404     0.000015     NO 
 RMS     Force            0.000129     0.000010     NO 
 Maximum Displacement     0.020464     0.000060     NO 
 RMS     Displacement     0.005607     0.000040     NO 
 GradGradGradGradGradGradGradGradGradGradGradGradGradGradGradGradGradGrad

                    Distance matrix (angstroms):
                    1          2          3          4          5
     1  C    0.000000
     2  C    1.526324   0.000000
     3  C    2.534749   1.535792   0.000000
     4  C    2.509920   1.530853   2.492199   0.000000
     5  N    3.676966   2.444180   3.225299   1.364897   0.000000
     6  O    2.842419   2.412894   3.198996   1.212787   2.258000
     7  H    1.103632   2.175291   2.765895   3.475445   4.542529
     8  H    1.102066   2.167045   2.812262   2.733107   4.067751
     9  H    1.103009   2.184458   3.500202   2.788210   3.814862
    10  H    2.156667   1.105906   2.155941   2.156305   2.528973
    11  H    2.783581   2.183499   1.103636   3.463680   4.174949
    12  H    3.501732   2.196986   1.103797   2.746370   3.021388
    13  H    2.796276   2.178889   1.103675   2.742778   3.680785
    14  H    3.974747   2.610729   3.282608   2.089552   1.010704
    15  H    4.501971   3.377253   4.079498   2.050232   1.013471
                    6          7          8          9         10
     6  O    0.000000
     7  H    3.905301   0.000000
     8  H    2.608099   1.794575   0.000000
     9  H    3.046525   1.788529   1.779535   0.000000
    10  H    3.243283   2.519889   3.074287   2.495559   0.000000
    11  H    4.182078   2.557145   3.175991   3.787693   2.507515
    12  H    3.582040   3.783658   3.822697   4.355304   2.507616
    13  H    3.032847   3.121307   2.622975   3.819089   3.078378
    14  H    3.170695   4.664804   4.567368   4.131613   2.291183
    15  H    2.496348   5.441360   4.749774   4.560105   3.534690
                   11         12         13         14         15
    11  H    0.000000
    12  H    1.786933   0.000000
    13  H    1.788350   1.785891   0.000000
    14  H    4.072577   2.903759   3.984017   0.000000
    15  H    5.088333   3.800368   4.372449   1.745239   0.000000
 Framework group  C1[X(C4H9NO)]
 Deg. of freedom    39
                         Standard orientation:                         
 ---------------------------------------------------------------------
 Center     Atomic      Atomic             Coordinates (Angstroms)
 Number     Number       Type             X           Y           Z
 ---------------------------------------------------------------------
      1          6           0       -1.545671   -0.989119   -0.459304
      2          6           0       -0.622003    0.224378   -0.396632
      3          6           0       -1.141023    1.284226    0.586220
      4          6           0        0.784701   -0.198441    0.034550
      5          7           0        1.799710    0.536083   -0.506906
      6          8           0        0.986124   -1.092765    0.828569
      7          1           0       -2.570397   -0.683004   -0.731761
      8          1           0       -1.572387   -1.493967    0.519963
      9          1           0       -1.194151   -1.723207   -1.203734
     10          1           0       -0.561290    0.682677   -1.401273
     11          1           0       -2.151158    1.620785    0.295756
     12          1           0       -0.480833    2.168280    0.617303
     13          1           0       -1.196792    0.864196    1.605319
     14          1           0        1.636119    1.286478   -1.163920
     15          1           0        2.747897    0.341032   -0.206872
 ---------------------------------------------------------------------
 Rotational constants (GHZ):           4.8874301           2.8667314           2.3357587
   102 basis functions,   186 primitive gaussians,   108 cartesian basis functions
    24 alpha electrons       24 beta electrons
       nuclear repulsion energy       247.6254356168 Hartrees.
 NAtoms=   15 NActive=   15 NUniq=   15 SFac= 1.00D+00 NAtFMM=   60 NAOKFM=F Big=F
 Nuclear repulsion after empirical dispersion term =      247.6179951872 Hartrees.
   1 Symmetry operations used in ECPInt.
 ECPInt:  NShTT=    1485 NPrTT=    5991 LenC2=    1482 LenP2D=    4940.
 LDataN:  DoStor=T MaxTD1= 4 Len=   56
 Initial guess from the checkpoint file:  "monomer.chk"
 B after Tr=     0.000000   -0.000000   -0.000000
         Rot=    0.999999    0.001208    0.000376   -0.000283 Ang=   0.15 deg.
 ExpMin= 1.22D-01 ExpMax= 2.27D+03 ExpMxC= 3.41D+02 IAcc=3 IRadAn=         5 AccDes= 0.00D+00
 Harris functional with IExCor= 4639 and IRadAn=       5 diagonalized for initial guess.
 HarFok:  IExCor= 4639 AccDes= 0.00D+00 IRadAn=         5 IDoV= 1 UseB2=F ITyADJ=14
 ICtDFT=  3500011 ScaDFX=  1.000000  1.000000  1.000000  1.000000
 FoFCou: FMM=F IPFlag=           0 FMFlag=      100000 FMFlg1=           0
         NFxFlg=           0 DoJE=T BraDBF=F KetDBF=T FulRan=T
         wScrn=  0.000000 ICntrl=       500 IOpCl=  0 I1Cent=   200000004 NGrid=           0
         NMat0=    1 NMatS0=      1 NMatT0=    0 NMatD0=    1 NMtDS0=    0 NMtDT0=    0
 Petite list used in FoFCou.
     Accept linear search using points  1 and  2.
     Minimum is close to point  2 DX= -3.33D-05 DF= -5.68D-14 DXR=  3.33D-05 DFR=  1.34D-09 which will be used.
 SCF Done:  E(RwB97XD) =  -287.524245612     a.u. after    3 cycles
            Convg  =    0.6320D-09                    22 Fock formations.
              S**2 =  0.0000                  -V/T =  2.0097
   1 Symmetry operations used in ECPInt.
 ECPInt:  NShTT=    1485 NPrTT=    5991 LenC2=    1482 LenP2D=    4940.
 LDataN:  DoStor=T MaxTD1= 5 Len=  102
 Calling FoFJK, ICntrl=      2127 FMM=F ISym2X=0 I1Cent= 0 IOpClX= 0 NMat=1 NMatS=1 NMatT=0.

 GradGradGradGradGradGradGradGradGradGradGradGradGradGradGradGradGradGrad
 Using GEDIIS/GDIIS optimizer.
 FormGI is forming the generalized inverse of G from B-inverse, IUseBI=4.
 Internal  Forces:  Max     0.000064147 RMS     0.000027197
 Step number   5 out of a maximum of   76
 All quantities printed in internal units (Hartrees-Bohrs-Radians)
 Mixed Optimization -- En-DIIS/RFO-DIIS
 Swapping is turned off.
 Trust test= 1.34D+00 RLast= 3.35D-02 DXMaxT set to 2.49D-01
 ITU=  1  1 -1  1  0
     Eigenvalues ---    0.00217   0.00352   0.00440   0.02246   0.02272
     Eigenvalues ---    0.03982   0.04368   0.04962   0.05480   0.05592
     Eigenvalues ---    0.05628   0.05681   0.05787   0.15185   0.15964
     Eigenvalues ---    0.16000   0.16000   0.16000   0.16017   0.16046
     Eigenvalues ---    0.16526   0.16940   0.17821   0.24674   0.25121
     Eigenvalues ---    0.29536   0.29767   0.31590   0.34028   0.35031
     Eigenvalues ---    0.35066   0.35102   0.35110   0.35274   0.37438
     Eigenvalues ---    0.46749   0.47652   0.55256   1.01019
 En-DIIS/RFO-DIIS/Sim-DIIS IScMMF=       -3 using points:     5    4    3    2
 RFO step:  Lambda=-1.49137167D-06.
 DidBck=F Rises=F RFO-DIIS coefs:    1.74907   -0.80811    0.00954    0.04950
 Iteration  1 RMS(Cart)=  0.00443794 RMS(Int)=  0.00000820
 Iteration  2 RMS(Cart)=  0.00001131 RMS(Int)=  0.00000153
 Iteration  3 RMS(Cart)=  0.00000000 RMS(Int)=  0.00000153
 Variable       Old X    -DE/DX   Delta X   Delta X   Delta X     New X
                                 (Linear)    (Quad)   (Total)
    R1        2.88433  -0.00003   0.00090  -0.00096  -0.00006   2.88427
    R2        2.08556   0.00001  -0.00078   0.00068  -0.00010   2.08546
    R3        2.08260   0.00005  -0.00092   0.00091  -0.00002   2.08259
    R4        2.08439   0.00001  -0.00073   0.00061  -0.00012   2.08427
    R5        2.90223  -0.00005   0.00045  -0.00076  -0.00031   2.90191
    R6        2.89289  -0.00003  -0.00027  -0.00000  -0.00027   2.89262
    R7        2.08986   0.00000  -0.00068   0.00061  -0.00007   2.08979
    R8        2.08557   0.00003  -0.00081   0.00075  -0.00006   2.08551
    R9        2.08587   0.00001  -0.00071   0.00060  -0.00011   2.08576
   R10        2.08564   0.00001  -0.00098   0.00084  -0.00014   2.08550
   R11        2.57928   0.00000  -0.00016   0.00009  -0.00007   2.57921
   R12        2.29184   0.00005  -0.00001   0.00008   0.00007   2.29191
   R13        1.90995   0.00002  -0.00041   0.00035  -0.00006   1.90989
   R14        1.91518   0.00003  -0.00034   0.00034   0.00000   1.91519
    A1        1.92998  -0.00004   0.00052  -0.00077  -0.00024   1.92973
    A2        1.92025   0.00003   0.00005   0.00039   0.00045   1.92070
    A3        1.94334  -0.00006   0.00066  -0.00087  -0.00021   1.94312
    A4        1.90066   0.00000  -0.00066   0.00040  -0.00026   1.90040
    A5        1.89008   0.00005  -0.00026   0.00041   0.00016   1.89024
    A6        1.87817   0.00003  -0.00037   0.00048   0.00011   1.87828
    A7        1.95026  -0.00003   0.00066  -0.00106  -0.00039   1.94987
    A8        1.92629  -0.00001   0.00039  -0.00067  -0.00028   1.92601
    A9        1.90223   0.00000  -0.00076   0.00062  -0.00014   1.90209
   A10        1.89747  -0.00001  -0.00010  -0.00015  -0.00025   1.89722
   A11        1.89013   0.00001  -0.00000   0.00017   0.00016   1.89029
   A12        1.89640   0.00003  -0.00021   0.00117   0.00096   1.89736
   A13        1.92979  -0.00000   0.00025  -0.00014   0.00011   1.92991
   A14        1.94830  -0.00006   0.00049  -0.00090  -0.00041   1.94790
   A15        1.92343  -0.00003   0.00017  -0.00021  -0.00004   1.92338
   A16        1.88662   0.00003  -0.00028   0.00038   0.00010   1.88672
   A17        1.88897   0.00003  -0.00034   0.00046   0.00012   1.88908
   A18        1.88497   0.00005  -0.00033   0.00046   0.00013   1.88510
   A19        2.00752   0.00004   0.00026   0.00009   0.00035   2.00787
   A20        2.14205  -0.00004  -0.00052   0.00014  -0.00037   2.14168
   A21        2.13300  -0.00000   0.00022  -0.00021   0.00002   2.13302
   A22        2.13775   0.00001   0.00014  -0.00003   0.00010   2.13785
   A23        2.06546  -0.00000  -0.00030   0.00009  -0.00021   2.06525
   A24        2.07918  -0.00001   0.00019  -0.00004   0.00015   2.07933
    D1        0.98961   0.00002   0.00476  -0.00042   0.00434   0.99395
    D2        3.10325  -0.00002   0.00534  -0.00178   0.00356   3.10681
    D3       -1.09863   0.00002   0.00485  -0.00037   0.00447  -1.09416
    D4       -1.11066   0.00002   0.00521  -0.00068   0.00453  -1.10613
    D5        1.00298  -0.00001   0.00580  -0.00205   0.00375   1.00673
    D6        3.08428   0.00002   0.00530  -0.00064   0.00466   3.08895
    D7        3.09177   0.00001   0.00522  -0.00099   0.00423   3.09600
    D8       -1.07778  -0.00002   0.00581  -0.00236   0.00345  -1.07433
    D9        1.00352   0.00001   0.00531  -0.00095   0.00437   1.00789
   D10       -1.02372  -0.00001   0.00200  -0.00068   0.00132  -1.02240
   D11       -3.12469  -0.00001   0.00186  -0.00047   0.00138  -3.12330
   D12        1.06392  -0.00000   0.00184  -0.00033   0.00151   1.06543
   D13        3.12918   0.00003   0.00114   0.00096   0.00210   3.13129
   D14        1.02822   0.00003   0.00100   0.00116   0.00217   1.03038
   D15       -1.06636   0.00004   0.00099   0.00131   0.00229  -1.06407
   D16        1.07164  -0.00002   0.00145  -0.00045   0.00101   1.07264
   D17       -1.02933  -0.00001   0.00131  -0.00024   0.00107  -1.02826
   D18       -3.12391  -0.00001   0.00129  -0.00009   0.00120  -3.12271
   D19        2.56984   0.00000  -0.00568  -0.00149  -0.00717   2.56267
   D20       -0.60848   0.00001  -0.00630  -0.00094  -0.00724  -0.61573
   D21       -1.56856  -0.00005  -0.00467  -0.00334  -0.00801  -1.57657
   D22        1.53630  -0.00004  -0.00529  -0.00279  -0.00808   1.52822
   D23        0.48501  -0.00002  -0.00485  -0.00257  -0.00742   0.47758
   D24       -2.69332  -0.00001  -0.00547  -0.00202  -0.00749  -2.70081
   D25       -0.02882  -0.00000  -0.00042  -0.00001  -0.00043  -0.02925
   D26        3.06952   0.00002   0.00042   0.00041   0.00083   3.07034
   D27       -3.13389  -0.00001   0.00021  -0.00056  -0.00035  -3.13424
   D28       -0.03556   0.00001   0.00105  -0.00014   0.00091  -0.03465
         Item               Value     Threshold  Converged?
 Maximum Force            0.000064     0.000015     NO 
 RMS     Force            0.000027     0.000010     NO 
 Maximum Displacement     0.014480     0.000060     NO 
 RMS     Displacement     0.004438     0.000040     NO 
 GradGradGradGradGradGradGradGradGradGradGradGradGradGradGradGradGradGrad

                    Distance matrix (angstroms):
                    1          2          3          4          5
     1  C    0.000000
     2  C    1.526291   0.000000
     3  C    2.534247   1.535627   0.000000
     4  C    2.509525   1.530708   2.491724   0.000000
     5  N    3.674908   2.444298   3.229546   1.364859   0.000000
     6  O    2.843684   2.412553   3.194543   1.212826   2.258011
     7  H    1.103580   2.175048   2.767026   3.475009   4.540371
     8  H    1.102057   2.167337   2.809961   2.734789   4.068672
     9  H    1.102946   2.184228   3.499715   2.785964   3.809026
    10  H    2.156505   1.105868   2.155890   2.156862   2.528425
    11  H    2.782479   2.183411   1.103603   3.463300   4.179035
    12  H    3.501092   2.196503   1.103739   2.746485   3.028027
    13  H    2.796312   2.178658   1.103600   2.741103   3.684151
    14  H    3.971908   2.611129   3.290324   2.089548   1.010672
    15  H    4.499910   3.377254   4.083123   2.050077   1.013472
                    6          7          8          9         10
     6  O    0.000000
     7  H    3.906494   0.000000
     8  H    2.611069   1.794358   0.000000
     9  H    3.047360   1.788538   1.779551   0.000000
    10  H    3.244665   2.517779   3.074465   2.496756   0.000000
    11  H    4.177938   2.557654   3.171559   3.787819   2.507951
    12  H    3.577866   3.783804   3.821214   4.354621   2.506814
    13  H    3.025598   3.124601   2.620931   3.817957   3.078215
    14  H    3.170717   4.661655   4.567663   4.124378   2.289433
    15  H    2.496151   5.439295   4.750926   4.553878   3.534380
                   11         12         13         14         15
    11  H    0.000000
    12  H    1.786923   0.000000
    13  H    1.788339   1.785870   0.000000
    14  H    4.080258   2.915336   3.990987   0.000000
    15  H    5.091943   3.806509   4.375145   1.745290   0.000000
 Framework group  C1[X(C4H9NO)]
 Deg. of freedom    39
                         Standard orientation:                         
 ---------------------------------------------------------------------
 Center     Atomic      Atomic             Coordinates (Angstroms)
 Number     Number       Type             X           Y           Z
 ---------------------------------------------------------------------
      1          6           0       -1.543459   -0.990109   -0.462178
      2          6           0       -0.621672    0.224650   -0.397107
      3          6           0       -1.143528    1.281953    0.586727
      4          6           0        0.784744   -0.196867    0.035772
      5          7           0        1.800411    0.533436   -0.510047
      6          8           0        0.985342   -1.086896    0.834869
      7          1           0       -2.567274   -0.685447   -0.739441
      8          1           0       -1.574200   -1.493945    0.517481
      9          1           0       -1.187678   -1.724466   -1.204222
     10          1           0       -0.560994    0.684331   -1.401076
     11          1           0       -2.154480    1.616245    0.296615
     12          1           0       -0.485463    2.167492    0.618490
     13          1           0       -1.198106    0.860721    1.605314
     14          1           0        1.637627    1.280043   -1.171513
     15          1           0        2.748451    0.338377   -0.209552
 ---------------------------------------------------------------------
 Rotational constants (GHZ):           4.8893255           2.8622045           2.3393019
   102 basis functions,   186 primitive gaussians,   108 cartesian basis functions
[...]
 ! D20   D(1,2,4,6)            -40.7694         -DE/DX =    0.0                 !
 ! D21   D(3,2,4,5)            -96.1448         -DE/DX =    0.0                 !
 ! D22   D(3,2,4,6)             81.8337         -DE/DX =    0.0                 !
 ! D23   D(10,2,4,5)            21.7307         -DE/DX =    0.0                 !
 ! D24   D(10,2,4,6)          -160.2908         -DE/DX =    0.0                 !
 ! D25   D(2,4,5,14)            -1.9379         -DE/DX =    0.0                 !
 ! D26   D(2,4,5,15)           176.5012         -DE/DX =    0.0                 !
 ! D27   D(6,4,5,14)          -179.9216         -DE/DX =    0.0                 !
 ! D28   D(6,4,5,15)            -1.4826         -DE/DX =    0.0                 !
 --------------------------------------------------------------------------------
 GradGradGradGradGradGradGradGradGradGradGradGradGradGradGradGradGradGrad


 ----------------------------------------------------------------------

 Electric dipole moment (input orientation):
 (Debye = 10**-18 statcoulomb cm , SI units = C m)
                  (au)            (Debye)         (10**-30 SI)
   Tot        0.143880D+01      0.365708D+01      0.121987D+02
   x          0.466503D-01      0.118573D+00      0.395518D+00
   y          0.111584D+01      0.283618D+01      0.946047D+01
   z         -0.907130D+00     -0.230570D+01     -0.769097D+01

 Dipole polarizability, Alpha (input orientation).
 (esu units = cm**3 , SI units = C**2 m**2 J**-1)
 Alpha(0;0):
               (au)            (10**-24 esu)      (10**-40 SI)
   iso        0.500374D+02      0.741478D+01      0.825006D+01
   aniso      0.109975D+02      0.162967D+01      0.181325D+01
   xx         0.546895D+02      0.810414D+01      0.901707D+01
   yx         0.187489D+01      0.277830D+00      0.309128D+00
   yy         0.499910D+02      0.740790D+01      0.824240D+01
   zx        -0.112594D+01     -0.166848D+00     -0.185643D+00
   zy        -0.375563D+01     -0.556526D+00     -0.619219D+00
   zz         0.454318D+02      0.673230D+01      0.749070D+01

 ----------------------------------------------------------------------

 Dipole orientation:
     6         -2.94271967          1.87354497         -0.91044107
     6         -1.35038934          0.17925221          0.79928241
     6         -2.36660598         -2.53715360          0.86309475
     6          1.38795398          0.11703951         -0.12862219
     7          3.17783564          0.11780532          1.72731720
     8          1.93191856          0.00214134         -2.35242406
     1         -4.93796842          1.86014952         -0.30330089
     1         -2.83279634          1.20083395         -2.87869733
     1         -2.26168842          3.84367500         -0.87345490
     1         -1.39272749          0.94436091          2.74318887
     1         -4.33941503         -2.56645633          1.53937207
     1         -1.22990294         -3.74917351          2.12418757
     1         -2.31619019         -3.36712004         -1.04929002
     1          2.73356201          0.21104423          3.58240124
     1          5.01801823         -0.02505757          1.21522806

 Electric dipole moment (dipole orientation):
 (Debye = 10**-18 statcoulomb cm , SI units = C m)
                  (au)            (Debye)         (10**-30 SI)
   Tot        0.143880D+01      0.365708D+01      0.121987D+02
   x          0.000000D+00      0.000000D+00      0.000000D+00
   y          0.000000D+00      0.000000D+00      0.000000D+00
   z          0.143880D+01      0.365708D+01      0.121987D+02

 Dipole polarizability, Alpha (dipole orientation).
 (esu units = cm**3 , SI units = C**2 m**2 J**-1)
 Alpha(0;0):
               (au)            (10**-24 esu)      (10**-40 SI)
   iso        0.500374D+02      0.741478D+01      0.825006D+01
   aniso      0.109975D+02      0.162967D+01      0.181325D+01
   xx         0.545516D+02      0.808372D+01      0.899435D+01
   yx        -0.918979D-01     -0.136179D-01     -0.151519D-01
   yy         0.435640D+02      0.645552D+01      0.718274D+01
   zx         0.227489D+01      0.337103D+00      0.375078D+00
   zy        -0.143911D+01     -0.213254D+00     -0.237277D+00
   zz         0.519966D+02      0.770511D+01      0.857309D+01

 ----------------------------------------------------------------------
 1\1\GINC-C200\Freq\RwB97XD\def2SVPP\C4H9N1O1\PETERCHAO1\29-Mar-2024\0\
 \#T Geom=AllCheck Guess=TCheck SCRF=Check GenChk RwB97XD/def2SVPP Freq
 \\Monomer\\0,1\C,-1.5565472015,-0.9753400102,-0.5156275494\C,-0.698957
 9816,0.2791753036,-0.3634004166\C,-1.2574434665,1.2208666495,0.7126699
 593\C,0.7327483817,-0.1032009297,0.0186941601\N,1.7111518033,0.6436021
 896,-0.5701131797\O,0.9813238969,-0.9819015748,0.8171147952\H,-2.60139
 89321,-0.7054166535,-0.7469257198\H,-1.5376760798,-1.559328969,0.41901
 04524\H,-1.17968067,-1.6236918762,-1.3248116646\H,-0.6817513536,0.8217
 612368,-1.3266743582\H,-2.2893718722,1.524292955,0.4652185996\H,-0.644
 5679566,2.1339183124,0.8088359634\H,-1.2703668146,0.7128119218,1.69218
 30194\H,1.5087934187,1.3774034032,-1.234918044\H,2.6743545891,0.466138
 9459,-0.3090602832\\Version=ES64L-G16RevB.01\State=1-A\HF=-287.5242532
 \RMSD=3.881e-10\RMSF=4.391e-07\ZeroPoint=0.1315295\Thermal=0.1390185\D
 ipole=0.0466503,1.1158384,-0.9071305\DipoleDeriv=0.052454,-0.0048344,0
 .0185484,0.022974,0.0122491,0.0143297,-0.0007406,0.0113392,0.0156409,-
 0.1792124,0.077915,-0.0292382,0.0973192,0.0706273,0.000308,0.0103176,-
 0.0089904,0.1393478,0.0090239,-0.0075015,-0.0020976,-0.0276261,0.03538
 65,-0.004597,-0.0549461,0.018395,0.0301796,1.3464182,0.1906108,-0.2020
 76,0.2120058,1.0107355,-0.6452146,-0.1696482,-0.6869592,0.7690853,-0.8
 333812,-0.4095713,0.3844096,-0.2620505,-0.6903331,0.0596493,0.2525863,
 0.04682,-0.6346588,-0.7180944,0.1489539,-0.1379567,-0.0190166,-0.85699
 1,0.3690372,-0.0131012,0.4230474,-0.7311037,-0.1403595,0.0076187,-0.04
 79361,0.0525056,0.0291117,0.0108627,-0.0417113,0.0004168,0.075078,0.09
 47775,0.0016808,-0.0191121,-0.0275304,0.0267394,0.0282364,0.018162,0.0
 75012,-0.0319809,0.0388978,0.0295529,0.0631557,-0.0031416,-0.0333351,-
 0.0852047,0.0347349,-0.1104994,-0.0363859,0.0019231,-0.0275585,0.04317
 12,-0.0252933,-0.0520733,0.074469,0.0131573,0.0770944,-0.1375389,-0.12
 29164,0.0796771,-0.015907,0.057767,0.0501595,-0.0160866,-0.0368566,-0.
 0079792,0.0422698,0.0101424,-0.1154105,-0.0067832,-0.0728405,-0.089779
 4,-0.0543595,0.0115552,-0.0199393,0.0461224,0.0806144,0.0173626,-0.004
 3772,-0.0030664,0.0223725,0.0849708,0.0243203,0.023827,-0.0581153,0.16
 5912,0.0196837,-0.0354443,0.0076095,0.2380697,0.0663192,-0.0373256,0.0
 617511,0.2626097,0.1938007,-0.0081794,-0.0083565,-0.0096157,0.2270606,
 0.0972802,-0.010504,0.0966645,0.24945\Polar=54.6894658,1.8748894,49.99
 09887,-1.1259448,-3.755626,45.4318418\Quadrupole=2.5539743,-1.5094359,
 -1.0445384,2.9088799,-2.3339753,0.1795628\PG=C01 [X(C4H9N1O1)]\NImag=0
 \\0.56261559,-0.04835453,0.52485717,-0.00276506,-0.00498893,0.59179599
 ,-0.11998525,-0.05646961,-0.00708884,0.49277546,-0.06033293,-0.1685486
 5,-0.00587794,0.01807490,0.51927123,-0.00895514,-0.00543037,-0.0832061
 2,0.00035072,-0.07026499,0.56561211,0.00846245,-0.01193700,-0.01439107
 ,-0.09588301,0.03062995,0.03612412,0.57613793,0.00889944,-0.02352565,-
 0.02363786,0.02311766,-0.12040500,-0.05004477,0.02437872,0.55102549,-0
 .00027490,-0.00639066,-0.00400069,0.02643496,-0.04715888,-0.13977653,0
 .02950076,-0.04663952,0.53068598,-0.02682395,-0.00566924,-0.00393840,-
 0.17154904,0.01656134,-0.02390760,-0.01552736,0.01268033,0.00849951,0.
 64402160,-0.02824123,0.01065845,-0.00828865,0.00932722,-0.08882391,0.0
 0411919,0.02425723,-0.00922826,0.00168028,-0.02572837,0.69504028,-0.00
 763407,-0.00302523,-0.00165754,-0.01367391,0.00336534,-0.09238474,0.02
 421825,-0.00514244,0.00903421,0.05058959,-0.40019451,0.59642801,-0.004
 36969,0.00416164,-0.00033492,-0.03305699,-0.01917061,0.01401323,-0.002
 17266,-0.00255529,-0.00209282,-0.28210682,-0.08286582,0.05664799,0.803
 84398,0.00223790,-0.00049560,0.00048188,0.00209693,0.01176760,0.000813
 56,-0.00110793,-0.00174604,-0.00124792,-0.09201481,-0.15654997,0.08668
 960,0.00523998,0.49249925,-0.00103392,-0.00043349,0.00029627,-0.003161
 44,0.00004900,0.01048140,-0.00152770,-0.00065035,-0.00005208,0.0615600
 2,0.08552574,-0.12297147,0.06848267,-0.41817053,0.40213470,-0.00005605
 ,0.00190858,-0.00001706,-0.00442352,0.02949397,-0.02925423,-0.00040874
 ,-0.00068658,-0.00253022,-0.15154760,0.10231328,-0.09619842,0.02908400
 ,-0.03489810,0.03168660,0.13521779,-0.00222146,-0.00232415,0.00052483,
 0.01466885,-0.00954359,0.02381480,-0.00210490,0.00236275,0.00179668,0.
 10970680,-0.43160503,0.31840720,-0.01918109,-0.04576225,0.05914456,-0.
 10384642,0.48276187,0.00362813,0.00269696,0.00051893,-0.01547993,0.022
 90426,-0.00356156,-0.00156170,0.00007387,-0.00403036,-0.10343114,0.317
 27825,-0.37120031,0.01809452,0.05768603,-0.02823353,0.10048788,-0.4025
 8853,0.40035744,-0.28769619,0.06476506,-0.05335182,-0.01670936,0.00539
 988,-0.00418247,0.00086787,0.00134307,0.00057260,0.00069974,-0.0036691
 4,0.00035119,-0.00145655,0.00010521,-0.00020546,-0.00003231,0.00012613
 ,0.00006086,0.30859478,0.06689156,-0.06572235,0.01485057,-0.02810284,0
 .00632218,-0.00790170,-0.00081240,0.00167474,0.00036990,-0.00092504,-0
 .00691995,0.00103330,-0.00158850,0.00081096,-0.00039616,0.00038991,0.0
 0184334,-0.00044957,-0.06762352,0.06919994,-0.05272160,0.01371637,-0.0
 6171225,-0.00086290,0.00171181,-0.00131886,-0.00072541,0.00029648,-0.0
 0006083,-0.00075827,0.00054894,-0.00037927,-0.00032455,-0.00011518,0.0
 0007431,-0.00059897,-0.00092764,0.00056901,0.05829360,-0.01444998,0.05
 840731,-0.04749562,0.00520756,-0.00615396,-0.00001477,-0.01048163,0.01
 707027,0.00032510,0.00100481,0.00018935,0.00020948,-0.00260782,0.00375
 041,0.00050745,0.00109507,-0.00118451,-0.00008651,0.00173233,-0.001492
 13,0.00236816,0.01507731,-0.02581194,0.04620286,0.00367473,-0.12325383
 ,0.12131521,-0.00037759,-0.01542103,0.02360323,0.00041546,0.00112132,0
 .00143111,0.00129145,-0.00121529,0.00211308,-0.00003073,0.00030637,-0.
 00029195,0.00111977,0.00126619,-0.00136356,-0.00096565,-0.00383637,0.0
 0459751,-0.00077855,0.13338474,-0.00338865,0.12282253,-0.24893235,0.00
 165323,-0.00205853,0.00329523,-0.00000556,-0.00064049,0.00134109,-0.00
 118363,0.00141325,-0.00085170,0.00010868,0.00009841,0.00009304,-0.0009
 3418,-0.00161427,0.00013839,0.00081213,0.00047776,-0.00249556,0.005130
 09,-0.13218928,0.26222000,-0.08338165,0.05624215,0.07107077,0.00663270
 ,-0.01114327,-0.01624726,-0.00238410,-0.00279598,0.00003121,0.00110545
 ,-0.00103243,-0.00081857,0.00023676,0.00025546,0.00027863,-0.00002002,
 0.00052165,0.00009761,-0.00762833,0.01575570,0.02294082,-0.00025831,-0
 .00116695,-0.00151648,0.08428530,0.05415042,-0.13844755,-0.11405882,0.
 01034660,-0.01393273,-0.01956988,-0.00451628,-0.00421633,0.00037134,0.
 00152431,-0.00024649,0.00028685,-0.00029879,0.00016667,0.00033590,-0.0
 0023462,0.00049568,-0.00036264,0.00129572,-0.00403329,-0.00462161,-0.0
 0702662,0.01156627,0.01235349,-0.05621340,0.14899665,0.06934875,-0.115
 53135,-0.19641586,0.00015003,0.00121329,-0.00136826,-0.00076210,-0.000
 65086,0.00082508,0.00073766,-0.00138430,0.00072399,-0.00031157,0.00014
 428,-0.00020494,-0.00052561,0.00109112,0.00000340,-0.00271996,0.005861
 56,0.00678819,0.00961499,-0.01689715,-0.01597177,-0.07544267,0.1262235
 4,0.20449239,-0.00058334,-0.01095075,0.01755039,-0.05212970,-0.0040090
 4,0.00222165,-0.00016444,-0.00614624,0.01235991,0.00596386,0.01542844,
 -0.02822891,-0.00082673,-0.00064586,0.00137973,-0.00777399,0.00378175,
 -0.00174278,0.00025156,0.00054127,0.00036455,-0.00229919,-0.00339259,-
 0.00075009,0.00062800,0.00070133,-0.00052902,0.05825951,-0.00042514,-0
 .01425987,0.02360382,-0.00142187,-0.10922926,0.10969884,0.00075709,0.0
 0970884,-0.02053247,-0.00325758,-0.00719713,0.00776869,-0.00078677,0.0
 0042433,-0.00125490,0.00337330,0.00075171,0.00082441,-0.00006881,0.000
 96462,-0.00029720,-0.00348009,-0.00406090,-0.00090639,0.00075309,0.000
 43895,-0.00002969,0.00364665,0.12194623,-0.00029582,-0.00285910,0.0043
 1340,-0.00083400,0.10972617,-0.24176635,0.00059498,0.01041618,-0.02091
 391,0.00594869,0.00452366,-0.00793934,0.00046809,-0.00084934,0.0013498
 4,-0.00289694,0.00020459,0.00077968,0.00047039,0.00028758,0.00017601,-
 0.00059188,-0.00101420,0.00105034,0.00021393,0.00035015,0.00070092,-0.
 00359022,-0.11652340,0.26214825,0.00085157,-0.00098954,-0.00058189,-0.
 01075123,0.00278537,-0.00269810,-0.28400057,0.06757470,-0.05979123,0.0
 0147270,0.00065686,0.00283779,-0.00064794,0.00017961,0.00003146,-0.000
 23720,0.00024461,-0.00049288,0.00053434,0.00046954,0.00000355,-0.00002
 426,-0.00000638,0.00006647,0.00023536,-0.00015646,0.00014586,0.0001920
 7,-0.00029303,0.00030363,0.30236471,0.00107869,0.00074734,0.00090461,0
 .01899128,-0.00673134,0.00483890,0.06647624,-0.06800089,0.01815992,-0.
 00099130,-0.00235160,-0.00377907,0.00093182,0.00064392,0.00045630,0.00
 061788,0.00000924,0.00061628,-0.00057685,-0.00041249,-0.00052278,0.000
 06260,-0.00006877,0.00002559,-0.00028210,0.00029364,0.00004639,-0.0006
 9903,0.00070552,0.00013167,-0.07485716,0.06925092,0.00050193,0.0010770
 1,0.00088220,0.02490939,-0.00876622,0.00434790,-0.06094723,0.01885779,
 -0.06291842,-0.00129864,-0.00231915,-0.00522906,0.00094051,0.00035692,
 0.00043589,0.00075391,-0.00049261,0.00211322,-0.00047299,-0.00010475,0
 .00002753,-0.00014483,-0.00003384,-0.00005167,0.00007837,0.00033204,-0
 .00004347,-0.00002888,0.00076110,0.00094541,0.06281561,-0.01562767,0.0
 6456741,-0.00084568,0.00127850,0.00164350,0.00723952,0.01235300,0.0002
 4197,-0.13491110,-0.12537263,-0.01220233,0.00094735,0.00103154,-0.0000
 8345,0.00000712,-0.00006115,0.00003443,-0.00004237,-0.00026457,-0.0000
 3986,0.00033524,0.00011262,0.00023610,-0.00013129,-0.00002532,0.000021
 67,0.00067510,0.00049691,0.00024996,0.00034868,-0.00051436,-0.00060979
 ,-0.01318317,-0.02462724,-0.00079026,0.13922615,0.00278663,-0.00148717
 ,-0.00385338,-0.00989785,-0.01466863,0.00102721,-0.12346914,-0.2304550
 0,-0.01618899,-0.00273668,-0.00143830,-0.00016390,0.00067291,0.0012215
 1,0.00050270,0.00082219,0.00032567,0.00019151,-0.00006066,0.00019963,0
 .00006840,0.00010994,0.00043448,0.00003407,-0.00088140,-0.00097002,-0.
 00024479,0.00017141,0.00094585,-0.00011674,0.00577702,0.00959866,0.000
 72931,0.13362595,0.24636458,0.00278609,-0.00248765,-0.00334604,-0.0141
 8538,-0.01887935,-0.00121342,-0.01127939,-0.01519399,-0.05092735,-0.00
 130386,-0.00016227,0.00059540,0.00006195,0.00033794,-0.00008768,0.0001
 2732,0.00016408,0.00001875,0.00025657,0.00030986,-0.00003483,0.0000135
 6,-0.00027790,0.00008957,-0.00065841,-0.00140200,0.00012627,-0.0006606
 2,0.00050159,0.00052555,-0.00348799,-0.00655892,-0.00128127,0.01108571
 ,0.02162542,0.05071876,0.00006974,-0.00028271,-0.00096506,-0.00107317,
 -0.00565331,0.01168897,-0.04984716,-0.00143400,-0.00026447,0.00019448,
 -0.00223637,0.00297225,-0.00008443,0.00048698,-0.00054211,0.00005882,0
 .00039130,-0.00131985,-0.00001209,0.00010125,-0.00011288,0.00041411,0.
 00006883,-0.00014379,-0.00017394,-0.00008038,-0.00001001,-0.00042622,0
 .00185407,0.00192367,0.00315922,0.01374505,-0.02645358,0.00031450,-0.0
 0719222,0.01699704,0.04724014,0.00000866,0.00172733,-0.00063145,0.0001
 3980,0.00943564,-0.01907992,-0.00229300,-0.10908470,0.11453374,-0.0001
 5332,0.00146774,-0.00083707,0.00005093,-0.00009409,0.00029190,-0.00051
 262,-0.00024937,0.00024882,-0.00008132,-0.00004230,0.00006691,-0.00002
 600,-0.00040633,0.00023140,0.00007421,0.00011193,0.00023996,0.00190205
 ,-0.00204601,-0.00357799,-0.00123644,-0.00368597,0.00512939,0.00199996
 ,-0.00976355,0.02213210,0.00016123,0.11280580,-0.00004859,0.00119803,0
 .00100392,0.00132469,0.01010599,-0.02075264,0.00124869,0.11237163,-0.2
 5901023,-0.00164973,0.00224267,-0.00207256,0.00020465,-0.00020867,0.00
 052477,-0.00000941,-0.00092580,0.00178180,-0.00001872,-0.00006113,-0.0
 0008047,-0.00032215,-0.00091743,0.00005338,0.00005209,-0.00003786,0.00
 045089,0.00202520,-0.00342264,-0.00224324,0.00110678,0.00148289,-0.003
 86154,0.00001874,-0.00301067,0.00509413,-0.00376526,-0.11864910,0.2791
 2554,0.00015969,0.00040854,-0.00070404,-0.00068514,-0.00024005,0.00145
 075,-0.00046722,0.00007184,-0.00026125,0.01780797,-0.01391292,0.013993
 85,-0.09337170,0.05592725,-0.05830614,-0.00419726,-0.00573791,0.004248
 37,0.00000992,0.00004125,0.00003407,0.00041351,0.00022973,0.00011834,0
 .00003717,0.00002393,0.00008921,-0.00216808,-0.00020755,-0.00102255,-0
 .00001030,0.00002827,0.00005667,0.00006457,0.00006857,0.00014311,0.000
 21903,-0.00005237,-0.00018902,0.08000931,-0.00012916,-0.00004839,-0.00
 017014,0.00098754,-0.00083855,-0.00024255,0.00044837,0.00070456,0.0000
 7153,0.00901600,-0.01307532,0.00408695,0.05545164,-0.24510102,0.223444
 16,-0.00402542,0.00273885,0.00429560,0.00007111,0.00000240,-0.00000522
 ,0.00007270,0.00012943,-0.00007262,-0.00005168,-0.00012078,-0.00002321
 ,-0.00040990,0.00101749,-0.00061902,0.00004937,-0.00015890,-0.00011911
 ,0.00000025,-0.00026283,-0.00019412,0.00001242,-0.00020033,-0.00017301
 ,-0.05954140,0.25705875,-0.00025160,0.00031684,0.00001755,-0.00053184,
 -0.00143570,-0.00007833,0.00034431,0.00049977,-0.00022490,-0.00591226,
 0.00247921,-0.01208404,-0.05773768,0.22258088,-0.19992198,0.00265423,0
 .00413428,0.00453408,-0.00012127,-0.00017941,0.00003058,-0.00003297,-0
 .00004676,0.00008063,-0.00002239,-0.00013576,-0.00007137,-0.00038636,0
 .00010998,0.00044595,-0.00017156,-0.00020951,-0.00002197,0.00024408,-0
 .00049386,-0.00028149,-0.00006835,-0.00013314,-0.00001982,0.05958294,-
 0.22719744,0.21190926,-0.00092162,0.00068137,0.00002744,-0.00038649,-0
 .00426758,0.00208312,-0.00002699,-0.00007984,-0.00017106,-0.02486784,0
 .00727953,-0.00872397,-0.41558579,0.06110346,-0.09749226,0.00446494,0.
 00218293,-0.00105711,-0.00012677,-0.00032811,0.00004383,-0.00013071,-0
 .00005622,0.00001177,0.00001051,-0.00001268,-0.00003551,0.00072803,0.0
 0007099,-0.00008217,0.00004471,0.00010184,0.00008002,-0.00004463,0.000
 20331,0.00010429,-0.00005304,0.00001824,0.00002204,0.00217851,-0.00195
 184,0.00241072,0.43471719,-0.00002357,0.00012292,-0.00017376,-0.001481
 02,0.00134603,0.00461846,-0.00112241,0.00006417,-0.00025608,-0.0193039
 0,0.01148478,-0.01060879,0.05996868,-0.05809163,0.05144712,0.00416488,
 -0.00307092,-0.00205168,-0.00006024,-0.00005105,-0.00006681,0.00003837
 ,0.00005372,0.00002510,-0.00003506,-0.00010260,-0.00005878,0.00008050,
 -0.00011039,-0.00008019,-0.00019807,0.00016073,0.00021979,-0.00003345,
 -0.00004487,0.00008522,0.00005786,0.00002421,0.00000510,0.02289281,-0.
 00184536,-0.00028940,-0.06494538,0.05006025,0.00110446,-0.00068096,0.0
 0044259,0.00099523,0.00536575,0.00169017,-0.00083095,0.00008456,0.0000
 2895,0.01604806,-0.00746231,0.00998841,-0.09822073,0.05140213,-0.06391
 854,-0.00274490,-0.00273327,-0.00378894,0.00025533,0.00035218,0.000009
 12,-0.00003431,-0.00002807,-0.00005861,-0.00005765,-0.00006474,-0.0000
 3547,0.00001545,-0.00030173,0.00042749,-0.00008751,0.00003541,0.000087
 84,-0.00005047,-0.00010628,0.00000367,0.00006343,0.00003445,0.00000608
 ,-0.01923430,-0.00308180,-0.00431415,0.10277884,-0.04281530,0.05943139
 \\-0.00000023,0.00000042,-0.00000025,0.00000006,-0.00000024,-0.0000001
 8,0.00000017,0.00000004,0.00000100,-0.00000006,0.00000005,-0.00000043,
 -0.00000009,-0.00000014,-0.00000023,0.00000005,-0.00000071,-0.00000077
 ,-0.00000029,0.00000059,0.00000007,-0.00000010,-0.00000011,-0.00000049
 ,-0.00000049,0.00000062,-0.00000070,-0.00000018,0.00000062,0.00000033,
 0.00000028,-0.00000002,0.00000093,0.00000047,-0.00000037,0.00000085,0.
 00000050,-0.00000078,0.00000038,-0.00000009,0.00000031,0.00000006,0.00
 000001,-0.00000026,-0.00000059\\\@


 THE FIRST AND LAST THING REQUIRED OF GENIUS IS THE LOVE OF TRUTH.

                          -- GOETHE
 File lengths (MBytes):  RWF=     24 Int=      0 D2E=      0 Chk=      2 Scr=      1
 Normal termination of Gaussian 16 at Fri Mar 29 15:40:36 2024.
real 395.26
user 1491.52
sys 14.70
