 Entering Gaussian System, Link 0=g16
 Input=gaussian_test.inp
 Output=gaussian_test.log
 Initial command:
 /sw/restricted/lms/sw/Gaussian/g16_B01/g16/l1.exe "/scratch/user/peterchao1/peterchao1/8625381_1689034736000000069678349/Gau-12486.inp" -scrdir="/scratch/user/peterchao1/peterchao1/8625381_1689034736000000069678349/"
 Entering Link 1 = /sw/restricted/lms/sw/Gaussian/g16_B01/g16/l1.exe PID=     12487.
  
 Copyright (c) 1988-2017, Gaussian, Inc.  All Rights Reserved.
  
 This is part of the Gaussian(R) 16 program.  It is based on
 the Gaussian(R) 09 system (copyright 2009, Gaussian, Inc.),
 the Gaussian(R) 03 system (copyright 2003, Gaussian, Inc.),
 the Gaussian(R) 98 system (copyright 1998, Gaussian, Inc.),
 the Gaussian(R) 94 system (copyright 1995, Gaussian, Inc.),
 the Gaussian 92(TM) system (copyright 1992, Gaussian, Inc.),
 the Gaussian 90(TM) system (copyright 1990, Gaussian, Inc.),
 the Gaussian 88(TM) system (copyright 1988, Gaussian, Inc.),
 the Gaussian 86(TM) system (copyright 1986, Carnegie Mellon
 University), and the Gaussian 82(TM) system (copyright 1983,
 Carnegie Mellon University). Gaussian is a federally registered
 trademark of Gaussian, Inc.
  
 This software contains proprietary and confidential information,
 including trade secrets, belonging to Gaussian, Inc.
  
 This software is provided under written license and may be
 used, copied, transmitted, or stored only in accord with that
 written license.
  
 The following legend is applicable only to US Government
 contracts under FAR:
  
                    RESTRICTED RIGHTS LEGEND
  
 Use, reproduction and disclosure by the US Government is
 subject to restrictions as set forth in subparagraphs (a)
 and (c) of the Commercial Computer Software - Restricted
 Rights clause in FAR 52.227-19.
  
 Gaussian, Inc.
 340 Quinnipiac St., Bldg. 40, Wallingford CT 06492
  
  
 ---------------------------------------------------------------
 Warning -- This program may not be used in any manner that
 competes with the business of Gaussian, Inc. or will provide
 assistance to any competitor of Gaussian, Inc.  The licensee
 of this program is prohibited from giving any competitor of
 Gaussian, Inc. access to this program.  By using this program,
 the user acknowledges that Gaussian, Inc. is engaged in the
 business of creating and licensing software in the field of
 computational chemistry and represents and warrants to the
 licensee that it is not a competitor of Gaussian, Inc. and that
 it will not use this program in any manner prohibited above.
 ---------------------------------------------------------------
  

 Cite this work as:
 Gaussian 16, Revision B.01,
 M. J. Frisch, G. W. Trucks, H. B. Schlegel, G. E. Scuseria, 
 M. A. Robb, J. R. Cheeseman, G. Scalmani, V. Barone, 
 G. A. Petersson, H. Nakatsuji, X. Li, M. Caricato, A. V. Marenich, 
 J. Bloino, B. G. Janesko, R. Gomperts, B. Mennucci, H. P. Hratchian, 
 J. V. Ortiz, A. F. Izmaylov, J. L. Sonnenberg, D. Williams-Young, 
 F. Ding, F. Lipparini, F. Egidi, J. Goings, B. Peng, A. Petrone, 
 T. Henderson, D. Ranasinghe, V. G. Zakrzewski, J. Gao, N. Rega, 
 G. Zheng, W. Liang, M. Hada, M. Ehara, K. Toyota, R. Fukuda, 
 J. Hasegawa, M. Ishida, T. Nakajima, Y. Honda, O. Kitao, H. Nakai, 
 T. Vreven, K. Throssell, J. A. Montgomery, Jr., J. E. Peralta, 
 F. Ogliaro, M. J. Bearpark, J. J. Heyd, E. N. Brothers, K. N. Kudin, 
 V. N. Staroverov, T. A. Keith, R. Kobayashi, J. Normand, 
 K. Raghavachari, A. P. Rendell, J. C. Burant, S. S. Iyengar, 
 J. Tomasi, M. Cossi, J. M. Millam, M. Klene, C. Adamo, R. Cammi, 
 J. W. Ochterski, R. L. Martin, K. Morokuma, O. Farkas, 
 J. B. Foresman, and D. J. Fox, Gaussian, Inc., Wallingford CT, 2016.
 
 ******************************************
 Gaussian 16:  ES64L-G16RevB.01 20-Dec-2017
                10-Jul-2023 
 ******************************************
 %nprocshared=4
 Will use up to    4 processors via shared memory.
 %mem=8000mb
 %chk=38.chk
 %mem=8000mb
 ----------------------------------------------------------------------
 #T wB97XD/def2svpp opt=tight freq int(grid=ultrafine) scf=(verytight,q
 c)
 ----------------------------------------------------------------------
 -------
 comment
 -------
 Symbolic Z-matrix:
 Charge =  1 Multiplicity = 2
 C                    -0.11444   0.36486   1.66458 
 C                     0.04964   0.03904   0.19139 
 C                    -0.56511  -1.33133  -0.17504 
 O                    -1.96329  -1.33703  -0.00419 
 C                    -0.54465   1.15499  -0.70979 
 O                    -1.87722   1.41661  -0.40077 
 N                     1.52262  -0.05583  -0.16076 
 O                     2.34139   0.20284   0.68901 
 O                     1.78242  -0.37963  -1.30097 
 H                    -1.18618   0.49417   1.88225 
 H                     0.38959   1.30905   1.91933 
 H                     0.30241  -0.4307    2.3037 
 H                    -0.08117  -2.12918   0.42127 
 H                    -0.376    -1.53895  -1.23762 
 H                    -2.17877  -1.42756   0.93414 
 H                    -0.40376   0.86044  -1.76794 
 H                     0.02011   2.08746  -0.54066 
 H                    -2.36361   0.57843  -0.48068 
 

 GradGradGradGradGradGradGradGradGradGradGradGradGradGradGradGradGradGrad
 Initialization pass.
                           ----------------------------
                           !    Initial Parameters    !
                           ! (Angstroms and Degrees)  !
 --------------------------                            --------------------------
 ! Name  Definition              Value          Derivative Info.                !
 --------------------------------------------------------------------------------
 ! R1    R(1,2)                  1.5177         estimate D2E/DX2                !
 ! R2    R(1,10)                 1.1012         estimate D2E/DX2                !
 ! R3    R(1,11)                 1.1002         estimate D2E/DX2                !
 ! R4    R(1,12)                 1.1023         estimate D2E/DX2                !
 ! R5    R(2,3)                  1.546          estimate D2E/DX2                !
 ! R6    R(2,5)                  1.5526         estimate D2E/DX2                !
 ! R7    R(2,7)                  1.5175         estimate D2E/DX2                !
 ! R8    R(3,4)                  1.4086         estimate D2E/DX2                !
 ! R9    R(3,13)                 1.1074         estimate D2E/DX2                !
 ! R10   R(3,14)                 1.0991         estimate D2E/DX2                !
 ! R11   R(4,15)                 0.967          estimate D2E/DX2                !
 ! R12   R(5,6)                  1.3927         estimate D2E/DX2                !
 ! R13   R(5,16)                 1.1074         estimate D2E/DX2                !
 ! R14   R(5,17)                 1.1032         estimate D2E/DX2                !
 ! R15   R(6,18)                 0.9724         estimate D2E/DX2                !
 ! R16   R(7,8)                  1.2081         estimate D2E/DX2                !
 ! R17   R(7,9)                  1.2134         estimate D2E/DX2                !
 ! A1    A(2,1,10)             108.8009         estimate D2E/DX2                !
 ! A2    A(2,1,11)             111.0672         estimate D2E/DX2                !
 ! A3    A(2,1,12)             111.5289         estimate D2E/DX2                !
 ! A4    A(10,1,11)            107.4163         estimate D2E/DX2                !
 ! A5    A(10,1,12)            109.7657         estimate D2E/DX2                !
 ! A6    A(11,1,12)            108.1726         estimate D2E/DX2                !
 ! A7    A(1,2,3)              112.1711         estimate D2E/DX2                !
 ! A8    A(1,2,5)              111.5754         estimate D2E/DX2                !
 ! A9    A(1,2,7)              110.098          estimate D2E/DX2                !
 ! A10   A(3,2,5)              110.3237         estimate D2E/DX2                !
 ! A11   A(3,2,7)              105.9954         estimate D2E/DX2                !
 ! A12   A(5,2,7)              106.3668         estimate D2E/DX2                !
 ! A13   A(2,3,4)              111.6871         estimate D2E/DX2                !
 ! A14   A(2,3,13)             109.708          estimate D2E/DX2                !
 ! A15   A(2,3,14)             109.1583         estimate D2E/DX2                !
 ! A16   A(4,3,13)             111.4408         estimate D2E/DX2                !
 ! A17   A(4,3,14)             106.6958         estimate D2E/DX2                !
 ! A18   A(13,3,14)            108.0176         estimate D2E/DX2                !
 ! A19   A(3,4,15)             109.8322         estimate D2E/DX2                !
 ! A20   A(2,5,6)              111.8677         estimate D2E/DX2                !
 ! A21   A(2,5,16)             108.3452         estimate D2E/DX2                !
 ! A22   A(2,5,17)             108.8192         estimate D2E/DX2                !
 ! A23   A(6,5,16)             112.5641         estimate D2E/DX2                !
 ! A24   A(6,5,17)             107.2791         estimate D2E/DX2                !
 ! A25   A(16,5,17)            107.8291         estimate D2E/DX2                !
 ! A26   A(5,6,18)             107.3639         estimate D2E/DX2                !
 ! A27   A(2,7,8)              118.7682         estimate D2E/DX2                !
 ! A28   A(2,7,9)              116.2683         estimate D2E/DX2                !
 ! A29   A(8,7,9)              124.9593         estimate D2E/DX2                !
 ! D1    D(10,1,2,3)           -65.9209         estimate D2E/DX2                !
 ! D2    D(10,1,2,5)            58.4435         estimate D2E/DX2                !
 ! D3    D(10,1,2,7)           176.3063         estimate D2E/DX2                !
 ! D4    D(11,1,2,3)           176.0465         estimate D2E/DX2                !
 ! D5    D(11,1,2,5)           -59.5891         estimate D2E/DX2                !
 ! D6    D(11,1,2,7)            58.2738         estimate D2E/DX2                !
 ! D7    D(12,1,2,3)            55.2994         estimate D2E/DX2                !
 ! D8    D(12,1,2,5)           179.6638         estimate D2E/DX2                !
 ! D9    D(12,1,2,7)           -62.4733         estimate D2E/DX2                !
 ! D10   D(1,2,3,4)             65.0026         estimate D2E/DX2                !
 ! D11   D(1,2,3,13)           -59.0752         estimate D2E/DX2                !
 ! D12   D(1,2,3,14)          -177.2568         estimate D2E/DX2                !
 ! D13   D(5,2,3,4)            -60.0536         estimate D2E/DX2                !
 ! D14   D(5,2,3,13)           175.8686         estimate D2E/DX2                !
 ! D15   D(5,2,3,14)            57.6869         estimate D2E/DX2                !
 ! D16   D(7,2,3,4)           -174.8105         estimate D2E/DX2                !
 ! D17   D(7,2,3,13)            61.1117         estimate D2E/DX2                !
 ! D18   D(7,2,3,14)           -57.0699         estimate D2E/DX2                !
 ! D19   D(1,2,5,6)            -54.9108         estimate D2E/DX2                !
 ! D20   D(1,2,5,16)          -179.5697         estimate D2E/DX2                !
 ! D21   D(1,2,5,17)            63.4427         estimate D2E/DX2                !
 ! D22   D(3,2,5,6)             70.4841         estimate D2E/DX2                !
 ! D23   D(3,2,5,16)           -54.1747         estimate D2E/DX2                !
 ! D24   D(3,2,5,17)          -171.1624         estimate D2E/DX2                !
 ! D25   D(7,2,5,6)           -174.994          estimate D2E/DX2                !
 ! D26   D(7,2,5,16)            60.3472         estimate D2E/DX2                !
 ! D27   D(7,2,5,17)           -56.6405         estimate D2E/DX2                !
 ! D28   D(1,2,7,8)             -4.3134         estimate D2E/DX2                !
 ! D29   D(1,2,7,9)            176.3948         estimate D2E/DX2                !
 ! D30   D(3,2,7,8)           -125.8416         estimate D2E/DX2                !
 ! D31   D(3,2,7,9)             54.8665         estimate D2E/DX2                !
 ! D32   D(5,2,7,8)            116.7222         estimate D2E/DX2                !
 ! D33   D(5,2,7,9)            -62.5696         estimate D2E/DX2                !
 ! D34   D(2,3,4,15)           -77.8635         estimate D2E/DX2                !
 ! D35   D(13,3,4,15)           45.2348         estimate D2E/DX2                !
 ! D36   D(14,3,4,15)          162.927          estimate D2E/DX2                !
 ! D37   D(2,5,6,18)           -56.2923         estimate D2E/DX2                !
 ! D38   D(16,5,6,18)           65.9855         estimate D2E/DX2                !
 ! D39   D(17,5,6,18)         -175.5584         estimate D2E/DX2                !
 --------------------------------------------------------------------------------
 Number of steps in this run=     95 maximum allowed number of steps=    108.
 GradGradGradGradGradGradGradGradGradGradGradGradGradGradGradGradGradGrad

                    Distance matrix (angstroms):
                    1          2          3          4          5
     1  C    0.000000
     2  C    1.517686   0.000000
     3  C    2.542514   1.545998   0.000000
     4  O    3.016534   2.446161   1.408590   0.000000
     5  C    2.539103   1.552627   2.543259   2.953060   0.000000
     6  O    2.911922   2.441549   3.053489   2.783385   1.392726
     7  N    2.487728   1.517453   2.446567   3.717189   2.457867
     8  O    2.647467   2.350867   3.398234   4.624065   3.345517
     9  O    3.598167   2.324851   2.772057   4.077808   2.849528
    10  H    1.101240   2.143217   2.819686   2.741506   2.750795
    11  H    1.100198   2.171228   3.502773   4.029601   2.794420
    12  H    1.102337   2.178624   2.776308   3.358749   3.508997
    13  H    2.786961   2.184293   1.107400   2.085870   3.504264
    14  H    3.480760   2.171015   1.099065   2.020296   2.750339
    15  H    2.829804   2.769192   1.960474   0.967002   3.470218
    16  H    3.480162   2.172383   2.714262   3.220529   1.107381
    17  H    2.801530   2.175495   3.487729   3.993590   1.103199
    18  H    3.115534   2.562497   2.641063   2.014025   1.921850
                    6          7          8          9         10
     6  O    0.000000
     7  N    3.712760   0.000000
     8  O    4.523006   1.208063   0.000000
     9  O    4.174904   1.213432   2.147496   0.000000
    10  H    2.557457   3.437140   3.735295   4.439474   0.000000
    11  H    3.245437   2.733748   2.558688   3.893825   1.774387
    12  H    3.934151   2.775426   2.676944   3.897005   1.802477
    13  H    4.058838   2.685084   3.373250   3.082201   3.199605
    14  H    3.418969   2.638942   3.758983   2.450874   3.810978
    15  H    3.156299   4.096428   4.811463   4.667426   2.361612
    16  H    2.085564   2.670861   3.742313   2.556407   3.751023
    17  H    2.017292   2.644905   3.232993   3.125751   3.140727
    18  H    0.972369   3.950615   4.862742   4.333620   2.641376
                   11         12         13         14         15
    11  H    0.000000
    12  H    1.783837   0.000000
    13  H    3.779841   2.564278   0.000000
    14  H    4.320131   3.772191   1.785274   0.000000
    15  H    3.880221   3.004282   2.270512   2.824702   0.000000
    16  H    3.798233   4.329433   3.719477   2.457455   3.960661
    17  H    2.606528   3.809361   4.326150   3.713956   4.400619
    18  H    3.724775   3.984822   3.654335   3.001141   2.461682
                   16         17         18
    16  H    0.000000
    17  H    1.786458   0.000000
    18  H    2.361686   2.821852   0.000000
 Framework group  C1[X(C4H9NO4)]
 Deg. of freedom    48
                         Standard orientation:                         
 ---------------------------------------------------------------------
 Center     Atomic      Atomic             Coordinates (Angstroms)
 Number     Number       Type             X           Y           Z
 ---------------------------------------------------------------------
      1          6           0        0.114437   -0.364855    1.664584
      2          6           0       -0.049641   -0.039042    0.191392
      3          6           0        0.565106    1.331331   -0.175043
      4          8           0        1.963285    1.337032   -0.004194
      5          6           0        0.544652   -1.154991   -0.709788
      6          8           0        1.877224   -1.416612   -0.400768
      7          7           0       -1.522615    0.055828   -0.160759
      8          8           0       -2.341391   -0.202839    0.689013
      9          8           0       -1.782417    0.379632   -1.300966
     10          1           0        1.186179   -0.494172    1.882245
     11          1           0       -0.389592   -1.309046    1.919326
     12          1           0       -0.302412    0.430704    2.303701
     13          1           0        0.081174    2.129179    0.421265
     14          1           0        0.375998    1.538949   -1.237623
     15          1           0        2.178773    1.427561    0.934136
     16          1           0        0.403760   -0.860442   -1.767939
     17          1           0       -0.020107   -2.087456   -0.540663
     18          1           0        2.363607   -0.578431   -0.480683
 ---------------------------------------------------------------------
 Rotational constants (GHZ):           2.3425581           1.2471768           1.1808773
   144 basis functions,   261 primitive gaussians,   153 cartesian basis functions
    36 alpha electrons       35 beta electrons
       nuclear repulsion energy       515.7561472369 Hartrees.
 NAtoms=   18 NActive=   18 NUniq=   18 SFac= 1.00D+00 NAtFMM=   60 NAOKFM=F Big=F
 Nuclear repulsion after empirical dispersion term =      515.7442746779 Hartrees.
   1 Symmetry operations used in ECPInt.
 ECPInt:  NShTT=    2628 NPrTT=   10584 LenC2=    2600 LenP2D=    8234.
 LDataN:  DoStor=T MaxTD1= 4 Len=   56
 ExpMin= 1.22D-01 ExpMax= 2.27D+03 ExpMxC= 3.41D+02 IAcc=3 IRadAn=         5 AccDes= 0.00D+00
 Harris functional with IExCor= 4639 and IRadAn=       5 diagonalized for initial guess.
 HarFok:  IExCor= 4639 AccDes= 0.00D+00 IRadAn=         5 IDoV= 1 UseB2=F ITyADJ=14
 ICtDFT=  3500011 ScaDFX=  1.000000  1.000000  1.000000  1.000000
 FoFCou: FMM=F IPFlag=           0 FMFlag=      100000 FMFlg1=           0
         NFxFlg=           0 DoJE=T BraDBF=F KetDBF=T FulRan=T
         wScrn=  0.000000 ICntrl=       500 IOpCl=  0 I1Cent=   200000004 NGrid=           0
         NMat0=    1 NMatS0=      1 NMatT0=    0 NMatD0=    1 NMtDS0=    0 NMtDT0=    0
 Petite list used in FoFCou.
 Initial guess <Sx>= 0.0000 <Sy>= 0.0000 <Sz>= 0.5000 <S**2>= 0.7500 S= 0.5000
     Accept linear search using points  3 and  4.
     Minimum is close to point  3 DX=  6.94D-02 DF= -2.31D-04 DXR=  9.02D-02 DFR=  8.20D-03 which will be used.
     Accept linear search using points  1 and  2.
     Accept linear search using points  1 and  2.
     Minimum is close to point  4 DX=  2.01D-01 DF= -7.39D-06 DXR=  9.15D-02 DFR=  8.28D-03 which will be used.
     Accept linear search using points  3 and  4.
     Minimum is close to point  4 DX=  1.68D-01 DF= -6.08D-06 DXR=  5.87D-02 DFR=  2.79D-03 which will be used.
     Minimum is close to point  4 DX=  2.53D-01 DF= -1.29D-05 DXR=  7.54D-02 DFR=  4.63D-03 which will be used.
     Minimum is close to point  3 DX=  2.99D-02 DF= -2.24D-05 DXR=  9.07D-02 DFR=  8.29D-03 which will be used.
     Minimum is close to point  5 DX=  1.98D-01 DF= -7.01D-06 DXR=  2.95D-02 DFR=  1.27D-03 which will be used.
     Accept linear search using points  1 and  2.
     Accept linear search using points  1 and  2.
     Accept linear search using points  1 and  2.
     Accept linear search using points  1 and  2.
     Accept linear search using points  1 and  2.
     Minimum is close to point  2 DX= -3.97D-02 DF= -2.61D-07 DXR=  4.13D-02 DFR=  1.71D-03 which will be used.
     Minimum is close to point  2 DX=  3.65D-02 DF= -1.61D-08 DXR=  3.52D-02 DFR=  1.24D-03 which will be used.
 SCF Done:  E(UwB97XD) =  -512.431839273     a.u. after   30 cycles
            Convg  =    0.2847D-08                   221 Fock formations.
              S**2 =  0.7568                  -V/T =  2.0073
 <Sx>= 0.0000 <Sy>= 0.0000 <Sz>= 0.5000 <S**2>= 0.7568 S= 0.5034
 <L.S>=  0.00000000000    
 Annihilation of the first spin contaminant:
 S**2 before annihilation     0.7568,   after     0.7500

 **********************************************************************

            Population analysis using the SCF Density.

 **********************************************************************

 Orbital symmetries:
 Alpha Orbitals:
       Occupied  (A) (A) (A) (A) (A) (A) (A) (A) (A) (A) (A) (A)
                 (A) (A) (A) (A) (A) (A) (A) (A) (A) (A) (A) (A)
                 (A) (A) (A) (A) (A) (A) (A) (A) (A) (A) (A) (A)
       Virtual   (A) (A) (A) (A) (A) (A) (A) (A) (A) (A) (A) (A)
                 (A) (A) (A) (A) (A) (A) (A) (A) (A) (A) (A) (A)
                 (A) (A) (A) (A) (A) (A) (A) (A) (A) (A) (A) (A)
                 (A) (A) (A) (A) (A) (A) (A) (A) (A) (A) (A) (A)
                 (A) (A) (A) (A) (A) (A) (A) (A) (A) (A) (A) (A)
                 (A) (A) (A) (A) (A) (A) (A) (A) (A) (A) (A) (A)
                 (A) (A) (A) (A) (A) (A) (A) (A) (A) (A) (A) (A)
                 (A) (A) (A) (A) (A) (A) (A) (A) (A) (A) (A) (A)
                 (A) (A) (A) (A) (A) (A) (A) (A) (A) (A) (A) (A)
 Beta  Orbitals:
       Occupied  (A) (A) (A) (A) (A) (A) (A) (A) (A) (A) (A) (A)
                 (A) (A) (A) (A) (A) (A) (A) (A) (A) (A) (A) (A)
                 (A) (A) (A) (A) (A) (A) (A) (A) (A) (A) (A)
       Virtual   (A) (A) (A) (A) (A) (A) (A) (A) (A) (A) (A) (A)
                 (A) (A) (A) (A) (A) (A) (A) (A) (A) (A) (A) (A)
                 (A) (A) (A) (A) (A) (A) (A) (A) (A) (A) (A) (A)
                 (A) (A) (A) (A) (A) (A) (A) (A) (A) (A) (A) (A)
                 (A) (A) (A) (A) (A) (A) (A) (A) (A) (A) (A) (A)
                 (A) (A) (A) (A) (A) (A) (A) (A) (A) (A) (A) (A)
                 (A) (A) (A) (A) (A) (A) (A) (A) (A) (A) (A) (A)
                 (A) (A) (A) (A) (A) (A) (A) (A) (A) (A) (A) (A)
                 (A) (A) (A) (A) (A) (A) (A) (A) (A) (A) (A) (A)
                 (A)
 The electronic state is 2-A.
 Alpha  occ. eigenvalues --  -19.60215 -19.49952 -19.49162 -19.48628 -14.87890
 Alpha  occ. eigenvalues --  -10.60735 -10.60325 -10.56522 -10.49318  -1.53555
 Alpha  occ. eigenvalues --   -1.44583  -1.35780  -1.35482  -1.17412  -1.03679
 Alpha  occ. eigenvalues --   -1.00394  -0.99098  -0.91484  -0.86044  -0.85286
 Alpha  occ. eigenvalues --   -0.84093  -0.81882  -0.79783  -0.79369  -0.77919
 Alpha  occ. eigenvalues --   -0.75289  -0.72642  -0.71078  -0.68569  -0.67631
 Alpha  occ. eigenvalues --   -0.65917  -0.63769  -0.60559  -0.58929  -0.58363
 Alpha  occ. eigenvalues --   -0.57728
 Alpha virt. eigenvalues --   -0.18577  -0.08331  -0.03955  -0.02686  -0.01815
 Alpha virt. eigenvalues --    0.00268   0.00322   0.02474   0.03273   0.05398
 Alpha virt. eigenvalues --    0.06143   0.08197   0.08291   0.09664   0.11122
 Alpha virt. eigenvalues --    0.11710   0.21184   0.26759   0.27993   0.30092
 Alpha virt. eigenvalues --    0.31874   0.37303   0.39700   0.40408   0.42858
 Alpha virt. eigenvalues --    0.43395   0.46035   0.46296   0.49033   0.51518
 Alpha virt. eigenvalues --    0.53545   0.53797   0.55556   0.57161   0.57793
 Alpha virt. eigenvalues --    0.60221   0.60758   0.62940   0.63866   0.64892
 Alpha virt. eigenvalues --    0.68124   0.71601   0.72992   0.79836   0.81601
 Alpha virt. eigenvalues --    0.83853   0.84654   0.87035   0.91417   0.93923
 Alpha virt. eigenvalues --    0.95193   0.97096   0.97645   1.01648   1.02263
 Alpha virt. eigenvalues --    1.06106   1.13939   1.15626   1.22246   1.23621
 Alpha virt. eigenvalues --    1.26787   1.34744   1.41801   1.42376   1.48569
 Alpha virt. eigenvalues --    1.54627   1.58881   1.62361   1.65689   1.67914
 Alpha virt. eigenvalues --    1.69071   1.78175   1.83470   1.85735   1.91078
 Alpha virt. eigenvalues --    1.92941   1.96462   1.99389   2.02831   2.03834
 Alpha virt. eigenvalues --    2.08606   2.19851   2.26581   2.30467   2.34350
 Alpha virt. eigenvalues --    2.37501   2.43893   2.44689   2.47668   2.52236
 Alpha virt. eigenvalues --    2.53229   2.55093   2.55473   2.62711   2.64410
 Alpha virt. eigenvalues --    2.66721   2.75142   2.78614   2.86016   2.86332
 Alpha virt. eigenvalues --    2.95944   3.04676   3.17429   3.19789   3.23434
 Alpha virt. eigenvalues --    3.32553   3.63810   3.67130
  Beta  occ. eigenvalues --  -19.58910 -19.49755 -19.48956 -19.48546 -14.87908
  Beta  occ. eigenvalues --  -10.60644 -10.60087 -10.56520 -10.49318  -1.53328
  Beta  occ. eigenvalues --   -1.41448  -1.35396  -1.34985  -1.16519  -1.02470
  Beta  occ. eigenvalues --   -1.00200  -0.98770  -0.90089  -0.85771  -0.83998
  Beta  occ. eigenvalues --   -0.82868  -0.81391  -0.79021  -0.78876  -0.75638
  Beta  occ. eigenvalues --   -0.74488  -0.70754  -0.69140  -0.67539  -0.66717
  Beta  occ. eigenvalues --   -0.63529  -0.59998  -0.58642  -0.56971  -0.56713
  Beta virt. eigenvalues --   -0.40151  -0.18254  -0.07962  -0.03627  -0.02409
  Beta virt. eigenvalues --   -0.01442   0.00477   0.00519   0.02713   0.03636
  Beta virt. eigenvalues --    0.05675   0.06461   0.08362   0.08873   0.09857
  Beta virt. eigenvalues --    0.11438   0.12583   0.21440   0.26989   0.28331
  Beta virt. eigenvalues --    0.30432   0.32045   0.37691   0.39865   0.40527
  Beta virt. eigenvalues --    0.43430   0.43912   0.46502   0.46672   0.49468
  Beta virt. eigenvalues --    0.52160   0.53909   0.54189   0.55775   0.57461
  Beta virt. eigenvalues --    0.58056   0.60372   0.60904   0.63087   0.64053
  Beta virt. eigenvalues --    0.65164   0.68637   0.71760   0.73258   0.80299
  Beta virt. eigenvalues --    0.81849   0.84158   0.85215   0.87524   0.91764
  Beta virt. eigenvalues --    0.95127   0.95730   0.97399   0.98737   1.02131
  Beta virt. eigenvalues --    1.02838   1.06458   1.14233   1.15970   1.22775
  Beta virt. eigenvalues --    1.24147   1.27058   1.35019   1.42168   1.43323
  Beta virt. eigenvalues --    1.48903   1.54838   1.59715   1.62981   1.66107
  Beta virt. eigenvalues --    1.68191   1.69166   1.78397   1.84020   1.86124
  Beta virt. eigenvalues --    1.91313   1.93426   1.96818   1.99504   2.03065
  Beta virt. eigenvalues --    2.04011   2.09053   2.20207   2.27199   2.30686
  Beta virt. eigenvalues --    2.34979   2.40647   2.44876   2.45928   2.48272
  Beta virt. eigenvalues --    2.52608   2.53747   2.55671   2.55927   2.64171
  Beta virt. eigenvalues --    2.65776   2.67109   2.77434   2.81397   2.86695
  Beta virt. eigenvalues --    2.87023   2.96115   3.05046   3.18828   3.20019
  Beta virt. eigenvalues --    3.23696   3.32800   3.64011   3.67366
          Condensed to atoms (all electrons):
          Atomic-Atomic Spin Densities.
 Mulliken charges and spin densities:
               1          2
     1  C   -0.268612   0.007770
     2  C   -0.319545   0.141238
     3  C    0.049212   0.001948
     4  O   -0.449524   0.078098
     5  C    0.041947   0.038431
     6  O   -0.195682   0.536754
     7  N    0.247957  -0.008278
     8  O   -0.130780   0.085581
     9  O   -0.170289   0.033751
    10  H    0.155295  -0.002769
    11  H    0.201902   0.003904
    12  H    0.202642   0.009493
    13  H    0.206493   0.032246
    14  H    0.197207  -0.000400
    15  H    0.370652  -0.002539
    16  H    0.248654   0.061717
    17  H    0.218224  -0.001576
    18  H    0.394250  -0.015368
 Sum of Mulliken charges =   1.00000   1.00000
 Mulliken charges and spin densities with hydrogens summed into heavy atoms:
               1          2
     1  C    0.291227   0.018397
     2  C   -0.319545   0.141238
     3  C    0.452912   0.033795
     4  O   -0.078872   0.075559
     5  C    0.508824   0.098571
     6  O    0.198567   0.521385
     7  N    0.247957  -0.008278
     8  O   -0.130780   0.085581
     9  O   -0.170289   0.033751
 Electronic spatial extent (au):  <R**2>=           1121.2081
 Charge=              1.0000 electrons
 Dipole moment (field-independent basis, Debye):
    X=              4.8502    Y=             -0.4810    Z=              1.0933  Tot=              4.9951
                          Isotropic Fermi Contact Couplings
        Atom                 a.u.       MegaHertz       Gauss      10(-4) cm-1
     1  C(13)             -0.00681      -7.65924      -2.73301      -2.55485
     2  C(13)             -0.00369      -4.14961      -1.48069      -1.38416
     3  C(13)             -0.01113     -12.51689      -4.46634      -4.17519
     4  O(17)              0.03068     -18.59860      -6.63644      -6.20382
     5  C(13)             -0.02603     -29.26059     -10.44090      -9.76028
     6  O(17)              0.19946    -120.91120     -43.14412     -40.33163
     7  N(14)             -0.01598      -5.16341      -1.84243      -1.72233
     8  O(17)              0.02487     -15.07450      -5.37896      -5.02831
     9  O(17)              0.00962      -5.82974      -2.08019      -1.94459
    10  H(1)              -0.00035      -1.56554      -0.55862      -0.52221
    11  H(1)               0.00220       9.81700       3.50295       3.27460
    12  H(1)               0.00425      18.97936       6.77231       6.33083
    13  H(1)               0.01504      67.21854      23.98524      22.42169
    14  H(1)               0.00011       0.49905       0.17807       0.16647
    15  H(1)              -0.00097      -4.35723      -1.55477      -1.45342
    16  H(1)               0.03097     138.42289      49.39273      46.17291
    17  H(1)              -0.00068      -3.03774      -1.08394      -1.01328
    18  H(1)              -0.00671     -29.99924     -10.70447     -10.00667
 --------------------------------------------------------
       Center         ----  Spin Dipole Couplings  ----
                      3XX-RR        3YY-RR        3ZZ-RR
 --------------------------------------------------------
     1   Atom       -0.006568     -0.002327      0.008895
     2   Atom       -0.040913      0.115182     -0.074269
     3   Atom       -0.012762      0.027756     -0.014994
     4   Atom       -0.133582      0.297938     -0.164356
     5   Atom       -0.051315     -0.047669      0.098984
     6   Atom       -0.906213     -0.611207      1.517420
     7   Atom        0.041113     -0.032912     -0.008201
     8   Atom        0.141624     -0.050757     -0.090867
     9   Atom        0.248511     -0.178728     -0.069783
    10   Atom       -0.003801     -0.004919      0.008720
    11   Atom       -0.001109     -0.002035      0.003144
    12   Atom       -0.000834     -0.002483      0.003317
    13   Atom       -0.001867      0.004050     -0.002182
    14   Atom       -0.003298      0.003160      0.000138
    15   Atom       -0.009298     -0.002311      0.011609
    16   Atom       -0.009345     -0.007139      0.016484
    17   Atom        0.004049      0.005501     -0.009550
    18   Atom       -0.017643      0.054542     -0.036898
 --------------------------------------------------------
                        XY            XZ            YZ
 --------------------------------------------------------
     1   Atom        0.004903      0.004506      0.012953
     2   Atom       -0.161062     -0.083035      0.126413
     3   Atom       -0.005276     -0.002343      0.016530
     4   Atom       -0.120600     -0.008186      0.040896
     5   Atom       -0.034228     -0.048503      0.102354
     6   Atom       -0.270228     -0.643662      1.120429
     7   Atom        0.004716      0.008116     -0.009280
     8   Atom        0.190916      0.161722      0.121330
     9   Atom        0.067943      0.058618     -0.007060
    10   Atom       -0.002804     -0.001273      0.004102
    11   Atom        0.000563     -0.004579     -0.004519
    12   Atom       -0.002292     -0.002295      0.002608
    13   Atom       -0.004248     -0.003677      0.004857
    14   Atom       -0.001102      0.000802     -0.003858
    15   Atom        0.000875      0.007354      0.003895
    16   Atom       -0.005831      0.011626     -0.017820
    17   Atom        0.012631     -0.002405     -0.000936
    18   Atom        0.072034     -0.023874     -0.013727
 --------------------------------------------------------


 ---------------------------------------------------------------------------------
              Anisotropic Spin Dipole Couplings in Principal Axis System
 ---------------------------------------------------------------------------------

       Atom             a.u.   MegaHertz   Gauss  10(-4) cm-1        Axes

              Baa    -0.0116    -1.553    -0.554    -0.518 -0.4129  0.8079 -0.4204
     1 C(13)  Bbb    -0.0075    -1.001    -0.357    -0.334  0.8771  0.2284 -0.4225
              Bcc     0.0190     2.554     0.911     0.852  0.2453  0.5432  0.8030
 
              Baa    -0.1436   -19.275    -6.878    -6.430  0.8318  0.2849  0.4764
     2 C(13)  Bbb    -0.1369   -18.372    -6.556    -6.128 -0.2589 -0.5600  0.7870
              Bcc     0.2806    37.648    13.434    12.558 -0.4910  0.7779  0.3921
 
              Baa    -0.0207    -2.775    -0.990    -0.925  0.0699 -0.3154  0.9464
     3 C(13)  Bbb    -0.0134    -1.802    -0.643    -0.601  0.9901  0.1377 -0.0272
              Bcc     0.0341     4.577     1.633     1.527 -0.1218  0.9389  0.3219
 
              Baa    -0.1692    12.243     4.368     4.084 -0.4593 -0.1945  0.8667
     4 O(17)  Bbb    -0.1636    11.842     4.225     3.950  0.8521  0.1791  0.4917
              Bcc     0.3328   -24.084    -8.594    -8.034 -0.2508  0.9644  0.0835
 
              Baa    -0.1021   -13.701    -4.889    -4.570  0.2173  0.8901 -0.4007
     5 C(13)  Bbb    -0.0653    -8.761    -3.126    -2.922  0.9409 -0.0817  0.3287
              Bcc     0.1674    22.462     8.015     7.492 -0.2598  0.4484  0.8552
 
              Baa    -1.0933    79.112    28.229    26.389 -0.1871  0.8852 -0.4260
     6 O(17)  Bbb    -1.0642    77.004    27.477    25.686  0.9569  0.2623  0.1247
              Bcc     2.1575  -156.116   -55.706   -52.075 -0.2222  0.3843  0.8961
 
              Baa    -0.0367    -1.414    -0.504    -0.472 -0.0916  0.9387  0.3323
     7 N(14)  Bbb    -0.0059    -0.227    -0.081    -0.076 -0.1265 -0.3419  0.9312
              Bcc     0.0426     1.641     0.586     0.547  0.9877  0.0433  0.1500
 
              Baa    -0.1938    14.022     5.004     4.677  0.0021 -0.6485  0.7612
     8 O(17)  Bbb    -0.1573    11.381     4.061     3.796  0.6419 -0.5828 -0.4984
              Bcc     0.3511   -25.403    -9.064    -8.474  0.7668  0.4896  0.4150
 
              Baa    -0.1915    13.857     4.944     4.622 -0.1691  0.9759  0.1380
     9 O(17)  Bbb    -0.0771     5.580     1.991     1.861 -0.1418 -0.1627  0.9764
              Bcc     0.2686   -19.437    -6.936    -6.484  0.9753  0.1455  0.1659
 
              Baa    -0.0076    -4.062    -1.449    -1.355  0.5488  0.8199 -0.1631
    10 H(1)   Bbb    -0.0025    -1.352    -0.482    -0.451  0.8235 -0.4967  0.2742
              Bcc     0.0101     5.413     1.932     1.806 -0.1438  0.2848  0.9477
 
              Baa    -0.0057    -3.055    -1.090    -1.019  0.5014  0.6384  0.5840
    11 H(1)   Bbb    -0.0021    -1.126    -0.402    -0.376  0.7461 -0.6608  0.0819
              Bcc     0.0078     4.182     1.492     1.395 -0.4382 -0.3947  0.8076
 
              Baa    -0.0042    -2.252    -0.803    -0.751  0.4812  0.8633 -0.1521
    12 H(1)   Bbb    -0.0015    -0.790    -0.282    -0.264  0.7681 -0.3317  0.5477
              Bcc     0.0057     3.042     1.085     1.015 -0.4224  0.3804  0.8227
 
              Baa    -0.0058    -3.084    -1.101    -1.029  0.5998 -0.1308  0.7894
    13 H(1)   Bbb    -0.0036    -1.933    -0.690    -0.645  0.6678  0.6253 -0.4037
              Bcc     0.0094     5.017     1.790     1.674 -0.4408  0.7693  0.4624
 
              Baa    -0.0035    -1.867    -0.666    -0.623  0.9886  0.0969 -0.1153
    14 H(1)   Bbb    -0.0025    -1.330    -0.475    -0.444  0.0401  0.5686  0.8217
              Bcc     0.0060     3.197     1.141     1.066 -0.1451  0.8169 -0.5582
 
              Baa    -0.0116    -6.210    -2.216    -2.072  0.9508  0.0391 -0.3073
    15 H(1)   Bbb    -0.0032    -1.718    -0.613    -0.573 -0.1058  0.9734 -0.2032
              Bcc     0.0149     7.928     2.829     2.644  0.2912  0.2257  0.9297
 
              Baa    -0.0167    -8.934    -3.188    -2.980 -0.1043  0.8608  0.4981
    16 H(1)   Bbb    -0.0136    -7.240    -2.583    -2.415  0.9445  0.2426 -0.2215
              Bcc     0.0303    16.174     5.771     5.395  0.3115 -0.4474  0.8383
 
              Baa    -0.0103    -5.474    -1.953    -1.826  0.3575 -0.2327  0.9045
    17 H(1)   Bbb    -0.0074    -3.931    -1.403    -1.311 -0.6330  0.6517  0.4179
              Bcc     0.0176     9.405     3.356     3.137  0.6867  0.7219 -0.0856
 
              Baa    -0.0683   -36.431   -12.999   -12.152  0.8009 -0.4223  0.4246
    18 H(1)   Bbb    -0.0350   -18.652    -6.656    -6.222 -0.2804  0.3620  0.8890
              Bcc     0.1032    55.083    19.655    18.374  0.5291  0.8310 -0.1715
 

 ---------------------------------------------------------------------------------

   1 Symmetry operations used in ECPInt.
 ECPInt:  NShTT=    2628 NPrTT=   10584 LenC2=    2600 LenP2D=    8234.
 LDataN:  DoStor=T MaxTD1= 5 Len=  102
 Calling FoFJK, ICntrl=      2127 FMM=F ISym2X=0 I1Cent= 0 IOpClX= 1 NMat=1 NMatS=1 NMatT=0.

 GradGradGradGradGradGradGradGradGradGradGradGradGradGradGradGradGradGrad
 FormGI is forming the generalized inverse of G from B-inverse, IUseBI=4.
 Internal  Forces:  Max     0.025631532 RMS     0.006961352
 Step number   1 out of a maximum of   95
 All quantities printed in internal units (Hartrees-Bohrs-Radians)
 Mixed Optimization -- RFO/linear search
 Second derivative matrix not updated -- first step.
 ITU=  0
     Eigenvalues ---    0.00230   0.00230   0.00230   0.00231   0.00532
     Eigenvalues ---    0.01578   0.01788   0.04136   0.04848   0.04888
     Eigenvalues ---    0.05345   0.05581   0.05820   0.05874   0.05948
     Eigenvalues ---    0.06033   0.11563   0.11588   0.13928   0.13952
     Eigenvalues ---    0.14984   0.15276   0.16000   0.16000   0.16000
     Eigenvalues ---    0.16000   0.16000   0.22052   0.22057   0.25000
     Eigenvalues ---    0.25000   0.27429   0.27994   0.30591   0.30613
     Eigenvalues ---    0.32877   0.32879   0.33331   0.33425   0.33545
     Eigenvalues ---    0.33660   0.33786   0.44226   0.46847   0.52896
     Eigenvalues ---    0.53994   0.98353   1.00874
 Linear search not attempted -- first point.
 Iteration  1 RMS(Cart)=  0.12122532 RMS(Int)=  0.00658971
 Iteration  2 RMS(Cart)=  0.00909237 RMS(Int)=  0.00136259
 Iteration  3 RMS(Cart)=  0.00004098 RMS(Int)=  0.00136245
 Iteration  4 RMS(Cart)=  0.00000013 RMS(Int)=  0.00136245
 Variable       Old X    -DE/DX   Delta X   Delta X   Delta X     New X
                                 (Linear)    (Quad)   (Total)
    R1        2.86801   0.00231   0.00000   0.00703   0.00703   2.87504
    R2        2.08104   0.00037   0.00000   0.00103   0.00103   2.08207
    R3        2.07907   0.00115   0.00000   0.00320   0.00320   2.08227
    R4        2.08312  -0.00069   0.00000  -0.00193  -0.00193   2.08119
    R5        2.92151  -0.00543   0.00000  -0.01795  -0.01795   2.90357
    R6        2.93404   0.01501   0.00000   0.05054   0.05054   2.98458
    R7        2.86757   0.00651   0.00000   0.01981   0.01981   2.88738
    R8        2.66185  -0.00372   0.00000  -0.00801  -0.00801   2.65384
    R9        2.09268   0.00078   0.00000   0.00222   0.00222   2.09490
   R10        2.07693   0.00064   0.00000   0.00177   0.00177   2.07870
   R11        1.82737   0.00555   0.00000   0.00987   0.00987   1.83724
   R12        2.63187  -0.02523   0.00000  -0.05137  -0.05137   2.58050
   R13        2.09265   0.00616   0.00000   0.01753   0.01753   2.11018
   R14        2.08474  -0.00128   0.00000  -0.00360  -0.00360   2.08114
   R15        1.83751   0.02563   0.00000   0.04647   0.04647   1.88398
   R16        2.28291  -0.01085   0.00000  -0.01052  -0.01052   2.27239
   R17        2.29305  -0.00632   0.00000  -0.00628  -0.00628   2.28678
    A1        1.89893   0.00446   0.00000   0.02809   0.02797   1.92691
    A2        1.93849   0.00166   0.00000   0.00977   0.00955   1.94804
    A3        1.94655  -0.00363   0.00000  -0.02436  -0.02428   1.92227
    A4        1.87477  -0.00142   0.00000   0.00123   0.00083   1.87559
    A5        1.91577  -0.00086   0.00000  -0.00634  -0.00615   1.90962
    A6        1.88797  -0.00019   0.00000  -0.00787  -0.00791   1.88006
    A7        1.95776   0.00224   0.00000   0.02805   0.02665   1.98440
    A8        1.94736   0.00564   0.00000   0.01946   0.01991   1.96727
    A9        1.92157  -0.00141   0.00000   0.02171   0.02030   1.94187
   A10        1.92551  -0.01009   0.00000  -0.08455  -0.08376   1.84175
   A11        1.84997   0.00686   0.00000   0.05285   0.05005   1.90002
   A12        1.85645  -0.00351   0.00000  -0.03899  -0.03805   1.81840
   A13        1.94931  -0.01386   0.00000  -0.06008  -0.06017   1.88914
   A14        1.91477   0.00109   0.00000  -0.00350  -0.00360   1.91116
   A15        1.90517   0.00418   0.00000   0.01996   0.02009   1.92526
   A16        1.94501   0.00619   0.00000   0.02428   0.02362   1.96863
   A17        1.86219   0.00388   0.00000   0.01497   0.01508   1.87728
   A18        1.88526  -0.00100   0.00000   0.00725   0.00699   1.89225
   A19        1.91693   0.00632   0.00000   0.03459   0.03459   1.95153
   A20        1.95246  -0.01783   0.00000  -0.08565  -0.08837   1.86409
   A21        1.89098   0.00007   0.00000  -0.03179  -0.03701   1.85397
   A22        1.89925   0.00592   0.00000   0.05075   0.05198   1.95124
   A23        1.96461   0.00148   0.00000  -0.04491  -0.05150   1.91311
   A24        1.87237   0.00874   0.00000   0.06696   0.06868   1.94105
   A25        1.88197   0.00262   0.00000   0.05440   0.05500   1.93697
   A26        1.87385   0.00775   0.00000   0.04246   0.04246   1.91631
   A27        2.07290  -0.01088   0.00000  -0.03953  -0.04125   2.03165
   A28        2.02927  -0.00819   0.00000  -0.02968  -0.03139   1.99787
   A29        2.18095   0.01909   0.00000   0.07039   0.06867   2.24962
    D1       -1.15054   0.00654   0.00000   0.07789   0.07786  -1.07267
    D2        1.02003  -0.00076   0.00000   0.00249   0.00242   1.02245
    D3        3.07713  -0.00251   0.00000  -0.01993  -0.01936   3.05776
    D4        3.07259   0.00455   0.00000   0.05327   0.05298   3.12558
    D5       -1.04003  -0.00275   0.00000  -0.02213  -0.02246  -1.06248
    D6        1.01707  -0.00450   0.00000  -0.04456  -0.04424   0.97283
    D7        0.96516   0.00613   0.00000   0.07320   0.07295   1.03811
    D8        3.13573  -0.00117   0.00000  -0.00220  -0.00249   3.13324
    D9       -1.09036  -0.00293   0.00000  -0.02463  -0.02427  -1.11464
   D10        1.13451  -0.00059   0.00000  -0.02271  -0.02300   1.11151
   D11       -1.03106   0.00040   0.00000  -0.00923  -0.00994  -1.04099
   D12       -3.09372  -0.00150   0.00000  -0.02779  -0.02840  -3.12211
   D13       -1.04813  -0.00197   0.00000  -0.00483  -0.00509  -1.05323
   D14        3.06949  -0.00099   0.00000   0.00866   0.00797   3.07746
   D15        1.00683  -0.00289   0.00000  -0.00991  -0.01049   0.99634
   D16       -3.05102   0.00335   0.00000   0.05347   0.05476  -2.99626
   D17        1.06660   0.00433   0.00000   0.06695   0.06782   1.13442
   D18       -0.99606   0.00243   0.00000   0.04838   0.04936  -0.94670
   D19       -0.95837  -0.00754   0.00000  -0.17096  -0.16925  -1.12762
   D20       -3.13408   0.00266   0.00000  -0.03264  -0.03454   3.11457
   D21        1.10728  -0.00372   0.00000  -0.10749  -0.10801   0.99928
   D22        1.23018  -0.00802   0.00000  -0.18336  -0.18231   1.04787
   D23       -0.94553   0.00218   0.00000  -0.04504  -0.04760  -0.99313
   D24       -2.98735  -0.00421   0.00000  -0.11989  -0.12107  -3.10842
   D25       -3.05422  -0.00683   0.00000  -0.18398  -0.18090   3.04806
   D26        1.05326   0.00337   0.00000  -0.04566  -0.04619   1.00707
   D27       -0.98856  -0.00301   0.00000  -0.12051  -0.11966  -1.10822
   D28       -0.07528   0.00268   0.00000   0.10033   0.10075   0.02546
   D29        3.07867   0.00018   0.00000   0.00009   0.00061   3.07928
   D30       -2.19635  -0.00338   0.00000   0.02241   0.02159  -2.17476
   D31        0.95760  -0.00587   0.00000  -0.07783  -0.07855   0.87906
   D32        2.03719   0.00656   0.00000   0.11245   0.11269   2.14988
   D33       -1.09205   0.00406   0.00000   0.01221   0.01256  -1.07949
   D34       -1.35897  -0.00057   0.00000  -0.03803  -0.03786  -1.39683
   D35        0.78950  -0.00473   0.00000  -0.06857  -0.06897   0.72053
   D36        2.84361  -0.00023   0.00000  -0.03762  -0.03739   2.80622
   D37       -0.98249   0.00119   0.00000  -0.02576  -0.02873  -1.01122
   D38        1.15167  -0.01091   0.00000  -0.16430  -0.16144   0.99022
   D39       -3.06407  -0.00123   0.00000  -0.08057  -0.08046   3.13866
         Item               Value     Threshold  Converged?
 Maximum Force            0.025632     0.000015     NO 
 RMS     Force            0.006961     0.000010     NO 
 Maximum Displacement     0.588278     0.000060     NO 
 RMS     Displacement     0.122963     0.000040     NO 
 GradGradGradGradGradGradGradGradGradGradGradGradGradGradGradGradGradGrad

                    Distance matrix (angstroms):
                    1          2          3          4          5
     1  C    0.000000
     2  C    1.521405   0.000000
     3  C    2.560190   1.536500   0.000000
     4  O    2.961014   2.384066   1.404350   0.000000
     5  C    2.581650   1.579374   2.480783   2.800066   0.000000
     6  O    2.944008   2.367731   2.767252   2.350655   1.365542
     7  N    2.516974   1.527935   2.492682   3.713085   2.451907
     8  O    2.636698   2.326961   3.406409   4.581940   3.363187
     9  O    3.605768   2.308828   2.768485   4.039784   2.793684
    10  H    1.101783   2.167348   2.832561   2.674957   2.819175
    11  H    1.101890   2.182629   3.519555   3.956611   2.855955
    12  H    1.101317   2.163630   2.812809   3.362421   3.536481
    13  H    2.811042   2.174171   1.108574   2.099385   3.465141
    14  H    3.504073   2.178094   1.100000   2.028382   2.674746
    15  H    2.805609   2.745038   1.982964   0.972227   3.379781
    16  H    3.503178   2.174135   2.628646   3.106766   1.116659
    17  H    2.845625   2.235847   3.467162   3.819524   1.101292
    18  H    3.223967   2.514934   2.309665   1.571831   1.944427
                    6          7          8          9         10
     6  O    0.000000
     7  N    3.643517   0.000000
     8  O    4.508072   1.202495   0.000000
     9  O    4.015793   1.210109   2.176621   0.000000
    10  H    2.638818   3.474778   3.728694   4.451965   0.000000
    11  H    3.376003   2.755311   2.563770   3.908252   1.776726
    12  H    3.925906   2.797285   2.639584   3.900792   1.798182
    13  H    3.799041   2.769132   3.415141   3.119942   3.194646
    14  H    3.097948   2.688988   3.782510   2.455978   3.832928
    15  H    2.831877   4.134919   4.807421   4.667619   2.299988
    16  H    2.033549   2.603956   3.704526   2.423367   3.820207
    17  H    2.041054   2.733275   3.369481   3.188995   3.160626
    18  H    0.996961   3.855929   4.814682   4.106799   2.862108
                   11         12         13         14         15
    11  H    0.000000
    12  H    1.779258   0.000000
    13  H    3.816054   2.611553   0.000000
    14  H    4.343820   3.807994   1.791502   0.000000
    15  H    3.841504   3.045180   2.300283   2.846368   0.000000
    16  H    3.839020   4.323756   3.638745   2.339722   3.898696
    17  H    2.678569   3.861195   4.350945   3.696332   4.276263
    18  H    3.912377   4.030011   3.336305   2.581562   2.210287
                   16         17         18
    16  H    0.000000
    17  H    1.827674   0.000000
    18  H    2.285196   2.877012   0.000000
 Framework group  C1[X(C4H9NO4)]
 Deg. of freedom    48
                         Standard orientation:                         
 ---------------------------------------------------------------------
 Center     Atomic      Atomic             Coordinates (Angstroms)
 Number     Number       Type             X           Y           Z
 ---------------------------------------------------------------------
      1          6           0        0.033376    1.707743    0.384968
      2          6           0       -0.084193    0.230995    0.038462
      3          6           0        0.630722   -0.156223   -1.265299
      4          8           0        2.006325    0.070404   -1.096314
      5          6           0        0.528629   -0.707271    1.151353
      6          8           0        1.868692   -0.447932    1.192346
      7          7           0       -1.546655   -0.201997   -0.052700
      8          8           0       -2.370411    0.655432    0.126837
      9          8           0       -1.708655   -1.352067   -0.392496
     10          1           0        1.089601    1.985050    0.531304
     11          1           0       -0.504203    1.950305    1.315738
     12          1           0       -0.398029    2.321844   -0.421054
     13          1           0        0.200791    0.420820   -2.108576
     14          1           0        0.493864   -1.227925   -1.472000
     15          1           0        2.234316    1.008850   -1.208410
     16          1           0        0.360064   -1.754947    0.803663
     17          1           0        0.059633   -0.537380    2.133199
     18          1           0        2.271731   -0.610804    0.295149
 ---------------------------------------------------------------------
 Rotational constants (GHZ):           2.5418923           1.2392079           1.2261553
   144 basis functions,   261 primitive gaussians,   153 cartesian basis functions
    36 alpha electrons       35 beta electrons
       nuclear repulsion energy       521.7938618520 Hartrees.
 NAtoms=   18 NActive=   18 NUniq=   18 SFac= 1.00D+00 NAtFMM=   60 NAOKFM=F Big=F
 Nuclear repulsion after empirical dispersion term =      521.7821558986 Hartrees.
   1 Symmetry operations used in ECPInt.
 ECPInt:  NShTT=    2628 NPrTT=   10584 LenC2=    2600 LenP2D=    8260.
 LDataN:  DoStor=T MaxTD1= 4 Len=   56
 Initial guess from the checkpoint file:  "38.chk"
 B after Tr=     0.000000    0.000000    0.000000
         Rot=    0.713898    0.700104    0.014276   -0.000612 Ang=  88.89 deg.
 Initial guess <Sx>= 0.0000 <Sy>= 0.0000 <Sz>= 0.5000 <S**2>= 0.7568 S= 0.5034
 ExpMin= 1.22D-01 ExpMax= 2.27D+03 ExpMxC= 3.41D+02 IAcc=3 IRadAn=         5 AccDes= 0.00D+00
 Harris functional with IExCor= 4639 and IRadAn=       5 diagonalized for initial guess.
 HarFok:  IExCor= 4639 AccDes= 0.00D+00 IRadAn=         5 IDoV= 1 UseB2=F ITyADJ=14
 ICtDFT=  3500011 ScaDFX=  1.000000  1.000000  1.000000  1.000000
 FoFCou: FMM=F IPFlag=           0 FMFlag=      100000 FMFlg1=           0
         NFxFlg=           0 DoJE=T BraDBF=F KetDBF=T FulRan=T
         wScrn=  0.000000 ICntrl=       500 IOpCl=  0 I1Cent=   200000004 NGrid=           0
         NMat0=    1 NMatS0=      1 NMatT0=    0 NMatD0=    1 NMtDS0=    0 NMtDT0=    0
 Petite list used in FoFCou.
     Minimum is close to point  4 DX=  6.41D-04 DF= -7.67D-09 DXR=  5.34D-04 DFR=  2.85D-07 which will be used.
     Accept linear search using points  1 and  2.
     Minimum is close to point  2 DX= -7.01D-03 DF= -1.30D-07 DXR=  7.06D-03 DFR=  4.98D-05 which will be used.
     Accept linear search using points  1 and  2.
     Accept linear search using points  1 and  2.
     Accept linear search using points  1 and  2.
     Accept linear search using points  2 and  3.
     Accept linear search using points  1 and  2.
     Accept linear search using points  1 and  2.
     Minimum is close to point  2 DX= -2.39D-02 DF= -3.84D-07 DXR=  2.45D-02 DFR=  6.12D-04 which will be used.
     Minimum is close to point  2 DX=  1.57D-03 DF= -8.07D-12 DXR=  1.56D-03 DFR=  2.45D-06 which will be used.
 SCF Done:  E(UwB97XD) =  -512.440815047     a.u. after   14 cycles
            Convg  =    0.8876D-08                    86 Fock formations.
              S**2 =  0.7559                  -V/T =  2.0072
 <Sx>= 0.0000 <Sy>= 0.0000 <Sz>= 0.5000 <S**2>= 0.7559 S= 0.5029
 <L.S>=  0.00000000000    
 Annihilation of the first spin contaminant:
 S**2 before annihilation     0.7559,   after     0.7500
   1 Symmetry operations used in ECPInt.
 ECPInt:  NShTT=    2628 NPrTT=   10584 LenC2=    2600 LenP2D=    8260.
 LDataN:  DoStor=T MaxTD1= 5 Len=  102
 Calling FoFJK, ICntrl=      2127 FMM=F ISym2X=0 I1Cent= 0 IOpClX= 1 NMat=1 NMatS=1 NMatT=0.

 GradGradGradGradGradGradGradGradGradGradGradGradGradGradGradGradGradGrad
 Using GEDIIS/GDIIS optimizer.
 FormGI is forming the generalized inverse of G from B-inverse, IUseBI=4.
 Internal  Forces:  Max     0.028842318 RMS     0.007464504
 Step number   2 out of a maximum of   95
 All quantities printed in internal units (Hartrees-Bohrs-Radians)
 Mixed Optimization -- RFO/linear search
 Trust test= 6.15D-01 RLast= 5.49D-01 DXMaxT set to 5.05D-01
 ITU=  1  0
 Use linear search instead of GDIIS.
     Eigenvalues ---    0.00229   0.00230   0.00259   0.00326   0.00533
     Eigenvalues ---    0.01567   0.01779   0.04442   0.04645   0.05195
     Eigenvalues ---    0.05532   0.05641   0.05717   0.05811   0.06465
     Eigenvalues ---    0.07040   0.10673   0.11278   0.13375   0.13669
     Eigenvalues ---    0.14483   0.15156   0.15942   0.16000   0.16000
     Eigenvalues ---    0.16000   0.16344   0.21700   0.22831   0.24893
     Eigenvalues ---    0.25057   0.27673   0.30437   0.30534   0.32699
     Eigenvalues ---    0.32875   0.33326   0.33422   0.33545   0.33655
     Eigenvalues ---    0.33783   0.41571   0.44403   0.46612   0.51323
     Eigenvalues ---    0.53978   0.98128   1.00379
 Quartic linear search produced a step of -0.22632.
 Iteration  1 RMS(Cart)=  0.10109626 RMS(Int)=  0.00414569
 Iteration  2 RMS(Cart)=  0.00478556 RMS(Int)=  0.00070412
 Iteration  3 RMS(Cart)=  0.00001830 RMS(Int)=  0.00070392
 Iteration  4 RMS(Cart)=  0.00000000 RMS(Int)=  0.00070392
 Variable       Old X    -DE/DX   Delta X   Delta X   Delta X     New X
                                 (Linear)    (Quad)   (Total)
    R1        2.87504  -0.00435  -0.00159  -0.00470  -0.00629   2.86874
    R2        2.08207  -0.00030  -0.00023   0.00011  -0.00012   2.08195
    R3        2.08227  -0.00051  -0.00072   0.00125   0.00053   2.08280
    R4        2.08119   0.00059   0.00044  -0.00017   0.00027   2.08146
    R5        2.90357   0.01633   0.00406   0.02698   0.03104   2.93460
    R6        2.98458   0.02697  -0.01144   0.10392   0.09248   3.07706
    R7        2.88738   0.00685  -0.00448   0.02968   0.02519   2.91257
    R8        2.65384   0.00368   0.00181   0.00010   0.00192   2.65575
    R9        2.09490  -0.00142  -0.00050  -0.00138  -0.00188   2.09302
   R10        2.07870  -0.00056  -0.00040   0.00013  -0.00027   2.07842
   R11        1.83724   0.00134  -0.00223   0.00873   0.00649   1.84374
   R12        2.58050  -0.00178   0.01163  -0.03912  -0.02750   2.55301
   R13        2.11018  -0.00276  -0.00397   0.00682   0.00285   2.11303
   R14        2.08114  -0.00041   0.00082  -0.00344  -0.00262   2.07852
   R15        1.88398   0.01192  -0.01052   0.04866   0.03814   1.92213
   R16        2.27239  -0.00712   0.00238  -0.01235  -0.00997   2.26242
   R17        2.28678  -0.00469   0.00142  -0.00776  -0.00634   2.28043
    A1        1.92691   0.00121  -0.00633   0.02824   0.02190   1.94881
    A2        1.94804  -0.00093  -0.00216   0.00294   0.00068   1.94872
    A3        1.92227  -0.00077   0.00549  -0.02339  -0.01791   1.90436
    A4        1.87559   0.00031  -0.00019   0.00545   0.00518   1.88078
    A5        1.90962  -0.00001   0.00139  -0.00401  -0.00255   1.90708
    A6        1.88006   0.00020   0.00179  -0.00956  -0.00789   1.87218
    A7        1.98440  -0.00096  -0.00603   0.03546   0.02933   2.01373
    A8        1.96727  -0.00622  -0.00451  -0.00163  -0.00780   1.95947
    A9        1.94187   0.00491  -0.00459   0.00837   0.00343   1.94531
   A10        1.84175   0.01414   0.01896   0.02512   0.04319   1.88495
   A11        1.90002  -0.00741  -0.01133  -0.00603  -0.01594   1.88408
   A12        1.81840  -0.00458   0.00861  -0.06963  -0.06101   1.75738
   A13        1.88914   0.02884   0.01362   0.04956   0.06284   1.95198
   A14        1.91116  -0.00657   0.00082  -0.02665  -0.02528   1.88588
   A15        1.92526  -0.00471  -0.00455   0.01206   0.00662   1.93188
   A16        1.96863  -0.01260  -0.00534  -0.03403  -0.03877   1.92986
   A17        1.87728  -0.00744  -0.00341   0.00633   0.00163   1.87890
   A18        1.89225   0.00229  -0.00158  -0.00607  -0.00773   1.88452
   A19        1.95153   0.00584  -0.00783   0.05006   0.04223   1.99376
   A20        1.86409   0.02540   0.02000   0.01276   0.03358   1.89767
   A21        1.85397  -0.00763   0.00838  -0.04374  -0.03425   1.81971
   A22        1.95124  -0.00902  -0.01176  -0.00739  -0.01938   1.93186
   A23        1.91311   0.00050   0.01166  -0.00194   0.01158   1.92470
   A24        1.94105  -0.01336  -0.01554  -0.01614  -0.03187   1.90919
   A25        1.93697   0.00519  -0.01245   0.05377   0.04099   1.97796
   A26        1.91631   0.01066  -0.00961   0.07592   0.06631   1.98262
   A27        2.03165   0.00317   0.00933  -0.01775  -0.01078   2.02087
   A28        1.99787   0.00462   0.00710  -0.00663  -0.00189   1.99599
   A29        2.24962  -0.00727  -0.01554   0.03381   0.01590   2.26552
    D1       -1.07267  -0.00650  -0.01762   0.01414  -0.00309  -1.07576
    D2        1.02245   0.00676  -0.00055   0.07217   0.07161   1.09406
    D3        3.05776   0.00023   0.00438  -0.01116  -0.00705   3.05071
    D4        3.12558  -0.00709  -0.01199  -0.01341  -0.02504   3.10054
    D5       -1.06248   0.00617   0.00508   0.04461   0.04966  -1.01283
    D6        0.97283  -0.00036   0.01001  -0.03872  -0.02901   0.94382
    D7        1.03811  -0.00623  -0.01651   0.01222  -0.00398   1.03413
    D8        3.13324   0.00703   0.00056   0.07024   0.07071  -3.07924
    D9       -1.11464   0.00050   0.00549  -0.01309  -0.00795  -1.12259
   D10        1.11151  -0.00254   0.00521  -0.04873  -0.04325   1.06826
   D11       -1.04099  -0.00137   0.00225  -0.02181  -0.01874  -1.05973
   D12       -3.12211   0.00279   0.00643  -0.00516   0.00225  -3.11986
   D13       -1.05323  -0.00423   0.00115  -0.08708  -0.08677  -1.13999
   D14        3.07746  -0.00305  -0.00180  -0.06017  -0.06226   3.01520
   D15        0.99634   0.00110   0.00237  -0.04351  -0.04127   0.95507
   D16       -2.99626  -0.00252  -0.01239  -0.01694  -0.03002  -3.02628
   D17        1.13442  -0.00135  -0.01535   0.00998  -0.00551   1.12891
   D18       -0.94670   0.00281  -0.01117   0.02663   0.01547  -0.93122
   D19       -1.12762   0.00470   0.03830  -0.10805  -0.06989  -1.19751
   D20        3.11457  -0.00435   0.00782  -0.09066  -0.08191   3.03265
   D21        0.99928  -0.00053   0.02444  -0.12403  -0.09926   0.90002
   D22        1.04787   0.00950   0.04126  -0.04706  -0.00581   1.04206
   D23       -0.99313   0.00046   0.01077  -0.02967  -0.01783  -1.01096
   D24       -3.10842   0.00427   0.02740  -0.06305  -0.03518   3.13958
   D25        3.04806   0.00504   0.04094  -0.07292  -0.03338   3.01469
   D26        1.00707  -0.00400   0.01045  -0.05554  -0.04540   0.96167
   D27       -1.10822  -0.00019   0.02708  -0.08891  -0.06275  -1.17097
   D28        0.02546  -0.00064  -0.02280   0.03877   0.01584   0.04131
   D29        3.07928   0.00462  -0.00014   0.14286   0.14252  -3.06138
   D30       -2.17476   0.00254  -0.00489  -0.00829  -0.01256  -2.18733
   D31        0.87906   0.00780   0.01778   0.09579   0.11412   0.99317
   D32        2.14988  -0.00828  -0.02550  -0.00142  -0.02731   2.12257
   D33       -1.07949  -0.00302  -0.00284   0.10267   0.09937  -0.98012
   D34       -1.39683  -0.00037   0.00857  -0.05763  -0.04858  -1.44541
   D35        0.72053   0.00324   0.01561  -0.07873  -0.06341   0.65712
   D36        2.80622  -0.00642   0.00846  -0.10253  -0.09426   2.71196
   D37       -1.01122  -0.00355   0.00650  -0.10512  -0.09816  -1.10938
   D38        0.99022   0.00124   0.03654  -0.15056  -0.11449   0.87573
   D39        3.13866  -0.00089   0.01821  -0.09460  -0.07638   3.06228
         Item               Value     Threshold  Converged?
 Maximum Force            0.028842     0.000015     NO 
 RMS     Force            0.007465     0.000010     NO 
 Maximum Displacement     0.446313     0.000060     NO 
 RMS     Displacement     0.101275     0.000040     NO 
 GradGradGradGradGradGradGradGradGradGradGradGradGradGradGradGradGradGrad

                    Distance matrix (angstroms):
                    1          2          3          4          5
     1  C    0.000000
     2  C    1.518074   0.000000
     3  C    2.595555   1.552925   0.000000
     4  O    3.048371   2.451621   1.405365   0.000000
     5  C    2.613326   1.628312   2.574047   3.010559   0.000000
     6  O    3.042278   2.426775   2.893683   2.650242   1.350993
     7  N    2.528221   1.541268   2.502469   3.762701   2.440907
     8  O    2.639258   2.326868   3.411943   4.623319   3.334636
     9  O    3.609955   2.316502   2.820625   4.104274   2.700040
    10  H    1.101719   2.180108   2.891623   2.802869   2.891985
    11  H    1.102170   2.180388   3.549643   4.060851   2.854180
    12  H    1.101461   2.147718   2.834064   3.405221   3.565545
    13  H    2.839623   2.168951   1.107577   2.072610   3.535454
    14  H    3.532828   2.197287   1.099855   2.030324   2.755477
    15  H    2.983910   2.868790   2.013104   0.975663   3.644007
    16  H    3.510074   2.190612   2.708789   3.315064   1.118166
    17  H    2.820392   2.264196   3.537411   4.004845   1.099905
    18  H    3.447628   2.677641   2.549591   1.991540   1.989941
                    6          7          8          9         10
     6  O    0.000000
     7  N    3.645308   0.000000
     8  O    4.510646   1.197221   0.000000
     9  O    3.925917   1.206754   2.177012   0.000000
    10  H    2.803749   3.496308   3.733376   4.466812   0.000000
    11  H    3.434851   2.752422   2.550848   3.869383   1.780272
    12  H    4.037578   2.795140   2.631511   3.927913   1.796623
    13  H    3.935693   2.749655   3.392516   3.182400   3.250835
    14  H    3.177424   2.692037   3.780370   2.507313   3.889008
    15  H    3.212777   4.233451   4.905097   4.772089   2.537048
    16  H    2.030400   2.526813   3.610110   2.250773   3.887007
    17  H    2.005382   2.728031   3.323291   3.102672   3.166709
    18  H    1.017145   3.956988   4.934269   4.112268   3.139741
                   11         12         13         14         15
    11  H    0.000000
    12  H    1.774463   0.000000
    13  H    3.831076   2.630762   0.000000
    14  H    4.364585   3.823867   1.785570   0.000000
    15  H    4.041708   3.160158   2.285632   2.856974   0.000000
    16  H    3.807206   4.320274   3.683623   2.424853   4.133138
    17  H    2.618372   3.829302   4.387429   3.778386   4.518453
    18  H    4.082187   4.288180   3.611079   2.723042   2.683203
                   16         17         18
    16  H    0.000000
    17  H    1.853150   0.000000
    18  H    2.306623   2.895109   0.000000
 Framework group  C1[X(C4H9NO4)]
 Deg. of freedom    48
                         Standard orientation:                         
 ---------------------------------------------------------------------
 Center     Atomic      Atomic             Coordinates (Angstroms)
 Number     Number       Type             X           Y           Z
 ---------------------------------------------------------------------
      1          6           0        0.009445    0.930847    1.515798
      2          6           0       -0.068624    0.177447    0.200182
      3          6           0        0.688888    0.831431   -0.987276
      4          8           0        2.067045    0.937596   -0.733380
      5          6           0        0.445631   -1.361294    0.338809
      6          8           0        1.777603   -1.354830    0.564615
      7          7           0       -1.530006   -0.047585   -0.234821
      8          8           0       -2.365091    0.427518    0.479497
      9          8           0       -1.655433   -0.718094   -1.230281
     10          1           0        1.047260    1.013101    1.876297
     11          1           0       -0.581857    0.436141    2.303456
     12          1           0       -0.408733    1.940549    1.378523
     13          1           0        0.248002    1.831523   -1.166613
     14          1           0        0.563420    0.235942   -1.903426
     15          1           0        2.317742    1.717624   -0.203640
     16          1           0        0.223786   -1.816739   -0.658011
     17          1           0       -0.063513   -1.867565    1.172027
     18          1           0        2.318898   -0.965579   -0.203544
 ---------------------------------------------------------------------
 Rotational constants (GHZ):           2.3372951           1.2425998           1.2000827
   144 basis functions,   261 primitive gaussians,   153 cartesian basis functions
    36 alpha electrons       35 beta electrons
       nuclear repulsion energy       515.3072226497 Hartrees.
 NAtoms=   18 NActive=   18 NUniq=   18 SFac= 1.00D+00 NAtFMM=   60 NAOKFM=F Big=F
 Nuclear repulsion after empirical dispersion term =      515.2956510426 Hartrees.
   1 Symmetry operations used in ECPInt.
 ECPInt:  NShTT=    2628 NPrTT=   10584 LenC2=    2602 LenP2D=    8228.
 LDataN:  DoStor=T MaxTD1= 4 Len=   56
 Initial guess from the checkpoint file:  "38.chk"
 B after Tr=    -0.000000   -0.000000   -0.000000
         Rot=    0.922303   -0.386136    0.014926    0.005842 Ang= -45.47 deg.
 Initial guess <Sx>= 0.0000 <Sy>= 0.0000 <Sz>= 0.5000 <S**2>= 0.7559 S= 0.5030
 ExpMin= 1.22D-01 ExpMax= 2.27D+03 ExpMxC= 3.41D+02 IAcc=3 IRadAn=         5 AccDes= 0.00D+00
 Harris functional with IExCor= 4639 and IRadAn=       5 diagonalized for initial guess.
 HarFok:  IExCor= 4639 AccDes= 0.00D+00 IRadAn=         5 IDoV= 1 UseB2=F ITyADJ=14
 ICtDFT=  3500011 ScaDFX=  1.000000  1.000000  1.000000  1.000000
 FoFCou: FMM=F IPFlag=           0 FMFlag=      100000 FMFlg1=           0
         NFxFlg=           0 DoJE=T BraDBF=F KetDBF=T FulRan=T
         wScrn=  0.000000 ICntrl=       500 IOpCl=  0 I1Cent=   200000004 NGrid=           0
         NMat0=    1 NMatS0=      1 NMatT0=    0 NMatD0=    1 NMtDS0=    0 NMtDT0=    0
 Petite list used in FoFCou.
     Minimum is close to point  4 DX=  2.34D-02 DF= -6.82D-06 DXR=  1.91D-02 DFR=  3.66D-04 which will be used.
     Accept linear search using points  1 and  2.
     Minimum is close to point  2 DX= -4.87D-02 DF= -5.49D-06 DXR=  5.12D-02 DFR=  2.63D-03 which will be used.
     Accept linear search using points  1 and  2.
     Accept linear search using points  1 and  2.
     Accept linear search using points  1 and  2.
     Accept linear search using points  1 and  2.
     Accept linear search using points  1 and  2.
     Accept linear search using points  1 and  2.
     Minimum is close to point  2 DX= -6.80D-03 DF= -2.01D-08 DXR=  6.85D-03 DFR=  4.71D-05 which will be used.
     Minimum is close to point  2 DX=  5.29D-04 DF= -1.14D-13 DXR=  5.29D-04 DFR=  2.47D-07 which will be used.
 SCF Done:  E(UwB97XD) =  -512.442693370     a.u. after   15 cycles
            Convg  =    0.3862D-06                    72 Fock formations.
              S**2 =  0.7568                  -V/T =  2.0076
 <Sx>= 0.0000 <Sy>= 0.0000 <Sz>= 0.5000 <S**2>= 0.7568 S= 0.5034
 <L.S>=  0.00000000000    
 Annihilation of the first spin contaminant:
 S**2 before annihilation     0.7568,   after     0.7500
   1 Symmetry operations used in ECPInt.
 ECPInt:  NShTT=    2628 NPrTT=   10584 LenC2=    2602 LenP2D=    8228.
 LDataN:  DoStor=T MaxTD1= 5 Len=  102
 Calling FoFJK, ICntrl=      2127 FMM=F ISym2X=0 I1Cent= 0 IOpClX= 1 NMat=1 NMatS=1 NMatT=0.

 GradGradGradGradGradGradGradGradGradGradGradGradGradGradGradGradGradGrad
 Using GEDIIS/GDIIS optimizer.
 FormGI is forming the generalized inverse of G from B-inverse, IUseBI=4.
 Internal  Forces:  Max     0.017763487 RMS     0.004638114
 Step number   3 out of a maximum of   95
 All quantities printed in internal units (Hartrees-Bohrs-Radians)
 Mixed Optimization -- RFO/linear search
 Trust test= 2.34D-01 RLast= 4.33D-01 DXMaxT set to 5.05D-01
 ITU=  0  1  0
 Use linear search instead of GDIIS.
     Eigenvalues ---    0.00227   0.00232   0.00289   0.00308   0.00533
     Eigenvalues ---    0.01581   0.01848   0.04270   0.04807   0.05259
     Eigenvalues ---    0.05477   0.05614   0.05794   0.05820   0.06642
     Eigenvalues ---    0.07250   0.10107   0.11680   0.13257   0.13900
     Eigenvalues ---    0.14999   0.15189   0.15991   0.16000   0.16000
     Eigenvalues ---    0.16017   0.16550   0.21702   0.23203   0.24966
     Eigenvalues ---    0.25214   0.26985   0.30014   0.30579   0.32859
     Eigenvalues ---    0.32864   0.33327   0.33422   0.33545   0.33660
     Eigenvalues ---    0.33783   0.41481   0.44802   0.46693   0.53934
     Eigenvalues ---    0.61394   0.97958   1.00269
 Quartic linear search produced a step of -0.45228.
 Iteration  1 RMS(Cart)=  0.11948891 RMS(Int)=  0.01926022
 Iteration  2 RMS(Cart)=  0.02113807 RMS(Int)=  0.00599287
 Iteration  3 RMS(Cart)=  0.00086868 RMS(Int)=  0.00592559
 Iteration  4 RMS(Cart)=  0.00001259 RMS(Int)=  0.00592558
 Iteration  5 RMS(Cart)=  0.00000035 RMS(Int)=  0.00592558
 Variable       Old X    -DE/DX   Delta X   Delta X   Delta X     New X
                                 (Linear)    (Quad)   (Total)
    R1        2.86874  -0.00803   0.00285  -0.02413  -0.02128   2.84746
    R2        2.08195  -0.00021   0.00005  -0.00082  -0.00077   2.08118
    R3        2.08280  -0.00066  -0.00024  -0.00160  -0.00184   2.08096
    R4        2.08146   0.00138  -0.00012   0.00330   0.00318   2.08464
    R5        2.93460  -0.01162  -0.01404   0.01370  -0.00033   2.93427
    R6        3.07706  -0.00003  -0.04183   0.08012   0.03829   3.11535
    R7        2.91257   0.00866  -0.01140   0.03666   0.02526   2.93784
    R8        2.65575  -0.00809  -0.00087  -0.00624  -0.00711   2.64865
    R9        2.09302   0.00088   0.00085  -0.00110  -0.00025   2.09276
   R10        2.07842   0.00021   0.00012  -0.00047  -0.00034   2.07808
   R11        1.84374  -0.00485  -0.00294  -0.00146  -0.00439   1.83934
   R12        2.55301  -0.00082   0.01244  -0.01427  -0.00183   2.55117
   R13        2.11303  -0.00361  -0.00129  -0.00894  -0.01022   2.10280
   R14        2.07852   0.00016   0.00119  -0.00133  -0.00015   2.07837
   R15        1.92213  -0.01776  -0.01725   0.00642  -0.01083   1.91130
   R16        2.26242  -0.00004   0.00451  -0.00758  -0.00307   2.25935
   R17        2.28043  -0.00144   0.00287  -0.00581  -0.00294   2.27750
    A1        1.94881  -0.00370  -0.00990  -0.00249  -0.01239   1.93642
    A2        1.94872  -0.00029  -0.00031  -0.00193  -0.00218   1.94654
    A3        1.90436   0.00102   0.00810  -0.00561   0.00248   1.90684
    A4        1.88078   0.00235  -0.00234   0.01155   0.00927   1.89005
    A5        1.90708   0.00072   0.00115  -0.00069   0.00040   1.90747
    A6        1.87218   0.00008   0.00357  -0.00061   0.00302   1.87519
    A7        2.01373   0.00423  -0.01326   0.01418   0.00099   2.01472
    A8        1.95947  -0.00180   0.00353  -0.03190  -0.02778   1.93169
    A9        1.94531  -0.00192  -0.00155   0.01284   0.01181   1.95711
   A10        1.88495  -0.00657  -0.01954   0.02280   0.00350   1.88845
   A11        1.88408  -0.00040   0.00721  -0.02128  -0.01452   1.86956
   A12        1.75738   0.00662   0.02760   0.00196   0.02961   1.78699
   A13        1.95198  -0.00859  -0.02842   0.05863   0.03028   1.98226
   A14        1.88588  -0.00012   0.01143  -0.01846  -0.00760   1.87828
   A15        1.93188   0.00162  -0.00299  -0.00930  -0.01179   1.92009
   A16        1.92986   0.00745   0.01753  -0.00406   0.01307   1.94293
   A17        1.87890   0.00040  -0.00074  -0.02391  -0.02389   1.85501
   A18        1.88452  -0.00042   0.00350  -0.00474  -0.00122   1.88330
   A19        1.99376  -0.00396  -0.01910   0.01693  -0.00217   1.99158
   A20        1.89767  -0.01194  -0.01519   0.03000   0.01438   1.91205
   A21        1.81971  -0.00332   0.01549  -0.03917  -0.02440   1.79532
   A22        1.93186   0.00113   0.00877  -0.04249  -0.03423   1.89763
   A23        1.92470   0.00905  -0.00524   0.07020   0.06486   1.98956
   A24        1.90919   0.00304   0.01441  -0.04914  -0.03500   1.87418
   A25        1.97796   0.00114  -0.01854   0.03291   0.01395   1.99191
   A26        1.98262  -0.00197  -0.02999   0.04537   0.01538   1.99800
   A27        2.02087   0.00347   0.00488   0.01341  -0.01153   2.00933
   A28        1.99599   0.00884   0.00085   0.03198   0.00298   1.99897
   A29        2.26552  -0.01202  -0.00719  -0.02951  -0.06969   2.19583
    D1       -1.07576   0.00320   0.00140  -0.00430  -0.00315  -1.07890
    D2        1.09406  -0.00392  -0.03239   0.01148  -0.02080   1.07326
    D3        3.05071   0.00201   0.00319   0.00279   0.00601   3.05672
    D4        3.10054   0.00298   0.01133  -0.01603  -0.00491   3.09563
    D5       -1.01283  -0.00414  -0.02246  -0.00025  -0.02256  -1.03539
    D6        0.94382   0.00179   0.01312  -0.00894   0.00425   0.94807
    D7        1.03413   0.00241   0.00180  -0.01052  -0.00890   1.02523
    D8       -3.07924  -0.00471  -0.03198   0.00526  -0.02655  -3.10579
    D9       -1.12259   0.00122   0.00359  -0.00344   0.00026  -1.12233
   D10        1.06826   0.00278   0.01956   0.10384   0.12325   1.19151
   D11       -1.05973  -0.00100   0.00848   0.08422   0.09231  -0.96742
   D12       -3.11986  -0.00134  -0.00102   0.10636   0.10482  -3.01505
   D13       -1.13999   0.00746   0.03924   0.11692   0.15667  -0.98332
   D14        3.01520   0.00368   0.02816   0.09731   0.12573   3.14093
   D15        0.95507   0.00333   0.01867   0.11945   0.13824   1.09330
   D16       -3.02628   0.00301   0.01358   0.11402   0.12786  -2.89842
   D17        1.12891  -0.00077   0.00249   0.09440   0.09692   1.22583
   D18       -0.93122  -0.00111  -0.00700   0.11654   0.10943  -0.82179
   D19       -1.19751   0.00303   0.03161   0.12999   0.16122  -1.03629
   D20        3.03265  -0.00015   0.03705   0.05528   0.09222   3.12488
   D21        0.90002  -0.00010   0.04489   0.06250   0.10703   1.00705
   D22        1.04206   0.00212   0.00263   0.14276   0.14514   1.18720
   D23       -1.01096  -0.00106   0.00806   0.06805   0.07614  -0.93482
   D24        3.13958  -0.00102   0.01591   0.07527   0.09095  -3.05265
   D25        3.01469   0.00229   0.01510   0.12790   0.14333  -3.12517
   D26        0.96167  -0.00089   0.02053   0.05319   0.07433   1.03600
   D27       -1.17097  -0.00085   0.02838   0.06040   0.08914  -1.08183
   D28        0.04131   0.00426  -0.00717   0.15873   0.14715   0.18845
   D29       -3.06138  -0.00240  -0.06446  -0.22256  -0.28293   2.93888
   D30       -2.18733   0.00048   0.00568   0.14719   0.14839  -2.03894
   D31        0.99317  -0.00618  -0.05161  -0.23410  -0.28168   0.71149
   D32        2.12257   0.00502   0.01235   0.12843   0.13691   2.25948
   D33       -0.98012  -0.00164  -0.04495  -0.25286  -0.29316  -1.27327
   D34       -1.44541  -0.00049   0.02197  -0.00181   0.01966  -1.42575
   D35        0.65712  -0.00130   0.02868   0.01133   0.04042   0.69754
   D36        2.71196   0.00258   0.04263  -0.01078   0.03195   2.74390
   D37       -1.10938   0.00169   0.04440  -0.00606   0.03806  -1.07132
   D38        0.87573  -0.00405   0.05178   0.00125   0.05353   0.92926
   D39        3.06228   0.00580   0.03454   0.05723   0.09156  -3.12935
         Item               Value     Threshold  Converged?
 Maximum Force            0.017763     0.000015     NO 
 RMS     Force            0.004638     0.000010     NO 
 Maximum Displacement     0.541893     0.000060     NO 
 RMS     Displacement     0.127003     0.000040     NO 
 GradGradGradGradGradGradGradGradGradGradGradGradGradGradGradGradGradGrad

                    Distance matrix (angstroms):
                    1          2          3          4          5
     1  C    0.000000
     2  C    1.506811   0.000000
     3  C    2.586746   1.552748   0.000000
     4  O    3.134915   2.473131   1.401604   0.000000
     5  C    2.596653   1.648573   2.593812   2.963162   0.000000
     6  O    2.951003   2.455612   3.012258   2.726076   1.350022
     7  N    2.540201   1.554637   2.499795   3.764618   2.496853
     8  O    2.658718   2.329125   3.342245   4.608015   3.437538
     9  O    3.609322   2.329229   2.692623   3.975947   2.926012
    10  H    1.101314   2.161017   2.872914   2.896107   2.843651
    11  H    1.101198   2.168160   3.539841   4.132895   2.833965
    12  H    1.103143   2.140949   2.823837   3.511402   3.562279
    13  H    2.786121   2.162955   1.107443   2.078386   3.556181
    14  H    3.513680   2.188388   1.099672   2.009514   2.829512
    15  H    3.070833   2.882121   2.006591   0.973339   3.547285
    16  H    3.481313   2.184688   2.668766   3.133668   1.112756
    17  H    2.814760   2.256462   3.536227   3.995952   1.099826
    18  H    3.293016   2.697594   2.691500   2.002757   1.994241
                    6          7          8          9         10
     6  O    0.000000
     7  N    3.702810   0.000000
     8  O    4.566164   1.195594   0.000000
     9  O    4.161010   1.205200   2.137336   0.000000
    10  H    2.661163   3.502146   3.751870   4.464380   0.000000
    11  H    3.299096   2.763273   2.628161   3.932380   1.785161
    12  H    3.970950   2.809168   2.600588   3.854797   1.797917
    13  H    4.000659   2.786116   3.306716   3.039206   3.169252
    14  H    3.425517   2.623120   3.639754   2.301116   3.885683
    15  H    3.133994   4.269485   4.930104   4.666734   2.600417
    16  H    2.069421   2.602976   3.730915   2.535140   3.809538
    17  H    1.979736   2.712528   3.407902   3.304736   3.166852
    18  H    1.011414   4.057295   4.989342   4.373004   2.873966
                   11         12         13         14         15
    11  H    0.000000
    12  H    1.777004   0.000000
    13  H    3.787483   2.569795   0.000000
    14  H    4.341226   3.781015   1.784524   0.000000
    15  H    4.113917   3.305260   2.301493   2.841560   0.000000
    16  H    3.798062   4.307269   3.688204   2.445743   3.933295
    17  H    2.605659   3.822703   4.379728   3.798342   4.475122
    18  H    3.902499   4.164133   3.686177   3.081066   2.453846
                   16         17         18
    16  H    0.000000
    17  H    1.856988   0.000000
    18  H    2.386663   2.877738   0.000000
 Framework group  C1[X(C4H9NO4)]
 Deg. of freedom    48
                         Standard orientation:                         
 ---------------------------------------------------------------------
 Center     Atomic      Atomic             Coordinates (Angstroms)
 Number     Number       Type             X           Y           Z
 ---------------------------------------------------------------------
      1          6           0        0.039962   -0.711889    1.611462
      2          6           0       -0.072131   -0.097687    0.240086
      3          6           0        0.529435    1.326530    0.096035
      4          8           0        1.926544    1.358451    0.203558
      5          6           0        0.628749   -1.069619   -0.892129
[...]
 0.2736632,1.2619527,-0.1724109,-0.2072479,0.9461116,0.8671653,-0.58764
 11,-1.0560488,-0.4029105,0.5763173,-0.7595226,0.3017536,-0.0558179,-0.
 053057,-0.6360338,0.2685394,0.2442338,0.1698839,-0.3336803,-0.5051766,
 -0.1592375,0.2044207,-0.4311822,-0.4878672,0.2858136,0.4067385,0.26119
 85,-0.4100144,0.0599497,-0.011266,0.0104132,-0.0367891,0.1157649,-0.01
 77351,-0.0194273,0.00446,0.097774,0.1000212,-0.0297611,0.0434004,-0.03
 1367,0.0460553,-0.0000763,0.0144696,0.0406213,0.0988728,0.0811376,0.05
 22952,0.0518824,0.0378354,0.0628431,-0.0356901,0.0534442,-0.0271966,0.
 1134303,-0.0349827,-0.0244438,0.0077498,-0.0230273,0.0723765,0.0231577
 ,-0.0657689,-0.0362455,0.0537887,-0.0087929,-0.0072131,0.0105091,-0.00
 02683,0.06368,-0.00793,0.0174957,-0.0435839,-0.0297877,0.4762463,0.132
 3717,-0.0123569,0.083827,0.3249747,-0.0001268,0.0004882,0.0138882,0.38
 97571,0.148031,-0.0568864,0.0153365,0.0542825,-0.0015014,0.0097001,0.0
 20814,-0.0266898,0.1207323,0.1232948,0.0118776,0.0127802,-0.0292858,0.
 1479357,-0.0369268,-0.0223046,-0.0332459,0.0768529,0.6813402,-0.054119
 7,0.0645772,0.4581714,0.4546514,0.0060925,0.0854381,-0.0935026,0.31496
 35\Polar=96.0591933,-12.4260938,69.3756993,3.0105561,-8.344232,56.4422
 158\Quadrupole=-1.0897322,1.6454454,-0.5557132,4.5880588,2.9327386,0.0
 524798\PG=C01 [X(C4H9N1O4)]\NImag=0\\0.60743525,0.01092013,0.58090988,
 -0.01359400,-0.02413120,0.47906492,-0.07994570,-0.00950710,0.00994189,
 0.35516807,-0.00760467,-0.08593923,-0.05117126,0.06690755,0.39597253,0
 .01168485,-0.04711498,-0.17568187,-0.03885673,0.07836123,0.39835828,0.
 00464647,-0.00167568,-0.00592722,-0.06940102,-0.03690437,0.00662879,0.
 50753989,-0.00297096,-0.01607087,-0.00669083,-0.03464687,-0.15505473,-
 0.02686085,-0.03865431,0.52177982,-0.01595481,-0.02923722,-0.00172895,
 0.00930988,-0.03014153,-0.07850016,-0.01982520,-0.00339100,0.62390755,
 0.00059509,0.00023907,0.00111333,-0.04433269,-0.00182715,-0.00440671,-
 0.25531677,0.05444041,0.00952885,0.51587598,-0.00027559,0.00199040,-0.
 00148175,-0.03292512,-0.00078853,0.00808104,0.00324023,-0.10803262,-0.
 00312830,0.16693140,0.52684037,0.00125246,-0.00139761,-0.00091803,-0.0
 0595803,0.00625203,-0.00062038,0.00478001,-0.00520841,-0.06281589,-0.0
 0010722,-0.00500714,0.04950823,-0.01081626,0.01155802,-0.01610603,0.02
 953687,-0.05922026,0.05250359,-0.00543131,0.00443551,-0.00936537,0.000
 24280,-0.00132997,-0.00024496,0.53841909,0.00563283,-0.00810085,0.0063
 1036,-0.03168297,0.00037677,-0.01246939,0.00408439,-0.02369748,0.01377
 946,0.00639356,0.00127481,0.00172418,0.17234685,0.50853188,-0.00902448
 ,0.00763648,-0.02002405,0.01515977,0.00211899,-0.00827588,-0.01205974,
 0.00784906,-0.01079323,0.00314265,-0.00413160,0.00088831,-0.15034120,0
 .16247386,0.42153955,0.00206150,-0.00130644,0.00280222,-0.04229323,0.0
 2575851,-0.01631895,-0.00587881,-0.00423627,0.00183845,0.01087811,-0.0
 0823763,0.00343572,-0.33621364,0.02194312,0.15246615,0.54888109,-0.001
 27893,0.00036521,-0.00189937,0.02096001,-0.01114522,0.00736961,-0.0101
 3348,-0.00071192,-0.00240603,0.00421105,-0.03738371,0.00769125,0.00669
 774,-0.11093715,-0.05044459,0.09789181,0.40382865,-0.00638404,0.008806
 57,-0.00646373,0.00006233,-0.01436864,-0.00078057,0.00309539,0.0002994
 0,0.00129340,-0.00174317,0.00493619,0.00308896,0.10340474,-0.02040132,
 -0.09793711,-0.13140987,0.07278062,0.13728949,-0.00163291,0.00846738,0
 .01753912,-0.07929541,-0.01261944,-0.00323657,-0.02376958,-0.00742666,
 -0.00188262,0.00425189,0.00086143,0.00061809,-0.02126775,0.01363590,0.
 00304698,-0.00240218,0.00291747,-0.00353588,0.61747869,0.00866567,0.00
 693076,-0.01139073,-0.00246733,-0.07864818,-0.02415863,-0.02851277,0.0
 1988130,0.00347111,-0.00084475,-0.00828390,0.00207643,0.01503575,0.014
 93380,-0.00037882,-0.00045327,-0.00113309,-0.00041586,-0.06915540,0.87
 995682,0.04396381,-0.00232921,-0.01104770,-0.01148123,-0.02340542,-0.0
 8758533,0.00294858,-0.00166162,0.01385259,-0.00806118,-0.00277715,-0.0
 0180326,-0.01077143,-0.01149587,0.00252331,0.00057164,0.00093818,-0.00
 004226,-0.07052705,-0.35281350,0.50627744,-0.00060539,-0.00220543,-0.0
 0090944,-0.04170052,0.04288947,-0.00361977,-0.00273048,-0.00319703,0.0
 0505600,-0.00166614,-0.00034006,-0.00180891,-0.00404955,-0.00228002,-0
 .00162144,-0.00052920,-0.00045819,0.00071009,-0.26092866,0.24377979,-0
 .09572933,0.26560700,-0.00058786,0.00043621,0.00248507,0.03505117,-0.0
 1320121,0.01139752,-0.00133895,-0.00532195,-0.00159409,-0.00157572,0.0
 0299175,-0.00025997,-0.00053801,-0.00435387,0.00160099,0.00251791,0.00
 111861,-0.00033551,0.21466196,-0.43501692,0.15134939,-0.26717057,0.536
 03329,-0.00310389,-0.00078487,-0.00355932,0.00058857,0.00914069,0.0170
 1363,0.00053223,0.00238321,-0.00354997,0.00151385,0.00011402,0.0012885
 1,0.00087976,0.00372961,-0.00184612,-0.00058814,-0.00058798,0.00036785
 ,-0.07782375,0.14334066,-0.14252962,0.09384746,-0.22890028,0.14288978,
 -0.00494521,-0.00183826,-0.00085197,-0.02072428,-0.03080295,0.03040764
 ,-0.00340132,0.00473855,0.00336825,-0.00211718,-0.00274827,-0.00021695
 ,-0.00452890,0.00169415,0.00241906,-0.00123381,-0.00133221,0.00007345,
 -0.23237220,-0.16378449,0.15254379,0.04848680,0.01963629,-0.01831434,0
 .22774139,-0.00070203,-0.00250604,0.00176899,-0.01397995,-0.00161240,0
 .01945981,0.00091976,-0.00252227,0.00280410,-0.00154394,-0.00001599,-0
 .00116562,0.00346816,-0.00856346,-0.00081505,0.00179063,0.00144696,0.0
 0033227,-0.15161442,-0.38172124,0.23772304,-0.01368163,-0.08606842,0.0
 7563143,0.17360723,0.47370663,-0.00237228,0.00014613,-0.00033358,0.023
 80649,0.02875941,-0.00083964,0.00124604,-0.00208626,-0.00479382,0.0031
 7753,0.00171648,0.00082948,-0.00026944,0.00446401,0.00010493,-0.001097
 07,-0.00004652,0.00049820,0.14393085,0.23880435,-0.27410401,0.00200785
 ,0.06624274,-0.01348411,-0.17202523,-0.33478855,0.29132101,-0.30484789
 ,-0.00207184,0.08922674,0.00326510,0.00030527,-0.00150786,-0.00027580,
 0.00000112,-0.00020461,-0.00024942,-0.00057604,-0.00040337,-0.00015819
 ,0.00059774,0.00039201,-0.00039054,0.00046545,-0.00141329,-0.00102240,
 -0.00111457,-0.00093407,0.00101848,-0.00051054,0.00051327,0.00051543,0
 .00054344,-0.00012173,0.31925633,-0.00339024,-0.04909430,-0.00099146,0
 .01079643,-0.00097531,-0.00066371,0.00138851,-0.00036310,0.00106861,-0
 .00063744,-0.00021269,0.00021336,-0.00021854,-0.00024123,0.00030604,0.
 00006319,-0.00029189,-0.00017855,0.00084522,-0.00002286,-0.00385549,-0
 .00065994,0.00044794,-0.00026919,0.00081950,0.00052922,-0.00008968,0.0
 0162282,0.04536300,0.08421610,-0.00006964,-0.07445235,0.03367910,-0.00
 071652,-0.01297019,0.00004604,0.00025240,0.00040809,-0.00022888,0.0000
 3520,0.00018251,0.00089714,0.00050100,-0.00011796,-0.00112791,-0.00003
 528,0.00050963,-0.00603088,-0.00191546,-0.00609905,0.00178273,-0.00088
 541,0.00157294,0.00178080,0.00067641,0.00028471,-0.09330964,0.00246223
 ,0.08224890,-0.08703551,-0.09572004,-0.00085845,-0.00148174,0.00214773
 ,-0.00327988,0.00094103,0.00077324,0.00069469,0.00043324,0.00007411,-0
 .00026774,0.00115505,-0.00072730,0.00005171,-0.00002499,0.00046169,0.0
 0056027,0.00067189,0.00214510,-0.00138650,-0.00051008,-0.00011756,0.00
 060213,-0.00013878,-0.00078301,0.00033837,-0.00645670,-0.02662263,-0.0
 0330006,0.08516890,-0.09582433,-0.28769258,-0.01159512,-0.00236448,-0.
 00880129,0.00000478,0.00108667,0.00060435,-0.00124830,-0.00026292,0.00
 023371,0.00014558,0.00037963,-0.00002606,0.00043877,0.00000054,0.00031
 866,-0.00007971,-0.00041205,-0.00067967,0.00002368,0.00004027,0.000268
 48,-0.00027163,0.00039317,0.00060463,-0.00033832,0.00229662,0.00362537
 ,0.00074457,0.10259504,0.30391012,-0.00055192,-0.00812482,-0.04726325,
 -0.01431327,-0.03029225,-0.00327532,0.00229271,-0.00111419,-0.00594744
 ,-0.00031766,0.00057571,0.00041966,0.00051714,-0.00248276,-0.00033855,
 0.00033444,0.00031178,0.00056830,-0.00063404,0.00047749,0.00117946,-0.
 00071305,0.00035430,0.00000443,0.00013757,0.00050858,-0.00021814,0.002
 15243,0.01013406,0.00061613,0.00430890,0.01427003,0.05273808,-0.127173
 44,0.08894742,-0.08605648,-0.00323564,-0.00124128,-0.00025610,0.000809
 32,0.00010466,0.00049733,-0.00018682,-0.00003033,-0.00006570,0.0024128
 1,-0.00200664,-0.00010850,0.00052311,0.00019071,0.00009167,0.00152770,
 0.00297573,-0.00216824,-0.00209161,0.00037713,0.00167003,-0.00007524,-
 0.00107451,0.00076988,-0.01063879,0.01584985,-0.01780338,0.00727567,-0
 .00764477,0.00796706,0.13167514,0.08862381,-0.14059789,0.09444378,-0.0
 0731843,0.00367204,-0.00528802,0.00057601,0.00056906,0.00021163,-0.000
 27399,-0.00020568,0.00011199,-0.00257249,0.00193119,-0.00066771,0.0003
 8432,0.00020745,-0.00163081,0.00101000,-0.00085298,0.00053785,0.000086
 08,0.00020183,-0.00097659,-0.00014770,0.00045816,-0.00020873,-0.001821
 92,0.00057825,-0.00149932,0.01656103,-0.01289902,0.01631238,-0.0959685
 8,0.14736244,-0.08876966,0.09686557,-0.13772095,-0.01368860,0.01393164
 ,-0.02378912,0.00068064,0.00207124,-0.00021212,0.00045721,-0.00011127,
 0.00049240,-0.00159852,0.00088398,-0.00222025,0.00100109,-0.00006008,-
 0.00037659,-0.00343838,-0.00034051,0.00149030,0.00190889,-0.00129370,0
 .00086386,0.00005220,0.00026127,-0.00028563,0.00566708,-0.00781581,0.0
 0785859,0.00210455,-0.00228106,0.00225361,0.09554783,-0.10065103,0.151
 33187,0.00126201,-0.00022473,0.00040081,0.00144880,-0.00582555,0.00830
 978,-0.05882456,0.03168160,-0.04107558,-0.02780564,0.02767608,-0.02654
 449,0.00189036,-0.00351078,0.00181111,0.00014615,0.00158801,0.00023722
 ,0.00153459,0.00150263,-0.00241970,-0.00351603,-0.00031150,0.00085366,
 0.00014898,-0.00035823,0.00075878,0.00005664,-0.00017698,-0.00013656,-
 0.00005277,0.00000865,0.00000980,-0.00029621,-0.00035037,0.00013623,0.
 07906390,0.00064611,0.00267287,0.00088122,0.00073312,-0.02132610,0.018
 95979,0.04333033,-0.15218673,0.12298542,0.00169052,0.00224952,0.000825
 66,0.00055816,-0.00233478,0.00143624,-0.00056375,0.00083168,-0.0006227
 0,0.00164159,-0.00141406,-0.00207833,-0.00014467,0.00136903,-0.0003345
 1,-0.00030871,0.00011440,0.00048580,0.00026404,-0.00042817,-0.00002249
 ,-0.00023479,0.00029441,0.00014972,-0.00064087,-0.00057915,-0.00065601
 ,-0.04432410,0.16094493,-0.00027094,-0.00078056,-0.00045666,-0.0010991
 5,-0.00341764,0.00327209,-0.04479849,0.12173867,-0.20475666,-0.0029767
 0,-0.00308286,0.00684472,0.00245376,0.00054610,0.00160232,-0.00008057,
 0.00062036,-0.00009977,0.00027374,0.00310540,-0.00252848,-0.00161389,-
 0.00119024,0.00070364,0.00007681,-0.00108421,0.00099807,0.00032176,-0.
 00013300,0.00017620,0.00019766,0.00002732,0.00011815,-0.00017789,-0.00
 082446,0.00026370,0.05344845,-0.13139409,0.20907766,-0.00136852,-0.003
 79585,0.00069917,0.00350348,-0.00487025,-0.01446977,-0.06810683,0.0242
 3296,0.06114003,-0.02956725,0.01744887,0.02949748,0.00006966,-0.000038
 79,0.00024613,0.00085278,0.00098311,-0.00007512,0.00135732,-0.00132783
 ,-0.00154789,-0.00079620,0.00021417,-0.00021259,-0.00032245,-0.0001296
 2,0.00012830,-0.00007691,0.00009615,0.00010765,0.00007365,-0.00029084,
 -0.00099691,-0.00003066,0.00018280,0.00023926,0.00462447,-0.00284255,-
 0.00502935,0.08964688,-0.00279959,-0.00279805,0.00191519,0.00509851,-0
 .01560165,-0.02678124,0.02763352,-0.08981695,-0.08331141,0.00373817,0.
 00232153,-0.00126670,-0.00067147,0.00156594,-0.00204729,0.00022864,0.0
 0002162,0.00006707,0.00111975,-0.00048240,0.00008167,0.00030610,0.0004
 2759,-0.00047917,-0.00013740,-0.00019820,0.00030402,0.00011421,0.00017
 747,0.00026205,-0.00012158,-0.00017702,-0.00139606,-0.00018072,-0.0001
 0769,-0.00034763,-0.00491268,0.01015095,0.01744395,-0.02956404,0.09462
 252,-0.00014080,-0.00163682,0.00054266,-0.00028003,0.00188490,-0.00307
 529,0.06263149,-0.08767936,-0.26338622,0.00227672,0.00254458,0.0106533
 9,0.00038298,0.00004898,0.00059949,-0.00029655,0.00004711,0.00026957,0
 .00153463,-0.00108839,0.00049849,-0.00078413,0.00143977,0.00037177,-0.
 00044936,-0.00015519,-0.00018848,-0.00000028,0.00017766,0.00015653,0.0
 0015654,-0.00007466,-0.00007047,0.00006511,0.00019849,0.00043091,0.005
 43037,-0.01016916,-0.01647419,-0.07134516,0.09471486,0.26918820,0.0004
 4047,-0.00021248,0.00024851,-0.00483392,0.00482234,0.00021010,-0.02435
 164,-0.03423387,-0.00287433,-0.15670036,-0.16799539,-0.00342197,-0.000
 11985,-0.00193334,0.00017645,0.00083568,0.00436190,-0.00003042,-0.0009
 7771,-0.00319531,0.00157467,0.00098329,0.00034099,-0.00030534,-0.00018
 043,0.00067761,-0.00039951,0.00002521,-0.00006761,-0.00033506,0.000074
 39,-0.00003719,-0.00002612,-0.00000078,0.00011554,-0.00002383,0.001391
 62,0.00017687,-0.00034164,0.00067810,-0.00004346,0.00061378,0.18017856
 ,-0.00004029,0.00029392,0.00004726,0.00245061,-0.00125939,0.00039392,0
 .00782654,0.01070657,-0.00064286,-0.21531318,-0.38872694,0.00074470,0.
 00036349,0.00020927,-0.00056536,-0.00031483,-0.00232721,0.00069446,0.0
 0004547,0.00060770,0.00039044,0.00023280,0.00015126,-0.00014180,0.0004
 8054,0.00006365,-0.00039270,-0.00003372,-0.00010744,-0.00007393,0.0000
 2086,0.00003481,0.00006499,-0.00000841,0.00001341,-0.00008228,0.001780
 64,0.00092749,0.00059465,0.00174145,0.00021608,-0.00043919,0.20270878,
 0.37898851,-0.00024041,0.00028728,0.00034991,-0.00100518,-0.00047109,-
 0.00042146,0.00007851,0.00097465,-0.00274438,-0.00402930,-0.00061045,-
 0.00253951,-0.00065397,-0.00019756,0.00018740,0.00065028,0.00214752,0.
 00022608,0.00003076,-0.00111289,0.00084415,0.00049995,0.00004017,-0.00
 028401,-0.00018752,0.00022517,-0.00005803,-0.00005801,-0.00006428,0.00
 020159,0.00004536,-0.00001687,-0.00012535,-0.00010603,-0.00005730,-0.0
 0008013,-0.00044578,-0.00059604,0.00085660,0.00081047,0.00016625,0.000
 14382,0.00332981,0.00027556,0.00327962,0.00013619,-0.00017458,0.000357
 25,-0.00340138,0.00395893,-0.01365671,0.00166472,-0.00091534,0.0006788
 1,-0.00055636,0.00072341,-0.00028436,-0.04386886,-0.01660491,0.0027761
 7,-0.01568297,0.02201568,0.03887178,0.00023569,0.00038857,-0.00094354,
 0.00018034,-0.00022506,-0.00024398,-0.00073131,-0.00033732,0.00064512,
 -0.00000060,0.00008045,0.00015869,-0.00002702,0.00005940,0.00007976,-0
 .00025240,0.00032739,-0.00035081,-0.00038057,-0.00009464,-0.00003945,-
 0.00000606,0.00022987,0.00019618,-0.00017559,0.00007197,0.00001782,0.0
 5781612,-0.00063510,0.00144655,0.00006247,0.00528720,-0.00555162,0.009
 52506,0.00236411,-0.00053482,0.00607847,-0.00101188,-0.00042149,-0.001
 39093,-0.01646406,-0.11712433,-0.11081317,0.01000177,0.00651846,-0.017
 95524,-0.00146954,-0.00467744,0.00317507,0.00114345,0.00008561,-0.0002
 2794,0.00025032,0.00231452,-0.00100287,-0.00009889,0.00006650,-0.00004
 116,0.00009755,0.00006208,0.00040725,0.00042253,-0.00032332,-0.0002212
 1,0.00016247,-0.00017244,-0.00081975,0.00050505,-0.00060683,-0.0002540
 1,0.00039889,-0.00007260,0.00010029,-0.00640754,0.12312746,-0.00089412
 ,0.00116301,-0.00071537,-0.00694832,0.00001073,-0.02104879,0.00064041,
 -0.00153210,0.00121280,0.00018220,0.00061611,-0.00008379,0.01762512,-0
 .12715180,-0.23200505,0.00511130,-0.00232586,-0.00285479,0.00022057,0.
 00195801,-0.00109365,0.00052623,-0.00070344,0.00033067,0.00033309,-0.0
 0082412,0.00085830,0.00010227,-0.00007901,0.00020264,-0.00002726,0.000
 14616,0.00000775,-0.00007345,0.00003929,-0.00043742,-0.00074101,-0.000
 39680,0.00026441,-0.00001615,0.00080674,0.00030217,0.00002763,0.000184
 77,0.00008120,-0.01539831,0.12752140,0.25125399,0.00056215,0.00046376,
 0.00081219,0.00240954,0.00727915,-0.00657588,0.00073280,-0.00035227,0.
 00108874,0.00001579,-0.00023904,-0.00040714,-0.11871285,-0.12544348,-0
 .00150993,-0.03410389,-0.02704804,-0.00116100,-0.00203913,-0.00025284,
 0.00103391,0.00141750,-0.00011076,0.00020382,-0.00631852,0.00125963,0.
 00074443,-0.00019663,0.00004080,-0.00017383,0.00006903,0.00011612,-0.0
 0004465,0.00000774,0.00020157,-0.00008333,0.00011702,0.00010642,-0.000
 50541,0.00002484,-0.00008265,-0.00009937,0.00016875,-0.00006335,0.0000
 4894,0.00443575,0.00178503,-0.00066569,0.15282976,-0.00058700,0.001156
 60,-0.00164517,-0.00333788,-0.01434920,0.00264772,0.00070995,-0.000707
 40,0.00105348,0.00043977,0.00043231,0.00002545,-0.14492188,-0.26268063
 ,-0.02507248,0.01047189,0.01425368,0.00237405,-0.00058906,-0.00312988,
 0.00226302,-0.00049041,0.00144045,-0.00086825,-0.00039358,0.00235731,-
 0.00115758,0.00005806,0.00004696,-0.00005986,0.00007729,0.00051065,0.0
 0051067,0.00034277,0.00004887,-0.00022686,-0.00034560,-0.00045772,0.00
 011526,-0.00000368,0.00012587,0.00008431,-0.00006172,0.00001409,-0.000
 02556,-0.00403537,-0.00392822,0.00248919,0.14052611,0.26371561,0.00044
 836,0.00135106,0.00056743,-0.00016966,0.01139568,-0.00658058,0.0009802
 9,-0.00059530,0.00084390,-0.00079500,0.00018530,-0.00034313,0.00061624
 ,-0.02462756,-0.05017190,0.00375848,0.01690589,-0.00170825,-0.00079452
 ,0.00015823,0.00012660,0.00057755,0.00060664,-0.00016833,0.00054345,-0
 .00114877,-0.00001057,-0.00010626,-0.00001790,-0.00016134,-0.00026547,
 0.00024985,-0.00057529,0.00012084,-0.00015165,0.00005356,-0.00025622,0
 .00013527,-0.00029963,-0.00010776,0.00031094,0.00000156,0.00036505,0.0
 0001896,0.00005886,-0.01195827,-0.02039038,0.00390913,0.00184350,0.019
 26955,0.04806329,0.00123170,-0.00186336,0.00116235,-0.00468633,0.00684
 696,-0.00355981,0.00115388,0.00622553,-0.00201849,-0.01379426,-0.00225
 811,0.00014707,-0.02855948,-0.04210030,-0.00702290,-0.12542514,-0.1224
 9378,-0.00135417,-0.00134985,-0.00338468,0.00333376,0.00143043,-0.0003
 1308,-0.00061274,0.00019703,0.00193817,-0.00126836,0.00017667,0.000170
 47,-0.00022206,-0.00013526,-0.00013954,-0.00020221,-0.00024990,0.00038
 493,0.00015816,-0.00080877,0.00000692,0.00016130,-0.00055630,0.0000448
 1,0.00010788,0.00256422,-0.00194937,0.00121431,0.00061432,0.00366865,-
 0.00000451,-0.00141967,0.00214033,0.00519939,0.16961672,0.00220804,-0.
 00340259,0.00308256,-0.00905449,0.01423272,-0.01286366,0.02405950,0.00
 147974,0.00364846,-0.01479299,0.00573716,-0.00411427,0.01109338,0.0092
 3620,0.01107566,-0.15594016,-0.26498080,-0.03430230,-0.00191961,-0.006
 24777,0.00393425,0.00215000,-0.00100969,-0.00049741,-0.00012618,0.0016
 1253,-0.00081171,-0.00004125,0.00090228,0.00038522,-0.00062674,-0.0001
 9161,-0.00066689,-0.00041469,0.00052305,0.00007375,-0.00405957,-0.0006
 5614,-0.00146490,-0.00254110,0.00015922,0.00035613,-0.00582255,0.00026
 683,-0.00106484,0.00093909,-0.00020807,-0.00192228,0.00181385,0.001150
 66,-0.00365581,0.15307546,0.24139629,-0.00026425,-0.00064916,-0.000159
 12,0.00125217,0.00212906,0.00480057,-0.00397046,0.00125132,-0.00228949
 ,0.00127346,0.00152588,-0.00507219,0.01007043,0.00436472,-0.00371520,-
 0.02105071,-0.05100660,-0.03384842,0.00070895,0.00022311,0.00004103,-0
 .00011680,-0.00035395,0.00001440,0.00030924,0.00059044,-0.00057870,-0.
 00031643,-0.00020390,-0.00061759,0.00032518,-0.00014508,-0.00009177,0.
 00008604,0.00010021,0.00008340,0.00022313,0.00041103,0.00043783,0.0009
 3220,-0.00044325,0.00003609,0.00121222,-0.00107159,0.00002364,-0.00090
 614,0.00624665,-0.00018420,0.00545072,-0.00177694,0.00639469,0.0047810
 4,0.03880805,0.03472503\\0.00000079,-0.00000094,-0.00000038,-0.0000001
 1,-0.00000054,0.00000021,-0.00000054,0.00000039,-0.00000034,-0.0000011
 3,0.00000122,0.00000014,0.00000043,0.00000079,0.00000041,-0.00000001,0
 .00000052,0.00000107,0.00000019,-0.00000132,-0.00000051,-0.00000063,-0
 .00000116,-0.00000138,0.00000005,-0.00000086,-0.00000049,0.00000096,-0
 .00000038,0.00000050,0.00000145,-0.00000107,0.00000046,0.00000075,-0.0
 0000140,-0.00000025,-0.00000090,-0.00000026,-0.00000080,-0.00000131,0.
 00000045,-0.00000068,-0.00000116,0.00000137,-0.00000002,-0.00000027,0.
 00000094,0.00000039,0.00000097,0.00000022,0.00000067,0.00000048,0.0000
 0203,0.00000101\\\@


 NO HUMAN INVESTIGATION CAN BECOME REAL SCIENCE
 WITHOUT GOING THROUGH MATHEMATICAL PEOPLE.
 -- LEONARDO DA VINCI, IN "PENSIERI" CA. 1492
 Job cpu time:       0 days  0 hours 10 minutes 57.1 seconds.
 Elapsed time:       0 days  0 hours  2 minutes 45.3 seconds.
 File lengths (MBytes):  RWF=     99 Int=      0 D2E=      0 Chk=      3 Scr=      1
 Normal termination of Gaussian 16 at Mon Jul 10 20:31:34 2023.
real 4358.50
user 16208.62
sys 46.05
