 Entering Gaussian System, Link 0=g16
 Input=gaussian_test.inp
 Output=gaussian_test.log
 Initial command:
 /sw/restricted/lms/sw/Gaussian/g16_B01/g16/l1.exe "/scratch/user/peterchao1/peterchao1/7003929_1675700529000000053918107/Gau-221429.inp" -scrdir="/scratch/user/peterchao1/peterchao1/7003929_1675700529000000053918107/"
 Entering Link 1 = /sw/restricted/lms/sw/Gaussian/g16_B01/g16/l1.exe PID=    221430.
  
 Copyright (c) 1988-2017, Gaussian, Inc.  All Rights Reserved.
  
 This is part of the Gaussian(R) 16 program.  It is based on
 the Gaussian(R) 09 system (copyright 2009, Gaussian, Inc.),
 the Gaussian(R) 03 system (copyright 2003, Gaussian, Inc.),
 the Gaussian(R) 98 system (copyright 1998, Gaussian, Inc.),
 the Gaussian(R) 94 system (copyright 1995, Gaussian, Inc.),
 the Gaussian 92(TM) system (copyright 1992, Gaussian, Inc.),
 the Gaussian 90(TM) system (copyright 1990, Gaussian, Inc.),
 the Gaussian 88(TM) system (copyright 1988, Gaussian, Inc.),
 the Gaussian 86(TM) system (copyright 1986, Carnegie Mellon
 University), and the Gaussian 82(TM) system (copyright 1983,
 Carnegie Mellon University). Gaussian is a federally registered
 trademark of Gaussian, Inc.
  
 This software contains proprietary and confidential information,
 including trade secrets, belonging to Gaussian, Inc.
  
 This software is provided under written license and may be
 used, copied, transmitted, or stored only in accord with that
 written license.
  
 The following legend is applicable only to US Government
 contracts under FAR:
  
                    RESTRICTED RIGHTS LEGEND
  
 Use, reproduction and disclosure by the US Government is
 subject to restrictions as set forth in subparagraphs (a)
 and (c) of the Commercial Computer Software - Restricted
 Rights clause in FAR 52.227-19.
  
 Gaussian, Inc.
 340 Quinnipiac St., Bldg. 40, Wallingford CT 06492
  
  
 ---------------------------------------------------------------
 Warning -- This program may not be used in any manner that
 competes with the business of Gaussian, Inc. or will provide
 assistance to any competitor of Gaussian, Inc.  The licensee
 of this program is prohibited from giving any competitor of
 Gaussian, Inc. access to this program.  By using this program,
 the user acknowledges that Gaussian, Inc. is engaged in the
 business of creating and licensing software in the field of
 computational chemistry and represents and warrants to the
 licensee that it is not a competitor of Gaussian, Inc. and that
 it will not use this program in any manner prohibited above.
 ---------------------------------------------------------------
  

 Cite this work as:
 Gaussian 16, Revision B.01,
 M. J. Frisch, G. W. Trucks, H. B. Schlegel, G. E. Scuseria, 
 M. A. Robb, J. R. Cheeseman, G. Scalmani, V. Barone, 
 G. A. Petersson, H. Nakatsuji, X. Li, M. Caricato, A. V. Marenich, 
 J. Bloino, B. G. Janesko, R. Gomperts, B. Mennucci, H. P. Hratchian, 
 J. V. Ortiz, A. F. Izmaylov, J. L. Sonnenberg, D. Williams-Young, 
 F. Ding, F. Lipparini, F. Egidi, J. Goings, B. Peng, A. Petrone, 
 T. Henderson, D. Ranasinghe, V. G. Zakrzewski, J. Gao, N. Rega, 
 G. Zheng, W. Liang, M. Hada, M. Ehara, K. Toyota, R. Fukuda, 
 J. Hasegawa, M. Ishida, T. Nakajima, Y. Honda, O. Kitao, H. Nakai, 
 T. Vreven, K. Throssell, J. A. Montgomery, Jr., J. E. Peralta, 
 F. Ogliaro, M. J. Bearpark, J. J. Heyd, E. N. Brothers, K. N. Kudin, 
 V. N. Staroverov, T. A. Keith, R. Kobayashi, J. Normand, 
 K. Raghavachari, A. P. Rendell, J. C. Burant, S. S. Iyengar, 
 J. Tomasi, M. Cossi, J. M. Millam, M. Klene, C. Adamo, R. Cammi, 
 J. W. Ochterski, R. L. Martin, K. Morokuma, O. Farkas, 
 J. B. Foresman, and D. J. Fox, Gaussian, Inc., Wallingford CT, 2016.
 
 ******************************************
 Gaussian 16:  ES64L-G16RevB.01 20-Dec-2017
                 6-Feb-2023 
 ******************************************
 %nprocshared=4
 Will use up to    4 processors via shared memory.
 %mem=8000mb
 %chk=11.chk
 %nprocshared=4
 Will use up to    4 processors via shared memory.
 %mem=8000mb
 ----------------------------------------------------------------------
 #T wB97XD/def2svpp opt=tight freq int(grid=ultrafine) scf=(verytight,q
 c) Volume=tight
 ----------------------------------------------------------------------
 -------
 Monomer
 -------
 Symbolic Z-matrix:
 Charge =  0 Multiplicity = 1
 C                    -2.60461  -0.85782   0.08264 
 C                    -1.40707  -0.43345   0.93165 
 C                    -0.08503  -0.16582   0.18 
 C                    -0.26367   0.80142  -1.00798 
 C                    -0.79457   2.19478  -0.67511 
 C                     0.89878   0.41035   1.21973 
 O                     2.18966   0.68922   0.70711 
 C                     0.48872  -1.5014   -0.34912 
 O                     1.68609  -1.36694  -1.06085 
 H                    -3.46724  -1.0868    0.73113 
 H                    -2.39356  -1.76068  -0.51482 
 H                    -2.91935  -0.06121  -0.6127 
 H                    -1.21545  -1.21186   1.6945 
 H                    -1.68561   0.47285   1.50112 
 H                    -0.93493   0.32455  -1.74392 
 H                     0.70273   0.88244  -1.53484 
 H                    -1.78109   2.1556   -0.18154 
 H                    -0.90974   2.79199  -1.59554 
 H                    -0.11598   2.75629  -0.00779 
 H                     1.05493  -0.33161   2.02088 
 H                     0.47151   1.31334   1.69811 
 H                     2.14037   1.46524   0.13217 
 H                    -0.23181  -1.97102  -1.04014 
 H                     0.60754  -2.19369   0.51462 
 H                     2.27633  -0.81195  -0.52215 
 

 GradGradGradGradGradGradGradGradGradGradGradGradGradGradGradGradGradGrad
 Initialization pass.
                           ----------------------------
                           !    Initial Parameters    !
                           ! (Angstroms and Degrees)  !
 --------------------------                            --------------------------
 ! Name  Definition              Value          Derivative Info.                !
 --------------------------------------------------------------------------------
 ! R1    R(1,2)                  1.5281         estimate D2E/DX2                !
 ! R2    R(1,10)                 1.1032         estimate D2E/DX2                !
 ! R3    R(1,11)                 1.103          estimate D2E/DX2                !
 ! R4    R(1,12)                 1.1032         estimate D2E/DX2                !
 ! R5    R(2,3)                  1.5441         estimate D2E/DX2                !
 ! R6    R(2,13)                 1.1066         estimate D2E/DX2                !
 ! R7    R(2,14)                 1.106          estimate D2E/DX2                !
 ! R8    R(3,4)                  1.5423         estimate D2E/DX2                !
 ! R9    R(3,6)                  1.543          estimate D2E/DX2                !
 ! R10   R(3,8)                  1.5469         estimate D2E/DX2                !
 ! R11   R(4,5)                  1.5278         estimate D2E/DX2                !
 ! R12   R(4,15)                 1.1044         estimate D2E/DX2                !
 ! R13   R(4,16)                 1.1037         estimate D2E/DX2                !
 ! R14   R(5,17)                 1.1038         estimate D2E/DX2                !
 ! R15   R(5,18)                 1.1032         estimate D2E/DX2                !
 ! R16   R(5,19)                 1.105          estimate D2E/DX2                !
 ! R17   R(6,7)                  1.4167         estimate D2E/DX2                !
 ! R18   R(6,20)                 1.1031         estimate D2E/DX2                !
 ! R19   R(6,21)                 1.1076         estimate D2E/DX2                !
 ! R20   R(7,22)                 0.9671         estimate D2E/DX2                !
 ! R21   R(8,9)                  1.3994         estimate D2E/DX2                !
 ! R22   R(8,23)                 1.1033         estimate D2E/DX2                !
 ! R23   R(8,24)                 1.1133         estimate D2E/DX2                !
 ! R24   R(9,25)                 0.9729         estimate D2E/DX2                !
 ! A1    A(2,1,10)             110.1104         estimate D2E/DX2                !
 ! A2    A(2,1,11)             112.2294         estimate D2E/DX2                !
 ! A3    A(2,1,12)             111.9144         estimate D2E/DX2                !
 ! A4    A(10,1,11)            107.3446         estimate D2E/DX2                !
 ! A5    A(10,1,12)            107.2944         estimate D2E/DX2                !
 ! A6    A(11,1,12)            107.7121         estimate D2E/DX2                !
 ! A7    A(1,2,3)              116.6571         estimate D2E/DX2                !
 ! A8    A(1,2,13)             108.8663         estimate D2E/DX2                !
 ! A9    A(1,2,14)             108.438          estimate D2E/DX2                !
 ! A10   A(3,2,13)             108.0126         estimate D2E/DX2                !
 ! A11   A(3,2,14)             108.9191         estimate D2E/DX2                !
 ! A12   A(13,2,14)            105.3707         estimate D2E/DX2                !
 ! A13   A(2,3,4)              112.6104         estimate D2E/DX2                !
 ! A14   A(2,3,6)              106.4154         estimate D2E/DX2                !
 ! A15   A(2,3,8)              109.5367         estimate D2E/DX2                !
 ! A16   A(4,3,6)              111.0202         estimate D2E/DX2                !
 ! A17   A(4,3,8)              108.7202         estimate D2E/DX2                !
 ! A18   A(6,3,8)              108.4451         estimate D2E/DX2                !
 ! A19   A(3,4,5)              116.3833         estimate D2E/DX2                !
 ! A20   A(3,4,15)             108.2341         estimate D2E/DX2                !
 ! A21   A(3,4,16)             108.1989         estimate D2E/DX2                !
 ! A22   A(5,4,15)             109.1347         estimate D2E/DX2                !
 ! A23   A(5,4,16)             109.9583         estimate D2E/DX2                !
 ! A24   A(15,4,16)            104.2302         estimate D2E/DX2                !
 ! A25   A(4,5,17)             112.0635         estimate D2E/DX2                !
 ! A26   A(4,5,18)             110.377          estimate D2E/DX2                !
 ! A27   A(4,5,19)             112.4337         estimate D2E/DX2                !
 ! A28   A(17,5,18)            107.3961         estimate D2E/DX2                !
 ! A29   A(17,5,19)            107.2687         estimate D2E/DX2                !
 ! A30   A(18,5,19)            107.0294         estimate D2E/DX2                !
 ! A31   A(3,6,7)              114.2465         estimate D2E/DX2                !
 ! A32   A(3,6,20)             109.1772         estimate D2E/DX2                !
 ! A33   A(3,6,21)             110.4566         estimate D2E/DX2                !
 ! A34   A(7,6,20)             105.4403         estimate D2E/DX2                !
 ! A35   A(7,6,21)             110.3229         estimate D2E/DX2                !
 ! A36   A(20,6,21)            106.8154         estimate D2E/DX2                !
 ! A37   A(6,7,22)             109.0653         estimate D2E/DX2                !
 ! A38   A(3,8,9)              114.1014         estimate D2E/DX2                !
 ! A39   A(3,8,23)             109.8476         estimate D2E/DX2                !
 ! A40   A(3,8,24)             108.1252         estimate D2E/DX2                !
 ! A41   A(9,8,23)             106.3288         estimate D2E/DX2                !
 ! A42   A(9,8,24)             111.2857         estimate D2E/DX2                !
 ! A43   A(23,8,24)            106.9146         estimate D2E/DX2                !
 ! A44   A(8,9,25)             106.9954         estimate D2E/DX2                !
 ! D1    D(10,1,2,3)           176.1167         estimate D2E/DX2                !
 ! D2    D(10,1,2,13)           53.6238         estimate D2E/DX2                !
 ! D3    D(10,1,2,14)          -60.5305         estimate D2E/DX2                !
 ! D4    D(11,1,2,3)            56.6046         estimate D2E/DX2                !
 ! D5    D(11,1,2,13)          -65.8883         estimate D2E/DX2                !
 ! D6    D(11,1,2,14)          179.9574         estimate D2E/DX2                !
 ! D7    D(12,1,2,3)           -64.6386         estimate D2E/DX2                !
 ! D8    D(12,1,2,13)          172.8685         estimate D2E/DX2                !
 ! D9    D(12,1,2,14)           58.7142         estimate D2E/DX2                !
 ! D10   D(1,2,3,4)             51.1916         estimate D2E/DX2                !
 ! D11   D(1,2,3,6)            173.0465         estimate D2E/DX2                !
 ! D12   D(1,2,3,8)            -69.9189         estimate D2E/DX2                !
 ! D13   D(13,2,3,4)           174.1276         estimate D2E/DX2                !
 ! D14   D(13,2,3,6)           -64.0175         estimate D2E/DX2                !
 ! D15   D(13,2,3,8)            53.0171         estimate D2E/DX2                !
 ! D16   D(14,2,3,4)           -71.913          estimate D2E/DX2                !
 ! D17   D(14,2,3,6)            49.9419         estimate D2E/DX2                !
 ! D18   D(14,2,3,8)           166.9765         estimate D2E/DX2                !
 ! D19   D(2,3,4,5)             59.7708         estimate D2E/DX2                !
 ! D20   D(2,3,4,15)           -63.5046         estimate D2E/DX2                !
 ! D21   D(2,3,4,16)          -175.8848         estimate D2E/DX2                !
 ! D22   D(6,3,4,5)            -59.4377         estimate D2E/DX2                !
 ! D23   D(6,3,4,15)           177.2869         estimate D2E/DX2                !
 ! D24   D(6,3,4,16)            64.9067         estimate D2E/DX2                !
 ! D25   D(8,3,4,5)           -178.6538         estimate D2E/DX2                !
 ! D26   D(8,3,4,15)            58.0709         estimate D2E/DX2                !
 ! D27   D(8,3,4,16)           -54.3093         estimate D2E/DX2                !
 ! D28   D(2,3,6,7)            178.579          estimate D2E/DX2                !
 ! D29   D(2,3,6,20)            60.8177         estimate D2E/DX2                !
 ! D30   D(2,3,6,21)           -56.3524         estimate D2E/DX2                !
 ! D31   D(4,3,6,7)            -58.5613         estimate D2E/DX2                !
 ! D32   D(4,3,6,20)          -176.3227         estimate D2E/DX2                !
 ! D33   D(4,3,6,21)            66.5073         estimate D2E/DX2                !
 ! D34   D(8,3,6,7)             60.8196         estimate D2E/DX2                !
 ! D35   D(8,3,6,20)           -56.9418         estimate D2E/DX2                !
 ! D36   D(8,3,6,21)          -174.1118         estimate D2E/DX2                !
 ! D37   D(2,3,8,9)            179.3927         estimate D2E/DX2                !
 ! D38   D(2,3,8,23)            60.1227         estimate D2E/DX2                !
 ! D39   D(2,3,8,24)           -56.2128         estimate D2E/DX2                !
 ! D40   D(4,3,8,9)             55.9582         estimate D2E/DX2                !
 ! D41   D(4,3,8,23)           -63.3119         estimate D2E/DX2                !
 ! D42   D(4,3,8,24)          -179.6474         estimate D2E/DX2                !
 ! D43   D(6,3,8,9)            -64.8569         estimate D2E/DX2                !
 ! D44   D(6,3,8,23)           175.873          estimate D2E/DX2                !
 ! D45   D(6,3,8,24)            59.5375         estimate D2E/DX2                !
 ! D46   D(3,4,5,17)           -58.8            estimate D2E/DX2                !
 ! D47   D(3,4,5,18)          -178.449          estimate D2E/DX2                !
 ! D48   D(3,4,5,19)            62.1221         estimate D2E/DX2                !
 ! D49   D(15,4,5,17)           64.0071         estimate D2E/DX2                !
 ! D50   D(15,4,5,18)          -55.6419         estimate D2E/DX2                !
 ! D51   D(15,4,5,19)         -175.0707         estimate D2E/DX2                !
 ! D52   D(16,4,5,17)          177.7615         estimate D2E/DX2                !
 ! D53   D(16,4,5,18)           58.1125         estimate D2E/DX2                !
 ! D54   D(16,4,5,19)          -61.3164         estimate D2E/DX2                !
 ! D55   D(3,6,7,22)            71.9086         estimate D2E/DX2                !
 ! D56   D(20,6,7,22)         -168.213          estimate D2E/DX2                !
 ! D57   D(21,6,7,22)          -53.2306         estimate D2E/DX2                !
 ! D58   D(3,8,9,25)            48.693          estimate D2E/DX2                !
 ! D59   D(23,8,9,25)          169.9339         estimate D2E/DX2                !
 ! D60   D(24,8,9,25)          -73.9934         estimate D2E/DX2                !
 --------------------------------------------------------------------------------
 Number of steps in this run=    138 maximum allowed number of steps=    150.
 GradGradGradGradGradGradGradGradGradGradGradGradGradGradGradGradGradGrad

                    Distance matrix (angstroms):
                    1          2          3          4          5
     1  C    0.000000
     2  C    1.528082   0.000000
     3  C    2.614702   1.544144   0.000000
     4  C    3.069617   2.567956   1.542324   0.000000
     5  C    3.628882   3.140755   2.609038   1.527784   0.000000
     6  C    3.895513   2.472229   1.543010   2.543013   3.105161
     7  O    5.076257   3.774552   2.486593   2.995491   3.617029
     8  C    3.188937   2.524856   1.546912   2.510609   3.926174
     9  O    4.469546   3.795920   2.473705   2.916518   4.357551
    10  H    1.103226   2.170578   3.548428   4.105213   4.459755
    11  H    1.103013   2.197037   2.890618   3.368082   4.269435
    12  H    1.103245   2.193302   2.944947   2.820109   3.099685
    13  H    2.157135   1.106612   2.160038   3.501797   4.171009
    14  H    2.151129   1.106008   2.171429   2.902663   2.914604
    15  H    2.742656   2.820658   2.159689   1.104350   2.158660
    16  H    4.072253   3.502330   2.158720   1.103658   2.168703
    17  H    3.135072   2.842923   2.897641   2.195310   1.103793
    18  H    4.360047   4.127643   3.547020   2.173713   1.103238
    19  H    4.388999   3.567052   2.928303   2.200851   1.105035
    20  H    4.174434   2.694103   2.171589   3.492338   4.131778
    21  H    4.097107   2.677274   2.191421   2.850529   2.830557
    22  H    5.283363   4.102249   2.759532   2.742262   3.130145
    23  H    2.851320   2.762842   2.183812   2.772806   4.219458
    24  H    3.505578   2.707584   2.168842   3.471019   4.758151
    25  H    4.918484   3.977965   2.546863   3.048045   4.300494
                    6          7          8          9         10
     6  C    0.000000
     7  O    1.416656   0.000000
     8  C    2.506836   2.967767   0.000000
     9  O    2.996597   2.758082   1.399399   0.000000
    10  H    4.641375   5.929199   4.121708   5.463190   0.000000
    11  H    4.308308   5.338635   2.898659   4.134815   1.777438
    12  H    4.261256   5.329828   3.709255   4.807888   1.777053
    13  H    2.706832   4.022911   2.676646   4.004361   2.452406
    14  H    2.600415   3.961689   3.471131   4.617010   2.489903
    15  H    3.486121   3.987929   2.703021   3.193337   3.811878
    16  H    2.801593   2.697153   2.671035   2.500270   5.138208
    17  H    3.491585   4.325143   4.307408   5.020231   3.766858
    18  H    4.107155   4.396612   4.684281   4.931622   5.196079
    19  H    2.835487   3.178030   4.313947   4.621404   5.152314
    20  H    1.103052   2.013876   2.702941   3.311688   4.762747
    21  H    1.107619   2.079344   3.480556   4.033727   4.712700
    22  H    1.958853   0.967055   3.429363   3.106583   6.190070
    23  H    3.472195   3.999157   1.103270   2.010887   3.793055
    24  H    2.713487   3.294132   1.113295   2.080593   4.227994
    25  H    2.534915   1.942188   1.923756   0.972929   5.885142
                   11         12         13         14         15
    11  H    0.000000
    12  H    1.781636   0.000000
    13  H    2.563249   3.090382   0.000000
    14  H    3.090928   2.505111   1.759738   0.000000
    15  H    2.826036   2.316549   3.776503   3.334032   0.000000
    16  H    4.196847   3.854900   4.300478   3.884446   1.742662
    17  H    3.977863   2.528985   3.896052   2.381615   2.551423
    18  H    4.908816   3.625637   5.191207   3.945843   2.472027
    19  H    5.084041   4.020339   4.455651   3.155096   3.098096
    20  H    4.512652   4.775324   2.456818   2.903071   4.308565
    21  H    4.749243   4.327495   3.036855   2.323445   3.847514
    22  H    5.601932   5.337194   4.568285   4.182935   3.778666
    23  H    2.234587   3.324599   3.003687   3.813661   2.501864
    24  H    3.202163   4.272854   2.383154   3.652690   3.717756
    25  H    4.765294   5.250420   4.155240   4.630473   3.618910
                   16         17         18         19         20
    16  H    0.000000
    17  H    3.101885   0.000000
    18  H    2.500026   1.778664   0.000000
    19  H    2.552152   1.778658   1.775472   0.000000
    20  H    3.773731   4.368046   5.166748   3.875775   0.000000
    21  H    3.269725   3.052327   3.865543   2.310268   1.774944
    22  H    2.277140   3.994104   3.748127   2.603368   2.823838
    23  H    3.043080   4.490706   4.842970   4.840109   3.703127
    24  H    3.697553   5.010637   5.622449   5.029782   2.436454
    25  H    2.524424   5.038355   4.928654   4.326670   2.861740
                   21         22         23         24         25
    21  H    0.000000
    22  H    2.293543   0.000000
    23  H    4.333559   4.336980   0.000000
    24  H    3.703844   3.985420   1.780828   0.000000
    25  H    3.564244   2.373226   2.811142   2.401865   0.000000
 Framework group  C1[X(C7H16O2)]
 Deg. of freedom    69
                         Standard orientation:                         
 ---------------------------------------------------------------------
 Center     Atomic      Atomic             Coordinates (Angstroms)
 Number     Number       Type             X           Y           Z
 ---------------------------------------------------------------------
      1          6           0       -2.604613   -0.857825    0.082637
      2          6           0       -1.407065   -0.433445    0.931646
      3          6           0       -0.085026   -0.165820    0.180001
      4          6           0       -0.263668    0.801415   -1.007983
      5          6           0       -0.794574    2.194776   -0.675105
      6          6           0        0.898784    0.410348    1.219726
      7          8           0        2.189664    0.689216    0.707109
      8          6           0        0.488720   -1.501403   -0.349121
      9          8           0        1.686085   -1.366935   -1.060847
     10          1           0       -3.467242   -1.086803    0.731133
     11          1           0       -2.393560   -1.760679   -0.514815
     12          1           0       -2.919350   -0.061211   -0.612702
     13          1           0       -1.215449   -1.211855    1.694504
     14          1           0       -1.685606    0.472850    1.501118
     15          1           0       -0.934926    0.324548   -1.743918
     16          1           0        0.702728    0.882440   -1.534836
     17          1           0       -1.781092    2.155596   -0.181540
     18          1           0       -0.909745    2.791990   -1.595542
     19          1           0       -0.115980    2.756292   -0.007788
     20          1           0        1.054926   -0.331610    2.020876
     21          1           0        0.471512    1.313345    1.698113
     22          1           0        2.140370    1.465237    0.132168
     23          1           0       -0.231808   -1.971022   -1.040136
     24          1           0        0.607542   -2.193690    0.514618
     25          1           0        2.276331   -0.811950   -0.522153
 ---------------------------------------------------------------------
 Rotational constants (GHZ):           1.7996753           1.2877280           1.0529275
   158 basis functions,   289 primitive gaussians,   167 cartesian basis functions
    37 alpha electrons       37 beta electrons
       nuclear repulsion energy       523.3239198791 Hartrees.
 NAtoms=   25 NActive=   25 NUniq=   25 SFac= 1.00D+00 NAtFMM=   60 NAOKFM=F Big=F
 Nuclear repulsion after empirical dispersion term =      523.3031881146 Hartrees.
   1 Symmetry operations used in ECPInt.
 ECPInt:  NShTT=    3741 NPrTT=   15043 LenC2=    3717 LenP2D=   11843.
 LDataN:  DoStor=T MaxTD1= 4 Len=   56
 ExpMin= 1.22D-01 ExpMax= 2.27D+03 ExpMxC= 3.41D+02 IAcc=3 IRadAn=         5 AccDes= 0.00D+00
 Harris functional with IExCor= 4639 and IRadAn=       5 diagonalized for initial guess.
 HarFok:  IExCor= 4639 AccDes= 0.00D+00 IRadAn=         5 IDoV= 1 UseB2=F ITyADJ=14
 ICtDFT=  3500011 ScaDFX=  1.000000  1.000000  1.000000  1.000000
 FoFCou: FMM=F IPFlag=           0 FMFlag=      100000 FMFlg1=           0
         NFxFlg=           0 DoJE=T BraDBF=F KetDBF=T FulRan=T
         wScrn=  0.000000 ICntrl=       500 IOpCl=  0 I1Cent=   200000004 NGrid=           0
         NMat0=    1 NMatS0=      1 NMatT0=    0 NMatD0=    1 NMtDS0=    0 NMtDT0=    0
 Petite list used in FoFCou.
     Minimum is close to point  3 DX=  1.85D-03 DF= -6.25D-07 DXR=  3.08D-03 DFR=  9.41D-06 which will be used.
     Accept linear search using points  2 and  3.
     Accept linear search using points  1 and  2.
     Accept linear search using points  1 and  2.
     Minimum is close to point  2 DX= -5.73D-05 DF= -1.71D-13 DXR=  5.73D-05 DFR=  3.44D-09 which will be used.
 SCF Done:  E(RwB97XD) =  -426.344870866     a.u. after    7 cycles
            Convg  =    0.1234D-08                    31 Fock formations.
              S**2 =  0.0000                  -V/T =  2.0099

 **********************************************************************

            Population analysis using the SCF Density.

 **********************************************************************

 Orbital symmetries:
       Occupied  (A) (A) (A) (A) (A) (A) (A) (A) (A) (A) (A) (A)
                 (A) (A) (A) (A) (A) (A) (A) (A) (A) (A) (A) (A)
                 (A) (A) (A) (A) (A) (A) (A) (A) (A) (A) (A) (A)
                 (A)
       Virtual   (A) (A) (A) (A) (A) (A) (A) (A) (A) (A) (A) (A)
                 (A) (A) (A) (A) (A) (A) (A) (A) (A) (A) (A) (A)
                 (A) (A) (A) (A) (A) (A) (A) (A) (A) (A) (A) (A)
                 (A) (A) (A) (A) (A) (A) (A) (A) (A) (A) (A) (A)
                 (A) (A) (A) (A) (A) (A) (A) (A) (A) (A) (A) (A)
                 (A) (A) (A) (A) (A) (A) (A) (A) (A) (A) (A) (A)
                 (A) (A) (A) (A) (A) (A) (A) (A) (A) (A) (A) (A)
                 (A) (A) (A) (A) (A) (A) (A) (A) (A) (A) (A) (A)
                 (A) (A) (A) (A) (A) (A) (A) (A) (A) (A) (A) (A)
                 (A) (A) (A) (A) (A) (A) (A) (A) (A) (A) (A) (A)
                 (A)
 The electronic state is 1-A.
 Alpha  occ. eigenvalues --  -19.27209 -19.22713 -10.34474 -10.32680 -10.30657
 Alpha  occ. eigenvalues --  -10.29773 -10.29245 -10.29182 -10.28782  -1.13314
 Alpha  occ. eigenvalues --   -1.09312  -0.92311  -0.84593  -0.81879  -0.76561
 Alpha  occ. eigenvalues --   -0.72303  -0.71395  -0.63786  -0.62237  -0.58119
 Alpha  occ. eigenvalues --   -0.56871  -0.54412  -0.53224  -0.51171  -0.50539
 Alpha  occ. eigenvalues --   -0.49610  -0.48501  -0.46659  -0.45567  -0.45293
 Alpha  occ. eigenvalues --   -0.44027  -0.42831  -0.41955  -0.40084  -0.38793
 Alpha  occ. eigenvalues --   -0.35474  -0.33444
 Alpha virt. eigenvalues --    0.10881   0.13615   0.15615   0.15769   0.18152
 Alpha virt. eigenvalues --    0.18559   0.19548   0.20166   0.21202   0.22162
 Alpha virt. eigenvalues --    0.22945   0.23859   0.24604   0.25472   0.26609
 Alpha virt. eigenvalues --    0.27945   0.29290   0.30113   0.30317   0.31416
 Alpha virt. eigenvalues --    0.33175   0.34276   0.35955   0.37168   0.48954
 Alpha virt. eigenvalues --    0.50336   0.51987   0.54000   0.54628   0.57270
 Alpha virt. eigenvalues --    0.57929   0.60261   0.62661   0.64802   0.66883
 Alpha virt. eigenvalues --    0.68503   0.70170   0.70467   0.71986   0.72762
 Alpha virt. eigenvalues --    0.73688   0.75454   0.76886   0.77425   0.77927
 Alpha virt. eigenvalues --    0.78725   0.79163   0.79462   0.79991   0.80595
 Alpha virt. eigenvalues --    0.82002   0.82338   0.82532   0.83408   0.83755
 Alpha virt. eigenvalues --    0.84833   0.86305   0.88397   0.88850   0.91050
 Alpha virt. eigenvalues --    1.01172   1.02301   1.07287   1.08944   1.11431
 Alpha virt. eigenvalues --    1.17281   1.18386   1.21370   1.23835   1.26510
 Alpha virt. eigenvalues --    1.28504   1.31144   1.34281   1.42913   1.48143
 Alpha virt. eigenvalues --    1.53686   1.60173   1.65598   1.69530   1.71507
 Alpha virt. eigenvalues --    1.77877   1.84228   1.85055   1.89775   1.92734
 Alpha virt. eigenvalues --    1.95005   1.98144   1.98968   2.01016   2.02965
 Alpha virt. eigenvalues --    2.07749   2.09784   2.12320   2.15213   2.15536
 Alpha virt. eigenvalues --    2.19001   2.22665   2.25801   2.27061   2.31229
 Alpha virt. eigenvalues --    2.32311   2.35763   2.36028   2.37528   2.45929
 Alpha virt. eigenvalues --    2.56886   2.62714   2.68953   2.73255   2.75294
 Alpha virt. eigenvalues --    2.77973   2.80262   2.81810   2.89675   2.97329
 Alpha virt. eigenvalues --    3.04209   3.07646   3.10510   3.14216   3.45762
 Alpha virt. eigenvalues --    3.51341
          Condensed to atoms (all electrons):
 Mulliken charges:
               1
     1  C   -0.318778
     2  C   -0.198507
     3  C   -0.307470
     4  C   -0.211999
     5  C   -0.319609
     6  C    0.047801
     7  O   -0.498303
     8  C    0.101886
     9  O   -0.504656
    10  H    0.123812
    11  H    0.126888
    12  H    0.123893
    13  H    0.103278
    14  H    0.106125
    15  H    0.113727
    16  H    0.102816
    17  H    0.124332
    18  H    0.128326
    19  H    0.106744
    20  H    0.108958
    21  H    0.107547
    22  H    0.332869
    23  H    0.098265
    24  H    0.079389
    25  H    0.322666
 Sum of Mulliken charges =   0.00000
 Mulliken charges with hydrogens summed into heavy atoms:
               1
     1  C    0.055815
     2  C    0.010896
     3  C   -0.307470
     4  C    0.004544
     5  C    0.039793
     6  C    0.264306
     7  O   -0.165433
     8  C    0.279539
     9  O   -0.181990
 Electronic spatial extent (au):  <R**2>=           1359.9368
 Charge=              0.0000 electrons
 Dipole moment (field-independent basis, Debye):
    X=             -1.7062    Y=              1.9808    Z=              1.0761  Tot=              2.8271
 Evaluate density.
 Using the total density.
 Monte-Carlo method of calculating molar volume:
 based on  0.001 e/bohr**3 density envelope.
 Number of points per bohr**3 =  100 CutOff= 1.00D-04
 Using the SCF density.
 There are      1920 points.  Will hold      1920 in memory.
 LenV=  1048221091 MDV=  1048576000.
 Box volume = 7085.040 fraction occupied=0.186
 Integrated density= 7.2384995155978771D+01 error=-1.6150048440212288D+00
 Molar volume = 1317.375 bohr**3/mol (117.561 cm**3/mol)
 Recommended a0 for SCRF calculation =  4.46 angstrom (  8.43 bohr)
   1 Symmetry operations used in ECPInt.
 ECPInt:  NShTT=    3741 NPrTT=   15043 LenC2=    3717 LenP2D=   11843.
 LDataN:  DoStor=T MaxTD1= 5 Len=  102
 Calling FoFJK, ICntrl=      2127 FMM=F ISym2X=0 I1Cent= 0 IOpClX= 0 NMat=1 NMatS=1 NMatT=0.

 GradGradGradGradGradGradGradGradGradGradGradGradGradGradGradGradGradGrad
 FormGI is forming the generalized inverse of G from B-inverse, IUseBI=4.
 Internal  Forces:  Max     0.000001915 RMS     0.000000296
 Step number   1 out of a maximum of  138
 All quantities printed in internal units (Hartrees-Bohrs-Radians)
 Mixed Optimization -- En-DIIS/RFO-DIIS
 Second derivative matrix not updated -- first step.
 ITU=  0
     Eigenvalues ---    0.00230   0.00230   0.00230   0.00230   0.00394
     Eigenvalues ---    0.00398   0.01471   0.01700   0.03085   0.03102
     Eigenvalues ---    0.04334   0.04496   0.04608   0.04650   0.04670
     Eigenvalues ---    0.04694   0.05241   0.05320   0.05339   0.05539
     Eigenvalues ---    0.05588   0.05709   0.05819   0.09010   0.09014
     Eigenvalues ---    0.11863   0.11918   0.12686   0.12687   0.14024
     Eigenvalues ---    0.14111   0.14121   0.14719   0.16000   0.16000
     Eigenvalues ---    0.16000   0.16000   0.16000   0.16000   0.16000
     Eigenvalues ---    0.16000   0.21900   0.21951   0.22040   0.22049
     Eigenvalues ---    0.27915   0.28155   0.28254   0.28314   0.29601
     Eigenvalues ---    0.29629   0.32254   0.32853   0.32961   0.33026
     Eigenvalues ---    0.33131   0.33206   0.33266   0.33281   0.33323
     Eigenvalues ---    0.33326   0.33327   0.33328   0.33347   0.33351
     Eigenvalues ---    0.42968   0.45720   0.52783   0.53983
 Linear search not attempted -- first point.
 Iteration  1 RMS(Cart)=  0.00001703 RMS(Int)=  0.00000000
 Iteration  2 RMS(Cart)=  0.00000000 RMS(Int)=  0.00000000
 Variable       Old X    -DE/DX   Delta X   Delta X   Delta X     New X
                                 (Linear)    (Quad)   (Total)
    R1        2.88766  -0.00000   0.00000  -0.00000  -0.00000   2.88766
    R2        2.08479  -0.00000   0.00000  -0.00000  -0.00000   2.08479
    R3        2.08439   0.00000   0.00000   0.00000   0.00000   2.08439
    R4        2.08483   0.00000   0.00000   0.00000   0.00000   2.08483
    R5        2.91801  -0.00000   0.00000  -0.00000  -0.00000   2.91801
    R6        2.09119  -0.00000   0.00000  -0.00000  -0.00000   2.09119
    R7        2.09005   0.00000   0.00000   0.00000   0.00000   2.09005
    R8        2.91457   0.00000   0.00000   0.00000   0.00000   2.91457
    R9        2.91587   0.00000   0.00000   0.00000   0.00000   2.91587
   R10        2.92324   0.00000   0.00000   0.00000   0.00000   2.92324
   R11        2.88709   0.00000   0.00000   0.00000   0.00000   2.88709
   R12        2.08692   0.00000   0.00000   0.00000   0.00000   2.08692
   R13        2.08561  -0.00000   0.00000  -0.00000  -0.00000   2.08561
   R14        2.08587   0.00000   0.00000   0.00000   0.00000   2.08587
   R15        2.08482  -0.00000   0.00000  -0.00000  -0.00000   2.08482
   R16        2.08821   0.00000   0.00000   0.00000   0.00000   2.08821
   R17        2.67709   0.00000   0.00000   0.00000   0.00000   2.67709
   R18        2.08447  -0.00000   0.00000  -0.00000  -0.00000   2.08447
   R19        2.09310   0.00000   0.00000   0.00000   0.00000   2.09310
   R20        1.82747  -0.00000   0.00000  -0.00000  -0.00000   1.82747
   R21        2.64448  -0.00000   0.00000  -0.00000  -0.00000   2.64448
   R22        2.08488   0.00000   0.00000   0.00000   0.00000   2.08488
   R23        2.10382   0.00000   0.00000   0.00000   0.00000   2.10382
   R24        1.83857   0.00000   0.00000   0.00000   0.00000   1.83857
    A1        1.92179   0.00000   0.00000   0.00000   0.00000   1.92179
    A2        1.95877  -0.00000   0.00000  -0.00000  -0.00000   1.95877
    A3        1.95328   0.00000   0.00000   0.00000   0.00000   1.95328
    A4        1.87352   0.00000   0.00000  -0.00000  -0.00000   1.87352
    A5        1.87264  -0.00000   0.00000   0.00000   0.00000   1.87264
    A6        1.87993   0.00000   0.00000   0.00000   0.00000   1.87993
    A7        2.03605  -0.00000   0.00000  -0.00000  -0.00000   2.03605
    A8        1.90008   0.00000   0.00000  -0.00000  -0.00000   1.90008
    A9        1.89260   0.00000   0.00000   0.00000   0.00000   1.89260
   A10        1.88518   0.00000   0.00000  -0.00000  -0.00000   1.88517
   A11        1.90100  -0.00000   0.00000  -0.00000  -0.00000   1.90100
   A12        1.83906   0.00000   0.00000   0.00000   0.00000   1.83907
   A13        1.96542   0.00000   0.00000  -0.00000  -0.00000   1.96542
   A14        1.85730  -0.00000   0.00000  -0.00000  -0.00000   1.85730
   A15        1.91178   0.00000   0.00000  -0.00000  -0.00000   1.91177
   A16        1.93767   0.00000   0.00000   0.00001   0.00001   1.93767
   A17        1.89753  -0.00000   0.00000  -0.00000  -0.00000   1.89752
   A18        1.89272   0.00000   0.00000   0.00000   0.00000   1.89272
   A19        2.03127   0.00000   0.00000   0.00000   0.00000   2.03127
   A20        1.88904  -0.00000   0.00000  -0.00000  -0.00000   1.88904
   A21        1.88843  -0.00000   0.00000  -0.00000  -0.00000   1.88843
   A22        1.90476  -0.00000   0.00000  -0.00000  -0.00000   1.90476
   A23        1.91914   0.00000   0.00000   0.00000   0.00000   1.91914
   A24        1.81916   0.00000   0.00000   0.00000   0.00000   1.81916
   A25        1.95588   0.00000   0.00000   0.00000   0.00000   1.95588
   A26        1.92644   0.00000   0.00000   0.00000   0.00000   1.92644
   A27        1.96234  -0.00000   0.00000  -0.00000  -0.00000   1.96234
   A28        1.87442  -0.00000   0.00000  -0.00000  -0.00000   1.87441
   A29        1.87219   0.00000   0.00000   0.00000   0.00000   1.87219
   A30        1.86801  -0.00000   0.00000  -0.00000  -0.00000   1.86801
   A31        1.99398   0.00000   0.00000   0.00000   0.00000   1.99398
   A32        1.90550  -0.00000   0.00000   0.00000   0.00000   1.90550
   A33        1.92783   0.00000   0.00000   0.00000   0.00000   1.92783
   A34        1.84028  -0.00000   0.00000  -0.00000  -0.00000   1.84028
   A35        1.92550  -0.00000   0.00000  -0.00000  -0.00000   1.92550
   A36        1.86428   0.00000   0.00000   0.00000   0.00000   1.86428
   A37        1.90355  -0.00000   0.00000  -0.00000  -0.00000   1.90355
   A38        1.99145  -0.00000   0.00000  -0.00000  -0.00000   1.99145
   A39        1.91720  -0.00000   0.00000  -0.00000  -0.00000   1.91720
   A40        1.88714  -0.00000   0.00000  -0.00000  -0.00000   1.88714
   A41        1.85579   0.00000   0.00000   0.00000   0.00000   1.85579
   A42        1.94230   0.00000   0.00000   0.00000   0.00000   1.94230
   A43        1.86601   0.00000   0.00000   0.00000   0.00000   1.86601
   A44        1.86742   0.00000   0.00000   0.00000   0.00000   1.86742
    D1        3.07382  -0.00000   0.00000   0.00001   0.00001   3.07383
    D2        0.93591   0.00000   0.00000   0.00002   0.00002   0.93593
    D3       -1.05646  -0.00000   0.00000   0.00001   0.00001  -1.05644
    D4        0.98794   0.00000   0.00000   0.00001   0.00001   0.98795
    D5       -1.14997   0.00000   0.00000   0.00002   0.00002  -1.14995
    D6        3.14085  -0.00000   0.00000   0.00001   0.00001   3.14086
    D7       -1.12816   0.00000   0.00000   0.00001   0.00001  -1.12814
    D8        3.01712   0.00000   0.00000   0.00002   0.00002   3.01714
    D9        1.02476  -0.00000   0.00000   0.00001   0.00001   1.02477
   D10        0.89346  -0.00000   0.00000   0.00002   0.00002   0.89348
   D11        3.02023   0.00000   0.00000   0.00002   0.00002   3.02025
   D12       -1.22032   0.00000   0.00000   0.00002   0.00002  -1.22029
   D13        3.03910  -0.00000   0.00000   0.00001   0.00001   3.03911
   D14       -1.11732   0.00000   0.00000   0.00002   0.00002  -1.11729
   D15        0.92532   0.00000   0.00000   0.00002   0.00002   0.92534
   D16       -1.25512  -0.00000   0.00000   0.00002   0.00002  -1.25510
   D17        0.87165   0.00000   0.00000   0.00002   0.00002   0.87167
   D18        2.91429   0.00000   0.00000   0.00002   0.00002   2.91431
   D19        1.04320  -0.00000   0.00000  -0.00002  -0.00002   1.04318
   D20       -1.10836   0.00000   0.00000  -0.00002  -0.00002  -1.10838
   D21       -3.06977   0.00000   0.00000  -0.00002  -0.00002  -3.06979
   D22       -1.03738  -0.00000   0.00000  -0.00002  -0.00002  -1.03741
   D23        3.09424   0.00000   0.00000  -0.00002  -0.00002   3.09422
   D24        1.13284   0.00000   0.00000  -0.00002  -0.00002   1.13281
   D25       -3.11810  -0.00000   0.00000  -0.00003  -0.00003  -3.11812
   D26        1.01353  -0.00000   0.00000  -0.00002  -0.00002   1.01351
   D27       -0.94788  -0.00000   0.00000  -0.00002  -0.00002  -0.94790
   D28        3.11679  -0.00000   0.00000   0.00000   0.00000   3.11679
   D29        1.06147   0.00000   0.00000   0.00000   0.00000   1.06147
   D30       -0.98353  -0.00000   0.00000   0.00000   0.00000  -0.98353
   D31       -1.02209   0.00000   0.00000   0.00000   0.00000  -1.02208
   D32       -3.07741   0.00000   0.00000   0.00001   0.00001  -3.07740
   D33        1.16077   0.00000   0.00000   0.00000   0.00000   1.16078
   D34        1.06150  -0.00000   0.00000   0.00000   0.00000   1.06151
   D35       -0.99382   0.00000   0.00000   0.00001   0.00001  -0.99381
   D36       -3.03882  -0.00000   0.00000   0.00000   0.00000  -3.03882
   D37        3.13099   0.00000   0.00000  -0.00001  -0.00001   3.13099
   D38        1.04934  -0.00000   0.00000  -0.00001  -0.00001   1.04933
   D39       -0.98110  -0.00000   0.00000  -0.00001  -0.00001  -0.98111
   D40        0.97666   0.00000   0.00000  -0.00000  -0.00000   0.97665
   D41       -1.10500   0.00000   0.00000  -0.00001  -0.00001  -1.10501
   D42       -3.13544   0.00000   0.00000  -0.00001  -0.00001  -3.13545
   D43       -1.13197  -0.00000   0.00000  -0.00001  -0.00001  -1.13198
   D44        3.06956  -0.00000   0.00000  -0.00001  -0.00001   3.06955
   D45        1.03913  -0.00000   0.00000  -0.00001  -0.00001   1.03911
   D46       -1.02625  -0.00000   0.00000   0.00000   0.00000  -1.02625
   D47       -3.11452   0.00000   0.00000   0.00000   0.00000  -3.11452
   D48        1.08424   0.00000   0.00000   0.00000   0.00000   1.08424
   D49        1.11713  -0.00000   0.00000  -0.00000  -0.00000   1.11713
   D50       -0.97113  -0.00000   0.00000  -0.00000  -0.00000  -0.97114
   D51       -3.05556  -0.00000   0.00000  -0.00000  -0.00000  -3.05556
   D52        3.10252   0.00000   0.00000  -0.00000  -0.00000   3.10252
   D53        1.01425   0.00000   0.00000  -0.00000  -0.00000   1.01425
   D54       -1.07017   0.00000   0.00000   0.00000   0.00000  -1.07017
   D55        1.25504   0.00000   0.00000   0.00001   0.00001   1.25505
   D56       -2.93587   0.00000   0.00000   0.00001   0.00001  -2.93586
   D57       -0.92905  -0.00000   0.00000   0.00000   0.00000  -0.92905
   D58        0.84985   0.00000   0.00000   0.00001   0.00001   0.84986
   D59        2.96591   0.00000   0.00000   0.00001   0.00001   2.96592
   D60       -1.29143   0.00000   0.00000   0.00001   0.00001  -1.29142
         Item               Value     Threshold  Converged?
 Maximum Force            0.000002     0.000015     YES
 RMS     Force            0.000000     0.000010     YES
 Maximum Displacement     0.000053     0.000060     YES
 RMS     Displacement     0.000017     0.000040     YES
 Optimization completed.
    -- Stationary point found.
                           ----------------------------
                           !   Optimized Parameters   !
                           ! (Angstroms and Degrees)  !
 --------------------------                            --------------------------
 ! Name  Definition              Value          Derivative Info.                !
 --------------------------------------------------------------------------------
 ! R1    R(1,2)                  1.5281         -DE/DX =    0.0                 !
 ! R2    R(1,10)                 1.1032         -DE/DX =    0.0                 !
 ! R3    R(1,11)                 1.103          -DE/DX =    0.0                 !
 ! R4    R(1,12)                 1.1032         -DE/DX =    0.0                 !
 ! R5    R(2,3)                  1.5441         -DE/DX =    0.0                 !
 ! R6    R(2,13)                 1.1066         -DE/DX =    0.0                 !
 ! R7    R(2,14)                 1.106          -DE/DX =    0.0                 !
 ! R8    R(3,4)                  1.5423         -DE/DX =    0.0                 !
 ! R9    R(3,6)                  1.543          -DE/DX =    0.0                 !
 ! R10   R(3,8)                  1.5469         -DE/DX =    0.0                 !
 ! R11   R(4,5)                  1.5278         -DE/DX =    0.0                 !
 ! R12   R(4,15)                 1.1044         -DE/DX =    0.0                 !
 ! R13   R(4,16)                 1.1037         -DE/DX =    0.0                 !
 ! R14   R(5,17)                 1.1038         -DE/DX =    0.0                 !
 ! R15   R(5,18)                 1.1032         -DE/DX =    0.0                 !
 ! R16   R(5,19)                 1.105          -DE/DX =    0.0                 !
 ! R17   R(6,7)                  1.4167         -DE/DX =    0.0                 !
 ! R18   R(6,20)                 1.1031         -DE/DX =    0.0                 !
 ! R19   R(6,21)                 1.1076         -DE/DX =    0.0                 !
 ! R20   R(7,22)                 0.9671         -DE/DX =    0.0                 !
 ! R21   R(8,9)                  1.3994         -DE/DX =    0.0                 !
 ! R22   R(8,23)                 1.1033         -DE/DX =    0.0                 !
 ! R23   R(8,24)                 1.1133         -DE/DX =    0.0                 !
 ! R24   R(9,25)                 0.9729         -DE/DX =    0.0                 !
 ! A1    A(2,1,10)             110.1104         -DE/DX =    0.0                 !
 ! A2    A(2,1,11)             112.2294         -DE/DX =    0.0                 !
 ! A3    A(2,1,12)             111.9144         -DE/DX =    0.0                 !
 ! A4    A(10,1,11)            107.3446         -DE/DX =    0.0                 !
 ! A5    A(10,1,12)            107.2944         -DE/DX =    0.0                 !
 ! A6    A(11,1,12)            107.7121         -DE/DX =    0.0                 !
 ! A7    A(1,2,3)              116.6571         -DE/DX =    0.0                 !
 ! A8    A(1,2,13)             108.8663         -DE/DX =    0.0                 !
 ! A9    A(1,2,14)             108.438          -DE/DX =    0.0                 !
 ! A10   A(3,2,13)             108.0126         -DE/DX =    0.0                 !
 ! A11   A(3,2,14)             108.9191         -DE/DX =    0.0                 !
 ! A12   A(13,2,14)            105.3707         -DE/DX =    0.0                 !
 ! A13   A(2,3,4)              112.6104         -DE/DX =    0.0                 !
 ! A14   A(2,3,6)              106.4154         -DE/DX =    0.0                 !
 ! A15   A(2,3,8)              109.5367         -DE/DX =    0.0                 !
 ! A16   A(4,3,6)              111.0202         -DE/DX =    0.0                 !
 ! A17   A(4,3,8)              108.7202         -DE/DX =    0.0                 !
 ! A18   A(6,3,8)              108.4451         -DE/DX =    0.0                 !
 ! A19   A(3,4,5)              116.3833         -DE/DX =    0.0                 !
 ! A20   A(3,4,15)             108.2341         -DE/DX =    0.0                 !
 ! A21   A(3,4,16)             108.1989         -DE/DX =    0.0                 !
 ! A22   A(5,4,15)             109.1347         -DE/DX =    0.0                 !
 ! A23   A(5,4,16)             109.9583         -DE/DX =    0.0                 !
 ! A24   A(15,4,16)            104.2302         -DE/DX =    0.0                 !
 ! A25   A(4,5,17)             112.0635         -DE/DX =    0.0                 !
 ! A26   A(4,5,18)             110.377          -DE/DX =    0.0                 !
 ! A27   A(4,5,19)             112.4337         -DE/DX =    0.0                 !
 ! A28   A(17,5,18)            107.3961         -DE/DX =    0.0                 !
 ! A29   A(17,5,19)            107.2687         -DE/DX =    0.0                 !
 ! A30   A(18,5,19)            107.0294         -DE/DX =    0.0                 !
 ! A31   A(3,6,7)              114.2465         -DE/DX =    0.0                 !
 ! A32   A(3,6,20)             109.1772         -DE/DX =    0.0                 !
 ! A33   A(3,6,21)             110.4566         -DE/DX =    0.0                 !
 ! A34   A(7,6,20)             105.4403         -DE/DX =    0.0                 !
 ! A35   A(7,6,21)             110.3229         -DE/DX =    0.0                 !
 ! A36   A(20,6,21)            106.8154         -DE/DX =    0.0                 !
 ! A37   A(6,7,22)             109.0653         -DE/DX =    0.0                 !
 ! A38   A(3,8,9)              114.1014         -DE/DX =    0.0                 !
 ! A39   A(3,8,23)             109.8476         -DE/DX =    0.0                 !
 ! A40   A(3,8,24)             108.1252         -DE/DX =    0.0                 !
 ! A41   A(9,8,23)             106.3288         -DE/DX =    0.0                 !
 ! A42   A(9,8,24)             111.2857         -DE/DX =    0.0                 !
 ! A43   A(23,8,24)            106.9146         -DE/DX =    0.0                 !
 ! A44   A(8,9,25)             106.9954         -DE/DX =    0.0                 !
 ! D1    D(10,1,2,3)           176.1167         -DE/DX =    0.0                 !
 ! D2    D(10,1,2,13)           53.6238         -DE/DX =    0.0                 !
 ! D3    D(10,1,2,14)          -60.5305         -DE/DX =    0.0                 !
 ! D4    D(11,1,2,3)            56.6046         -DE/DX =    0.0                 !
 ! D5    D(11,1,2,13)          -65.8883         -DE/DX =    0.0                 !
 ! D6    D(11,1,2,14)          179.9574         -DE/DX =    0.0                 !
 ! D7    D(12,1,2,3)           -64.6386         -DE/DX =    0.0                 !
 ! D8    D(12,1,2,13)          172.8685         -DE/DX =    0.0                 !
 ! D9    D(12,1,2,14)           58.7142         -DE/DX =    0.0                 !
 ! D10   D(1,2,3,4)             51.1916         -DE/DX =    0.0                 !
 ! D11   D(1,2,3,6)            173.0465         -DE/DX =    0.0                 !
 ! D12   D(1,2,3,8)            -69.9189         -DE/DX =    0.0                 !
 ! D13   D(13,2,3,4)           174.1276         -DE/DX =    0.0                 !
 ! D14   D(13,2,3,6)           -64.0175         -DE/DX =    0.0                 !
 ! D15   D(13,2,3,8)            53.0171         -DE/DX =    0.0                 !
 ! D16   D(14,2,3,4)           -71.913          -DE/DX =    0.0                 !
 ! D17   D(14,2,3,6)            49.9419         -DE/DX =    0.0                 !
 ! D18   D(14,2,3,8)           166.9765         -DE/DX =    0.0                 !
 ! D19   D(2,3,4,5)             59.7708         -DE/DX =    0.0                 !
 ! D20   D(2,3,4,15)           -63.5046         -DE/DX =    0.0                 !
 ! D21   D(2,3,4,16)          -175.8848         -DE/DX =    0.0                 !
 ! D22   D(6,3,4,5)            -59.4377         -DE/DX =    0.0                 !
 ! D23   D(6,3,4,15)           177.2869         -DE/DX =    0.0                 !
 ! D24   D(6,3,4,16)            64.9067         -DE/DX =    0.0                 !
 ! D25   D(8,3,4,5)           -178.6538         -DE/DX =    0.0                 !
 ! D26   D(8,3,4,15)            58.0709         -DE/DX =    0.0                 !
 ! D27   D(8,3,4,16)           -54.3093         -DE/DX =    0.0                 !
 ! D28   D(2,3,6,7)            178.579          -DE/DX =    0.0                 !
 ! D29   D(2,3,6,20)            60.8177         -DE/DX =    0.0                 !
 ! D30   D(2,3,6,21)           -56.3524         -DE/DX =    0.0                 !
 ! D31   D(4,3,6,7)            -58.5613         -DE/DX =    0.0                 !
 ! D32   D(4,3,6,20)          -176.3227         -DE/DX =    0.0                 !
 ! D33   D(4,3,6,21)            66.5073         -DE/DX =    0.0                 !
 ! D34   D(8,3,6,7)             60.8196         -DE/DX =    0.0                 !
 ! D35   D(8,3,6,20)           -56.9418         -DE/DX =    0.0                 !
 ! D36   D(8,3,6,21)          -174.1118         -DE/DX =    0.0                 !
 ! D37   D(2,3,8,9)            179.3927         -DE/DX =    0.0                 !
 ! D38   D(2,3,8,23)            60.1227         -DE/DX =    0.0                 !
 ! D39   D(2,3,8,24)           -56.2128         -DE/DX =    0.0                 !
 ! D40   D(4,3,8,9)             55.9582         -DE/DX =    0.0                 !
 ! D41   D(4,3,8,23)           -63.3119         -DE/DX =    0.0                 !
 ! D42   D(4,3,8,24)          -179.6474         -DE/DX =    0.0                 !
 ! D43   D(6,3,8,9)            -64.8569         -DE/DX =    0.0                 !
 ! D44   D(6,3,8,23)           175.873          -DE/DX =    0.0                 !
 ! D45   D(6,3,8,24)            59.5375         -DE/DX =    0.0                 !
 ! D46   D(3,4,5,17)           -58.8            -DE/DX =    0.0                 !
 ! D47   D(3,4,5,18)          -178.449          -DE/DX =    0.0                 !
 ! D48   D(3,4,5,19)            62.1221         -DE/DX =    0.0                 !
 ! D49   D(15,4,5,17)           64.0071         -DE/DX =    0.0                 !
 ! D50   D(15,4,5,18)          -55.6419         -DE/DX =    0.0                 !
 ! D51   D(15,4,5,19)         -175.0707         -DE/DX =    0.0                 !
 ! D52   D(16,4,5,17)          177.7615         -DE/DX =    0.0                 !
 ! D53   D(16,4,5,18)           58.1125         -DE/DX =    0.0                 !
 ! D54   D(16,4,5,19)          -61.3164         -DE/DX =    0.0                 !
 ! D55   D(3,6,7,22)            71.9086         -DE/DX =    0.0                 !
 ! D56   D(20,6,7,22)         -168.213          -DE/DX =    0.0                 !
 ! D57   D(21,6,7,22)          -53.2306         -DE/DX =    0.0                 !
 ! D58   D(3,8,9,25)            48.693          -DE/DX =    0.0                 !
 ! D59   D(23,8,9,25)          169.9339         -DE/DX =    0.0                 !
 ! D60   D(24,8,9,25)          -73.9934         -DE/DX =    0.0                 !
 --------------------------------------------------------------------------------
 GradGradGradGradGradGradGradGradGradGradGradGradGradGradGradGradGradGrad

                    Distance matrix (angstroms):
                    1          2          3          4          5
     1  C    0.000000
     2  C    1.528082   0.000000
     3  C    2.614702   1.544144   0.000000
     4  C    3.069617   2.567956   1.542324   0.000000
     5  C    3.628882   3.140755   2.609038   1.527784   0.000000
     6  C    3.895513   2.472229   1.543010   2.543013   3.105161
     7  O    5.076257   3.774552   2.486593   2.995491   3.617029
     8  C    3.188937   2.524856   1.546912   2.510609   3.926174
     9  O    4.469546   3.795920   2.473705   2.916518   4.357551
    10  H    1.103226   2.170578   3.548428   4.105213   4.459755
    11  H    1.103013   2.197037   2.890618   3.368082   4.269435
    12  H    1.103245   2.193302   2.944947   2.820109   3.099685
    13  H    2.157135   1.106612   2.160038   3.501797   4.171009
    14  H    2.151129   1.106008   2.171429   2.902663   2.914604
    15  H    2.742656   2.820658   2.159689   1.104350   2.158660
    16  H    4.072253   3.502330   2.158720   1.103658   2.168703
    17  H    3.135072   2.842923   2.897641   2.195310   1.103793
    18  H    4.360047   4.127643   3.547020   2.173713   1.103238
    19  H    4.388999   3.567052   2.928303   2.200851   1.105035
    20  H    4.174434   2.694103   2.171589   3.492338   4.131778
    21  H    4.097107   2.677274   2.191421   2.850529   2.830557
    22  H    5.283363   4.102249   2.759532   2.742262   3.130145
    23  H    2.851320   2.762842   2.183812   2.772806   4.219458
    24  H    3.505578   2.707584   2.168842   3.471019   4.758151
    25  H    4.918484   3.977965   2.546863   3.048045   4.300494
                    6          7          8          9         10
     6  C    0.000000
     7  O    1.416656   0.000000
     8  C    2.506836   2.967767   0.000000
     9  O    2.996597   2.758082   1.399399   0.000000
    10  H    4.641375   5.929199   4.121708   5.463190   0.000000
    11  H    4.308308   5.338635   2.898659   4.134815   1.777438
    12  H    4.261256   5.329828   3.709255   4.807888   1.777053
    13  H    2.706832   4.022911   2.676646   4.004361   2.452406
    14  H    2.600415   3.961689   3.471131   4.617010   2.489903
    15  H    3.486121   3.987929   2.703021   3.193337   3.811878
    16  H    2.801593   2.697153   2.671035   2.500270   5.138208
    17  H    3.491585   4.325143   4.307408   5.020231   3.766858
    18  H    4.107155   4.396612   4.684281   4.931622   5.196079
    19  H    2.835487   3.178030   4.313947   4.621404   5.152314
    20  H    1.103052   2.013876   2.702941   3.311688   4.762747
    21  H    1.107619   2.079344   3.480556   4.033727   4.712700
    22  H    1.958853   0.967055   3.429363   3.106583   6.190070
    23  H    3.472195   3.999157   1.103270   2.010887   3.793055
    24  H    2.713487   3.294132   1.113295   2.080593   4.227994
    25  H    2.534915   1.942188   1.923756   0.972929   5.885142
                   11         12         13         14         15
    11  H    0.000000
    12  H    1.781636   0.000000
    13  H    2.563249   3.090382   0.000000
    14  H    3.090928   2.505111   1.759738   0.000000
    15  H    2.826036   2.316549   3.776503   3.334032   0.000000
    16  H    4.196847   3.854900   4.300478   3.884446   1.742662
    17  H    3.977863   2.528985   3.896052   2.381615   2.551423
    18  H    4.908816   3.625637   5.191207   3.945843   2.472027
    19  H    5.084041   4.020339   4.455651   3.155096   3.098096
    20  H    4.512652   4.775324   2.456818   2.903071   4.308565
    21  H    4.749243   4.327495   3.036855   2.323445   3.847514
    22  H    5.601932   5.337194   4.568285   4.182935   3.778666
    23  H    2.234587   3.324599   3.003687   3.813661   2.501864
    24  H    3.202163   4.272854   2.383154   3.652690   3.717756
    25  H    4.765294   5.250420   4.155240   4.630473   3.618910
                   16         17         18         19         20
    16  H    0.000000
    17  H    3.101885   0.000000
    18  H    2.500026   1.778664   0.000000
    19  H    2.552152   1.778658   1.775472   0.000000
    20  H    3.773731   4.368046   5.166748   3.875775   0.000000
    21  H    3.269725   3.052327   3.865543   2.310268   1.774944
    22  H    2.277140   3.994104   3.748127   2.603368   2.823838
    23  H    3.043080   4.490706   4.842970   4.840109   3.703127
    24  H    3.697553   5.010637   5.622449   5.029782   2.436454
    25  H    2.524424   5.038355   4.928654   4.326670   2.861740
                   21         22         23         24         25
    21  H    0.000000
    22  H    2.293543   0.000000
    23  H    4.333559   4.336980   0.000000
    24  H    3.703844   3.985420   1.780828   0.000000
    25  H    3.564244   2.373226   2.811142   2.401865   0.000000
 Framework group  C1[X(C7H16O2)]
 Deg. of freedom    69
                         Standard orientation:                         
 ---------------------------------------------------------------------
 Center     Atomic      Atomic             Coordinates (Angstroms)
 Number     Number       Type             X           Y           Z
 ---------------------------------------------------------------------
      1          6           0       -2.604613   -0.857825    0.082637
      2          6           0       -1.407065   -0.433445    0.931646
      3          6           0       -0.085026   -0.165820    0.180001
      4          6           0       -0.263668    0.801415   -1.007983
      5          6           0       -0.794574    2.194776   -0.675105
      6          6           0        0.898784    0.410348    1.219726
      7          8           0        2.189664    0.689216    0.707109
      8          6           0        0.488720   -1.501403   -0.349121
      9          8           0        1.686085   -1.366935   -1.060847
     10          1           0       -3.467242   -1.086803    0.731133
     11          1           0       -2.393560   -1.760679   -0.514815
     12          1           0       -2.919350   -0.061211   -0.612702
     13          1           0       -1.215449   -1.211855    1.694504
     14          1           0       -1.685606    0.472850    1.501118
     15          1           0       -0.934926    0.324548   -1.743918
     16          1           0        0.702728    0.882440   -1.534836
     17          1           0       -1.781092    2.155596   -0.181540
     18          1           0       -0.909745    2.791990   -1.595542
     19          1           0       -0.115980    2.756292   -0.007788
     20          1           0        1.054926   -0.331610    2.020876
     21          1           0        0.471512    1.313345    1.698113
     22          1           0        2.140370    1.465237    0.132168
     23          1           0       -0.231808   -1.971022   -1.040136
     24          1           0        0.607542   -2.193690    0.514618
     25          1           0        2.276331   -0.811950   -0.522153
 ---------------------------------------------------------------------
 Rotational constants (GHZ):           1.7996753           1.2877280           1.0529275
 1\1\GINC-C122\FOpt\RwB97XD\def2SVPP\C7H16O2\PETERCHAO1\06-Feb-2023\0\\
 #T wB97XD/def2svpp opt=tight freq int(grid=ultrafine) scf=(verytight,q
 c) Volume=tight\\Monomer\\0,1\C,-2.604613,-0.857824,0.082637\C,-1.4070
 65,-0.433445,0.931646\C,-0.085026,-0.16582,0.180001\C,-0.263668,0.8014
 15,-1.007983\C,-0.794573,2.194776,-0.675105\C,0.898784,0.410348,1.2197
 26\O,2.189664,0.689215,0.707109\C,0.48872,-1.501403,-0.349121\O,1.6860
 85,-1.366936,-1.060847\H,-3.467242,-1.086802,0.731133\H,-2.393561,-1.7
 60678,-0.514815\H,-2.91935,-0.06121,-0.612702\H,-1.215449,-1.211855,1.
 694504\H,-1.685606,0.47285,1.501118\H,-0.934926,0.324548,-1.743918\H,0
 .702728,0.88244,-1.534836\H,-1.781091,2.155596,-0.18154\H,-0.909744,2.
 79199,-1.595542\H,-0.115979,2.756292,-0.007788\H,1.054926,-0.33161,2.0
 20876\H,0.471512,1.313345,1.698113\H,2.14037,1.465236,0.132168\H,-0.23
 1809,-1.971022,-1.040136\H,0.607541,-2.19369,0.514618\H,2.276331,-0.81
 1951,-0.522153\\Version=ES64L-G16RevB.01\State=1-A\HF=-426.3448709\RMS
 D=1.304e-11\RMSF=1.003e-06\Dipole=-0.6712804,0.7793064,0.4233516\Quadr
 upole=-1.1399475,1.6181352,-0.4781878,3.3831282,0.5198051,-2.6622502\P
 G=C01 [X(C7H16O2)]\\@


 DEPRESSION IS WAITING FOR YOUR SHIP TO COME IN,
 AND FINDING OUT IT'S THE TITANIC.
 File lengths (MBytes):  RWF=     11 Int=      0 D2E=      0 Chk=      3 Scr=      1
 Normal termination of Gaussian 16 at Mon Feb  6 10:23:18 2023.
 Link1:  Proceeding to internal job step number  2.
 ---------------------------------------------------------------------
 #T Geom=AllCheck Guess=TCheck SCRF=Check GenChk RwB97XD/def2SVPP Freq
 ---------------------------------------------------------------------
 Structure from the checkpoint file:  "11.chk"
 -------
 Monomer
 -------
 Charge =  0 Multiplicity = 1
 Redundant internal coordinates found in file.  (old form).
 C,0,-2.604613,-0.857824,0.082637
 C,0,-1.407065,-0.433445,0.931646
 C,0,-0.085026,-0.16582,0.180001
 C,0,-0.263668,0.801415,-1.007983
 C,0,-0.794573,2.194776,-0.675105
 C,0,0.898784,0.410348,1.219726
 O,0,2.189664,0.689215,0.707109
 C,0,0.48872,-1.501403,-0.349121
 O,0,1.686085,-1.366936,-1.060847
 H,0,-3.467242,-1.086802,0.731133
 H,0,-2.393561,-1.760678,-0.514815
 H,0,-2.91935,-0.06121,-0.612702
 H,0,-1.215449,-1.211855,1.694504
 H,0,-1.685606,0.47285,1.501118
 H,0,-0.934926,0.324548,-1.743918
 H,0,0.702728,0.88244,-1.534836
 H,0,-1.781091,2.155596,-0.18154
 H,0,-0.909744,2.79199,-1.595542
 H,0,-0.115979,2.756292,-0.007788
 H,0,1.054926,-0.33161,2.020876
 H,0,0.471512,1.313345,1.698113
 H,0,2.14037,1.465236,0.132168
 H,0,-0.231809,-1.971022,-1.040136
 H,0,0.607541,-2.19369,0.514618
 H,0,2.276331,-0.811951,-0.522153
 Recover connectivity data from disk.

 GradGradGradGradGradGradGradGradGradGradGradGradGradGradGradGradGradGrad
 Initialization pass.
                           ----------------------------
                           !    Initial Parameters    !
                           ! (Angstroms and Degrees)  !
 --------------------------                            --------------------------
 ! Name  Definition              Value          Derivative Info.                !
 --------------------------------------------------------------------------------
 ! R1    R(1,2)                  1.5281         calculate D2E/DX2 analytically  !
 ! R2    R(1,10)                 1.1032         calculate D2E/DX2 analytically  !
 ! R3    R(1,11)                 1.103          calculate D2E/DX2 analytically  !
 ! R4    R(1,12)                 1.1032         calculate D2E/DX2 analytically  !
 ! R5    R(2,3)                  1.5441         calculate D2E/DX2 analytically  !
 ! R6    R(2,13)                 1.1066         calculate D2E/DX2 analytically  !
 ! R7    R(2,14)                 1.106          calculate D2E/DX2 analytically  !
 ! R8    R(3,4)                  1.5423         calculate D2E/DX2 analytically  !
 ! R9    R(3,6)                  1.543          calculate D2E/DX2 analytically  !
 ! R10   R(3,8)                  1.5469         calculate D2E/DX2 analytically  !
 ! R11   R(4,5)                  1.5278         calculate D2E/DX2 analytically  !
 ! R12   R(4,15)                 1.1044         calculate D2E/DX2 analytically  !
 ! R13   R(4,16)                 1.1037         calculate D2E/DX2 analytically  !
 ! R14   R(5,17)                 1.1038         calculate D2E/DX2 analytically  !
 ! R15   R(5,18)                 1.1032         calculate D2E/DX2 analytically  !
 ! R16   R(5,19)                 1.105          calculate D2E/DX2 analytically  !
 ! R17   R(6,7)                  1.4167         calculate D2E/DX2 analytically  !
 ! R18   R(6,20)                 1.1031         calculate D2E/DX2 analytically  !
 ! R19   R(6,21)                 1.1076         calculate D2E/DX2 analytically  !
 ! R20   R(7,22)                 0.9671         calculate D2E/DX2 analytically  !
 ! R21   R(8,9)                  1.3994         calculate D2E/DX2 analytically  !
 ! R22   R(8,23)                 1.1033         calculate D2E/DX2 analytically  !
 ! R23   R(8,24)                 1.1133         calculate D2E/DX2 analytically  !
 ! R24   R(9,25)                 0.9729         calculate D2E/DX2 analytically  !
 ! A1    A(2,1,10)             110.1104         calculate D2E/DX2 analytically  !
 ! A2    A(2,1,11)             112.2294         calculate D2E/DX2 analytically  !
 ! A3    A(2,1,12)             111.9144         calculate D2E/DX2 analytically  !
 ! A4    A(10,1,11)            107.3446         calculate D2E/DX2 analytically  !
 ! A5    A(10,1,12)            107.2944         calculate D2E/DX2 analytically  !
 ! A6    A(11,1,12)            107.7121         calculate D2E/DX2 analytically  !
 ! A7    A(1,2,3)              116.6571         calculate D2E/DX2 analytically  !
 ! A8    A(1,2,13)             108.8663         calculate D2E/DX2 analytically  !
 ! A9    A(1,2,14)             108.438          calculate D2E/DX2 analytically  !
 ! A10   A(3,2,13)             108.0126         calculate D2E/DX2 analytically  !
 ! A11   A(3,2,14)             108.9191         calculate D2E/DX2 analytically  !
 ! A12   A(13,2,14)            105.3707         calculate D2E/DX2 analytically  !
 ! A13   A(2,3,4)              112.6104         calculate D2E/DX2 analytically  !
 ! A14   A(2,3,6)              106.4154         calculate D2E/DX2 analytically  !
 ! A15   A(2,3,8)              109.5367         calculate D2E/DX2 analytically  !
 ! A16   A(4,3,6)              111.0202         calculate D2E/DX2 analytically  !
 ! A17   A(4,3,8)              108.7202         calculate D2E/DX2 analytically  !
 ! A18   A(6,3,8)              108.4451         calculate D2E/DX2 analytically  !
 ! A19   A(3,4,5)              116.3833         calculate D2E/DX2 analytically  !
 ! A20   A(3,4,15)             108.2341         calculate D2E/DX2 analytically  !
 ! A21   A(3,4,16)             108.1989         calculate D2E/DX2 analytically  !
 ! A22   A(5,4,15)             109.1347         calculate D2E/DX2 analytically  !
 ! A23   A(5,4,16)             109.9583         calculate D2E/DX2 analytically  !
 ! A24   A(15,4,16)            104.2302         calculate D2E/DX2 analytically  !
 ! A25   A(4,5,17)             112.0635         calculate D2E/DX2 analytically  !
 ! A26   A(4,5,18)             110.377          calculate D2E/DX2 analytically  !
 ! A27   A(4,5,19)             112.4337         calculate D2E/DX2 analytically  !
 ! A28   A(17,5,18)            107.3961         calculate D2E/DX2 analytically  !
 ! A29   A(17,5,19)            107.2687         calculate D2E/DX2 analytically  !
 ! A30   A(18,5,19)            107.0294         calculate D2E/DX2 analytically  !
 ! A31   A(3,6,7)              114.2465         calculate D2E/DX2 analytically  !
 ! A32   A(3,6,20)             109.1772         calculate D2E/DX2 analytically  !
 ! A33   A(3,6,21)             110.4566         calculate D2E/DX2 analytically  !
 ! A34   A(7,6,20)             105.4403         calculate D2E/DX2 analytically  !
 ! A35   A(7,6,21)             110.3229         calculate D2E/DX2 analytically  !
 ! A36   A(20,6,21)            106.8154         calculate D2E/DX2 analytically  !
 ! A37   A(6,7,22)             109.0653         calculate D2E/DX2 analytically  !
 ! A38   A(3,8,9)              114.1014         calculate D2E/DX2 analytically  !
 ! A39   A(3,8,23)             109.8476         calculate D2E/DX2 analytically  !
 ! A40   A(3,8,24)             108.1252         calculate D2E/DX2 analytically  !
 ! A41   A(9,8,23)             106.3288         calculate D2E/DX2 analytically  !
 ! A42   A(9,8,24)             111.2857         calculate D2E/DX2 analytically  !
 ! A43   A(23,8,24)            106.9146         calculate D2E/DX2 analytically  !
 ! A44   A(8,9,25)             106.9954         calculate D2E/DX2 analytically  !
 ! D1    D(10,1,2,3)           176.1167         calculate D2E/DX2 analytically  !
 ! D2    D(10,1,2,13)           53.6238         calculate D2E/DX2 analytically  !
 ! D3    D(10,1,2,14)          -60.5305         calculate D2E/DX2 analytically  !
 ! D4    D(11,1,2,3)            56.6046         calculate D2E/DX2 analytically  !
 ! D5    D(11,1,2,13)          -65.8883         calculate D2E/DX2 analytically  !
 ! D6    D(11,1,2,14)          179.9574         calculate D2E/DX2 analytically  !
 ! D7    D(12,1,2,3)           -64.6386         calculate D2E/DX2 analytically  !
 ! D8    D(12,1,2,13)          172.8685         calculate D2E/DX2 analytically  !
 ! D9    D(12,1,2,14)           58.7142         calculate D2E/DX2 analytically  !
 ! D10   D(1,2,3,4)             51.1916         calculate D2E/DX2 analytically  !
 ! D11   D(1,2,3,6)            173.0465         calculate D2E/DX2 analytically  !
 ! D12   D(1,2,3,8)            -69.9189         calculate D2E/DX2 analytically  !
 ! D13   D(13,2,3,4)           174.1276         calculate D2E/DX2 analytically  !
 ! D14   D(13,2,3,6)           -64.0175         calculate D2E/DX2 analytically  !
 ! D15   D(13,2,3,8)            53.0171         calculate D2E/DX2 analytically  !
 ! D16   D(14,2,3,4)           -71.913          calculate D2E/DX2 analytically  !
 ! D17   D(14,2,3,6)            49.9419         calculate D2E/DX2 analytically  !
 ! D18   D(14,2,3,8)           166.9765         calculate D2E/DX2 analytically  !
 ! D19   D(2,3,4,5)             59.7708         calculate D2E/DX2 analytically  !
 ! D20   D(2,3,4,15)           -63.5046         calculate D2E/DX2 analytically  !
 ! D21   D(2,3,4,16)          -175.8848         calculate D2E/DX2 analytically  !
 ! D22   D(6,3,4,5)            -59.4377         calculate D2E/DX2 analytically  !
 ! D23   D(6,3,4,15)           177.2869         calculate D2E/DX2 analytically  !
 ! D24   D(6,3,4,16)            64.9067         calculate D2E/DX2 analytically  !
 ! D25   D(8,3,4,5)           -178.6538         calculate D2E/DX2 analytically  !
 ! D26   D(8,3,4,15)            58.0709         calculate D2E/DX2 analytically  !
 ! D27   D(8,3,4,16)           -54.3093         calculate D2E/DX2 analytically  !
 ! D28   D(2,3,6,7)            178.579          calculate D2E/DX2 analytically  !
 ! D29   D(2,3,6,20)            60.8177         calculate D2E/DX2 analytically  !
 ! D30   D(2,3,6,21)           -56.3524         calculate D2E/DX2 analytically  !
 ! D31   D(4,3,6,7)            -58.5613         calculate D2E/DX2 analytically  !
 ! D32   D(4,3,6,20)          -176.3227         calculate D2E/DX2 analytically  !
 ! D33   D(4,3,6,21)            66.5073         calculate D2E/DX2 analytically  !
 ! D34   D(8,3,6,7)             60.8196         calculate D2E/DX2 analytically  !
 ! D35   D(8,3,6,20)           -56.9418         calculate D2E/DX2 analytically  !
 ! D36   D(8,3,6,21)          -174.1118         calculate D2E/DX2 analytically  !
 ! D37   D(2,3,8,9)            179.3927         calculate D2E/DX2 analytically  !
 ! D38   D(2,3,8,23)            60.1227         calculate D2E/DX2 analytically  !
 ! D39   D(2,3,8,24)           -56.2128         calculate D2E/DX2 analytically  !
 ! D40   D(4,3,8,9)             55.9582         calculate D2E/DX2 analytically  !
 ! D41   D(4,3,8,23)           -63.3119         calculate D2E/DX2 analytically  !
 ! D42   D(4,3,8,24)          -179.6474         calculate D2E/DX2 analytically  !
 ! D43   D(6,3,8,9)            -64.8569         calculate D2E/DX2 analytically  !
 ! D44   D(6,3,8,23)           175.873          calculate D2E/DX2 analytically  !
 ! D45   D(6,3,8,24)            59.5375         calculate D2E/DX2 analytically  !
 ! D46   D(3,4,5,17)           -58.8            calculate D2E/DX2 analytically  !
 ! D47   D(3,4,5,18)          -178.449          calculate D2E/DX2 analytically  !
 ! D48   D(3,4,5,19)            62.1221         calculate D2E/DX2 analytically  !
 ! D49   D(15,4,5,17)           64.0071         calculate D2E/DX2 analytically  !
 ! D50   D(15,4,5,18)          -55.6419         calculate D2E/DX2 analytically  !
 ! D51   D(15,4,5,19)         -175.0707         calculate D2E/DX2 analytically  !
 ! D52   D(16,4,5,17)          177.7615         calculate D2E/DX2 analytically  !
 ! D53   D(16,4,5,18)           58.1125         calculate D2E/DX2 analytically  !
 ! D54   D(16,4,5,19)          -61.3164         calculate D2E/DX2 analytically  !
 ! D55   D(3,6,7,22)            71.9086         calculate D2E/DX2 analytically  !
 ! D56   D(20,6,7,22)         -168.213          calculate D2E/DX2 analytically  !
 ! D57   D(21,6,7,22)          -53.2306         calculate D2E/DX2 analytically  !
 ! D58   D(3,8,9,25)            48.693          calculate D2E/DX2 analytically  !
 ! D59   D(23,8,9,25)          169.9339         calculate D2E/DX2 analytically  !
 ! D60   D(24,8,9,25)          -73.9934         calculate D2E/DX2 analytically  !
 --------------------------------------------------------------------------------
 Number of steps in this run=      2 maximum allowed number of steps=      2.
 GradGradGradGradGradGradGradGradGradGradGradGradGradGradGradGradGradGrad

                    Distance matrix (angstroms):
                    1          2          3          4          5
     1  C    0.000000
     2  C    1.528082   0.000000
     3  C    2.614702   1.544144   0.000000
     4  C    3.069617   2.567956   1.542324   0.000000
     5  C    3.628882   3.140755   2.609038   1.527784   0.000000
     6  C    3.895513   2.472229   1.543010   2.543013   3.105161
     7  O    5.076257   3.774552   2.486593   2.995491   3.617029
     8  C    3.188937   2.524856   1.546912   2.510609   3.926174
     9  O    4.469546   3.795920   2.473705   2.916518   4.357551
    10  H    1.103226   2.170578   3.548428   4.105213   4.459755
    11  H    1.103013   2.197037   2.890618   3.368082   4.269435
    12  H    1.103245   2.193302   2.944947   2.820109   3.099685
    13  H    2.157135   1.106612   2.160038   3.501797   4.171009
    14  H    2.151129   1.106008   2.171429   2.902663   2.914604
    15  H    2.742656   2.820658   2.159689   1.104350   2.158660
    16  H    4.072253   3.502330   2.158720   1.103658   2.168703
    17  H    3.135072   2.842923   2.897641   2.195310   1.103793
    18  H    4.360047   4.127643   3.547020   2.173713   1.103238
    19  H    4.388999   3.567052   2.928303   2.200851   1.105035
    20  H    4.174434   2.694103   2.171589   3.492338   4.131778
    21  H    4.097107   2.677274   2.191421   2.850529   2.830557
    22  H    5.283363   4.102249   2.759532   2.742262   3.130145
    23  H    2.851320   2.762842   2.183812   2.772806   4.219458
    24  H    3.505578   2.707584   2.168842   3.471019   4.758151
    25  H    4.918484   3.977965   2.546863   3.048045   4.300494
                    6          7          8          9         10
     6  C    0.000000
     7  O    1.416656   0.000000
     8  C    2.506836   2.967767   0.000000
     9  O    2.996597   2.758082   1.399399   0.000000
    10  H    4.641375   5.929199   4.121708   5.463190   0.000000
    11  H    4.308308   5.338635   2.898659   4.134815   1.777438
    12  H    4.261256   5.329828   3.709255   4.807888   1.777053
    13  H    2.706832   4.022911   2.676646   4.004361   2.452406
    14  H    2.600415   3.961689   3.471131   4.617010   2.489903
    15  H    3.486121   3.987929   2.703021   3.193337   3.811878
    16  H    2.801593   2.697153   2.671035   2.500270   5.138208
    17  H    3.491585   4.325143   4.307408   5.020231   3.766858
    18  H    4.107155   4.396612   4.684281   4.931622   5.196079
    19  H    2.835487   3.178030   4.313947   4.621404   5.152314
    20  H    1.103052   2.013876   2.702941   3.311688   4.762747
    21  H    1.107619   2.079344   3.480556   4.033727   4.712700
    22  H    1.958853   0.967055   3.429363   3.106583   6.190070
    23  H    3.472195   3.999157   1.103270   2.010887   3.793055
    24  H    2.713487   3.294132   1.113295   2.080593   4.227994
    25  H    2.534915   1.942188   1.923756   0.972929   5.885142
                   11         12         13         14         15
    11  H    0.000000
    12  H    1.781636   0.000000
    13  H    2.563249   3.090382   0.000000
    14  H    3.090928   2.505111   1.759738   0.000000
    15  H    2.826036   2.316549   3.776503   3.334032   0.000000
    16  H    4.196847   3.854900   4.300478   3.884446   1.742662
    17  H    3.977863   2.528985   3.896052   2.381615   2.551423
    18  H    4.908816   3.625637   5.191207   3.945843   2.472027
    19  H    5.084041   4.020339   4.455651   3.155096   3.098096
    20  H    4.512652   4.775324   2.456818   2.903071   4.308565
    21  H    4.749243   4.327495   3.036855   2.323445   3.847514
    22  H    5.601932   5.337194   4.568285   4.182935   3.778666
    23  H    2.234587   3.324599   3.003687   3.813661   2.501864
    24  H    3.202163   4.272854   2.383154   3.652690   3.717756
    25  H    4.765294   5.250420   4.155240   4.630473   3.618910
                   16         17         18         19         20
    16  H    0.000000
    17  H    3.101885   0.000000
    18  H    2.500026   1.778664   0.000000
    19  H    2.552152   1.778658   1.775472   0.000000
    20  H    3.773731   4.368046   5.166748   3.875775   0.000000
    21  H    3.269725   3.052327   3.865543   2.310268   1.774944
    22  H    2.277140   3.994104   3.748127   2.603368   2.823838
    23  H    3.043080   4.490706   4.842970   4.840109   3.703127
    24  H    3.697553   5.010637   5.622449   5.029782   2.436454
    25  H    2.524424   5.038355   4.928654   4.326670   2.861740
                   21         22         23         24         25
    21  H    0.000000
    22  H    2.293543   0.000000
    23  H    4.333559   4.336980   0.000000
    24  H    3.703844   3.985420   1.780828   0.000000
    25  H    3.564244   2.373226   2.811142   2.401865   0.000000
 Framework group  C1[X(C7H16O2)]
 Deg. of freedom    69
                         Standard orientation:                         
 ---------------------------------------------------------------------
 Center     Atomic      Atomic             Coordinates (Angstroms)
 Number     Number       Type             X           Y           Z
[...]
 08097,-0.00049110,-0.00053065,-0.00044812,-0.00014028,0.00025683,0.000
 02226,-0.00010452,-0.00067823,0.00114295,-0.00060546,0.00126859,0.0000
 9540,0.00194151,-0.00576647,-0.00131988,0.01159329,0.05283442,0.000132
 38,-0.00011036,0.00019852,0.00016954,0.00072989,0.00014278,-0.00056194
 ,0.00021521,0.00000713,0.00571472,0.00028984,-0.00326893,0.10641799,0.
 00574589,-0.10231873,-0.00024424,-0.00013231,0.00013994,0.00021473,0.0
 0018363,-0.00000839,0.00010415,0.00023307,-0.00001191,0.00006068,-0.00
 024841,0.00010679,-0.00004060,0.00007928,-0.00006672,-0.00006959,0.000
 07356,-0.00010257,-0.00026362,-0.00029212,-0.00011524,-0.00014364,-0.0
 0013916,0.00001392,-0.00001300,0.00105173,-0.00077696,0.00022043,0.000
 17432,-0.00019003,0.00013314,-0.00140636,0.00060671,-0.11738967,-0.005
 53111,0.10511716,0.00012015,0.00000211,-0.00002669,-0.00017193,0.00013
 013,0.00044876,-0.00059497,0.00169996,0.00150837,-0.00203213,0.0059817
 4,-0.01061926,-0.05158909,0.01366455,-0.02254465,0.00027704,-0.0000076
 4,-0.00000372,-0.00009965,0.00008436,0.00008602,0.00029544,0.00032588,
 -0.00068541,-0.00008768,-0.00011171,0.00012602,0.00001970,0.00000897,0
 .00000695,-0.00002730,-0.00005475,-0.00002030,0.00004442,0.00003697,0.
 00010455,0.00008748,-0.00013348,-0.00014958,0.00006821,-0.00024539,-0.
 00034085,0.00051223,-0.00056946,0.00036817,-0.00008022,-0.00019909,-0.
 00053783,0.00538494,-0.01547728,0.02423491,0.04956215,0.00004106,-0.00
 000452,0.00012895,0.00044453,0.00019950,-0.00048231,0.00220750,-0.0041
 2913,-0.00402567,0.00249145,-0.01629672,0.02653440,0.01374816,-0.12324
 533,0.12099871,-0.00047325,-0.00039313,-0.00089251,0.00024893,0.000277
 21,0.00011299,-0.00029424,-0.00062221,0.00199863,0.00034068,0.00017045
 ,-0.00027704,-0.00006894,-0.00001212,-0.00002877,0.00002986,0.00000200
 ,-0.00000739,-0.00000504,0.00002597,0.00001151,-0.00008236,-0.00003731
 ,0.00007019,-0.00008094,0.00008009,-0.00000018,-0.00077523,0.00063986,
 0.00021770,0.00020359,0.00118851,-0.00002172,0.00012289,-0.00094130,-0
 .00005722,-0.01748609,0.13397946,-0.00006675,0.00003560,0.00002010,0.0
 0011776,-0.00022321,-0.00025559,0.00062714,-0.00165032,0.00002013,0.00
 132878,-0.00679027,0.00872652,-0.02317819,0.12237883,-0.24072216,0.000
 32998,-0.00037691,-0.00044703,-0.00024496,0.00011554,0.00017497,0.0000
 6951,-0.00020893,0.00025437,-0.00008722,0.00011177,0.00003420,0.000012
 21,0.00000557,-0.00001537,0.00002898,0.00003260,0.00002748,-0.00003641
 ,0.00000300,-0.00005628,-0.00004178,0.00008947,0.00007035,-0.00012770,
 0.00011350,0.00023656,-0.00007495,0.00038314,0.00071916,-0.00031711,0.
 00044383,0.00047979,-0.00284376,0.00553092,-0.00963221,0.02445837,-0.1
 2985989,0.25370750,-0.00003539,0.00013978,-0.00019227,-0.00007071,-0.0
 0014368,-0.00012899,0.00004998,-0.00043272,-0.00029666,0.00965728,0.00
 619454,0.00930742,-0.15278827,-0.08176504,-0.09880270,0.00024367,0.000
 25875,-0.00142055,-0.00005872,0.00013920,0.00031612,0.00005265,-0.0000
 9751,0.00022708,0.00000624,-0.00010190,0.00003493,0.00001573,-0.000049
 84,0.00002136,0.00004208,-0.00012275,0.00010513,0.00019366,0.00015372,
 0.00016601,0.00003463,-0.00004402,0.00003930,-0.00010763,0.00004522,-0
 .00007425,0.00001655,0.00296123,0.00068522,0.00085016,-0.00074147,0.00
 006896,-0.01511761,-0.01283394,-0.01878507,-0.00173330,-0.00066138,-0.
 00013937,0.15931639,-0.00003966,0.00011839,-0.00006130,0.00011121,-0.0
 0014515,-0.00005054,-0.00080612,0.00104694,-0.00075044,-0.02055448,-0.
 01339680,-0.01838131,-0.08182035,-0.11353565,-0.07876220,0.00025201,-0
 .00157809,0.00041066,-0.00014121,0.00069882,0.00021788,0.00008894,0.00
 011542,-0.00004929,0.00016534,0.00003431,0.00021072,0.00001857,-0.0000
 2263,0.00008918,0.00005083,0.00007144,0.00003504,0.00020121,-0.0000145
 1,0.00002096,-0.00003231,-0.00002586,0.00009419,-0.00013928,0.00003092
 ,0.00004078,0.00295735,-0.00537514,-0.00106799,0.00019670,0.00143197,0
 .00031510,-0.00015585,-0.00112813,-0.00037592,0.01199487,0.00959129,0.
 00966048,0.08630334,0.12248753,-0.00002798,0.00005565,0.00007502,0.000
 11155,0.00000092,0.00007764,0.00034834,0.00039091,-0.00013026,-0.00348
 898,-0.00285380,-0.00420143,-0.09927487,-0.07877183,-0.14442097,-0.001
 16551,0.00063848,-0.00046400,0.00056768,0.00051423,-0.00019328,-0.0002
 9238,-0.00000340,0.00011409,0.00023019,0.00003607,0.00000350,-0.000010
 10,-0.00001353,0.00002633,-0.00000322,0.00006689,-0.00006371,-0.000023
 89,-0.00010148,-0.00006565,-0.00002406,-0.00005937,0.00000825,0.000031
 49,-0.00008746,-0.00001218,0.00109354,-0.00129629,0.00072834,0.0000805
 6,-0.00001180,-0.00010692,0.00938054,0.00828213,0.01030490,-0.01652629
 ,-0.01452729,-0.01364717,0.10902337,0.08710331,0.15248104,0.00003749,-
 0.00012419,0.00026097,0.00051951,0.00080977,-0.00106567,-0.00246837,0.
 01322419,-0.01401167,-0.00272543,-0.00248085,-0.00213890,0.00023016,-0
 .00039402,-0.00009730,-0.05618985,0.04027071,-0.03873604,-0.00462956,-
 0.03052359,0.03031700,0.00037914,0.00106384,0.00070149,0.00029881,-0.0
 0001630,0.00009675,-0.00002632,-0.00001241,-0.00000145,0.00004237,0.00
 004855,0.00001661,0.00016303,0.00001126,0.00007857,-0.00075982,-0.0008
 4305,0.00006213,0.00008477,0.00009547,0.00005960,-0.00013324,0.0007281
 2,-0.00112488,0.00013603,-0.00003726,-0.00003625,-0.00004436,0.0000245
 1,0.00003884,-0.00005856,0.00003067,-0.00004232,-0.00004607,-0.0000878
 2,0.00012672,0.07058637,0.00017146,0.00010312,-0.00015239,0.00020591,0
 .00042409,-0.00047722,-0.00263480,0.00745464,-0.00938717,-0.00165893,-
 0.00099250,-0.00160887,-0.00023958,-0.00027206,0.00005174,0.03144986,-
 0.17514352,0.12894391,-0.00443360,-0.00401014,0.00592243,-0.00035398,0
 .00121377,-0.00174679,-0.00008933,-0.00004562,0.00022038,0.00005462,0.
 00000850,0.00003277,-0.00002596,-0.00000150,-0.00001809,-0.00004345,-0
 .00001320,-0.00007077,-0.00003081,0.00016121,0.00001448,0.00002199,-0.
 00014602,0.00020468,-0.00010028,0.00055699,-0.00055836,0.00013096,-0.0
 0003047,0.00005538,0.00003752,0.00003183,-0.00001926,0.00009131,0.0001
 1282,0.00013931,0.00012610,0.00034368,0.00012510,-0.02566237,0.1837153
 7,-0.00000448,-0.00040969,0.00021522,0.00102970,0.00060126,0.00023998,
 -0.00526911,0.01556525,-0.01760797,-0.00311967,-0.00329628,-0.00173028
 ,0.00004421,-0.00057395,0.00019006,-0.03036693,0.12538615,-0.18475318,
 0.00458549,0.01125226,-0.00938465,0.00037336,0.00265325,-0.00006200,0.
 00001610,-0.00081541,0.00030559,-0.00004293,-0.00003301,-0.00000205,-0
 .00000401,0.00003243,-0.00003482,0.00022791,0.00000775,0.00010220,-0.0
 0039079,-0.00035591,0.00072637,-0.00012837,-0.00016775,-0.00002542,-0.
 00017639,0.00089682,-0.00117334,0.00015415,0.00002945,0.00023040,-0.00
 008449,0.00007123,0.00000242,0.00005094,0.00016080,0.00010793,0.000130
 40,0.00014714,0.00014693,0.02920359,-0.14002843,0.20125512,0.00010723,
 0.00012964,0.00010561,0.00118658,-0.00143368,-0.00149753,0.00717762,-0
 .01622087,-0.00706365,0.00041726,0.00011568,0.00055825,0.00016892,0.00
 068862,-0.00038919,-0.07849458,0.07154020,0.03583231,-0.02893997,0.022
 97689,0.02195274,-0.00393612,-0.00103020,-0.00217612,0.00113764,0.0010
 3944,0.00040692,0.00000502,0.00000653,0.00000333,0.00010191,-0.0000255
 4,0.00000143,-0.00000332,0.00000193,0.00000118,-0.00002200,0.00005023,
 0.00009560,-0.00081850,-0.00003833,0.00000035,0.00001698,-0.00010458,0
 .00012413,0.00000225,0.00007955,-0.00025909,-0.00009208,0.00000680,0.0
 0002200,-0.00011074,-0.00008148,-0.00005610,-0.00017130,0.00039188,-0.
 00058674,0.00003924,0.00421957,0.00156118,0.10135185,-0.00032659,0.000
 30380,0.00033271,0.00091605,-0.00008448,-0.00054001,0.00479229,-0.0097
 5249,-0.00379018,-0.00006165,-0.00030003,0.00052988,0.00009614,-0.0005
 2471,0.00061005,0.07708704,-0.23210092,-0.08655430,-0.00572908,0.01438
 416,0.00482785,-0.00345673,-0.00019854,-0.00193699,0.00059903,0.000404
 32,0.00000215,-0.00008900,-0.00002734,-0.00003379,0.00020937,0.0001333
 1,0.00014438,0.00002193,-0.00001712,-0.00001926,0.00009003,0.00002183,
 -0.00007375,-0.00115089,0.00032968,0.00029007,-0.00003568,0.00008485,-
 0.00009768,-0.00001357,-0.00004053,0.00007824,-0.00010989,0.00002416,-
 0.00011871,0.00006832,0.00027019,0.00025897,0.00081364,-0.00024244,0.0
 0132596,0.00644570,-0.01498015,-0.00956157,-0.08076299,0.24088484,-0.0
 0012346,0.00029252,0.00006342,0.00153928,0.00046212,0.00001525,0.00759
 156,-0.02160994,-0.00851703,0.00088316,-0.00073983,0.00071208,-0.00052
 005,-0.00019540,-0.00034812,0.03358614,-0.08392824,-0.09554998,0.01455
 345,-0.00729369,-0.00615864,-0.00457729,-0.00002676,-0.00254540,0.0005
 0251,0.00034376,0.00003705,-0.00004186,0.00001962,-0.00000921,0.000154
 09,0.00010830,0.00007382,-0.00004461,-0.00001416,-0.00004815,-0.000102
 77,0.00012047,0.00001568,-0.00042980,0.00029312,0.00079275,-0.00008128
 ,0.00011520,0.00020771,-0.00001783,0.00002218,-0.00002653,-0.00002652,
 0.00006373,0.00000229,0.00021704,0.00024020,0.00034324,-0.00019661,0.0
 0143525,-0.00082730,-0.00851180,0.01810631,0.01158872,-0.04540666,0.09
 472830,0.09968721,0.00007501,0.00013234,-0.00013825,-0.00017363,0.0001
 8282,-0.00002268,-0.00023831,-0.00138665,0.00082244,-0.00113260,-0.000
 28601,-0.00020660,-0.00057288,-0.00009397,-0.00041686,-0.00150010,-0.0
 3585367,0.02712262,-0.04654777,0.05478147,-0.02779941,0.00006605,-0.00
 041847,-0.00004922,-0.00038999,0.00043244,0.00047930,0.00006215,0.0000
 4342,-0.00002287,-0.00001433,0.00000005,0.00002009,-0.00012124,-0.0000
 0486,-0.00004652,0.00017488,0.00021333,-0.00022131,0.00002746,0.000003
 12,0.00010183,0.00061077,0.00013136,-0.00005003,-0.00002437,-0.0003280
 2,-0.00182892,0.00036566,-0.00000629,0.00015498,0.00026464,0.00002096,
 0.00021004,-0.00031180,0.00094413,0.00039027,-0.00553919,-0.00107368,0
 .00209389,0.00098952,0.00061678,0.00064936,0.05332433,0.00015665,0.000
 09387,-0.00022113,-0.00005346,0.00017003,0.00039270,0.00095184,-0.0008
 2093,0.00004002,-0.00100511,0.00067225,0.00048045,0.00043950,0.0008999
 8,0.00066071,0.00303185,-0.00635630,0.00502225,0.01393733,-0.32899371,
 0.23742322,-0.00078961,-0.00069778,0.00076661,0.00049553,0.00140497,-0
 .00095025,0.00011289,0.00004315,0.00001651,-0.00003178,-0.00002585,0.0
 0001765,-0.00001510,0.00001582,0.00002151,0.00006726,0.00004926,-0.000
 11478,0.00009841,-0.00005816,-0.00008370,0.00048242,-0.00023394,-0.000
 09493,0.00015843,0.00042694,-0.00109323,-0.00015133,-0.00030597,-0.000
 27066,-0.00001622,-0.00018938,-0.00002707,-0.00009046,-0.00046550,-0.0
 0063439,-0.00154090,0.00190635,-0.00078216,0.00113796,0.00181416,-0.00
 131648,-0.01812873,0.33405621,-0.00004989,-0.00011575,0.00006690,-0.00
 052906,0.00021567,-0.00050683,-0.00055539,-0.00121490,0.00164386,-0.00
 143890,0.00017570,0.00135883,0.00021645,0.00068718,0.00002588,-0.00152
 998,0.01456008,-0.01205214,0.00087370,0.22821122,-0.17606763,-0.000602
 16,-0.00032504,0.00032653,0.00000838,0.00035395,-0.00181688,-0.0000270
 3,0.00000590,-0.00004648,-0.00003034,-0.00004456,-0.00002247,-0.000059
 18,0.00002036,0.00000595,0.00010143,-0.00002026,-0.00008432,0.00015875
 ,-0.00008341,-0.00008325,0.00061754,-0.00008487,-0.00020887,-0.0006369
 1,-0.00045338,-0.00196235,0.00018380,-0.00019549,-0.00008203,-0.000189
 87,-0.00005693,-0.00014505,-0.00002630,-0.00032200,0.00019224,0.004546
 42,0.00021185,-0.00074866,-0.00147646,0.00006531,0.00032094,0.00009958
 ,-0.24032117,0.18744311,-0.00169822,0.00035487,0.00041951,0.00023533,-
 0.00064846,-0.00014325,0.00883700,0.00479425,0.00677612,0.00037986,-0.
 00005486,0.00036598,0.00007428,-0.00004864,0.00015098,-0.00118327,0.00
 213990,0.00109000,0.00050334,-0.00084839,-0.00103081,-0.14984937,-0.06
 639935,-0.10591538,-0.03344670,-0.01887954,-0.01316174,0.00001750,0.00
 008426,0.00006595,-0.00217511,0.00075760,0.00086648,-0.00003482,0.0000
 9060,0.00001639,-0.00004992,-0.00010670,0.00002048,0.00020224,-0.00004
 860,-0.00017654,0.00008838,-0.00015306,0.00002540,-0.00005725,0.000224
 99,-0.00014442,-0.00000674,-0.00000169,-0.00000924,0.00000260,-0.00005
 222,-0.00000689,-0.00000648,0.00003695,0.00004758,-0.00005766,0.000036
 87,0.00000400,0.00049513,0.00042840,0.00044912,-0.00001240,0.00014301,
 0.00009050,0.18315005,0.00003029,-0.00016278,-0.00009168,-0.00085760,0
 .00042976,0.00035979,-0.01811048,-0.01202219,-0.01935909,-0.00108823,0
 .00106654,-0.00115663,0.00028986,0.00023990,0.00017227,0.00419876,-0.0
 0443641,-0.00095780,-0.00038736,0.00023906,0.00060547,-0.06820039,-0.0
 9800327,-0.06823269,-0.00595238,-0.00018853,-0.00108994,-0.00003926,0.
 00022495,0.00022476,0.00052984,0.00069761,0.00011748,0.00002411,-0.000
 00600,-0.00000177,0.00021308,-0.00004525,-0.00006625,-0.00003508,-0.00
 000582,0.00012269,0.00060649,-0.00053343,0.00077910,0.00001297,-0.0000
 1075,-0.00000330,-0.00003914,-0.00000649,-0.00002663,0.00000932,0.0000
 0462,0.00001863,-0.00001231,0.00026571,0.00002769,0.00007154,0.0001621
 0,-0.00015667,-0.00103108,-0.00073177,-0.00147184,0.00005736,0.0001658
 4,-0.00008974,0.07743769,0.10172374,0.00001887,-0.00081494,-0.00030710
 ,-0.00058005,-0.00047518,-0.00015948,-0.00639818,-0.00268744,-0.006678
 30,0.00026257,0.00115191,0.00050581,0.00013542,0.00000784,0.00009774,0
 .00214238,-0.00220397,-0.00072016,-0.00052477,0.00037954,0.00066779,-0
 .11597901,-0.07326010,-0.16706621,0.01939061,0.01069311,0.01537837,-0.
 00005527,0.00032019,0.00022238,0.00080526,0.00049611,0.00061316,-0.000
 05418,0.00020249,0.00008062,-0.00006923,-0.00005694,-0.00001700,0.0001
 3928,0.00015698,0.00007970,0.00003428,-0.00009768,0.00053614,0.0000952
 6,-0.00003251,-0.00002233,0.00001971,-0.00004104,-0.00004776,0.0000278
 4,-0.00002535,0.00002124,0.00002167,0.00013366,0.00002700,0.00028253,0
 .00004698,0.00059378,-0.00062345,-0.00068986,-0.00026190,0.00002811,-0
 .00002508,-0.00009377,0.11057094,0.07652619,0.17074778,-0.00013707,-0.
 00027046,0.00011540,0.00027943,0.00110083,-0.00119920,-0.00050848,0.00
 606556,-0.00855305,-0.00106184,0.00237731,0.00132603,0.00036846,0.0004
 6358,-0.00066473,-0.00034223,-0.00111858,0.00033655,0.00038654,-0.0003
 3451,-0.00073314,-0.05852357,0.02304977,-0.03613067,-0.00690685,-0.022
 44397,0.03590341,-0.00005737,0.00004753,0.00004751,0.00009834,0.000060
 22,-0.00005078,0.00013435,-0.00006419,0.00001331,-0.00054375,0.0002246
 7,0.00074228,0.00011512,-0.00018400,0.00003648,0.00019632,-0.00014600,
 0.00043741,0.00002279,0.00032847,-0.00004915,-0.00000507,-0.00006419,-
 0.00001089,-0.00009223,0.00027303,0.00004033,0.00000138,0.00012347,0.0
 0006316,0.00026778,-0.00018674,0.00013633,0.00000051,-0.00004870,0.000
 01614,-0.00009592,0.00015097,0.00009200,-0.00093089,0.01297336,-0.0142
 6327,0.06573285,0.00013963,-0.00000654,-0.00017448,-0.00115274,0.00000
 759,0.00151823,0.00704781,-0.02026524,0.02231555,0.00196090,-0.0042126
 0,-0.00410140,-0.00012449,-0.00053428,0.00185174,0.00057235,0.00046720
 ,0.00275901,-0.00029158,-0.00007183,-0.00071377,0.02293105,-0.14241836
 ,0.10818453,-0.00694607,0.00285343,0.00392077,0.00007634,0.00003842,0.
 00003291,0.00004554,-0.00005790,0.00004873,-0.00017249,0.00000553,-0.0
 0010890,0.00061523,0.00058304,-0.00102046,-0.00015047,0.00037634,-0.00
 035359,0.00014076,0.00018565,-0.00003403,-0.00023447,0.00035679,-0.000
 04184,0.00010002,0.00003081,-0.00008382,0.00022097,-0.00063087,-0.0001
 1654,-0.00008468,-0.00005191,-0.00007991,-0.00061421,-0.00018446,-0.00
 139337,0.00008590,0.00058064,-0.00025893,0.00019422,0.00018125,0.00013
 831,-0.00158188,0.00966647,-0.01023601,-0.02295296,0.15323672,-0.00027
 776,-0.00016298,0.00014172,-0.00000450,-0.00072682,0.00051872,0.001516
 34,-0.00757332,0.00509210,0.00073721,-0.00120382,-0.00052753,0.0002057
 5,-0.00042227,0.00068112,0.00086738,-0.00109520,0.00040578,-0.00039458
 ,0.00050733,0.00092251,-0.03518370,0.11118236,-0.18856040,0.01658441,0
 .01178906,-0.01530465,-0.00007177,0.00010557,0.00007717,0.00006446,0.0
 0024218,-0.00013508,0.00012233,-0.00007216,0.00001773,-0.00014442,-0.0
 0008584,0.00026725,-0.00023617,-0.00006667,0.00026176,0.00019820,-0.00
 010317,0.00025668,-0.00008685,-0.00043517,0.00008340,-0.00010294,0.000
 09946,0.00004734,0.00006547,-0.00016609,0.00002591,-0.00004058,0.00014
 990,0.00001277,0.00019894,0.00008468,0.00020323,0.00000334,0.00005385,
 0.00032888,-0.00005035,-0.00025500,-0.00019798,-0.00423755,0.01312293,
 -0.01336553,0.02089453,-0.12322028,0.20975488,0.00002916,-0.00006967,-
 0.00021664,-0.00002700,-0.00121083,-0.00017403,0.00133350,0.00041871,-
 0.00123537,-0.00051649,0.00022401,-0.00037320,0.00027911,0.00013774,0.
 00013374,0.00001531,0.00397390,0.00339850,-0.00523243,-0.00391705,-0.0
 0218782,-0.03433832,-0.02430866,-0.01968031,-0.18815596,-0.14109368,-0
 .11507676,0.00010678,0.00008363,0.00003586,0.00002312,0.00007835,0.000
 10095,-0.00003197,0.00002489,0.00004549,0.00002607,0.00008654,-0.00004
 472,0.00049603,-0.00007105,-0.00029205,0.00021121,-0.00006654,0.000128
 30,-0.00033051,0.00108228,-0.00049232,0.00007675,-0.00013508,-0.000087
 02,0.00003884,-0.00014214,0.00004043,-0.00003315,-0.00005971,-0.000070
 97,-0.00010625,-0.00001268,-0.00002409,-0.00060905,-0.00039994,-0.0000
 6133,0.00071410,0.00045865,0.00016292,-0.00447687,-0.00070136,0.004572
 69,0.00160138,0.00017531,-0.00062721,0.22890664,-0.00015734,0.00004554
 ,0.00021742,-0.00015180,-0.00079903,-0.00075085,0.00130493,0.00202447,
 0.00089056,0.00045215,-0.00047555,-0.00063128,-0.00015289,-0.00008981,
 0.00025227,0.00827885,0.00337935,-0.00489347,-0.00505560,-0.00211484,0
 .00657955,-0.00651804,-0.00124168,-0.00017436,-0.16364536,-0.15945568,
 -0.14265776,-0.00008964,-0.00009714,-0.00007519,-0.00018679,-0.0001343
 3,-0.00013338,0.00006128,-0.00004446,0.00001825,-0.00013678,-0.0000818
 6,0.00028750,0.00031305,-0.00019185,-0.00015638,-0.00058100,0.00017064
 ,-0.00014146,0.00043935,-0.00025981,0.00098261,-0.00011323,0.00010278,
 0.00003564,-0.00001834,-0.00003990,-0.00006802,0.00004617,-0.00025460,
 -0.00012677,-0.00048736,-0.00037482,0.00077041,-0.00174207,-0.00023543
 ,0.00050419,-0.00017343,-0.00375254,-0.00131804,0.00229401,0.00126639,
 0.00053110,0.00057554,-0.00013590,-0.00174854,0.16544437,0.16279006,-0
 .00007484,0.00006658,0.00015743,-0.00045208,-0.00040754,-0.00057873,0.
 00146351,-0.00093928,0.00112771,-0.00067733,-0.00044923,0.00010357,0.0
 0037979,0.00027245,-0.00006241,0.00711157,-0.00012854,-0.00339169,-0.0
 0260981,0.00183289,-0.00287095,0.01663691,0.01419701,0.01321647,-0.156
 26748,-0.16004286,-0.18064869,-0.00004515,-0.00006564,-0.00008503,-0.0
 0013522,-0.00013094,-0.00008673,-0.00003486,-0.00001417,-0.00003050,0.
 00006236,0.00016269,-0.00003965,0.00022897,-0.00009119,-0.00016425,-0.
 00000697,0.00013417,-0.00018939,-0.00021388,0.00103606,-0.00015707,0.0
 0006850,-0.00016817,-0.00006845,-0.00005899,-0.00004574,-0.00004858,-0
 .00004359,-0.00024327,-0.00006517,-0.00022390,-0.00009265,-0.00038560,
 -0.00113338,0.00016840,0.00010322,-0.00131951,0.00134841,0.00273446,0.
 00386641,0.00062703,-0.00083194,0.00145402,0.00116754,-0.00100777,0.13
 202495,0.14180597,0.17326975\\0.00000055,-0.00000128,-0.00000088,0.000
 00009,0.00000048,-0.00000089,0.00000029,-0.00000104,-0.00000076,-0.000
 00062,-0.00000060,0.00000104,-0.00000044,-0.00000055,-0.00000092,0.000
 00084,0.00000166,-0.00000028,-0.00000198,0.00000071,0.00000154,-0.0000
 0113,0.00000119,0.00000354,0.00000292,0.00000026,0.00000056,0.00000005
 ,-0.00000106,-0.00000091,0.00000072,-0.00000058,-0.00000029,0.00000037
 ,-0.00000127,-0.00000105,-0.00000042,0.00000021,0.00000048,-0.00000098
 ,-0.00000029,-0.00000069,0.00000101,-0.00000074,-0.00000045,0.00000081
 ,0.,-0.00000027,-0.00000032,-0.00000064,-0.00000145,-0.00000027,-0.000
 00084,-0.00000131,-0.00000116,0.00000010,-0.00000076,-0.00000099,0.000
 00113,0.00000104,-0.00000149,0.00000072,-0.00000005,-0.00000041,0.0000
 0139,0.00000018,0.00000156,-0.00000036,0.00000061,0.00000065,0.0000004
 6,0.00000063,0.00000036,0.00000097,0.00000134\\\@


 BULLDOZER: SOMEONE WHO SLEEPS THROUGH SPEECHES.
 File lengths (MBytes):  RWF=     81 Int=      0 D2E=      0 Chk=      3 Scr=      1
 Normal termination of Gaussian 16 at Mon Feb  6 10:26:37 2023.
real 265.41
user 1030.49
sys 3.99
