 Entering Gaussian System, Link 0=g16
 Input=gaussian_test.inp
 Output=gaussian_test.log
 Initial command:
 /sw/restricted/lms/sw/Gaussian/g16_B01/g16/l1.exe "/scratch/user/peterchao1/peterchao1/9993848_1712002037000000961248175/Gau-32635.inp" -scrdir="/scratch/user/peterchao1/peterchao1/9993848_1712002037000000961248175/"
 Entering Link 1 = /sw/restricted/lms/sw/Gaussian/g16_B01/g16/l1.exe PID=     32636.
  
 Copyright (c) 1988-2017, Gaussian, Inc.  All Rights Reserved.
  
 This is part of the Gaussian(R) 16 program.  It is based on
 the Gaussian(R) 09 system (copyright 2009, Gaussian, Inc.),
 the Gaussian(R) 03 system (copyright 2003, Gaussian, Inc.),
 the Gaussian(R) 98 system (copyright 1998, Gaussian, Inc.),
 the Gaussian(R) 94 system (copyright 1995, Gaussian, Inc.),
 the Gaussian 92(TM) system (copyright 1992, Gaussian, Inc.),
 the Gaussian 90(TM) system (copyright 1990, Gaussian, Inc.),
 the Gaussian 88(TM) system (copyright 1988, Gaussian, Inc.),
 the Gaussian 86(TM) system (copyright 1986, Carnegie Mellon
 University), and the Gaussian 82(TM) system (copyright 1983,
 Carnegie Mellon University). Gaussian is a federally registered
 trademark of Gaussian, Inc.
  
 This software contains proprietary and confidential information,
 including trade secrets, belonging to Gaussian, Inc.
  
 This software is provided under written license and may be
 used, copied, transmitted, or stored only in accord with that
 written license.
  
 The following legend is applicable only to US Government
 contracts under FAR:
  
                    RESTRICTED RIGHTS LEGEND
  
 Use, reproduction and disclosure by the US Government is
 subject to restrictions as set forth in subparagraphs (a)
 and (c) of the Commercial Computer Software - Restricted
 Rights clause in FAR 52.227-19.
  
 Gaussian, Inc.
 340 Quinnipiac St., Bldg. 40, Wallingford CT 06492
  
  
 ---------------------------------------------------------------
 Warning -- This program may not be used in any manner that
 competes with the business of Gaussian, Inc. or will provide
 assistance to any competitor of Gaussian, Inc.  The licensee
 of this program is prohibited from giving any competitor of
 Gaussian, Inc. access to this program.  By using this program,
 the user acknowledges that Gaussian, Inc. is engaged in the
 business of creating and licensing software in the field of
 computational chemistry and represents and warrants to the
 licensee that it is not a competitor of Gaussian, Inc. and that
 it will not use this program in any manner prohibited above.
 ---------------------------------------------------------------
  

 Cite this work as:
 Gaussian 16, Revision B.01,
 M. J. Frisch, G. W. Trucks, H. B. Schlegel, G. E. Scuseria, 
 M. A. Robb, J. R. Cheeseman, G. Scalmani, V. Barone, 
 G. A. Petersson, H. Nakatsuji, X. Li, M. Caricato, A. V. Marenich, 
 J. Bloino, B. G. Janesko, R. Gomperts, B. Mennucci, H. P. Hratchian, 
 J. V. Ortiz, A. F. Izmaylov, J. L. Sonnenberg, D. Williams-Young, 
 F. Ding, F. Lipparini, F. Egidi, J. Goings, B. Peng, A. Petrone, 
 T. Henderson, D. Ranasinghe, V. G. Zakrzewski, J. Gao, N. Rega, 
 G. Zheng, W. Liang, M. Hada, M. Ehara, K. Toyota, R. Fukuda, 
 J. Hasegawa, M. Ishida, T. Nakajima, Y. Honda, O. Kitao, H. Nakai, 
 T. Vreven, K. Throssell, J. A. Montgomery, Jr., J. E. Peralta, 
 F. Ogliaro, M. J. Bearpark, J. J. Heyd, E. N. Brothers, K. N. Kudin, 
 V. N. Staroverov, T. A. Keith, R. Kobayashi, J. Normand, 
 K. Raghavachari, A. P. Rendell, J. C. Burant, S. S. Iyengar, 
 J. Tomasi, M. Cossi, J. M. Millam, M. Klene, C. Adamo, R. Cammi, 
 J. W. Ochterski, R. L. Martin, K. Morokuma, O. Farkas, 
 J. B. Foresman, and D. J. Fox, Gaussian, Inc., Wallingford CT, 2016.
 
 ******************************************
 Gaussian 16:  ES64L-G16RevB.01 20-Dec-2017
                 1-Apr-2024 
 ******************************************
 %nprocshared=4
 Will use up to    4 processors via shared memory.
 %mem=8000mb
 %chk=dimer.chk
 %nprocshared=4
 Will use up to    4 processors via shared memory.
 %mem=8000mb
 ----------------------------------------------------------------------
 #T wB97XD/def2svpp opt=tight freq int(grid=ultrafine) scf=(verytight,q
 c) Volume=tight
 ----------------------------------------------------------------------
 -----
 Dimer
 -----
 Symbolic Z-matrix:
 Charge =  0 Multiplicity = 1
 C                     3.37967  -0.64886  -0.87924 
 C                     1.98139  -0.26521  -0.40539 
 O                     1.22475  -1.42154  -0.0723 
 C                     2.05355   0.71525   0.78 
 O                     0.83797   1.35388   1.05614 
 H                     3.89749   0.22105  -1.2711 
 H                     3.31053  -1.39839  -1.66409 
 H                     3.96026  -1.05838  -0.05345 
 H                     1.4258    0.20708  -1.22196 
 H                     1.71419  -1.92175   0.5921 
 H                     2.76366   1.50992   0.53963 
 H                     2.42017   0.17719   1.66851 
 H                     0.16156   0.6848    1.29833 
 C                    -3.1333   -1.35382  -0.03716 
 C                    -2.24739  -0.14464   0.25684 
 O                    -1.15878  -0.51817   1.08443 
 C                    -1.76185   0.49937  -1.05388 
 O                    -1.24045   1.78986  -0.90309 
 H                    -2.59743  -2.06658  -0.66211 
 H                    -4.03849  -1.0459   -0.55156 
 H                    -3.40608  -1.84319   0.89455 
 H                    -2.8018    0.59965   0.83778 
 H                    -0.57251  -1.10377   0.57096 
 H                    -2.60912   0.59961  -1.73669 
 H                    -1.02294  -0.1756   -1.51848 
 H                    -0.50571   1.77684  -0.26403 
 
 Add virtual bond connecting atoms O16        and H13        Dist= 3.40D+00.
 Add virtual bond connecting atoms H23        and O3         Dist= 3.66D+00.
 Add virtual bond connecting atoms H26        and O5         Dist= 3.65D+00.

 GradGradGradGradGradGradGradGradGradGradGradGradGradGradGradGradGradGrad
 Initialization pass.
                           ----------------------------
                           !    Initial Parameters    !
                           ! (Angstroms and Degrees)  !
 --------------------------                            --------------------------
 ! Name  Definition              Value          Derivative Info.                !
 --------------------------------------------------------------------------------
 ! R1    R(1,2)                  1.5254         estimate D2E/DX2                !
 ! R2    R(1,6)                  1.0856         estimate D2E/DX2                !
 ! R3    R(1,7)                  1.0875         estimate D2E/DX2                !
 ! R4    R(1,8)                  1.0894         estimate D2E/DX2                !
 ! R5    R(2,3)                  1.4215         estimate D2E/DX2                !
 ! R6    R(2,4)                  1.54           estimate D2E/DX2                !
 ! R7    R(2,9)                  1.0948         estimate D2E/DX2                !
 ! R8    R(3,10)                 0.965          estimate D2E/DX2                !
 ! R9    R(3,23)                 1.9352         estimate D2E/DX2                !
 ! R10   R(4,5)                  1.4006         estimate D2E/DX2                !
 ! R11   R(4,11)                 1.0925         estimate D2E/DX2                !
 ! R12   R(4,12)                 1.1015         estimate D2E/DX2                !
 ! R13   R(5,13)                 0.9818         estimate D2E/DX2                !
 ! R14   R(5,26)                 1.9306         estimate D2E/DX2                !
 ! R15   R(13,16)                1.7989         estimate D2E/DX2                !
 ! R16   R(14,15)                1.5275         estimate D2E/DX2                !
 ! R17   R(14,19)                1.0889         estimate D2E/DX2                !
 ! R18   R(14,20)                1.0857         estimate D2E/DX2                !
 ! R19   R(14,21)                1.0872         estimate D2E/DX2                !
 ! R20   R(15,16)                1.4176         estimate D2E/DX2                !
 ! R21   R(15,17)                1.539          estimate D2E/DX2                !
 ! R22   R(15,22)                1.0949         estimate D2E/DX2                !
 ! R23   R(16,23)                0.9748         estimate D2E/DX2                !
 ! R24   R(17,18)                1.4            estimate D2E/DX2                !
 ! R25   R(17,24)                1.0928         estimate D2E/DX2                !
 ! R26   R(17,25)                1.1034         estimate D2E/DX2                !
 ! R27   R(18,26)                0.9739         estimate D2E/DX2                !
 ! A1    A(2,1,6)              110.3551         estimate D2E/DX2                !
 ! A2    A(2,1,7)              109.8326         estimate D2E/DX2                !
 ! A3    A(2,1,8)              110.3415         estimate D2E/DX2                !
 ! A4    A(6,1,7)              108.7913         estimate D2E/DX2                !
 ! A5    A(6,1,8)              108.7029         estimate D2E/DX2                !
 ! A6    A(7,1,8)              108.7765         estimate D2E/DX2                !
 ! A7    A(1,2,3)              110.8624         estimate D2E/DX2                !
 ! A8    A(1,2,4)              110.8717         estimate D2E/DX2                !
 ! A9    A(1,2,9)              109.9985         estimate D2E/DX2                !
 ! A10   A(3,2,4)              111.2525         estimate D2E/DX2                !
 ! A11   A(3,2,9)              104.8079         estimate D2E/DX2                !
 ! A12   A(4,2,9)              108.8599         estimate D2E/DX2                !
 ! A13   A(2,3,10)             108.2423         estimate D2E/DX2                !
 ! A14   A(2,3,23)             116.0192         estimate D2E/DX2                !
 ! A15   A(10,3,23)            109.1057         estimate D2E/DX2                !
 ! A16   A(2,4,5)              113.6643         estimate D2E/DX2                !
 ! A17   A(2,4,11)             108.9173         estimate D2E/DX2                !
 ! A18   A(2,4,12)             108.9952         estimate D2E/DX2                !
 ! A19   A(5,4,11)             106.0117         estimate D2E/DX2                !
 ! A20   A(5,4,12)             110.6428         estimate D2E/DX2                !
 ! A21   A(11,4,12)            108.4481         estimate D2E/DX2                !
 ! A22   A(4,5,13)             109.6245         estimate D2E/DX2                !
 ! A23   A(4,5,26)             124.6885         estimate D2E/DX2                !
 ! A24   A(13,5,26)             80.7046         estimate D2E/DX2                !
 ! A25   A(5,13,16)            158.761          estimate D2E/DX2                !
 ! A26   A(15,14,19)           110.0718         estimate D2E/DX2                !
 ! A27   A(15,14,20)           110.5003         estimate D2E/DX2                !
 ! A28   A(15,14,21)           109.6869         estimate D2E/DX2                !
 ! A29   A(19,14,20)           108.906          estimate D2E/DX2                !
 ! A30   A(19,14,21)           108.7042         estimate D2E/DX2                !
 ! A31   A(20,14,21)           108.935          estimate D2E/DX2                !
 ! A32   A(14,15,16)           110.4357         estimate D2E/DX2                !
 ! A33   A(14,15,17)           110.5056         estimate D2E/DX2                !
 ! A34   A(14,15,22)           110.2769         estimate D2E/DX2                !
 ! A35   A(16,15,17)           111.4201         estimate D2E/DX2                !
 ! A36   A(16,15,22)           104.964          estimate D2E/DX2                !
 ! A37   A(17,15,22)           109.0971         estimate D2E/DX2                !
 ! A38   A(13,16,15)           117.1837         estimate D2E/DX2                !
 ! A39   A(13,16,23)            91.3137         estimate D2E/DX2                !
 ! A40   A(15,16,23)           108.2176         estimate D2E/DX2                !
 ! A41   A(15,17,18)           114.2995         estimate D2E/DX2                !
 ! A42   A(15,17,24)           109.0222         estimate D2E/DX2                !
 ! A43   A(15,17,25)           108.2951         estimate D2E/DX2                !
 ! A44   A(18,17,24)           105.7541         estimate D2E/DX2                !
 ! A45   A(18,17,25)           111.0893         estimate D2E/DX2                !
 ! A46   A(24,17,25)           108.1947         estimate D2E/DX2                !
 ! A47   A(17,18,26)           109.8364         estimate D2E/DX2                !
 ! A48   A(3,23,16)            146.3335         estimate D2E/DX2                !
 ! A49   L(5,26,18,15,-1)      168.4992         estimate D2E/DX2                !
 ! A50   L(5,26,18,15,-2)      184.7552         estimate D2E/DX2                !
 ! D1    D(6,1,2,3)            171.5177         estimate D2E/DX2                !
 ! D2    D(6,1,2,4)            -64.394          estimate D2E/DX2                !
 ! D3    D(6,1,2,9)             56.0652         estimate D2E/DX2                !
 ! D4    D(7,1,2,3)             51.5807         estimate D2E/DX2                !
 ! D5    D(7,1,2,4)            175.669          estimate D2E/DX2                !
 ! D6    D(7,1,2,9)            -63.8718         estimate D2E/DX2                !
 ! D7    D(8,1,2,3)            -68.3294         estimate D2E/DX2                !
 ! D8    D(8,1,2,4)             55.7589         estimate D2E/DX2                !
 ! D9    D(8,1,2,9)            176.2181         estimate D2E/DX2                !
 ! D10   D(1,2,3,10)            56.2619         estimate D2E/DX2                !
 ! D11   D(1,2,3,23)           179.2453         estimate D2E/DX2                !
 ! D12   D(4,2,3,10)           -67.6087         estimate D2E/DX2                !
 ! D13   D(4,2,3,23)            55.3747         estimate D2E/DX2                !
 ! D14   D(9,2,3,10)           174.9025         estimate D2E/DX2                !
 ! D15   D(9,2,3,23)           -62.1142         estimate D2E/DX2                !
 ! D16   D(1,2,4,5)            165.4784         estimate D2E/DX2                !
 ! D17   D(1,2,4,11)            47.539          estimate D2E/DX2                !
 ! D18   D(1,2,4,12)           -70.6091         estimate D2E/DX2                !
 ! D19   D(3,2,4,5)            -70.6562         estimate D2E/DX2                !
 ! D20   D(3,2,4,11)           171.4043         estimate D2E/DX2                !
 ! D21   D(3,2,4,12)            53.2563         estimate D2E/DX2                !
 ! D22   D(9,2,4,5)             44.3454         estimate D2E/DX2                !
 ! D23   D(9,2,4,11)           -73.5941         estimate D2E/DX2                !
 ! D24   D(9,2,4,12)           168.2579         estimate D2E/DX2                !
 ! D25   D(2,3,23,16)          -34.5701         estimate D2E/DX2                !
 ! D26   D(10,3,23,16)          87.9598         estimate D2E/DX2                !
 ! D27   D(2,4,5,13)            61.5424         estimate D2E/DX2                !
 ! D28   D(2,4,5,26)           -30.6489         estimate D2E/DX2                !
 ! D29   D(11,4,5,13)         -178.8532         estimate D2E/DX2                !
 ! D30   D(11,4,5,26)           88.9555         estimate D2E/DX2                !
 ! D31   D(12,4,5,13)          -61.4717         estimate D2E/DX2                !
 ! D32   D(12,4,5,26)         -153.663          estimate D2E/DX2                !
 ! D33   D(4,5,13,16)          -89.2613         estimate D2E/DX2                !
 ! D34   D(26,5,13,16)          34.3729         estimate D2E/DX2                !
 ! D35   D(4,5,18,17)           73.4527         estimate D2E/DX2                !
 ! D36   D(13,5,18,17)         -31.5989         estimate D2E/DX2                !
 ! D37   D(5,13,16,15)         -46.8671         estimate D2E/DX2                !
 ! D38   D(5,13,16,23)          64.4368         estimate D2E/DX2                !
 ! D39   D(19,14,15,16)        -67.6167         estimate D2E/DX2                !
 ! D40   D(19,14,15,17)         56.1249         estimate D2E/DX2                !
 ! D41   D(19,14,15,22)        176.8256         estimate D2E/DX2                !
 ! D42   D(20,14,15,16)        172.058          estimate D2E/DX2                !
 ! D43   D(20,14,15,17)        -64.2004         estimate D2E/DX2                !
 ! D44   D(20,14,15,22)         56.5003         estimate D2E/DX2                !
 ! D45   D(21,14,15,16)         51.9443         estimate D2E/DX2                !
 ! D46   D(21,14,15,17)        175.6859         estimate D2E/DX2                !
 ! D47   D(21,14,15,22)        -63.6134         estimate D2E/DX2                !
 ! D48   D(14,15,16,13)        169.0467         estimate D2E/DX2                !
 ! D49   D(14,15,16,23)         67.7341         estimate D2E/DX2                !
 ! D50   D(17,15,16,13)         45.835          estimate D2E/DX2                !
 ! D51   D(17,15,16,23)        -55.4776         estimate D2E/DX2                !
 ! D52   D(22,15,16,13)        -72.1108         estimate D2E/DX2                !
 ! D53   D(22,15,16,23)       -173.4233         estimate D2E/DX2                !
 ! D54   D(14,15,17,18)        164.4092         estimate D2E/DX2                !
 ! D55   D(14,15,17,24)         46.3249         estimate D2E/DX2                !
 ! D56   D(14,15,17,25)        -71.1818         estimate D2E/DX2                !
 ! D57   D(16,15,17,18)        -72.419          estimate D2E/DX2                !
 ! D58   D(16,15,17,24)        169.4967         estimate D2E/DX2                !
 ! D59   D(16,15,17,25)         51.9901         estimate D2E/DX2                !
 ! D60   D(22,15,17,18)         43.0073         estimate D2E/DX2                !
 ! D61   D(22,15,17,24)        -75.077          estimate D2E/DX2                !
 ! D62   D(22,15,17,25)        167.4163         estimate D2E/DX2                !
 ! D63   D(13,16,23,3)           5.7764         estimate D2E/DX2                !
 ! D64   D(15,16,23,3)         125.0268         estimate D2E/DX2                !
 ! D65   D(15,17,18,26)         57.0672         estimate D2E/DX2                !
 ! D66   D(24,17,18,26)        176.9976         estimate D2E/DX2                !
 ! D67   D(25,17,18,26)        -65.8397         estimate D2E/DX2                !
 --------------------------------------------------------------------------------
 Number of steps in this run=    154 maximum allowed number of steps=    156.
 GradGradGradGradGradGradGradGradGradGradGradGradGradGradGradGradGradGrad

                    Distance matrix (angstroms):
                    1          2          3          4          5
     1  C    0.000000
     2  C    1.525417   0.000000
     3  O    2.427313   1.421465   0.000000
     4  C    2.524369   1.540013   2.445239   0.000000
     5  O    3.770528   2.462705   3.020913   1.400624   0.000000
     6  H    1.085563   2.158086   3.358388   2.802025   4.007495
     7  H    1.087460   2.152918   2.623896   3.467138   4.592191
     8  H    1.089365   2.160763   2.759571   2.734216   4.098646
     9  H    2.160483   1.094776   2.003635   2.158743   2.617339
    10  H    2.561035   1.952053   0.964975   2.665378   3.422400
    11  H    2.655745   2.157791   3.366917   1.092483   1.999851
    12  H    2.845003   2.165481   2.648659   1.101530   2.064689
    13  H    4.108125   2.667766   2.728676   1.961951   0.981761
    14  C    6.604902   5.242204   4.358714   5.643777   4.929288
    15  C    5.762698   4.282020   3.714104   4.417153   3.521915
    16  O    4.946778   3.484862   2.799168   3.454436   2.737223
    17  C    5.271066   3.875176   3.684181   4.238754   3.455638
    18  O    5.224306   3.853733   4.132859   3.852018   2.889378
    19  H    6.146762   4.927111   3.920840   5.608017   5.143330
    20  H    7.436001   6.072057   5.298353   6.479795   5.667761
    21  H    7.114712   5.762357   4.749442   6.030453   5.315950
    22  H    6.535860   5.017209   4.596365   4.857076   3.723503
    23  H    4.234347   2.859868   1.935174   3.201365   2.874870
    24  H    6.177337   4.857273   4.642610   5.299778   4.500141
    25  H    4.473873   3.205153   2.948885   3.942260   3.525753
    26  H    4.621537   3.221114   3.641546   2.960874   1.930598
                    6          7          8          9         10
     6  H    0.000000
     7  H    1.766791   0.000000
     8  H    1.767364   1.769718   0.000000
     9  H    2.472215   2.514999   3.064358   0.000000
    10  H    3.581889   2.812939   2.491380   2.811743   0.000000
    11  H    2.495097   3.689677   2.894784   2.567191   3.588938
    12  H    3.290251   3.792292   2.619867   3.056882   2.462244
    13  H    4.557877   4.799134   4.392738   2.859794   3.115048
    14  C    7.309907   6.646187   7.099721   4.962409   4.921036
    15  C    6.342546   6.012685   6.282206   3.975288   4.354836
    16  O    5.626801   5.320147   5.271737   3.539142   3.235179
    17  C    5.670340   5.450039   6.014148   3.205434   4.544656
    18  O    5.384696   5.608517   5.990135   3.117010   4.974084
    19  H    6.912888   6.029461   6.662591   4.655029   4.492661
    20  H    8.068624   7.441113   8.014255   5.646052   5.930294
    21  H    7.892610   7.201209   7.468440   5.659534   5.129794
    22  H    7.033576   6.900155   7.019175   4.719033   5.178026
    23  H    5.012904   4.490017   4.575797   2.987662   2.428685
    24  H    6.534221   6.248166   6.981331   4.086517   5.520099
    25  H    4.942582   4.505041   5.268573   2.496133   3.872394
    26  H    4.777318   5.158091   5.294115   2.666926   4.397774
                   11         12         13         14         15
    11  H    0.000000
    12  H    1.780031   0.000000
    13  H    2.833262   2.344361   0.000000
    14  C    6.580861   6.007854   4.098240   0.000000
    15  C    5.284708   4.886973   2.752399   1.527539   0.000000
    16  O    4.449213   3.692369   1.798942   2.419706   1.417565
    17  C    4.903132   5.000451   3.044138   2.519699   1.538991
    18  O    4.265288   4.755415   2.834264   3.770337   2.470161
    19  H    6.555662   5.970140   4.361811   1.088917   2.158898
    20  H    7.347935   6.938227   4.904878   1.085726   2.161903
    21  H    7.031001   6.214995   4.391107   1.087194   2.152743
    22  H    5.647284   5.304485   3.000142   2.165976   1.094909
    23  H    4.238200   3.435348   2.065649   2.643854   1.955459
    24  H    5.905680   6.088317   4.110386   2.641783   2.158455
    25  H    4.627643   4.704930   3.174544   2.834803   2.156851
    26  H    3.377255   3.854131   2.019594   4.093496   2.645158
                   16         17         18         19         20
    16  O    0.000000
    17  C    2.443655   0.000000
    18  O    3.046956   1.399987   0.000000
    19  H    2.741835   2.726860   4.095314   0.000000
    20  H    3.353757   2.797013   3.999272   1.769376   0.000000
    21  H    2.615736   3.462292   4.595713   1.768339   1.768292
    22  H    2.002464   2.161000   2.623943   3.065976   2.483443
    23  H    0.974834   2.573846   3.315428   2.558855   3.643685
    24  H    3.363276   1.092770   1.996210   2.874615   2.480992
    25  H    2.628868   1.103369   2.070996   2.605416   3.284194
    26  H    2.740789   1.957980   0.973868   4.393815   4.531126
                   21         22         23         24         25
    21  H    0.000000
    22  H    2.517110   0.000000
    23  H    2.946285   2.818257   0.000000
    24  H    3.677748   2.581667   3.517743   0.000000
    25  H    3.779279   3.052426   2.330263   1.778915   0.000000
    26  H    4.781119   2.805676   2.999926   2.824704   2.377638
                   26
    26  H    0.000000
 Framework group  C1[X(C6H16O4)]
 Deg. of freedom    72
                         Standard orientation:                         
 ---------------------------------------------------------------------
 Center     Atomic      Atomic             Coordinates (Angstroms)
 Number     Number       Type             X           Y           Z
 ---------------------------------------------------------------------
      1          6           0       -3.361599   -0.674883    0.845409
      2          6           0       -1.966907   -0.266418    0.381851
      3          8           0       -1.196599   -1.407515    0.028175
      4          6           0       -2.048030    0.735748   -0.784650
      5          8           0       -0.839264    1.393260   -1.046017
      6          1           0       -3.889962    0.181435    1.252841
      7          1           0       -3.285396   -1.438520    1.615877
      8          1           0       -3.936009   -1.075005    0.010741
      9          1           0       -1.418190    0.196344    1.208467
     10          1           0       -1.679123   -1.900370   -0.646689
     11          1           0       -2.767533    1.517575   -0.530525
     12          1           0       -2.406905    0.210749   -1.684068
     13          1           0       -0.154870    0.736646   -1.299623
     14          6           0        3.160456   -1.289881    0.003210
     15          6           0        2.261433   -0.085369   -0.269344
     16          8           0        1.178637   -0.455212   -1.106159
     17          6           0        1.766242    0.527819    1.052503
     18          8           0        1.230513    1.814993    0.925447
     19          1           0        2.631568   -2.020524    0.613274
     20          1           0        4.061169   -0.981686    0.525257
     21          1           0        3.440465   -1.758151   -0.937167
     22          1           0        2.808423    0.676162   -0.834764
     23          1           0        0.598107   -1.057153   -0.605207
     24          1           0        2.611081    0.624493    1.738831
     25          1           0        1.034188   -0.164255    1.502562
     26          1           0        0.497128    1.805943    0.284757
 ---------------------------------------------------------------------
 Rotational constants (GHZ):           1.8066669           0.6779293           0.6147659
   172 basis functions,   314 primitive gaussians,   182 cartesian basis functions
    42 alpha electrons       42 beta electrons
       nuclear repulsion energy       618.5173214357 Hartrees.
 NAtoms=   26 NActive=   26 NUniq=   26 SFac= 1.00D+00 NAtFMM=   60 NAOKFM=F Big=F
 Nuclear repulsion after empirical dispersion term =      618.4993780791 Hartrees.
   1 Symmetry operations used in ECPInt.
 ECPInt:  NShTT=    4278 NPrTT=   17198 LenC2=    4209 LenP2D=   12710.
 LDataN:  DoStor=T MaxTD1= 4 Len=   56
 ExpMin= 1.22D-01 ExpMax= 2.27D+03 ExpMxC= 3.41D+02 IAcc=3 IRadAn=         5 AccDes= 0.00D+00
 Harris functional with IExCor= 4639 and IRadAn=       5 diagonalized for initial guess.
 HarFok:  IExCor= 4639 AccDes= 0.00D+00 IRadAn=         5 IDoV= 1 UseB2=F ITyADJ=14
 ICtDFT=  3500011 ScaDFX=  1.000000  1.000000  1.000000  1.000000
 FoFCou: FMM=F IPFlag=           0 FMFlag=      100000 FMFlg1=           0
         NFxFlg=           0 DoJE=T BraDBF=F KetDBF=T FulRan=T
         wScrn=  0.000000 ICntrl=       500 IOpCl=  0 I1Cent=   200000004 NGrid=           0
         NMat0=    1 NMatS0=      1 NMatT0=    0 NMatD0=    1 NMtDS0=    0 NMtDT0=    0
 Petite list used in FoFCou.
     Accept linear search using points  2 and  3.
     Minimum is close to point  2 DX=  3.37D-02 DF= -2.48D-06 DXR=  5.31D-02 DFR=  2.83D-03 which will be used.
     Accept linear search using points  1 and  2.
     Minimum is close to point  2 DX= -1.81D-04 DF= -6.82D-13 DXR=  1.81D-04 DFR=  3.07D-08 which will be used.
 SCF Done:  E(RwB97XD) =  -538.548905555     a.u. after    7 cycles
            Convg  =    0.3453D-09                    34 Fock formations.
              S**2 =  0.0000                  -V/T =  2.0081

 **********************************************************************

            Population analysis using the SCF Density.

 **********************************************************************

 Orbital symmetries:
       Occupied  (A) (A) (A) (A) (A) (A) (A) (A) (A) (A) (A) (A)
                 (A) (A) (A) (A) (A) (A) (A) (A) (A) (A) (A) (A)
                 (A) (A) (A) (A) (A) (A) (A) (A) (A) (A) (A) (A)
                 (A) (A) (A) (A) (A) (A)
       Virtual   (A) (A) (A) (A) (A) (A) (A) (A) (A) (A) (A) (A)
                 (A) (A) (A) (A) (A) (A) (A) (A) (A) (A) (A) (A)
                 (A) (A) (A) (A) (A) (A) (A) (A) (A) (A) (A) (A)
                 (A) (A) (A) (A) (A) (A) (A) (A) (A) (A) (A) (A)
                 (A) (A) (A) (A) (A) (A) (A) (A) (A) (A) (A) (A)
                 (A) (A) (A) (A) (A) (A) (A) (A) (A) (A) (A) (A)
                 (A) (A) (A) (A) (A) (A) (A) (A) (A) (A) (A) (A)
                 (A) (A) (A) (A) (A) (A) (A) (A) (A) (A) (A) (A)
                 (A) (A) (A) (A) (A) (A) (A) (A) (A) (A) (A) (A)
                 (A) (A) (A) (A) (A) (A) (A) (A) (A) (A) (A) (A)
                 (A) (A) (A) (A) (A) (A) (A) (A) (A) (A)
 The electronic state is 1-A.
 Alpha  occ. eigenvalues --  -19.28441 -19.25643 -19.24874 -19.22163 -10.35905
 Alpha  occ. eigenvalues --  -10.34456 -10.33785 -10.32388 -10.29824 -10.27940
 Alpha  occ. eigenvalues --   -1.14943  -1.12380  -1.10835  -1.08448  -0.87758
 Alpha  occ. eigenvalues --   -0.85602  -0.78248  -0.76093  -0.72408  -0.70149
 Alpha  occ. eigenvalues --   -0.62767  -0.60818  -0.59523  -0.57850  -0.55503
 Alpha  occ. eigenvalues --   -0.54762  -0.53210  -0.52736  -0.52231  -0.50580
 Alpha  occ. eigenvalues --   -0.48837  -0.47837  -0.46882  -0.45724  -0.44198
 Alpha  occ. eigenvalues --   -0.43470  -0.42396  -0.40267  -0.38589  -0.37322
 Alpha  occ. eigenvalues --   -0.34872  -0.32811
 Alpha virt. eigenvalues --    0.10991   0.14458   0.15009   0.16373   0.16931
 Alpha virt. eigenvalues --    0.18493   0.19171   0.20525   0.21307   0.21627
 Alpha virt. eigenvalues --    0.23155   0.23498   0.23934   0.24604   0.26316
 Alpha virt. eigenvalues --    0.27575   0.28396   0.29754   0.30708   0.31646
 Alpha virt. eigenvalues --    0.32422   0.33701   0.34545   0.35104   0.52023
 Alpha virt. eigenvalues --    0.52909   0.54081   0.54994   0.55455   0.56884
 Alpha virt. eigenvalues --    0.58806   0.59742   0.60635   0.62719   0.64196
 Alpha virt. eigenvalues --    0.65399   0.66158   0.68302   0.69493   0.71379
 Alpha virt. eigenvalues --    0.72595   0.73067   0.74053   0.76471   0.76634
 Alpha virt. eigenvalues --    0.77196   0.78631   0.78985   0.79672   0.80589
 Alpha virt. eigenvalues --    0.80923   0.81285   0.81546   0.82450   0.83245
 Alpha virt. eigenvalues --    0.84040   0.84261   0.85679   0.87612   0.88567
 Alpha virt. eigenvalues --    1.02060   1.03666   1.06629   1.08550   1.10397
 Alpha virt. eigenvalues --    1.14594   1.18405   1.20441   1.20713   1.26947
 Alpha virt. eigenvalues --    1.29033   1.29621   1.35191   1.40993   1.42993
 Alpha virt. eigenvalues --    1.48622   1.49694   1.53393   1.58653   1.61428
 Alpha virt. eigenvalues --    1.65756   1.66552   1.73201   1.75008   1.78536
 Alpha virt. eigenvalues --    1.83822   1.88965   1.90167   1.94567   1.95663
 Alpha virt. eigenvalues --    1.97788   1.99257   2.03611   2.06058   2.07007
 Alpha virt. eigenvalues --    2.08705   2.17428   2.19461   2.20696   2.24609
 Alpha virt. eigenvalues --    2.26326   2.28688   2.29119   2.31863   2.34985
 Alpha virt. eigenvalues --    2.37278   2.54860   2.56689   2.60888   2.62267
 Alpha virt. eigenvalues --    2.68848   2.71182   2.72245   2.75240   2.88932
 Alpha virt. eigenvalues --    2.91598   2.92687   2.95764   3.01696   3.04980
 Alpha virt. eigenvalues --    3.06313   3.07744   3.09764   3.12684   3.13943
 Alpha virt. eigenvalues --    3.17054   3.43462   3.46374   3.49367   3.52476
          Condensed to atoms (all electrons):
 Mulliken charges:
               1
     1  C   -0.308113
     2  C   -0.041496
     3  O   -0.502730
     4  C    0.053377
     5  O   -0.514497
     6  H    0.131646
     7  H    0.138748
     8  H    0.107033
     9  H    0.125644
    10  H    0.326008
    11  H    0.109384
    12  H    0.078889
    13  H    0.333246
    14  C   -0.303162
    15  C   -0.008279
    16  O   -0.530877
    17  C    0.025177
    18  O   -0.512301
    19  H    0.107379
    20  H    0.120912
    21  H    0.129869
    22  H    0.104827
    23  H    0.335432
    24  H    0.098621
    25  H    0.078003
    26  H    0.317258
 Sum of Mulliken charges =   0.00000
 Mulliken charges with hydrogens summed into heavy atoms:
               1
     1  C    0.069314
     2  C    0.084147
     3  O   -0.176721
     4  C    0.241650
     5  O   -0.181251
    14  C    0.054998
    15  C    0.096548
    16  O   -0.195445
    17  C    0.201801
    18  O   -0.195043
 Electronic spatial extent (au):  <R**2>=           2060.5919
 Charge=              0.0000 electrons
 Dipole moment (field-independent basis, Debye):
    X=             -2.5782    Y=             -3.4941    Z=             -0.1091  Tot=              4.3436
 Evaluate density.
 Using the total density.
 Monte-Carlo method of calculating molar volume:
 based on  0.001 e/bohr**3 density envelope.
 Number of points per bohr**3 =  100 CutOff= 1.00D-04
 Using the SCF density.
 There are      1936 points.  Will hold      1936 in memory.
 LenV=  1048184373 MDV=  1048576000.
 Box volume = 7256.318 fraction occupied=0.198
 Integrated density= 7.9581312517693021D+01 error=-4.4186874823069786D+00
 Molar volume = 1439.270 bohr**3/mol (128.439 cm**3/mol)
 Recommended a0 for SCRF calculation =  4.58 angstrom (  8.65 bohr)
   1 Symmetry operations used in ECPInt.
 ECPInt:  NShTT=    4278 NPrTT=   17198 LenC2=    4209 LenP2D=   12710.
 LDataN:  DoStor=T MaxTD1= 5 Len=  102
 Calling FoFJK, ICntrl=      2127 FMM=F ISym2X=0 I1Cent= 0 IOpClX= 0 NMat=1 NMatS=1 NMatT=0.

 GradGradGradGradGradGradGradGradGradGradGradGradGradGradGradGradGradGrad
 FormGI is forming the generalized inverse of G from B-inverse, IUseBI=4.
 Internal  Forces:  Max     0.011741874 RMS     0.002805697
 Step number   1 out of a maximum of  154
 All quantities printed in internal units (Hartrees-Bohrs-Radians)
 Mixed Optimization -- RFO/linear search
 Second derivative matrix not updated -- first step.
 ITU=  0
     Eigenvalues ---    0.00402   0.00430   0.00640   0.00780   0.00840
     Eigenvalues ---    0.01040   0.01498   0.01693   0.02728   0.03355
     Eigenvalues ---    0.03906   0.04045   0.04211   0.04348   0.04579
     Eigenvalues ---    0.04638   0.04813   0.05040   0.05475   0.05635
     Eigenvalues ---    0.05670   0.05689   0.05743   0.05758   0.05905
     Eigenvalues ---    0.06226   0.06457   0.07106   0.08187   0.08556
     Eigenvalues ---    0.09823   0.10456   0.11512   0.11900   0.12186
     Eigenvalues ---    0.13657   0.13863   0.15239   0.16000   0.16000
     Eigenvalues ---    0.16000   0.16000   0.16000   0.16000   0.16387
     Eigenvalues ---    0.16675   0.18200   0.19250   0.27819   0.27992
     Eigenvalues ---    0.29652   0.29851   0.33312   0.33513   0.34251
     Eigenvalues ---    0.34266   0.34495   0.34527   0.34886   0.34938
     Eigenvalues ---    0.35108   0.35139   0.35311   0.35330   0.39893
     Eigenvalues ---    0.40593   0.42972   0.44030   0.48228   0.50827
     Eigenvalues ---    0.51293   0.54417
 Linear search not attempted -- first point.
 Iteration  1 RMS(Cart)=  0.01760498 RMS(Int)=  0.00024621
 Iteration  2 RMS(Cart)=  0.00027623 RMS(Int)=  0.00007370
 Iteration  3 RMS(Cart)=  0.00000009 RMS(Int)=  0.00007370
 Variable       Old X    -DE/DX   Delta X   Delta X   Delta X     New X
                                 (Linear)    (Quad)   (Total)
    R1        2.88262   0.00026   0.00000   0.00087   0.00087   2.88349
    R2        2.05142   0.01149   0.00000   0.03213   0.03213   2.08355
    R3        2.05500   0.00997   0.00000   0.02805   0.02805   2.08305
    R4        2.05860   0.01116   0.00000   0.03161   0.03161   2.09021
    R5        2.68618   0.00357   0.00000   0.00829   0.00830   2.69448
    R6        2.91020  -0.00421   0.00000  -0.01619  -0.01620   2.89401
    R7        2.06883   0.00463   0.00000   0.01334   0.01334   2.08217
    R8        1.82354   0.00369   0.00000   0.00673   0.00673   1.83027
    R9        3.65695  -0.00203   0.00000  -0.03434  -0.03432   3.62263
   R10        2.64680   0.00047   0.00000   0.00051   0.00049   2.64729
   R11        2.06449   0.00665   0.00000   0.01901   0.01901   2.08350
   R12        2.08159   0.00643   0.00000   0.01893   0.01893   2.10052
   R13        1.85526   0.00102   0.00000   0.00238   0.00231   1.85757
   R14        3.64830  -0.00185   0.00000  -0.03959  -0.03957   3.60873
   R15        3.39951  -0.00200   0.00000  -0.02695  -0.02704   3.37247
   R16        2.88663   0.00007   0.00000   0.00025   0.00025   2.88688
   R17        2.05776   0.01115   0.00000   0.03154   0.03154   2.08929
   R18        2.05172   0.01174   0.00000   0.03285   0.03285   2.08458
   R19        2.05450   0.01018   0.00000   0.02863   0.02863   2.08312
   R20        2.67881   0.00426   0.00000   0.01069   0.01068   2.68949
   R21        2.90827  -0.00312   0.00000  -0.01201  -0.01200   2.89627
   R22        2.06908   0.00440   0.00000   0.01269   0.01269   2.08177
   R23        1.84217   0.00161   0.00000   0.00380   0.00382   1.84598
   R24        2.64559  -0.00115   0.00000  -0.00195  -0.00186   2.64373
   R25        2.06504   0.00664   0.00000   0.01902   0.01902   2.08405
   R26        2.08506   0.00668   0.00000   0.01980   0.01980   2.10487
   R27        1.84034   0.00054   0.00000   0.00061   0.00065   1.84099
    A1        1.92606   0.00155   0.00000   0.00952   0.00949   1.93555
    A2        1.91694   0.00052   0.00000   0.00373   0.00371   1.92065
    A3        1.92582   0.00120   0.00000   0.00662   0.00660   1.93242
    A4        1.89877  -0.00089   0.00000  -0.00407  -0.00410   1.89466
    A5        1.89722  -0.00156   0.00000  -0.01058  -0.01060   1.88663
    A6        1.89851  -0.00090   0.00000  -0.00571  -0.00572   1.89279
    A7        1.93491  -0.00157   0.00000  -0.00325  -0.00338   1.93153
    A8        1.93508   0.00242   0.00000   0.02036   0.02034   1.95542
    A9        1.91984   0.00003   0.00000   0.00019   0.00031   1.92015
   A10        1.94172   0.00019   0.00000   0.00355   0.00350   1.94522
   A11        1.82924   0.00049   0.00000  -0.00134  -0.00140   1.82784
   A12        1.89996  -0.00171   0.00000  -0.02138  -0.02138   1.87858
   A13        1.88919   0.00101   0.00000   0.01062   0.01065   1.89984
   A14        2.02492  -0.00093   0.00000   0.00361   0.00354   2.02845
   A15        1.90425   0.00040   0.00000   0.00122   0.00115   1.90540
   A16        1.98382   0.00138   0.00000   0.00187   0.00176   1.98558
   A17        1.90097  -0.00031   0.00000   0.00244   0.00233   1.90330
   A18        1.90232  -0.00161   0.00000  -0.01416  -0.01412   1.88821
   A19        1.85025   0.00072   0.00000   0.01481   0.01482   1.86507
   A20        1.93108   0.00056   0.00000   0.01142   0.01144   1.94252
   A21        1.89278  -0.00078   0.00000  -0.01675  -0.01687   1.87590
   A22        1.91331   0.00037   0.00000   0.01357   0.01369   1.92700
   A23        2.17622  -0.00156   0.00000  -0.02514  -0.02520   2.15103
   A24        1.40856   0.00077   0.00000   0.00780   0.00798   1.41654
   A25        2.77090  -0.00094   0.00000  -0.00426  -0.00442   2.76648
   A26        1.92111   0.00113   0.00000   0.00610   0.00608   1.92720
   A27        1.92859   0.00160   0.00000   0.01006   0.01003   1.93862
   A28        1.91440   0.00067   0.00000   0.00451   0.00449   1.91888
   A29        1.90077  -0.00151   0.00000  -0.00999  -0.01001   1.89075
   A30        1.89725  -0.00099   0.00000  -0.00673  -0.00674   1.89051
   A31        1.90127  -0.00097   0.00000  -0.00442  -0.00446   1.89682
   A32        1.92747  -0.00107   0.00000  -0.00270  -0.00277   1.92469
   A33        1.92869   0.00276   0.00000   0.01874   0.01886   1.94754
   A34        1.92470  -0.00058   0.00000  -0.00542  -0.00535   1.91934
   A35        1.94465  -0.00081   0.00000   0.00059   0.00042   1.94506
   A36        1.83197   0.00110   0.00000   0.00863   0.00865   1.84062
   A37        1.90410  -0.00155   0.00000  -0.02106  -0.02104   1.88306
   A38        2.04524   0.00019   0.00000   0.00641   0.00627   2.05151
   A39        1.59372  -0.00016   0.00000  -0.00073  -0.00080   1.59293
   A40        1.88875  -0.00026   0.00000   0.00426   0.00435   1.89310
   A41        1.99490   0.00145   0.00000   0.00915   0.00908   2.00398
   A42        1.90280  -0.00085   0.00000  -0.00465  -0.00474   1.89805
   A43        1.89011  -0.00187   0.00000  -0.01663  -0.01678   1.87333
   A44        1.84576   0.00084   0.00000   0.01164   0.01162   1.85738
   A45        1.93887   0.00108   0.00000   0.01787   0.01796   1.95684
   A46        1.88835  -0.00072   0.00000  -0.01874  -0.01899   1.86936
   A47        1.91701   0.00009   0.00000   0.00543   0.00548   1.92248
   A48        2.55400   0.00078   0.00000   0.00673   0.00669   2.56069
   A49        2.94087  -0.00020   0.00000  -0.00831  -0.00846   2.93240
   A50        3.22459  -0.00001   0.00000  -0.03922  -0.03930   3.18528
    D1        2.99355  -0.00022   0.00000   0.00031   0.00027   2.99382
    D2       -1.12389   0.00064   0.00000   0.01718   0.01720  -1.10669
    D3        0.97852   0.00009   0.00000   0.00373   0.00376   0.98228
    D4        0.90025  -0.00042   0.00000  -0.00301  -0.00306   0.89720
    D5        3.06600   0.00043   0.00000   0.01386   0.01387   3.07987
    D6       -1.11477  -0.00012   0.00000   0.00041   0.00044  -1.11434
    D7       -1.19257  -0.00039   0.00000  -0.00247  -0.00251  -1.19508
    D8        0.97318   0.00047   0.00000   0.01440   0.01442   0.98759
    D9        3.07559  -0.00008   0.00000   0.00095   0.00098   3.07657
   D10        0.98196   0.00105   0.00000   0.00539   0.00533   0.98728
   D11        3.12842   0.00172   0.00000   0.01803   0.01802  -3.13674
   D12       -1.17999  -0.00108   0.00000  -0.02112  -0.02116  -1.20115
   D13        0.96647  -0.00041   0.00000  -0.00849  -0.00846   0.95801
   D14        3.05262   0.00057   0.00000   0.00319   0.00318   3.05580
   D15       -1.08410   0.00124   0.00000   0.01582   0.01587  -1.06823
   D16        2.88814   0.00083   0.00000   0.00744   0.00738   2.89553
   D17        0.82971  -0.00072   0.00000  -0.01397  -0.01401   0.81570
   D18       -1.23236   0.00132   0.00000   0.01289   0.01278  -1.21958
   D19       -1.23318   0.00069   0.00000   0.02055   0.02063  -1.21255
   D20        2.99157  -0.00086   0.00000  -0.00086  -0.00077   2.99080
   D21        0.92950   0.00118   0.00000   0.02600   0.02603   0.95552
   D22        0.77397   0.00038   0.00000   0.00833   0.00841   0.78238
   D23       -1.28446  -0.00117   0.00000  -0.01308  -0.01299  -1.29745
   D24        2.93665   0.00087   0.00000   0.01378   0.01381   2.95046
   D25       -0.60336   0.00029   0.00000   0.02205   0.02192  -0.58145
   D26        1.53519   0.00128   0.00000   0.03973   0.03964   1.57483
   D27        1.07412  -0.00025   0.00000  -0.01358  -0.01367   1.06044
   D28       -0.53493  -0.00089   0.00000  -0.02347  -0.02332  -0.55824
   D29       -3.12158   0.00064   0.00000   0.00040   0.00031  -3.12127
   D30        1.55257  -0.00000   0.00000  -0.00949  -0.00934   1.54323
   D31       -1.07288   0.00042   0.00000  -0.00509  -0.00516  -1.07804
   D32       -2.68193  -0.00022   0.00000  -0.01498  -0.01481  -2.69673
   D33       -1.55790   0.00131   0.00000   0.01976   0.01968  -1.53823
   D34        0.59992  -0.00008   0.00000  -0.00390  -0.00390   0.59602
   D35        1.28199   0.00123   0.00000   0.02826   0.02826   1.31026
   D36       -0.55151   0.00026   0.00000   0.00899   0.00891  -0.54259
   D37       -0.81799   0.00045   0.00000  -0.01006  -0.01012  -0.82811
   D38        1.12463   0.00011   0.00000  -0.00414  -0.00416   1.12048
   D39       -1.18013   0.00008   0.00000  -0.00019  -0.00017  -1.18030
   D40        0.97956   0.00023   0.00000   0.01175   0.01174   0.99130
   D41        3.08619  -0.00028   0.00000  -0.00592  -0.00592   3.08027
   D42        3.00298   0.00021   0.00000   0.00185   0.00187   3.00485
   D43       -1.12051   0.00036   0.00000   0.01379   0.01378  -1.10673
   D44        0.98612  -0.00016   0.00000  -0.00388  -0.00388   0.98224
   D45        0.90660  -0.00002   0.00000  -0.00190  -0.00189   0.90471
   D46        3.06630   0.00013   0.00000   0.01004   0.01002   3.07632
   D47       -1.11026  -0.00039   0.00000  -0.00763  -0.00764  -1.11790
   D48        2.95042   0.00133   0.00000   0.01253   0.01245   2.96287
   D49        1.18218   0.00159   0.00000   0.00809   0.00805   1.19023
   D50        0.79997  -0.00088   0.00000  -0.01001  -0.01013   0.78984
   D51       -0.96827  -0.00062   0.00000  -0.01445  -0.01453  -0.98279
   D52       -1.25857   0.00072   0.00000   0.00968   0.00964  -1.24893
   D53       -3.02681   0.00099   0.00000   0.00524   0.00524  -3.02157
   D54        2.86948   0.00065   0.00000   0.02280   0.02275   2.89223
   D55        0.80852  -0.00074   0.00000   0.00552   0.00554   0.81406
   D56       -1.24236   0.00164   0.00000   0.03978   0.03961  -1.20274
   D57       -1.26395   0.00068   0.00000   0.03311   0.03313  -1.23081
   D58        2.95828  -0.00071   0.00000   0.01583   0.01592   2.97419
   D59        0.90740   0.00167   0.00000   0.05009   0.05000   0.95739
   D60        0.75062   0.00062   0.00000   0.03133   0.03135   0.78197
   D61       -1.31034  -0.00076   0.00000   0.01405   0.01413  -1.29621
   D62        2.92197   0.00162   0.00000   0.04831   0.04821   2.97018
   D63        0.10082  -0.00042   0.00000  -0.02090  -0.02094   0.07988
   D64        2.18213  -0.00034   0.00000  -0.01341  -0.01359   2.16854
   D65        0.99601   0.00058   0.00000   0.00554   0.00545   1.00146
   D66        3.08919   0.00095   0.00000   0.01307   0.01304   3.10223
   D67       -1.14912   0.00113   0.00000   0.00671   0.00661  -1.14251
         Item               Value     Threshold  Converged?
 Maximum Force            0.011742     0.000015     NO 
 RMS     Force            0.002806     0.000010     NO 
 Maximum Displacement     0.064892     0.000060     NO 
 RMS     Displacement     0.017606     0.000040     NO 
 GradGradGradGradGradGradGradGradGradGradGradGradGradGradGradGradGradGrad

                    Distance matrix (angstroms):
                    1          2          3          4          5
     1  C    0.000000
     2  C    1.525878   0.000000
     3  O    2.428423   1.425857   0.000000
     4  C    2.535191   1.531443   2.444513   0.000000
     5  O    3.779255   2.457015   3.010467   1.400886   0.000000
     6  H    1.102566   2.178125   3.380442   2.825969   4.035758
     7  H    1.102303   2.167117   2.630985   3.487676   4.605177
     8  H    1.106091   2.178528   2.774155   2.770754   4.132226
     9  H    2.166402   1.101835   2.011447   2.140503   2.596264
    10  H    2.573517   1.965612   0.968536   2.685669   3.429717
    11  H    2.671452   2.159439   3.376905   1.102542   2.018428
    12  H    2.845140   2.154866   2.649127   1.111547   2.080672
    13  H    4.119439   2.669300   2.721535   1.972090   0.982986
    14  C    6.594452   5.242797   4.349626   5.644298   4.923991
    15  C    5.752084   4.278124   3.702665   4.417332   3.518444
    16  O    4.939156   3.477295   2.785698   3.450379   2.723189
    17  C    5.262378   3.877160   3.682248   4.235287   3.450993
    18  O    5.194388   3.829769   4.108932   3.823807   2.869201
    19  H    6.136279   4.935191   3.914892   5.617930   5.152100
    20  H    7.440406   6.090891   5.306260   6.501074   5.686444
    21  H    7.116253   5.771407   4.749251   6.037555   5.313306
    22  H    6.535709   5.019769   4.594604   4.865218   3.726414
    23  H    4.220236   2.850172   1.917012   3.193004   2.860162
    24  H    6.178701   4.871916   4.653629   5.306282   4.504591
    25  H    4.483321   3.234530   2.961234   3.972270   3.557447
    26  H    4.578715   3.179903   3.603868   2.922748   1.909657
                    6          7          8          9         10
     6  H    0.000000
     7  H    1.790045   0.000000
     8  H    1.787925   1.791699   0.000000
     9  H    2.494383   2.530080   3.089292   0.000000
    10  H    3.613894   2.829107   2.511654   2.828092   0.000000
    11  H    2.515599   3.716929   2.932449   2.559107   3.617101
    12  H    3.300843   3.807263   2.636048   3.047764   2.478674
    13  H    4.590035   4.812230   4.428562   2.845848   3.124015
    14  C    7.323125   6.624716   7.108842   4.955559   4.910632
    15  C    6.353913   5.992904   6.297048   3.955478   4.351366
    16  O    5.640536   5.310415   5.287198   3.519255   3.231265
    17  C    5.681028   5.432608   6.030600   3.191804   4.549290
    18  O    5.372181   5.574212   5.986997   3.073411   4.960982
    19  H    6.928432   6.003390   6.666630   4.663211   4.478131
    20  H    8.096683   7.429353   8.040153   5.655061   5.937252
    21  H    7.917947   7.195477   7.486551   5.663447   5.125290
    22  H    7.052840   6.891534   7.048377   4.699439   5.188552
    23  H    5.021640   4.474799   4.580131   2.974123   2.415049
    24  H    6.553404   6.238107   7.007459   4.087098   5.535421
    25  H    4.976206   4.496040   5.300290   2.518016   3.886902
    26  H    4.752608   5.113504   5.279679   2.603207   4.374708
                   11         12         13         14         15
    11  H    0.000000
    12  H    1.785335   0.000000
    13  H    2.857222   2.372752   0.000000
    14  C    6.593959   6.025529   4.091065   0.000000
    15  C    5.296729   4.909325   2.749442   1.527671   0.000000
    16  O    4.456969   3.709144   1.784634   2.422041   1.423216
    17  C    4.910120   5.016199   3.041378   2.530912   1.532639
    18  O    4.247239   4.747819   2.819044   3.784026   2.471087
    19  H    6.578663   5.990958   4.369073   1.105606   2.175946
    20  H    7.381692   6.978018   4.921618   1.103110   2.182331
    21  H    7.050737   6.237369   4.385632   1.102342   2.167435
    22  H    5.665373   5.340152   3.005089   2.167232   1.101624
    23  H    4.241927   3.440651   2.053367   2.653776   1.964822
    24  H    5.921361   6.114099   4.115859   2.658933   2.156819
    25  H    4.670557   4.745992   3.202989   2.819496   2.146364
    26  H    3.351224   3.839349   2.009033   4.107424   2.656032
                   16         17         18         19         20
    16  O    0.000000
    17  C    2.443243   0.000000
    18  O    3.035785   1.399002   0.000000
    19  H    2.755851   2.761208   4.126068   0.000000
    20  H    3.377728   2.822844   4.037079   1.790646   0.000000
    21  H    2.625181   3.484368   4.616551   1.789863   1.791905
    22  H    2.018655   2.144751   2.620253   3.087017   2.498167
    23  H    0.976853   2.585496   3.308339   2.575482   3.672987
    24  H    3.371842   1.102834   2.011394   2.918582   2.502566
    25  H    2.636487   1.113847   2.090771   2.599617   3.277104
    26  H    2.732976   1.960942   0.974209   4.417678   4.572041
                   21         22         23         24         25
    21  H    0.000000
    22  H    2.530790   0.000000
    23  H    2.963617   2.836385   0.000000
    24  H    3.705643   2.559118   3.540832   0.000000
    25  H    3.782100   3.046169   2.345396   1.783130   0.000000
    26  H    4.802511   2.825518   2.986002   2.841923   2.399379
                   26
    26  H    0.000000
 Framework group  C1[X(C6H16O4)]
 Deg. of freedom    72
                         Standard orientation:                         
 ---------------------------------------------------------------------
 Center     Atomic      Atomic             Coordinates (Angstroms)
 Number     Number       Type             X           Y           Z
 ---------------------------------------------------------------------
      1          6           0       -3.349200   -0.690237    0.855610
      2          6           0       -1.966647   -0.265336    0.369493
      3          8           0       -1.186198   -1.404393    0.013800
      4          6           0       -2.046660    0.740676   -0.782399
      5          8           0       -0.834432    1.389657   -1.050368
      6          1           0       -3.900822    0.168759    1.272131
      7          1           0       -3.254197   -1.459517    1.639354
      8          1           0       -3.944680   -1.110077    0.023399
      9          1           0       -1.408127    0.211483    1.190919
     10          1           0       -1.664508   -1.914668   -0.656201
     11          1           0       -2.778880    1.524024   -0.525851
     12          1           0       -2.427422    0.209212   -1.681345
     13          1           0       -0.144953    0.736761   -1.304542
     14          6           0        3.161869   -1.288925   -0.001338
     15          6           0        2.261483   -0.081384   -0.256145
     16          8           0        1.177787   -0.444416   -1.104293
     17          6           0        1.764045    0.537648    1.054708
     18          8           0        1.202045    1.812334    0.926097
     19          1           0        2.630345   -2.045301    0.605080
     20          1           0        4.078191   -0.993844    0.537301
     21          1           0        3.449241   -1.752486   -0.959298
     22          1           0        2.818270    0.693621   -0.806538
     23          1           0        0.590586   -1.051431   -0.613408
     24          1           0        2.618418    0.641761    1.744237
     25          1           0        1.056544   -0.187946    1.516888
     26          1           0        0.459033    1.789540    0.296417
 ---------------------------------------------------------------------
 Rotational constants (GHZ):           1.8041126           0.6798614           0.6164882
   172 basis functions,   314 primitive gaussians,   182 cartesian basis functions
    42 alpha electrons       42 beta electrons
       nuclear repulsion energy       618.2640688528 Hartrees.
 NAtoms=   26 NActive=   26 NUniq=   26 SFac= 1.00D+00 NAtFMM=   60 NAOKFM=F Big=F
 Nuclear repulsion after empirical dispersion term =      618.2461104812 Hartrees.
   1 Symmetry operations used in ECPInt.
 ECPInt:  NShTT=    4278 NPrTT=   17198 LenC2=    4210 LenP2D=   12707.
 LDataN:  DoStor=T MaxTD1= 4 Len=   56
 Initial guess from the checkpoint file:  "dimer.chk"
 B after Tr=     0.000000   -0.000000   -0.000000
         Rot=    0.999998   -0.001286    0.000228   -0.001460 Ang=  -0.22 deg.
 ExpMin= 1.22D-01 ExpMax= 2.27D+03 ExpMxC= 3.41D+02 IAcc=3 IRadAn=         5 AccDes= 0.00D+00
 Harris functional with IExCor= 4639 and IRadAn=       5 diagonalized for initial guess.
 HarFok:  IExCor= 4639 AccDes= 0.00D+00 IRadAn=         5 IDoV= 1 UseB2=F ITyADJ=14
 ICtDFT=  3500011 ScaDFX=  1.000000  1.000000  1.000000  1.000000
 FoFCou: FMM=F IPFlag=           0 FMFlag=      100000 FMFlg1=           0
         NFxFlg=           0 DoJE=T BraDBF=F KetDBF=T FulRan=T
         wScrn=  0.000000 ICntrl=       500 IOpCl=  0 I1Cent=   200000004 NGrid=           0
         NMat0=    1 NMatS0=      1 NMatT0=    0 NMatD0=    1 NMtDS0=    0 NMtDT0=    0
 Petite list used in FoFCou.
     Accept linear search using points  3 and  4.
     Minimum is close to point  3 DX=  5.52D-02 DF= -3.95D-07 DXR=  4.77D-02 DFR=  2.28D-03 which will be used.
     Accept linear search using points  1 and  2.
     Accept linear search using points  1 and  2.
     Minimum is close to point  2 DX= -1.27D-04 DF= -7.96D-13 DXR=  1.27D-04 DFR=  1.54D-08 which will be used.
 SCF Done:  E(RwB97XD) =  -538.551289366     a.u. after    6 cycles
            Convg  =    0.1092D-08                    31 Fock formations.
              S**2 =  0.0000                  -V/T =  2.0085
   1 Symmetry operations used in ECPInt.
 ECPInt:  NShTT=    4278 NPrTT=   17198 LenC2=    4210 LenP2D=   12707.
 LDataN:  DoStor=T MaxTD1= 5 Len=  102
 Calling FoFJK, ICntrl=      2127 FMM=F ISym2X=0 I1Cent= 0 IOpClX= 0 NMat=1 NMatS=1 NMatT=0.

 GradGradGradGradGradGradGradGradGradGradGradGradGradGradGradGradGradGrad
 Using GEDIIS/GDIIS optimizer.
 FormGI is forming the generalized inverse of G from B-inverse, IUseBI=4.
 Internal  Forces:  Max     0.003300871 RMS     0.000624956
 Step number   2 out of a maximum of  154
 All quantities printed in internal units (Hartrees-Bohrs-Radians)
 Mixed Optimization -- En-DIIS/RFO-DIIS
 Trust test= 1.07D+00 RLast= 1.97D-01 DXMaxT set to 5.05D-01
 ITU=  1  0
 Use linear search instead of GDIIS.
     Eigenvalues ---    0.00402   0.00430   0.00638   0.00772   0.00842
     Eigenvalues ---    0.01040   0.01491   0.01692   0.02662   0.03284
     Eigenvalues ---    0.03797   0.04011   0.04128   0.04291   0.04550
     Eigenvalues ---    0.04649   0.04728   0.04916   0.05416   0.05555
     Eigenvalues ---    0.05585   0.05613   0.05682   0.05699   0.05956
     Eigenvalues ---    0.06187   0.06591   0.07078   0.08130   0.08415
     Eigenvalues ---    0.09868   0.10373   0.11543   0.11959   0.12251
     Eigenvalues ---    0.13713   0.13942   0.15250   0.15831   0.16000
     Eigenvalues ---    0.16000   0.16000   0.16000   0.16008   0.16610
     Eigenvalues ---    0.16760   0.18321   0.19056   0.27728   0.27978
     Eigenvalues ---    0.29422   0.29781   0.33126   0.33472   0.34224
     Eigenvalues ---    0.34259   0.34498   0.34566   0.34901   0.34953
     Eigenvalues ---    0.35123   0.35228   0.35321   0.36903   0.39877
     Eigenvalues ---    0.40555   0.43000   0.45792   0.48247   0.50880
     Eigenvalues ---    0.51276   0.54436
 Quartic linear search produced a step of  0.13337.
 Iteration  1 RMS(Cart)=  0.02297766 RMS(Int)=  0.00016791
 Iteration  2 RMS(Cart)=  0.00020787 RMS(Int)=  0.00004327
 Iteration  3 RMS(Cart)=  0.00000004 RMS(Int)=  0.00004327
 Variable       Old X    -DE/DX   Delta X   Delta X   Delta X     New X
                                 (Linear)    (Quad)   (Total)
    R1        2.88349  -0.00180   0.00012  -0.00683  -0.00672   2.87678
    R2        2.08355  -0.00001   0.00429  -0.00060   0.00368   2.08723
    R3        2.08305  -0.00021   0.00374  -0.00117   0.00257   2.08562
    R4        2.09021   0.00022   0.00422   0.00016   0.00437   2.09458
    R5        2.69448  -0.00007   0.00111  -0.00060   0.00054   2.69502
    R6        2.89401  -0.00037  -0.00216  -0.00223  -0.00438   2.88963
    R7        2.08217   0.00038   0.00178   0.00101   0.00279   2.08496
    R8        1.83027   0.00023   0.00090   0.00036   0.00126   1.83153
    R9        3.62263  -0.00205  -0.00458  -0.04081  -0.04537   3.57726
   R10        2.64729  -0.00233   0.00007  -0.00658  -0.00652   2.64077
   R11        2.08350  -0.00005   0.00254  -0.00050   0.00204   2.08554
   R12        2.10052   0.00068   0.00252   0.00197   0.00449   2.10501
   R13        1.85757   0.00078   0.00031   0.00228   0.00252   1.86010
   R14        3.60873  -0.00178  -0.00528  -0.04098  -0.04625   3.56248
   R15        3.37247  -0.00173  -0.00361  -0.02701  -0.03069   3.34178
   R16        2.88688  -0.00180   0.00003  -0.00684  -0.00681   2.88007
   R17        2.08929   0.00024   0.00421   0.00020   0.00441   2.09370
   R18        2.08458   0.00002   0.00438  -0.00051   0.00387   2.08844
   R19        2.08312  -0.00020   0.00382  -0.00114   0.00268   2.08581
   R20        2.68949  -0.00011   0.00142  -0.00027   0.00115   2.69064
   R21        2.89627  -0.00025  -0.00160  -0.00185  -0.00344   2.89282
   R22        2.08177   0.00032   0.00169   0.00084   0.00253   2.08430
   R23        1.84598   0.00026   0.00051   0.00126   0.00177   1.84775
   R24        2.64373  -0.00330  -0.00025  -0.00829  -0.00849   2.63524
   R25        2.08405   0.00016   0.00254   0.00020   0.00273   2.08679
   R26        2.10487   0.00091   0.00264   0.00273   0.00538   2.11024
   R27        1.84099   0.00081   0.00009   0.00159   0.00169   1.84268
    A1        1.93555   0.00052   0.00127   0.00362   0.00487   1.94042
    A2        1.92065   0.00001   0.00049   0.00014   0.00063   1.92127
    A3        1.93242   0.00037   0.00088   0.00217   0.00305   1.93547
    A4        1.89466  -0.00021  -0.00055  -0.00080  -0.00136   1.89331
    A5        1.88663  -0.00050  -0.00141  -0.00361  -0.00503   1.88159
    A6        1.89279  -0.00022  -0.00076  -0.00174  -0.00250   1.89028
    A7        1.93153  -0.00047  -0.00045  -0.00330  -0.00374   1.92779
    A8        1.95542   0.00071   0.00271   0.00668   0.00938   1.96480
    A9        1.92015  -0.00015   0.00004  -0.00047  -0.00043   1.91971
   A10        1.94522  -0.00011   0.00047  -0.00280  -0.00233   1.94289
   A11        1.82784  -0.00000  -0.00019  -0.00364  -0.00386   1.82399
   A12        1.87858  -0.00001  -0.00285   0.00300   0.00013   1.87871
   A13        1.89984  -0.00019   0.00142  -0.00275  -0.00128   1.89856
   A14        2.02845  -0.00063   0.00047  -0.00001   0.00035   2.02880
   A15        1.90540   0.00068   0.00015   0.00428   0.00445   1.90985
   A16        1.98558   0.00062   0.00023  -0.00071  -0.00053   1.98505
   A17        1.90330   0.00001   0.00031   0.00150   0.00180   1.90510
   A18        1.88821   0.00038  -0.00188   0.00765   0.00578   1.89399
   A19        1.86507  -0.00036   0.00198  -0.00413  -0.00212   1.86295
   A20        1.94252  -0.00038   0.00153   0.00113   0.00263   1.94515
   A21        1.87590  -0.00033  -0.00225  -0.00600  -0.00827   1.86763
   A22        1.92700   0.00035   0.00183   0.00477   0.00664   1.93364
   A23        2.15103  -0.00196  -0.00336  -0.02676  -0.03010   2.12093
   A24        1.41654   0.00056   0.00106   0.00767   0.00889   1.42543
   A25        2.76648  -0.00121  -0.00059  -0.00532  -0.00600   2.76048
   A26        1.92720   0.00057   0.00081   0.00385   0.00465   1.93185
   A27        1.93862   0.00048   0.00134   0.00330   0.00462   1.94324
   A28        1.91888  -0.00004   0.00060  -0.00041   0.00018   1.91907
   A29        1.89075  -0.00054  -0.00134  -0.00354  -0.00489   1.88587
   A30        1.89051  -0.00029  -0.00090  -0.00220  -0.00310   1.88741
   A31        1.89682  -0.00021  -0.00059  -0.00124  -0.00184   1.89497
   A32        1.92469  -0.00030  -0.00037  -0.00388  -0.00423   1.92046
   A33        1.94754   0.00049   0.00251   0.00490   0.00744   1.95498
   A34        1.91934  -0.00014  -0.00071   0.00012  -0.00061   1.91874
   A35        1.94506  -0.00024   0.00006  -0.00199  -0.00199   1.94307
   A36        1.84062   0.00001   0.00115  -0.00252  -0.00136   1.83926
   A37        1.88306   0.00016  -0.00281   0.00312   0.00031   1.88337
   A38        2.05151   0.00042   0.00084   0.00281   0.00362   2.05513
   A39        1.59293  -0.00000  -0.00011   0.00113   0.00096   1.59389
   A40        1.89310  -0.00078   0.00058  -0.00442  -0.00382   1.88928
   A41        2.00398   0.00027   0.00121  -0.00140  -0.00016   2.00382
   A42        1.89805  -0.00004  -0.00063   0.00070   0.00007   1.89813
   A43        1.87333   0.00058  -0.00224   0.00654   0.00424   1.87757
   A44        1.85738  -0.00003   0.00155  -0.00113   0.00041   1.85779
   A45        1.95684  -0.00040   0.00240   0.00045   0.00283   1.95967
   A46        1.86936  -0.00044  -0.00253  -0.00573  -0.00829   1.86107
   A47        1.92248   0.00025   0.00073   0.00122   0.00193   1.92442
   A48        2.56069   0.00059   0.00089   0.00721   0.00795   2.56865
   A49        2.93240  -0.00016  -0.00113  -0.00165  -0.00288   2.92952
   A50        3.18528  -0.00028  -0.00524  -0.01476  -0.02005   3.16523
    D1        2.99382  -0.00005   0.00004   0.00784   0.00787   3.00169
    D2       -1.10669  -0.00003   0.00229   0.00665   0.00895  -1.09774
    D3        0.98228   0.00032   0.00050   0.01445   0.01496   0.99725
    D4        0.89720  -0.00013  -0.00041   0.00642   0.00600   0.90320
    D5        3.07987  -0.00011   0.00185   0.00523   0.00708   3.08696
    D6       -1.11434   0.00024   0.00006   0.01304   0.01310  -1.10124
    D7       -1.19508  -0.00009  -0.00033   0.00711   0.00677  -1.18831
    D8        0.98759  -0.00007   0.00192   0.00592   0.00785   0.99544
    D9        3.07657   0.00028   0.00013   0.01373   0.01387   3.09043
   D10        0.98728   0.00028   0.00071   0.00209   0.00279   0.99008
   D11       -3.13674   0.00057   0.00240   0.00555   0.00796  -3.12878
   D12       -1.20115  -0.00021  -0.00282  -0.00209  -0.00492  -1.20607
   D13        0.95801   0.00008  -0.00113   0.00137   0.00025   0.95826
   D14        3.05580  -0.00014   0.00042  -0.00220  -0.00178   3.05403
   D15       -1.06823   0.00015   0.00212   0.00125   0.00339  -1.06484
   D16        2.89553   0.00010   0.00098   0.00310   0.00410   2.89963
   D17        0.81570   0.00016  -0.00187   0.00775   0.00588   0.82157
   D18       -1.21958   0.00033   0.00170   0.00985   0.01154  -1.20803
   D19       -1.21255  -0.00007   0.00275   0.00168   0.00449  -1.20807
   D20        2.99080  -0.00001  -0.00010   0.00633   0.00626   2.99706
   D21        0.95552   0.00016   0.00347   0.00843   0.01193   0.96746
   D22        0.78238  -0.00014   0.00112  -0.00242  -0.00127   0.78112
   D23       -1.29745  -0.00008  -0.00173   0.00223   0.00051  -1.29694
   D24        2.95046   0.00009   0.00184   0.00433   0.00618   2.95664
   D25       -0.58145   0.00008   0.00292   0.02514   0.02798  -0.55346
   D26        1.57483  -0.00009   0.00529   0.02496   0.03020   1.60503
   D27        1.06044   0.00015  -0.00182  -0.00472  -0.00663   1.05382
   D28       -0.55824   0.00000  -0.00311  -0.00680  -0.00983  -0.56807
   D29       -3.12127   0.00030   0.00004  -0.00612  -0.00616  -3.12742
   D30        1.54323   0.00014  -0.00125  -0.00821  -0.00936   1.53387
   D31       -1.07804  -0.00052  -0.00069  -0.01517  -0.01592  -1.09397
   D32       -2.69673  -0.00067  -0.00197  -0.01725  -0.01913  -2.71586
   D33       -1.53823   0.00102   0.00262   0.01540   0.01791  -1.52032
   D34        0.59602  -0.00086  -0.00052  -0.01033  -0.01084   0.58519
   D35        1.31026   0.00039   0.00377   0.00996   0.01360   1.32385
   D36       -0.54259  -0.00040   0.00119  -0.00057   0.00062  -0.54198
   D37       -0.82811   0.00048  -0.00135   0.00645   0.00505  -0.82306
   D38        1.12048  -0.00032  -0.00055   0.00266   0.00203   1.12251
   D39       -1.18030   0.00002  -0.00002   0.00481   0.00482  -1.17549
   D40        0.99130  -0.00016   0.00157   0.00292   0.00447   0.99577
   D41        3.08027   0.00026  -0.00079   0.01006   0.00928   3.08954
   D42        3.00485   0.00001   0.00025   0.00455   0.00482   3.00967
   D43       -1.10673  -0.00017   0.00184   0.00266   0.00447  -1.10226
   D44        0.98224   0.00025  -0.00052   0.00980   0.00928   0.99151
   D45        0.90471  -0.00001  -0.00025   0.00424   0.00401   0.90872
   D46        3.07632  -0.00019   0.00134   0.00235   0.00366   3.07998
   D47       -1.11790   0.00023  -0.00102   0.00949   0.00847  -1.10943
   D48        2.96287   0.00025   0.00166  -0.00084   0.00078   2.96365
   D49        1.19023   0.00053   0.00107  -0.00081   0.00030   1.19054
   D50        0.78984   0.00000  -0.00135  -0.00290  -0.00431   0.78553
   D51       -0.98279   0.00029  -0.00194  -0.00288  -0.00479  -0.98758
   D52       -1.24893  -0.00007   0.00129  -0.00414  -0.00289  -1.25182
   D53       -3.02157   0.00022   0.00070  -0.00411  -0.00337  -3.02493
   D54        2.89223   0.00027   0.00303   0.01183   0.01487   2.90711
   D55        0.81406   0.00016   0.00074   0.01366   0.01440   0.82845
   D56       -1.20274   0.00039   0.00528   0.01658   0.02185  -1.18089
   D57       -1.23081   0.00006   0.00442   0.00892   0.01336  -1.21746
   D58        2.97419  -0.00004   0.00212   0.01075   0.01288   2.98708
   D59        0.95739   0.00019   0.00667   0.01367   0.02033   0.97773
   D60        0.78197   0.00004   0.00418   0.00663   0.01082   0.79279
   D61       -1.29621  -0.00007   0.00188   0.00847   0.01035  -1.28586
   D62        2.97018   0.00016   0.00643   0.01139   0.01780   2.98798
   D63        0.07988  -0.00094  -0.00279  -0.03017  -0.03305   0.04683
   D64        2.16854  -0.00066  -0.00181  -0.02765  -0.02960   2.13894
   D65        1.00146   0.00043   0.00073   0.00692   0.00759   1.00905
   D66        3.10223   0.00053   0.00174   0.00615   0.00787   3.11010
   D67       -1.14251  -0.00024   0.00088  -0.00119  -0.00035  -1.14286
         Item               Value     Threshold  Converged?
 Maximum Force            0.003301     0.000015     NO 
 RMS     Force            0.000625     0.000010     NO 
 Maximum Displacement     0.096022     0.000060     NO 
 RMS     Displacement     0.023038     0.000040     NO 
 GradGradGradGradGradGradGradGradGradGradGradGradGradGradGradGradGradGrad

                    Distance matrix (angstroms):
                    1          2          3          4          5
     1  C    0.000000
     2  C    1.522324   0.000000
     3  O    2.422546   1.426142   0.000000
     4  C    2.538297   1.529127   2.440863   0.000000
     5  O    3.776908   2.451784   3.001338   1.397436   0.000000
     6  H    1.104514   2.179980   3.380357   2.832167   4.040888
     7  H    1.103664   2.165474   2.627399   3.490341   4.600025
     8  H    1.108406   2.179357   2.768036   2.783525   4.139092
     9  H    2.164073   1.103313   2.009844   2.139664   2.591732
    10  H    2.567858   1.965497   0.969201   2.683569   3.422719
    11  H    2.682426   2.159541   3.376375   1.103621   2.014740
    12  H    2.850517   2.158932   2.656126   1.113923   2.081364
    13  H    4.117801   2.667074   2.713430   1.974372   0.984320
    14  C    6.540269   5.201770   4.306892   5.615908   4.903871
    15  C    5.708501   4.243445   3.668943   4.395755   3.504822
    16  O    4.915286   3.457478   2.765916   3.434905   2.706967
    17  C    5.199539   3.827878   3.640201   4.201301   3.434674
    18  O    5.126632   3.772099   4.061932   3.778957   2.845684
    19  H    6.076977   4.894003   3.868433   5.588364   5.134434
    20  H    7.380601   6.048049   5.261872   6.476365   5.674467
    21  H    7.076315   5.740755   4.717385   6.015283   5.292690
    22  H    6.500900   4.991271   4.567472   4.850470   3.717109
    23  H    4.192057   2.829264   1.893005   3.174607   2.845102
    24  H    6.111232   4.822273   4.613960   5.271783   4.487604
    25  H    4.422537   3.194415   2.926645   3.951605   3.558637
    26  H    4.514082   3.120978   3.556105   2.874244   1.885181
                    6          7          8          9         10
     6  H    0.000000
     7  H    1.791857   0.000000
     8  H    1.788101   1.793062   0.000000
     9  H    2.502042   2.523542   3.091612   0.000000
    10  H    3.610826   2.828702   2.502893   2.827363   0.000000
    11  H    2.528248   3.726420   2.955413   2.559850   3.618397
    12  H    3.302266   3.816789   2.649165   3.052993   2.486168
    13  H    4.596049   4.806810   4.435866   2.840451   3.120211
    14  C    7.278556   6.558356   7.062043   4.904858   4.876685
    15  C    6.318766   5.938529   6.264768   3.908068   4.328843
    16  O    5.623480   5.282317   5.271875   3.491839   3.220709
    17  C    5.626837   5.357643   5.978869   3.129182   4.515395
    18  O    5.311725   5.497310   5.931737   3.004283   4.919920
    19  H    6.881125   5.931738   6.608585   4.619270   4.434696
    20  H    8.047034   7.352152   7.989548   5.600235   5.901973
    21  H    7.885906   7.146481   7.454124   5.622568   5.102809
    22  H    7.025321   6.845019   7.028203   4.655459   5.174027
    23  H    5.001755   4.444616   4.555186   2.952130   2.396509
    24  H    6.492429   6.155659   6.951866   4.022689   5.503732
    25  H    4.926166   4.419622   5.248151   2.467506   3.857702
    26  H    4.696017   5.043351   5.226834   2.537867   4.331680
                   11         12         13         14         15
    11  H    0.000000
    12  H    1.782686   0.000000
    13  H    2.858585   2.384582   0.000000
    14  C    6.563027   6.015029   4.071800   0.000000
    15  C    5.271137   4.907140   2.738474   1.524066   0.000000
    16  O    4.439666   3.711403   1.768396   2.415958   1.423824
    17  C    4.869841   4.998448   3.031439   2.532797   1.530816
    18  O    4.194204   4.717325   2.803764   3.781395   2.465685
    19  H    6.548390   5.974140   4.352163   1.107939   2.177914
    20  H    7.353366   6.971906   4.910885   1.105156   2.184031
    21  H    7.026401   6.234117   4.364579   1.103761   2.165467
    22  H    5.645287   5.346455   2.997803   2.164628   1.102964
    23  H    4.223781   3.435657   2.040377   2.645276   1.963470
    24  H    5.877799   6.096876   4.105852   2.670121   2.156350
    25  H    4.644562   4.737887   3.210819   2.817146   2.150083
    26  H    3.296783   3.805030   1.996297   4.103732   2.655541
                   16         17         18         19         20
    16  O    0.000000
    17  C    2.440550   0.000000
    18  O    3.022705   1.394509   0.000000
    19  H    2.751607   2.772119   4.129638   0.000000
    20  H    3.377339   2.829187   4.045622   1.791026   0.000000
    21  H    2.620011   3.486126   4.611676   1.790896   1.793533
    22  H    2.019136   2.144378   2.620439   3.089831   2.503344
    23  H    0.977789   2.581998   3.293671   2.566525   3.667766
    24  H    3.372108   1.104281   2.008954   2.942946   2.516146
    25  H    2.647031   1.116692   2.091054   2.602841   3.271472
    26  H    2.720648   1.958893   0.975102   4.415360   4.580711
                   21         22         23         24         25
    21  H    0.000000
    22  H    2.525393   0.000000
    23  H    2.958686   2.836487   0.000000
    24  H    3.715233   2.555128   3.542117   0.000000
    25  H    3.784537   3.052017   2.354106   1.781104   0.000000
    26  H    4.797237   2.835466   2.968097   2.841890   2.401357
                   26
    26  H    0.000000
 Framework group  C1[X(C6H16O4)]
 Deg. of freedom    72
                         Standard orientation:                         
 ---------------------------------------------------------------------
 Center     Atomic      Atomic             Coordinates (Angstroms)
 Number     Number       Type             X           Y           Z
 ---------------------------------------------------------------------
      1          6           0       -3.312053   -0.714553    0.861170
      2          6           0       -1.944121   -0.270814    0.361841
      3          8           0       -1.159560   -1.401278   -0.012853
      4          6           0       -2.036221    0.744398   -0.777936
      5          8           0       -0.830216    1.395979   -1.049635
      6          1           0       -3.876019    0.134291    1.287030
      7          1           0       -3.198414   -1.486040    1.642174
      8          1           0       -3.914984   -1.141712    0.034991
      9          1           0       -1.376972    0.199194    1.183264
     10          1           0       -1.643021   -1.908491   -0.682443
     11          1           0       -2.766363    1.526687   -0.507944
     12          1           0       -2.432202    0.226983   -1.681431
     13          1           0       -0.135279    0.749873   -1.311351
     14          6           0        3.145594   -1.279031   -0.007903
     15          6           0        2.250782   -0.068358   -0.245304
     16          8           0        1.178692   -0.417222   -1.114897
     17          6           0        1.732663    0.528087    1.065880
     18          8           0        1.158488    1.793298    0.946640
     19          1           0        2.608097   -2.055336    0.571733
     20          1           0        4.056516   -1.002002    0.553209
     21          1           0        3.447939   -1.719179   -0.973897
     22          1           0        2.814173    0.717380   -0.776092
     23          1           0        0.588599   -1.035927   -0.640488
     24          1           0        2.579354    0.633863    1.766852
     25          1           0        1.032312   -0.213586    1.520227
     26          1           0        0.417171    1.769402    0.313630
 ---------------------------------------------------------------------
 Rotational constants (GHZ):           1.8037600           0.6898001           0.6266268
   172 basis functions,   314 primitive gaussians,   182 cartesian basis functions
    42 alpha electrons       42 beta electrons
       nuclear repulsion energy       620.4590625814 Hartrees.
 NAtoms=   26 NActive=   26 NUniq=   26 SFac= 1.00D+00 NAtFMM=   60 NAOKFM=F Big=F
 Nuclear repulsion after empirical dispersion term =      620.4409491501 Hartrees.
   1 Symmetry operations used in ECPInt.
 ECPInt:  NShTT=    4278 NPrTT=   17198 LenC2=    4213 LenP2D=   12733.
 LDataN:  DoStor=T MaxTD1= 4 Len=   56
 Initial guess from the checkpoint file:  "dimer.chk"
 B after Tr=     0.000000   -0.000000    0.000000
         Rot=    0.999979   -0.005939    0.000836   -0.002423 Ang=  -0.74 deg.
 ExpMin= 1.22D-01 ExpMax= 2.27D+03 ExpMxC= 3.41D+02 IAcc=3 IRadAn=         5 AccDes= 0.00D+00
 Harris functional with IExCor= 4639 and IRadAn=       5 diagonalized for initial guess.
 HarFok:  IExCor= 4639 AccDes= 0.00D+00 IRadAn=         5 IDoV= 1 UseB2=F ITyADJ=14
 ICtDFT=  3500011 ScaDFX=  1.000000  1.000000  1.000000  1.000000
 FoFCou: FMM=F IPFlag=           0 FMFlag=      100000 FMFlg1=           0
         NFxFlg=           0 DoJE=T BraDBF=F KetDBF=T FulRan=T
         wScrn=  0.000000 ICntrl=       500 IOpCl=  0 I1Cent=   200000004 NGrid=           0
         NMat0=    1 NMatS0=      1 NMatT0=    0 NMatD0=    1 NMtDS0=    0 NMtDT0=    0
 Petite list used in FoFCou.
     Accept linear search using points  1 and  2.
     Minimum is close to point  2 DX= -1.78D-05 DF=  0.00D+00 DXR=  1.78D-05 DFR=  0.00D+00 which will be used.
 SCF Done:  E(RwB97XD) =  -538.551731067     a.u. after    5 cycles
            Convg  =    0.3966D-09                    30 Fock formations.
              S**2 =  0.0000                  -V/T =  2.0085
   1 Symmetry operations used in ECPInt.
 ECPInt:  NShTT=    4278 NPrTT=   17198 LenC2=    4213 LenP2D=   12733.
 LDataN:  DoStor=T MaxTD1= 5 Len=  102
 Calling FoFJK, ICntrl=      2127 FMM=F ISym2X=0 I1Cent= 0 IOpClX= 0 NMat=1 NMatS=1 NMatT=0.

 GradGradGradGradGradGradGradGradGradGradGradGradGradGradGradGradGradGrad
 Using GEDIIS/GDIIS optimizer.
 FormGI is forming the generalized inverse of G from B-inverse, IUseBI=4.
 Internal  Forces:  Max     0.001594354 RMS     0.000432184
 Step number   3 out of a maximum of  154
 All quantities printed in internal units (Hartrees-Bohrs-Radians)
 Mixed Optimization -- En-DIIS/RFO-DIIS
 Swapping is turned off.
 Trust test= 1.47D+00 RLast= 1.31D-01 DXMaxT set to 5.05D-01
 ITU=  1  1  0
     Eigenvalues ---    0.00398   0.00424   0.00632   0.00689   0.00813
     Eigenvalues ---    0.01029   0.01468   0.01637   0.02087   0.03066
     Eigenvalues ---    0.03509   0.03811   0.04030   0.04196   0.04420
     Eigenvalues ---    0.04640   0.04726   0.04894   0.05310   0.05527
     Eigenvalues ---    0.05543   0.05575   0.05661   0.05675   0.05973
     Eigenvalues ---    0.06197   0.06604   0.07031   0.07972   0.08559
     Eigenvalues ---    0.09923   0.10348   0.11566   0.12045   0.12093
     Eigenvalues ---    0.13533   0.13929   0.15122   0.15991   0.16000
     Eigenvalues ---    0.16000   0.16000   0.16007   0.16053   0.16759
     Eigenvalues ---    0.16884   0.18602   0.18774   0.27869   0.28060
     Eigenvalues ---    0.29737   0.30116   0.33388   0.33649   0.34257
     Eigenvalues ---    0.34364   0.34505   0.34566   0.34908   0.35030
     Eigenvalues ---    0.35124   0.35228   0.35321   0.39833   0.40469
     Eigenvalues ---    0.42620   0.44721   0.46332   0.49058   0.50857
     Eigenvalues ---    0.51738   0.54891
 En-DIIS/RFO-DIIS/Sim-DIIS IScMMF=       -3 using points:     3    2
 RFO step:  Lambda=-5.12273146D-04.
 DidBck=F Rises=F RFO-DIIS coefs:    2.50838   -1.50838
[...]
 .00003728,0.00004538,-0.00000930,0.00014527,0.00012475,0.00000325,0.00
 000875,0.00000198,-0.00000232,-0.00000198,-0.00000324,-0.00000046,0.00
 000289,-0.00000278,0.00000119,0.00000048,-0.00000014,0.00000443,0.0000
 0510,0.00004129,0.00000158,0.00001186,0.00000691,-0.00000048,0.0000027
 5,-0.00000690,0.00000349,-0.00016866,-0.00021549,-0.00002931,-0.114759
 51,0.09336479,0.06548764,0.01066167,-0.01543891,-0.01185777,0.00275161
 ,0.00067393,0.00137534,0.00084607,-0.00043126,-0.00072877,-0.00003543,
 0.00036802,0.00021200,0.11782729,0.00001205,0.00002036,0.00000612,-0.0
 0005197,-0.00010426,0.00000649,0.00002941,0.00014661,0.00013833,0.0001
 3059,-0.00005091,-0.00006252,-0.00015064,0.00004373,0.00009348,0.00000
 812,0.00000167,-0.00000538,-0.00001588,0.00000720,0.00000718,0.0000034
 1,-0.00000386,0.00000358,-0.00000849,-0.00003308,-0.00000406,0.0000218
 2,0.00000180,-0.00002339,-0.00001041,0.00001062,0.00001140,-0.00001514
 ,0.00001791,0.00000836,0.00015542,-0.00000348,-0.00001362,0.09191516,-
 0.18025109,-0.09335096,0.01630702,-0.02111432,-0.01321553,-0.00054716,
 0.00279658,0.00172059,0.00140392,0.00041935,-0.00163190,-0.00041472,0.
 00078837,0.00074768,-0.09790901,0.19513228,0.00002432,0.00005332,-0.00
 001883,-0.00005382,-0.00024679,0.00012572,0.00017096,0.00032393,-0.000
 10227,0.00010730,-0.00000403,-0.00003942,-0.00008394,0.00010354,-0.000
 03899,0.00001949,0.00000436,-0.00000531,-0.00000608,-0.00000654,0.0000
 1202,-0.00001206,-0.00000205,-0.00000505,0.00001894,0.00001550,-0.0000
 2070,-0.00008410,-0.00005165,0.00000131,-0.00000007,0.00001533,0.00000
 969,-0.00002356,0.00001177,-0.00001375,-0.00001725,-0.00010549,-0.0000
 0604,0.06606162,-0.09338428,-0.11688765,0.00255356,-0.00403198,-0.0025
 4012,-0.00017132,0.00107715,0.00017589,0.00008100,0.00139781,0.0000496
 0,-0.00040080,-0.00015311,-0.00022332,-0.07132981,0.10373356,0.1187759
 2,-0.00001222,-0.00003175,0.00003180,0.00007999,0.00021101,-0.00014971
 ,-0.00034279,-0.00004856,0.00023746,0.00019928,-0.00014787,-0.00003930
 ,-0.00052849,-0.00044637,0.00022160,-0.00002184,-0.00000562,0.00000352
 ,-0.00000401,0.00001390,0.00000008,0.00000434,0.00000105,-0.00000140,-
 0.00000133,-0.00000684,0.00000252,0.00002988,-0.00004565,-0.00001645,-
 0.00006043,-0.00000419,0.00001606,-0.00000786,0.00002874,0.00000593,0.
 00080359,0.00075375,0.00006050,-0.22280505,0.05753264,-0.11493613,-0.0
 1191929,0.01040895,-0.00772570,-0.00424891,-0.00434659,-0.00245021,-0.
 00057391,0.00038145,-0.00079464,0.00067496,-0.00003204,0.00059019,-0.0
 1010544,0.00181444,-0.00809607,0.23619921,0.00000878,0.00001409,0.0000
 1231,0.00000086,-0.00003319,-0.00004215,-0.00009576,0.00021134,0.00013
 894,0.00015697,-0.00009687,-0.00004488,-0.00040247,-0.00037479,0.00017
 306,0.00000034,0.00000168,-0.00000168,-0.00000899,0.00000295,0.0000072
 3,-0.00000007,-0.00000305,-0.00000194,-0.00000168,0.00000693,0.0000053
 9,-0.00002811,-0.00005912,-0.00001402,-0.00004094,0.00001282,0.0000160
 3,-0.00001041,0.00001792,0.00000155,0.00057922,0.00066849,0.00001775,0
 .06017996,-0.07058556,0.04041291,-0.01755245,0.01131576,-0.01260141,-0
 .00695967,-0.00324248,-0.00318282,-0.00017753,0.00014487,0.00027992,0.
 00050321,0.00020474,-0.00008729,0.01603111,-0.00475458,0.01354048,-0.0
 6190137,0.07032767,-0.00000159,-0.00000235,0.00001050,0.00005666,0.000
 04794,-0.00004531,-0.00018000,0.00007585,0.00013599,0.00014796,-0.0000
 7789,-0.00003387,-0.00033107,-0.00023115,0.00004158,-0.00000601,-0.000
 00249,0.00000199,-0.00000325,0.00000464,0.00000377,-0.00000142,0.00000
 151,-0.00000324,-0.00000049,-0.00000368,-0.00000251,0.00001464,-0.0000
 3263,-0.00002270,-0.00003228,-0.00000036,0.00001482,-0.00001068,0.0000
 2080,-0.00000161,0.00039438,0.00038637,0.00010711,-0.11581697,0.038759
 63,-0.12564025,-0.00181089,0.00317841,-0.00399767,-0.00253185,-0.00172
 987,0.00039612,0.00047451,0.00029821,-0.00048807,-0.00000747,-0.000186
 85,0.00013498,0.01450429,-0.00373328,0.01046971,0.12674261,-0.04247346
 ,0.13003290,0.00001373,0.00003067,-0.00002488,-0.00002708,-0.00014783,
 0.00011796,0.00017195,0.00010367,-0.00019453,0.00002162,0.00002766,0.0
 0002199,0.00011773,0.00025014,-0.00019632,0.00001237,0.00000165,-0.000
 00240,0.00000218,-0.00000600,0.00000366,-0.00001348,0.00000299,-0.0000
 0344,0.00002272,0.00000268,-0.00003783,-0.00007778,-0.00002124,0.00003
 505,0.00001881,0.00000447,-0.00000520,-0.00002601,0.00000905,-0.000018
 56,-0.00030194,-0.00034406,0.00005593,-0.07359799,-0.02975800,0.072786
 38,-0.00760103,-0.00785461,0.01826847,0.00206267,0.00179077,0.00020121
 ,-0.00156360,-0.00236979,-0.00315621,-0.00075741,-0.00127327,0.0011626
 8,-0.00469803,-0.00716596,0.01260801,0.01060698,0.00959685,-0.02258670
 ,0.07444562,0.00000273,0.00001777,-0.00002460,0.00001085,-0.00009579,0
 .00009217,0.00008064,0.00005779,-0.00004740,0.00008540,0.00000129,-0.0
 0000238,-0.00004373,0.00017381,-0.00023030,0.00000637,-0.00000099,0.00
 000089,-0.00000209,-0.00000005,0.00000437,-0.00001245,0.00000656,-0.00
 000151,0.00002791,-0.00001880,-0.00004174,0.00000028,0.00000043,-0.000
 00605,0.00000766,-0.00000112,0.00000377,-0.00002837,0.00002031,-0.0000
 1429,-0.00014225,-0.00019900,0.00010368,-0.03074529,-0.08682760,0.0894
 8167,-0.00868752,-0.01142226,0.02643857,0.00275988,0.00209120,-0.00071
 576,-0.00184299,-0.00273713,-0.00371273,-0.00175404,-0.00145690,0.0012
 7968,0.00625465,0.01039188,-0.02073978,-0.00318643,-0.00347661,0.00549
 731,0.03635248,0.09262017,-0.00000144,-0.00000299,0.00000067,-0.000037
 68,-0.00001263,-0.00000601,0.00006223,-0.00003232,0.00002790,-0.000059
 07,0.00001740,-0.00000272,0.00011088,0.00002341,0.00003593,0.00000167,
 0.00000154,-0.00000149,-0.00000372,0.00000133,-0.00000179,0.00000692,-
 0.00000275,0.00000562,0.00000016,-0.00000635,0.00001109,0.00003349,0.0
 0003576,-0.00000848,0.00000693,0.00000321,-0.00000305,0.00001227,-0.00
 001169,0.00000966,-0.00008855,-0.00008447,-0.00002111,0.07493109,0.092
 26089,-0.25963638,-0.00419048,-0.00359660,0.00555197,0.00082790,-0.000
 76781,0.00161275,-0.00114596,-0.00040759,-0.00003482,-0.00002192,-0.00
 028130,0.00050179,0.00268389,0.00625628,-0.01072210,0.00597266,0.00412
 103,-0.01097032,-0.07924162,-0.09795030,0.27288535,-0.00006390,-0.0001
 3984,0.00002528,0.00033469,0.00056131,-0.00018931,-0.00128790,-0.00011
 915,0.00071975,-0.00016616,0.00006561,0.00008564,0.00006406,-0.0005438
 1,-0.00008715,-0.00005652,-0.00000551,0.00002339,0.00001876,0.00000214
 ,-0.00001378,0.00000364,0.00000975,-0.00000282,0.00001668,0.00002999,0
 .00000837,0.00001424,-0.00009627,-0.00002560,-0.00001370,-0.00003572,-
 0.00001158,0.00005481,-0.00003040,0.00000514,0.00028019,0.00100321,0.0
 0027988,0.01106922,-0.01616178,-0.01061466,-0.11273372,0.08913933,0.06
 246350,-0.02462092,0.02347886,0.00643863,-0.00545559,0.00935258,0.0084
 2225,0.00129880,0.00007724,-0.00206985,-0.00196056,-0.00424785,-0.0007
 5841,0.00073093,0.00084882,0.00003519,0.00064686,0.00072503,0.00029719
 ,0.13344697,0.00002856,0.00006243,-0.00002961,-0.00009061,-0.00029552,
 0.00011719,0.00049556,0.00010209,-0.00029083,-0.00009665,0.00009275,-0
 .00002310,0.00031573,0.00022438,0.00002221,0.00002464,0.00000520,-0.00
 000732,-0.00000303,-0.00000881,0.00000631,-0.00001050,-0.00000297,0.00
 000232,-0.00000336,0.00005906,0.00001312,-0.00002726,0.00001882,-0.000
 00870,0.00002689,0.00001132,-0.00000430,-0.00000388,-0.00002055,-0.000
 01230,-0.00037032,-0.00043331,-0.00012448,0.01117670,-0.01794046,-0.01
 333398,0.09446685,-0.18746991,-0.09204271,0.00951741,-0.00486816,-0.00
 066708,-0.00747196,0.00811430,0.00718077,0.00101576,0.00183348,-0.0004
 0281,-0.00345706,-0.00313103,-0.00067645,-0.00021870,0.00075459,-0.000
 14635,0.00058313,0.00060329,0.00048385,-0.10389926,0.20172191,-0.00002
 727,-0.00008312,0.00005847,-0.00004406,0.00032267,-0.00017428,-0.00087
 762,-0.00003661,0.00070938,0.00014786,-0.00011349,-0.00004661,-0.00024
 035,-0.00003728,-0.00001953,-0.00002821,-0.00000045,0.00000682,-0.0000
 1187,0.00001587,-0.00000050,0.00002446,-0.00000443,0.00000096,0.000014
 64,-0.00013477,-0.00000203,0.00008043,-0.00002527,-0.00003255,-0.00001
 324,-0.00001342,0.00000360,-0.00001689,0.00003547,0.00003549,0.0003143
 3,0.00018511,0.00023157,0.00242088,-0.00210498,-0.00148855,0.07009998,
 -0.09750265,-0.11635417,-0.02107187,0.02110379,0.00947486,0.01612950,-
 0.02265840,-0.01527586,-0.00303978,0.00063474,0.00363657,-0.00063382,-
 0.00053617,0.00072634,-0.00003211,-0.00026740,-0.00000234,-0.00056180,
 0.00033966,0.00070144,-0.06283386,0.09673101,0.12493771,0.00113228,0.0
 0248120,-0.00051843,-0.00365962,-0.01045909,0.00380475,0.00261469,0.00
 484452,-0.00434741,0.00185720,-0.00133716,-0.00165471,-0.00536443,0.00
 012059,0.00102448,0.00096916,0.00003245,-0.00034043,-0.00025540,-0.000
 09723,0.00022006,-0.00012915,-0.00016005,0.00007481,0.00033146,0.00054
 527,-0.00029193,-0.00041506,0.00250279,-0.00061440,-0.00023258,0.00076
 233,0.00046716,-0.00044262,0.00012722,-0.00018720,0.00727837,-0.001330
 48,-0.00197605,0.00069885,-0.00049172,0.00170105,-0.02549342,0.0205859
 3,0.00822014,-0.19068768,0.15227940,0.10258009,0.00474704,0.00044072,0
 .00008906,-0.00244734,-0.00121880,0.00031546,-0.00044634,-0.00054913,-
 0.00063943,0.00108494,-0.00005670,0.00016778,-0.00043206,-0.00010857,-
 0.00007249,-0.00103427,-0.00047587,-0.00221375,0.20826652,-0.00056453,
 -0.00149695,0.00024681,-0.00261797,0.00452184,-0.00003929,0.00069885,-
 0.01078486,0.00164284,-0.00388364,0.00060448,0.00072191,0.00335780,0.0
 0213596,0.00066208,-0.00036325,0.00006461,0.00013823,0.00021253,-0.000
 02394,-0.00015259,0.00015082,0.00002160,-0.00001773,-0.00011347,-0.000
 31257,0.00053301,0.00211928,-0.00002438,-0.00080664,0.00035192,-0.0001
 8074,-0.00025767,0.00039219,-0.00027957,0.00011267,-0.00229259,-0.0073
 9841,-0.00522916,-0.00169625,0.00222964,0.00055954,0.01073932,-0.00815
 610,-0.00264351,0.16232813,-0.16278264,-0.11609398,-0.00148177,0.00019
 258,-0.00133053,-0.00026954,-0.00021711,-0.00018143,0.00027855,-0.0002
 3604,-0.00083441,-0.00011189,-0.00078092,-0.00030716,-0.00016318,-0.00
 003512,0.00019014,0.00123275,0.00067773,0.00174373,-0.16785041,0.18286
 111,-0.00028463,-0.00077298,-0.00002039,0.00120957,0.00291580,-0.00076
 327,0.00182196,-0.00068629,-0.00739791,-0.00119445,0.00012623,0.001193
 09,0.00118227,0.00082265,-0.00099462,-0.00025786,-0.00000431,0.0001351
 1,0.00010639,0.00001340,-0.00007559,-0.00001131,0.00008434,-0.00003627
 ,0.00006781,0.00012713,-0.00027864,-0.00389861,-0.00046957,0.00242604,
 0.00008388,-0.00016386,-0.00029927,-0.00010725,0.00000073,-0.00020164,
 -0.00070224,-0.00378826,0.00015489,-0.00050393,0.00105293,0.00005242,-
 0.01998005,0.01962528,0.01500494,0.13420647,-0.14193943,-0.15396144,-0
 .00288647,0.00387275,0.00320128,0.00046230,-0.00113925,-0.00129080,0.0
 0012029,-0.00082487,-0.00021897,-0.00014778,-0.00028502,-0.00031117,0.
 00049566,-0.00002776,-0.00017093,-0.00463008,0.00197419,-0.00295650,-0
 .10679379,0.12091429,0.14814512,-0.00001198,0.00006004,-0.00007686,0.0
 0012272,-0.00012312,0.00018378,-0.00006109,0.00020492,-0.00023267,0.00
 042091,-0.00005360,-0.00003716,-0.00065983,0.00036865,-0.00082540,-0.0
 0001024,-0.00001533,0.00000041,-0.00000461,0.00001874,0.00001044,-0.00
 005351,0.00002405,0.00000869,0.00019264,0.00003609,-0.00017231,-0.0001
 1603,-0.00009671,-0.00000887,-0.00001728,-0.00002152,0.00000992,-0.000
 09691,0.00007533,-0.00004297,-0.00030906,-0.00034663,0.00033811,-0.000
 12941,-0.00042604,0.00030150,0.00869257,-0.00172516,0.00678591,0.00172
 845,-0.00149994,0.00350401,-0.19777552,0.03480175,-0.12541681,-0.01416
 883,-0.00863908,-0.01323244,0.00000073,0.00000651,-0.00019609,0.000106
 11,-0.00056827,0.00059484,0.00029075,0.00014847,0.00005181,0.00025415,
 0.00034065,-0.00051626,-0.00038330,-0.00023037,0.00061682,0.21448243,0
 .00005244,0.00005824,0.00004409,-0.00028073,-0.00031039,0.00010289,0.0
 0036313,0.00009579,0.00002106,0.00046953,-0.00020156,-0.00021174,-0.00
 090921,0.00075964,-0.00118707,0.00003432,0.00000532,-0.00001412,-0.000
 02236,0.00000439,0.00001512,0.00001724,-0.00001385,-0.00001303,0.00002
 153,-0.00015141,-0.00001507,0.00007822,0.00006960,-0.00001441,0.000013
 02,0.00002211,0.00002433,-0.00013775,0.00011293,0.00001461,-0.00055656
 ,-0.00064310,0.00007670,-0.00001035,-0.00021941,0.00052544,0.00980041,
 -0.00133815,0.00334233,-0.00032217,-0.00055161,0.00471353,0.04175132,-
 0.05657213,0.03402871,-0.03498233,-0.00489602,-0.02779102,0.00015761,-
 0.00007616,-0.00003455,-0.00066756,-0.00035781,0.00052444,0.00003275,-
 0.00003059,-0.00027702,-0.00057106,0.00036049,-0.00010775,-0.00071982,
 0.00083994,-0.00048222,-0.02477818,0.06912596,0.00001276,-0.00001324,0
 .00005238,0.00000068,0.00006075,-0.00010252,-0.00015565,-0.00000783,0.
 00038253,0.00039134,-0.00023558,-0.00012233,-0.00073049,-0.00010005,-0
 .00012261,-0.00000467,-0.00000092,-0.00000152,-0.00001728,0.00001438,0
 .00000963,0.00001631,-0.00000667,-0.00001179,-0.00003144,-0.00009906,-
 0.00000784,0.00011263,-0.00003047,-0.00003485,-0.00005020,0.00000378,0
 .00003035,-0.00005908,0.00007336,0.00001460,0.00065921,0.00044578,0.00
 012647,-0.00080635,-0.00028062,0.00084911,-0.02369153,0.00454509,-0.01
 326380,0.00033262,0.00367491,-0.00761694,-0.12390789,0.02775939,-0.161
 60112,-0.00425005,-0.00370943,-0.00051457,0.00018087,0.00009795,-0.000
 06531,0.00087313,0.00044546,0.00018918,0.00014948,-0.00043118,0.000165
 37,0.00018655,-0.00077467,0.00065585,0.00103189,-0.00090095,-0.0003707
 0,0.13893739,-0.02790594,0.16959540,0.00007227,-0.00004864,0.00013644,
 -0.00053170,0.00040408,-0.00066303,-0.00049449,-0.00017546,-0.00035401
 ,-0.00002468,-0.00008123,-0.00003205,0.00001751,0.00005232,0.00004444,
 0.00001222,0.00000024,-0.00000317,0.00003195,-0.00002686,0.00000132,0.
 00003468,0.00000005,-0.00000887,-0.00029789,-0.00026567,-0.00008634,-0
 .00016388,0.00007359,0.00008493,0.00001222,0.00001321,0.00000280,0.000
 01203,-0.00000728,0.00001995,-0.00010018,-0.00000414,0.00011746,0.0000
 9856,0.00081388,0.00013558,-0.00969136,0.01149864,0.00361678,0.0024620
 2,-0.00159869,-0.00147228,-0.15280952,0.09744522,0.05870634,0.01718962
 ,-0.01734909,-0.00779895,-0.00018777,-0.00097475,0.00004351,0.00015595
 ,0.00001706,0.00012541,0.00022846,-0.00034601,-0.00012939,-0.00004626,
 -0.00169766,0.00225735,0.00044371,-0.00025527,0.00109834,-0.01314125,0
 .01358305,0.01051922,0.15568495,0.00006612,0.00001562,0.00014252,-0.00
 031365,-0.00002430,0.00000462,0.00064346,-0.00000339,0.00062737,0.0009
 3570,-0.00059987,-0.00030319,-0.00138014,0.00076883,-0.00073782,0.0000
 3775,0.00000496,-0.00002953,-0.00005308,0.00003890,0.00002172,0.000080
 66,-0.00003751,-0.00001224,-0.00005787,-0.00067889,-0.00033271,0.00027
 875,-0.00004727,-0.00003572,-0.00001104,0.00002996,0.00005090,-0.00017
 690,0.00021619,0.00010032,-0.00001637,-0.00042721,0.00018656,0.0000291
 7,0.00143658,-0.00047869,-0.00540028,0.00649078,0.00662425,-0.00162379
 ,0.00147911,-0.00071292,0.09727666,-0.14370216,-0.05930099,0.00381009,
 -0.03864129,-0.01521970,0.00018485,-0.00002494,0.00005327,-0.00017773,
 -0.00000640,0.00005954,0.00024006,0.00025922,-0.00003051,-0.00089673,-
 0.00044287,0.00241828,0.00034544,-0.00012835,-0.00125517,0.00457414,-0
 .00134811,-0.00224949,-0.10110227,0.17568935,0.00004504,0.00003337,0.0
 0010726,-0.00063127,-0.00046949,-0.00002586,0.00008402,0.00006985,0.00
 038229,0.00015626,-0.00020521,-0.00021071,-0.00031683,0.00025999,0.000
 14622,0.00005212,0.00001877,-0.00001834,-0.00001296,-0.00002078,0.0000
 1816,0.00005122,-0.00002739,-0.00001900,-0.00014170,-0.00010199,0.0000
 3912,0.00022143,0.00024463,0.00002392,0.00000788,0.00005793,0.00004242
 ,-0.00002277,0.00004117,0.00004328,0.00018938,-0.00015772,-0.00018077,
 -0.00119676,-0.00101329,-0.00024911,0.02362203,-0.01959742,-0.01500926
 ,-0.00045949,-0.00066975,0.00391657,0.05620451,-0.05659012,-0.09040046
 ,-0.00148574,-0.00616615,0.00302651,0.00004307,0.00079646,0.00048709,-
 0.00005852,0.00002199,0.00006097,-0.00016021,0.00035840,0.00016298,0.0
 0211572,0.00220074,-0.00465747,-0.00025958,0.00069766,-0.00170425,-0.0
 1300793,0.01311061,0.01014622,-0.06603535,0.06786448,0.09388230,-0.000
 23484,-0.00075829,-0.00008354,0.00097670,0.00252036,-0.00041829,-0.001
 37256,-0.00177263,0.00022602,-0.00850125,0.00333341,0.00005806,-0.0000
 5664,-0.00354514,0.00718291,-0.00011503,0.00004885,0.00008769,0.000260
 38,-0.00019066,-0.00018810,0.00018415,-0.00003606,0.00001679,0.0000819
 6,0.00078576,0.00124202,-0.00006711,0.00025245,0.00013069,0.00018069,-
 0.00006511,-0.00038975,0.00153535,-0.00132445,0.00013270,0.00679691,0.
 00278072,-0.00124781,-0.00042503,0.00054312,-0.00136075,0.00244463,0.0
 0036543,0.00133062,-0.00440366,0.00039792,-0.00161798,-0.01686879,-0.0
 0656141,-0.01352437,-0.20347737,-0.00550916,-0.20793919,0.00006332,0.0
 0025323,0.00018410,-0.00004461,-0.00011877,0.00006240,0.00043399,0.000
 43739,-0.00000676,-0.00079451,-0.00016576,0.00067334,0.00199905,0.0000
 3200,-0.00007329,0.00064739,-0.00241647,0.00030054,0.00103284,0.002707
 00,0.00099642,0.21972404,-0.00009393,0.00024610,-0.00041918,0.00093299
 ,-0.00042015,0.00119781,-0.00036154,0.00018756,-0.00008438,0.00245678,
 -0.00071298,0.00088603,-0.00144970,-0.00564150,-0.00182243,-0.00007279
 ,-0.00003341,0.00004004,-0.00004226,0.00002568,0.00002930,-0.00021474,
 0.00007944,0.00002936,0.00051347,-0.00028474,-0.00120401,-0.00003631,-
 0.00007055,0.00001846,-0.00046736,-0.00000202,-0.00004858,-0.00002964,
 0.00006025,-0.00016479,0.00152497,-0.00097431,0.00570549,0.00034685,0.
 00003252,-0.00010606,-0.00304439,0.00084918,-0.00049807,0.00214105,0.0
 0132362,-0.00052550,-0.02975545,-0.00310585,-0.03110864,0.02146397,-0.
 04779323,0.04198242,-0.00003053,0.00000536,-0.00005891,0.00023323,0.00
 008755,0.00007287,0.00007488,0.00005824,0.00006947,0.00022076,-0.00002
 824,0.00009585,-0.00021283,-0.00131180,0.00030928,-0.00213541,-0.00474
 413,-0.00037473,0.00003169,-0.00031696,-0.00075673,0.00800623,0.062484
 38,-0.00040270,-0.00046116,-0.00112523,0.00209776,-0.00003706,0.002907
 57,-0.00043908,-0.00046933,-0.00133594,-0.00792690,0.00226986,0.006059
 76,0.00943655,-0.00234543,-0.00424924,0.00003402,0.00002611,0.00010741
 ,0.00027724,-0.00019942,-0.00015765,-0.00027526,0.00019541,0.00002705,
 0.00072896,-0.00077942,-0.00113297,-0.00006845,0.00043607,0.00012953,0
 .00087013,0.00004959,-0.00033788,0.00251440,-0.00186400,-0.00053231,0.
 00051535,0.00635128,-0.00605228,0.00009543,0.00035315,-0.00146713,0.00
 390030,0.00162593,0.00477295,-0.00357579,-0.00232175,-0.00178707,-0.00
 081399,-0.00569330,-0.00104793,-0.22353740,0.01169995,-0.25631668,-0.0
 0006845,-0.00022579,0.00007454,-0.00031002,-0.00019196,-0.00008056,0.0
 0028321,0.00034560,-0.00009333,0.00013060,-0.00018702,-0.00016868,0.00
 021287,0.00063216,0.00073950,0.00242213,0.00151006,0.00161879,-0.00032
 642,0.00254483,-0.00001011,0.21422553,-0.01326437,0.25945790\\-0.00000
 010,-0.00000026,-0.00000059,0.00000026,0.00000014,-0.00000045,-0.00000
 034,-0.00000029,-0.00000079,0.00000022,-0.00000049,0.00000011,0.000001
 25,-0.00000096,0.00000009,-0.00000018,-0.00000022,-0.00000039,-0.00000
 037,0.,-0.00000060,-0.00000017,-0.00000041,-0.00000077,-0.00000012,0.0
 0000005,0.00000008,-0.00000021,-0.00000035,-0.00000057,0.00000035,-0.0
 0000056,0.00000010,0.00000015,-0.00000076,-0.00000025,-0.00000068,0.00
 000060,0.00000040,-0.00000019,0.00000017,0.00000005,-0.00000003,0.0000
 0034,0.00000036,0.00000035,-0.00000019,-0.00000046,-0.00000003,0.00000
 023,0.00000019,0.00000012,0.00000050,0.00000064,-0.00000031,0.00000054
 ,-0.00000003,-0.00000009,0.00000065,0.00000037,-0.00000007,0.00000027,
 0.00000005,0.00000021,0.00000007,0.00000064,0.00000025,-0.00000045,0.0
 0000056,-0.00000011,0.00000081,0.00000061,-0.00000030,0.00000053,0.000
 00015,0.00000013,0.00000004,0.00000049\\\@


 LOGIC IS A SYSTEMATIC METHOD OF COMING TO THE
 WRONG CONCLUSION WITH CONFIDENCE.
 File lengths (MBytes):  RWF=    101 Int=      0 D2E=      0 Chk=      4 Scr=      1
 Normal termination of Gaussian 16 at Mon Apr  1 15:30:28 2024.
real 1388.86
user 5206.60
sys 34.47
