 Entering Gaussian System, Link 0=g16
 Input=gaussian_test.inp
 Output=gaussian_test.log
 Initial command:
 /sw/restricted/lms/sw/Gaussian/g16_B01/g16/l1.exe "/scratch/user/peterchao1/peterchao1/6318271_1663960373000000385421336/Gau-137555.inp" -scrdir="/scratch/user/peterchao1/peterchao1/6318271_1663960373000000385421336/"
 Entering Link 1 = /sw/restricted/lms/sw/Gaussian/g16_B01/g16/l1.exe PID=    137562.
  
 Copyright (c) 1988-2017, Gaussian, Inc.  All Rights Reserved.
  
 This is part of the Gaussian(R) 16 program.  It is based on
 the Gaussian(R) 09 system (copyright 2009, Gaussian, Inc.),
 the Gaussian(R) 03 system (copyright 2003, Gaussian, Inc.),
 the Gaussian(R) 98 system (copyright 1998, Gaussian, Inc.),
 the Gaussian(R) 94 system (copyright 1995, Gaussian, Inc.),
 the Gaussian 92(TM) system (copyright 1992, Gaussian, Inc.),
 the Gaussian 90(TM) system (copyright 1990, Gaussian, Inc.),
 the Gaussian 88(TM) system (copyright 1988, Gaussian, Inc.),
 the Gaussian 86(TM) system (copyright 1986, Carnegie Mellon
 University), and the Gaussian 82(TM) system (copyright 1983,
 Carnegie Mellon University). Gaussian is a federally registered
 trademark of Gaussian, Inc.
  
 This software contains proprietary and confidential information,
 including trade secrets, belonging to Gaussian, Inc.
  
 This software is provided under written license and may be
 used, copied, transmitted, or stored only in accord with that
 written license.
  
 The following legend is applicable only to US Government
 contracts under FAR:
  
                    RESTRICTED RIGHTS LEGEND
  
 Use, reproduction and disclosure by the US Government is
 subject to restrictions as set forth in subparagraphs (a)
 and (c) of the Commercial Computer Software - Restricted
 Rights clause in FAR 52.227-19.
  
 Gaussian, Inc.
 340 Quinnipiac St., Bldg. 40, Wallingford CT 06492
  
  
 ---------------------------------------------------------------
 Warning -- This program may not be used in any manner that
 competes with the business of Gaussian, Inc. or will provide
 assistance to any competitor of Gaussian, Inc.  The licensee
 of this program is prohibited from giving any competitor of
 Gaussian, Inc. access to this program.  By using this program,
 the user acknowledges that Gaussian, Inc. is engaged in the
 business of creating and licensing software in the field of
 computational chemistry and represents and warrants to the
 licensee that it is not a competitor of Gaussian, Inc. and that
 it will not use this program in any manner prohibited above.
 ---------------------------------------------------------------
  

 Cite this work as:
 Gaussian 16, Revision B.01,
 M. J. Frisch, G. W. Trucks, H. B. Schlegel, G. E. Scuseria, 
 M. A. Robb, J. R. Cheeseman, G. Scalmani, V. Barone, 
 G. A. Petersson, H. Nakatsuji, X. Li, M. Caricato, A. V. Marenich, 
 J. Bloino, B. G. Janesko, R. Gomperts, B. Mennucci, H. P. Hratchian, 
 J. V. Ortiz, A. F. Izmaylov, J. L. Sonnenberg, D. Williams-Young, 
 F. Ding, F. Lipparini, F. Egidi, J. Goings, B. Peng, A. Petrone, 
 T. Henderson, D. Ranasinghe, V. G. Zakrzewski, J. Gao, N. Rega, 
 G. Zheng, W. Liang, M. Hada, M. Ehara, K. Toyota, R. Fukuda, 
 J. Hasegawa, M. Ishida, T. Nakajima, Y. Honda, O. Kitao, H. Nakai, 
 T. Vreven, K. Throssell, J. A. Montgomery, Jr., J. E. Peralta, 
 F. Ogliaro, M. J. Bearpark, J. J. Heyd, E. N. Brothers, K. N. Kudin, 
 V. N. Staroverov, T. A. Keith, R. Kobayashi, J. Normand, 
 K. Raghavachari, A. P. Rendell, J. C. Burant, S. S. Iyengar, 
 J. Tomasi, M. Cossi, J. M. Millam, M. Klene, C. Adamo, R. Cammi, 
 J. W. Ochterski, R. L. Martin, K. Morokuma, O. Farkas, 
 J. B. Foresman, and D. J. Fox, Gaussian, Inc., Wallingford CT, 2016.
 
 ******************************************
 Gaussian 16:  ES64L-G16RevB.01 20-Dec-2017
                23-Sep-2022 
 ******************************************
 %chk=18.chk
 %nprocshared=4
 Will use up to    4 processors via shared memory.
 %mem=8000mb
 --------------------------------------------------------------
 #T wB97XD//def2svpp Volume=tight Geom=AllCheckpoint Guess=Read
 --------------------------------------------------------------
 Structure from the checkpoint file:  "18.chk"
 -------
 Monomer
 -------
 Charge =  0 Multiplicity = 1
 Redundant internal coordinates found in file.  (old form).
 C,0,-0.000001,1.172464,-1.271348
 C,0,0.,0.341163,0.
 C,0,-0.000001,1.172471,1.271343
 Cl,0,-1.465298,-0.717935,0.000002
 Cl,0,1.465299,-0.717933,0.000002
 H,0,-0.89819,1.811923,-1.295644
 H,0,-0.000001,0.522718,-2.159775
 H,0,0.898185,1.811925,-1.295644
 H,0,-0.898189,1.811931,1.295635
 H,0,0.898185,1.811933,1.295635
 H,0,0.,0.522731,2.159774
 Recover connectivity data from disk.
                           ----------------------------
                           !    Current Parameters    !
                           ! (Angstroms and Degrees)  !
 --------------------------                            --------------------------
 ! Name  Definition              Value                                          !
 --------------------------------------------------------------------------------
 ! R1    R(1,2)                  1.519                                          !
 ! R2    R(1,6)                  1.1028                                         !
 ! R3    R(1,7)                  1.1007                                         !
 ! R4    R(1,8)                  1.1028                                         !
 ! R5    R(2,3)                  1.519                                          !
 ! R6    R(2,4)                  1.808                                          !
 ! R7    R(2,5)                  1.808                                          !
 ! R8    R(3,9)                  1.1028                                         !
 ! R9    R(3,10)                 1.1028                                         !
 ! R10   R(3,11)                 1.1007                                         !
 ! A1    A(2,1,6)              109.6189                                         !
 ! A2    A(2,1,7)              110.6407                                         !
 ! A3    A(2,1,8)              109.6189                                         !
 ! A4    A(6,1,7)              108.9355                                         !
 ! A5    A(6,1,8)              109.0634                                         !
 ! A6    A(7,1,8)              108.9356                                         !
 ! A7    A(1,2,3)              113.6404                                         !
 ! A8    A(1,2,4)              108.6982                                         !
 ! A9    A(1,2,5)              108.6983                                         !
 ! A10   A(3,2,4)              108.6983                                         !
 ! A11   A(3,2,5)              108.6983                                         !
 ! A12   A(4,2,5)              108.2823                                         !
 ! A13   A(2,3,9)              109.6189                                         !
 ! A14   A(2,3,10)             109.6189                                         !
 ! A15   A(2,3,11)             110.6408                                         !
 ! A16   A(9,3,10)             109.0633                                         !
 ! A17   A(9,3,11)             108.9356                                         !
 ! A18   A(10,3,11)            108.9356                                         !
 ! D1    D(6,1,2,3)            -59.8406                                         !
 ! D2    D(6,1,2,4)             61.3308                                         !
 ! D3    D(6,1,2,5)            178.9879                                         !
 ! D4    D(7,1,2,3)           -180.0                                            !
 ! D5    D(7,1,2,4)            -58.8285                                         !
 ! D6    D(7,1,2,5)             58.8285                                         !
 ! D7    D(8,1,2,3)             59.8406                                         !
 ! D8    D(8,1,2,4)           -178.9879                                         !
 ! D9    D(8,1,2,5)            -61.3309                                         !
 ! D10   D(1,2,3,9)             59.8406                                         !
 ! D11   D(1,2,3,10)           -59.8406                                         !
 ! D12   D(1,2,3,11)          -180.0                                            !
 ! D13   D(4,2,3,9)            -61.3309                                         !
 ! D14   D(4,2,3,10)           178.988                                          !
 ! D15   D(4,2,3,11)            58.8286                                         !
 ! D16   D(5,2,3,9)           -178.988                                          !
 ! D17   D(5,2,3,10)            61.3309                                         !
 ! D18   D(5,2,3,11)           -58.8285                                         !
 --------------------------------------------------------------------------------
                    Distance matrix (angstroms):
                    1          2          3          4          5
     1  C    0.000000
     2  C    1.519009   0.000000
     3  C    2.542691   1.519008   0.000000
     4  Cl   2.708696   1.807979   2.708697   0.000000
     5  Cl   2.708696   1.807978   2.708697   2.930597   0.000000
     6  H    1.102833   2.156055   2.793755   2.898360   3.696613
     7  H    1.100669   2.167393   3.492098   2.889801   2.889802
     8  H    1.102832   2.156054   2.793754   3.696612   2.898361
     9  H    2.793754   2.156055   1.102833   2.898362   3.696614
    10  H    2.793754   2.156054   1.102833   3.696613   2.898362
    11  H    3.492098   2.167393   1.100669   2.889804   2.889803
                    6          7          8          9         10
     6  H    0.000000
     7  H    1.793186   0.000000
     8  H    1.796375   1.793186   0.000000
     9  H    2.591279   3.795875   3.153044   0.000000
    10  H    3.153045   3.795876   2.591279   1.796374   0.000000
    11  H    3.795876   4.319549   3.795876   1.793186   1.793186
                   11
    11  H    0.000000
 Framework group  C1[X(C3H6Cl2)]
 Deg. of freedom    27
                         Standard orientation:                         
 ---------------------------------------------------------------------
 Center     Atomic      Atomic             Coordinates (Angstroms)
 Number     Number       Type             X           Y           Z
 ---------------------------------------------------------------------
      1          6           0        0.000000    1.172464    1.271348
      2          6           0       -0.000000    0.341163    0.000000
      3          6           0        0.000000    1.172471   -1.271343
      4         17           0        1.465298   -0.717934   -0.000002
      5         17           0       -1.465299   -0.717933   -0.000002
      6          1           0        0.898189    1.811923    1.295644
      7          1           0        0.000001    0.522718    2.159775
      8          1           0       -0.898186    1.811925    1.295644
      9          1           0        0.898188    1.811931   -1.295635
     10          1           0       -0.898186    1.811933   -1.295635
     11          1           0       -0.000000    0.522731   -2.159774
 ---------------------------------------------------------------------
 Rotational constants (GHZ):           3.6526988           2.4253152           2.1340942
    90 basis functions,   173 primitive gaussians,    95 cartesian basis functions
    29 alpha electrons       29 beta electrons
       nuclear repulsion energy       294.4417213363 Hartrees.
 NAtoms=   11 NActive=   11 NUniq=   11 SFac= 1.00D+00 NAtFMM=   60 NAOKFM=F Big=F
 Nuclear repulsion after empirical dispersion term =      294.4370313141 Hartrees.
   1 Symmetry operations used in ECPInt.
 ECPInt:  NShTT=    1081 NPrTT=    4759 LenC2=    1073 LenP2D=    3745.
 LDataN:  DoStor=T MaxTD1= 4 Len=   56
 Initial guess from the checkpoint file:  "18.chk"
 B after Tr=     0.000000    0.000000    0.000000
         Rot=    1.000000   -0.000000   -0.000000   -0.000000 Ang=   0.00 deg.
 Skip diagonalization as Alpha Fock matrix is already diagonal.
 SCF Done:  E(RwB97XD) =  -1037.91280366     A.U. after    1 cycles
            NFock=  1  Conv=0.00D+00     -V/T= 2.0031

 **********************************************************************

            Population analysis using the SCF Density.

 **********************************************************************

 Orbital symmetries:
       Occupied  (A) (A) (A) (A) (A) (A) (A) (A) (A) (A) (A) (A)
                 (A) (A) (A) (A) (A) (A) (A) (A) (A) (A) (A) (A)
                 (A) (A) (A) (A) (A)
       Virtual   (A) (A) (A) (A) (A) (A) (A) (A) (A) (A) (A) (A)
                 (A) (A) (A) (A) (A) (A) (A) (A) (A) (A) (A) (A)
                 (A) (A) (A) (A) (A) (A) (A) (A) (A) (A) (A) (A)
                 (A) (A) (A) (A) (A) (A) (A) (A) (A) (A) (A) (A)
                 (A) (A) (A) (A) (A) (A) (A) (A) (A) (A) (A) (A)
                 (A)
 The electronic state is 1-A.
 Alpha  occ. eigenvalues -- -101.66940-101.66936 -10.42409 -10.31013 -10.31011
 Alpha  occ. eigenvalues --   -9.57769  -9.57766  -7.33160  -7.33158  -7.32167
 Alpha  occ. eigenvalues --   -7.32166  -7.32147  -7.32147  -1.00559  -0.90886
 Alpha  occ. eigenvalues --   -0.85075  -0.80937  -0.66096  -0.57188  -0.56166
 Alpha  occ. eigenvalues --   -0.54604  -0.50207  -0.47654  -0.46545  -0.45869
 Alpha  occ. eigenvalues --   -0.40292  -0.39033  -0.38008  -0.37243
 Alpha virt. eigenvalues --    0.08915   0.10639   0.13902   0.18809   0.19781
 Alpha virt. eigenvalues --    0.20182   0.22288   0.23106   0.25150   0.27628
 Alpha virt. eigenvalues --    0.43966   0.47998   0.49985   0.51626   0.52605
 Alpha virt. eigenvalues --    0.56498   0.61137   0.65125   0.69539   0.72058
 Alpha virt. eigenvalues --    0.72639   0.73279   0.74578   0.76152   0.77091
 Alpha virt. eigenvalues --    0.78377   0.78688   0.80344   0.84904   0.86393
 Alpha virt. eigenvalues --    0.87654   0.88002   0.88567   0.89734   0.91314
 Alpha virt. eigenvalues --    0.93812   0.94183   0.97192   1.01472   1.09944
 Alpha virt. eigenvalues --    1.14140   1.14616   1.15717   1.27492   1.38892
 Alpha virt. eigenvalues --    1.43876   1.51142   1.68123   1.83655   1.95733
 Alpha virt. eigenvalues --    1.98251   1.99287   2.06128   2.09342   2.20079
 Alpha virt. eigenvalues --    2.20667   2.29944   2.39540   2.42361   2.59703
 Alpha virt. eigenvalues --    2.67816
          Condensed to atoms (all electrons):
 Mulliken charges:
               1
     1  C   -0.222856
     2  C   -0.200277
     3  C   -0.222856
     4  Cl  -0.100963
     5  Cl  -0.100962
     6  H    0.137055
     7  H    0.149847
     8  H    0.137055
     9  H    0.137055
    10  H    0.137055
    11  H    0.149847
 Sum of Mulliken charges =  -0.00000
 Mulliken charges with hydrogens summed into heavy atoms:
               1
     1  C    0.201101
     2  C   -0.200277
     3  C    0.201101
     4  Cl  -0.100963
     5  Cl  -0.100962
 Electronic spatial extent (au):  <R**2>=            670.2005
 Charge=              0.0000 electrons
 Dipole moment (field-independent basis, Debye):
    X=             -0.0000    Y=              2.2439    Z=              0.0000  Tot=              2.2439
 Evaluate density.
 Using the total density.
 Monte-Carlo method of calculating molar volume:
 based on  0.001 e/bohr**3 density envelope.
 Number of points per bohr**3 =  100 CutOff= 1.00D-04
 Using the SCF density.
 There are      1921 points.  Will hold      1921 in memory.
 LenV=  1048377166 MDV=  1048576000.
 Box volume = 7091.018 fraction occupied=0.121
 Integrated density= 4.5469143024612684D+01 error=-1.2530856975387316D+01
 Molar volume =  860.077 bohr**3/mol ( 76.752 cm**3/mol)
 Recommended a0 for SCRF calculation =  3.94 angstrom (  7.44 bohr)
 1\1\GINC-C324\SP\RwB97XD\def2SVPP\C3H6Cl2\PETERCHAO1\23-Sep-2022\0\\#T
  wB97XD//def2svpp Volume=tight Geom=AllCheckpoint Guess=Read\\Monomer\
 \0,1\C,0,-0.000001,1.172464,-1.271348\C,0,0.,0.341163,0.\C,0,-0.000001
 ,1.172471,1.271343\Cl,0,-1.465298,-0.717935,0.000002\Cl,0,1.465299,-0.
 717933,0.000002\H,0,-0.89819,1.811923,-1.295644\H,0,-0.000001,0.522718
 ,-2.159775\H,0,0.898185,1.811925,-1.295644\H,0,-0.898189,1.811931,1.29
 5635\H,0,0.898185,1.811933,1.295635\H,0,0.,0.522731,2.159774\\Version=
 ES64L-G16RevB.01\State=1-A\HF=-1037.9128037\RMSD=0.000e+00\Dipole=-0.0
 000001,0.8828141,-0.0000017\Quadrupole=-1.6992411,0.7025714,0.9966697,
 -0.0000028,0.0000012,0.0000037\PG=C01 [X(C3H6Cl2)]\\@


 WORK FAITHFULLY FOR EIGHT HOURS A DAY AND DON'T WORRY.
 IN TIME YOU MAY BECOME BOSS AND WORK TWELVE HOURS A DAY
 AND HAVE ALL THE WORRY.
 Job cpu time:       0 days  0 hours  0 minutes  6.3 seconds.
 Elapsed time:       0 days  0 hours  0 minutes  1.8 seconds.
 File lengths (MBytes):  RWF=      6 Int=      0 D2E=      0 Chk=      2 Scr=      1
 Normal termination of Gaussian 16 at Fri Sep 23 14:17:19 2022.
