 Entering Gaussian System, Link 0=g16
 Input=gaussian_test.inp
 Output=gaussian_test.log
 Initial command:
 /sw/restricted/lms/sw/Gaussian/g16_B01/g16/l1.exe "/scratch/user/peterchao1/peterchao1/6097792_1659647566000000875664383/Gau-200915.inp" -scrdir="/scratch/user/peterchao1/peterchao1/6097792_1659647566000000875664383/"
 Entering Link 1 = /sw/restricted/lms/sw/Gaussian/g16_B01/g16/l1.exe PID=    200916.
  
 Copyright (c) 1988-2017, Gaussian, Inc.  All Rights Reserved.
  
 This is part of the Gaussian(R) 16 program.  It is based on
 the Gaussian(R) 09 system (copyright 2009, Gaussian, Inc.),
 the Gaussian(R) 03 system (copyright 2003, Gaussian, Inc.),
 the Gaussian(R) 98 system (copyright 1998, Gaussian, Inc.),
 the Gaussian(R) 94 system (copyright 1995, Gaussian, Inc.),
 the Gaussian 92(TM) system (copyright 1992, Gaussian, Inc.),
 the Gaussian 90(TM) system (copyright 1990, Gaussian, Inc.),
 the Gaussian 88(TM) system (copyright 1988, Gaussian, Inc.),
 the Gaussian 86(TM) system (copyright 1986, Carnegie Mellon
 University), and the Gaussian 82(TM) system (copyright 1983,
 Carnegie Mellon University). Gaussian is a federally registered
 trademark of Gaussian, Inc.
  
 This software contains proprietary and confidential information,
 including trade secrets, belonging to Gaussian, Inc.
  
 This software is provided under written license and may be
 used, copied, transmitted, or stored only in accord with that
 written license.
  
 The following legend is applicable only to US Government
 contracts under FAR:
  
                    RESTRICTED RIGHTS LEGEND
  
 Use, reproduction and disclosure by the US Government is
 subject to restrictions as set forth in subparagraphs (a)
 and (c) of the Commercial Computer Software - Restricted
 Rights clause in FAR 52.227-19.
  
 Gaussian, Inc.
 340 Quinnipiac St., Bldg. 40, Wallingford CT 06492
  
  
 ---------------------------------------------------------------
 Warning -- This program may not be used in any manner that
 competes with the business of Gaussian, Inc. or will provide
 assistance to any competitor of Gaussian, Inc.  The licensee
 of this program is prohibited from giving any competitor of
 Gaussian, Inc. access to this program.  By using this program,
 the user acknowledges that Gaussian, Inc. is engaged in the
 business of creating and licensing software in the field of
 computational chemistry and represents and warrants to the
 licensee that it is not a competitor of Gaussian, Inc. and that
 it will not use this program in any manner prohibited above.
 ---------------------------------------------------------------
  

 Cite this work as:
 Gaussian 16, Revision B.01,
 M. J. Frisch, G. W. Trucks, H. B. Schlegel, G. E. Scuseria, 
 M. A. Robb, J. R. Cheeseman, G. Scalmani, V. Barone, 
 G. A. Petersson, H. Nakatsuji, X. Li, M. Caricato, A. V. Marenich, 
 J. Bloino, B. G. Janesko, R. Gomperts, B. Mennucci, H. P. Hratchian, 
 J. V. Ortiz, A. F. Izmaylov, J. L. Sonnenberg, D. Williams-Young, 
 F. Ding, F. Lipparini, F. Egidi, J. Goings, B. Peng, A. Petrone, 
 T. Henderson, D. Ranasinghe, V. G. Zakrzewski, J. Gao, N. Rega, 
 G. Zheng, W. Liang, M. Hada, M. Ehara, K. Toyota, R. Fukuda, 
 J. Hasegawa, M. Ishida, T. Nakajima, Y. Honda, O. Kitao, H. Nakai, 
 T. Vreven, K. Throssell, J. A. Montgomery, Jr., J. E. Peralta, 
 F. Ogliaro, M. J. Bearpark, J. J. Heyd, E. N. Brothers, K. N. Kudin, 
 V. N. Staroverov, T. A. Keith, R. Kobayashi, J. Normand, 
 K. Raghavachari, A. P. Rendell, J. C. Burant, S. S. Iyengar, 
 J. Tomasi, M. Cossi, J. M. Millam, M. Klene, C. Adamo, R. Cammi, 
 J. W. Ochterski, R. L. Martin, K. Morokuma, O. Farkas, 
 J. B. Foresman, and D. J. Fox, Gaussian, Inc., Wallingford CT, 2016.
 
 ******************************************
 Gaussian 16:  ES64L-G16RevB.01 20-Dec-2017
                 4-Aug-2022 
 ******************************************
 %nprocshared=4
 Will use up to    4 processors via shared memory.
 %mem=8000mb
 ----------------------------------------------------------------------
 #T wB97XD/def2svpp opt=tight freq int(grid=ultrafine) scf=(verytight,q
 c)
 ----------------------------------------------------------------------
 --------------
 Comment gs min
 --------------
 Symbolic Z-matrix:
 Charge =  0 Multiplicity = 1
 C                     0.95646   0.04499  -0.06318 
 C                     2.49594   0.03715  -0.09296 
 C                     2.97385  -1.41381  -0.28878 
 C                     3.00501   0.92854  -1.24571 
 O                     2.53258   0.47602  -2.51135 
 C                     3.01904   0.5941    1.24782 
 O                     4.43992   0.6163    1.28963 
 H                     0.53298  -0.35862  -0.98932 
 H                     0.56961   1.06238   0.06448 
 H                     0.57493  -0.56222   0.76573 
 H                     2.52697  -1.86843  -1.17987 
 H                     2.69541  -2.03724   0.56848 
 H                     4.06173  -1.46667  -0.40266 
 H                     4.09964   0.95921  -1.28553 
 H                     2.65341   1.95766  -1.11757 
 H                     3.03789  -0.32164  -2.74282 
 H                     2.66071  -0.00109   2.09583 
 H                     2.67059   1.62082   1.39979 
 H                     4.74815  -0.29488   1.42889 
 

 GradGradGradGradGradGradGradGradGradGradGradGradGradGradGradGradGradGrad
 Initialization pass.
                           ----------------------------
                           !    Initial Parameters    !
                           ! (Angstroms and Degrees)  !
 --------------------------                            --------------------------
 ! Name  Definition              Value          Derivative Info.                !
 --------------------------------------------------------------------------------
 ! R1    R(1,2)                  1.5398         estimate D2E/DX2                !
 ! R2    R(1,8)                  1.0954         estimate D2E/DX2                !
 ! R3    R(1,9)                  1.0959         estimate D2E/DX2                !
 ! R4    R(1,10)                 1.0961         estimate D2E/DX2                !
 ! R5    R(2,3)                  1.5401         estimate D2E/DX2                !
 ! R6    R(2,4)                  1.5436         estimate D2E/DX2                !
 ! R7    R(2,6)                  1.5432         estimate D2E/DX2                !
 ! R8    R(3,11)                 1.0956         estimate D2E/DX2                !
 ! R9    R(3,12)                 1.0959         estimate D2E/DX2                !
 ! R10   R(3,13)                 1.0951         estimate D2E/DX2                !
 ! R11   R(4,5)                  1.4247         estimate D2E/DX2                !
 ! R12   R(4,14)                 1.0958         estimate D2E/DX2                !
 ! R13   R(4,15)                 1.095          estimate D2E/DX2                !
 ! R14   R(5,16)                 0.9722         estimate D2E/DX2                !
 ! R15   R(6,7)                  1.4217         estimate D2E/DX2                !
 ! R16   R(6,17)                 1.0963         estimate D2E/DX2                !
 ! R17   R(6,18)                 1.0948         estimate D2E/DX2                !
 ! R18   R(7,19)                 0.9719         estimate D2E/DX2                !
 ! A1    A(2,1,8)              111.6097         estimate D2E/DX2                !
 ! A2    A(2,1,9)              111.0941         estimate D2E/DX2                !
 ! A3    A(2,1,10)             111.0895         estimate D2E/DX2                !
 ! A4    A(8,1,9)              107.7022         estimate D2E/DX2                !
 ! A5    A(8,1,10)             107.4997         estimate D2E/DX2                !
 ! A6    A(9,1,10)             107.6576         estimate D2E/DX2                !
 ! A7    A(1,2,3)              108.5116         estimate D2E/DX2                !
 ! A8    A(1,2,4)              109.9525         estimate D2E/DX2                !
 ! A9    A(1,2,6)              108.6786         estimate D2E/DX2                !
 ! A10   A(3,2,4)              110.2893         estimate D2E/DX2                !
 ! A11   A(3,2,6)              110.1994         estimate D2E/DX2                !
 ! A12   A(4,2,6)              109.1862         estimate D2E/DX2                !
 ! A13   A(2,3,11)             111.5771         estimate D2E/DX2                !
 ! A14   A(2,3,12)             110.9543         estimate D2E/DX2                !
 ! A15   A(2,3,13)             111.5279         estimate D2E/DX2                !
 ! A16   A(11,3,12)            107.2484         estimate D2E/DX2                !
 ! A17   A(11,3,13)            107.4923         estimate D2E/DX2                !
 ! A18   A(12,3,13)            107.8348         estimate D2E/DX2                !
 ! A19   A(2,4,5)              111.7554         estimate D2E/DX2                !
 ! A20   A(2,4,14)             111.8859         estimate D2E/DX2                !
 ! A21   A(2,4,15)             110.453          estimate D2E/DX2                !
 ! A22   A(5,4,14)             107.93           estimate D2E/DX2                !
 ! A23   A(5,4,15)             107.2164         estimate D2E/DX2                !
 ! A24   A(14,4,15)            107.3791         estimate D2E/DX2                !
 ! A25   A(4,5,16)             107.4428         estimate D2E/DX2                !
 ! A26   A(2,6,7)              111.7135         estimate D2E/DX2                !
 ! A27   A(2,6,17)             111.4283         estimate D2E/DX2                !
 ! A28   A(2,6,18)             110.5585         estimate D2E/DX2                !
 ! A29   A(7,6,17)             108.2048         estimate D2E/DX2                !
 ! A30   A(7,6,18)             107.4194         estimate D2E/DX2                !
 ! A31   A(17,6,18)            107.3223         estimate D2E/DX2                !
 ! A32   A(6,7,19)             107.8503         estimate D2E/DX2                !
 ! D1    D(8,1,2,3)            -59.1882         estimate D2E/DX2                !
 ! D2    D(8,1,2,4)             61.5145         estimate D2E/DX2                !
 ! D3    D(8,1,2,6)           -179.0271         estimate D2E/DX2                !
 ! D4    D(9,1,2,3)           -179.4103         estimate D2E/DX2                !
 ! D5    D(9,1,2,4)            -58.7076         estimate D2E/DX2                !
 ! D6    D(9,1,2,6)             60.7508         estimate D2E/DX2                !
 ! D7    D(10,1,2,3)            60.7735         estimate D2E/DX2                !
 ! D8    D(10,1,2,4)          -178.5239         estimate D2E/DX2                !
 ! D9    D(10,1,2,6)           -59.0655         estimate D2E/DX2                !
 ! D10   D(1,2,3,11)            54.9267         estimate D2E/DX2                !
 ! D11   D(1,2,3,12)           -64.6037         estimate D2E/DX2                !
 ! D12   D(1,2,3,13)           175.1564         estimate D2E/DX2                !
 ! D13   D(4,2,3,11)           -65.5674         estimate D2E/DX2                !
 ! D14   D(4,2,3,12)           174.9023         estimate D2E/DX2                !
 ! D15   D(4,2,3,13)            54.6624         estimate D2E/DX2                !
 ! D16   D(6,2,3,11)           173.8116         estimate D2E/DX2                !
 ! D17   D(6,2,3,12)            54.2812         estimate D2E/DX2                !
 ! D18   D(6,2,3,13)           -65.9587         estimate D2E/DX2                !
 ! D19   D(1,2,4,5)            -59.7953         estimate D2E/DX2                !
 ! D20   D(1,2,4,14)           179.0387         estimate D2E/DX2                !
 ! D21   D(1,2,4,15)            59.4766         estimate D2E/DX2                !
 ! D22   D(3,2,4,5)             59.8301         estimate D2E/DX2                !
 ! D23   D(3,2,4,14)           -61.3359         estimate D2E/DX2                !
 ! D24   D(3,2,4,15)           179.102          estimate D2E/DX2                !
 ! D25   D(6,2,4,5)           -178.9434         estimate D2E/DX2                !
 ! D26   D(6,2,4,14)            59.8906         estimate D2E/DX2                !
 ! D27   D(6,2,4,15)           -59.6716         estimate D2E/DX2                !
 ! D28   D(1,2,6,7)           -179.9707         estimate D2E/DX2                !
 ! D29   D(1,2,6,17)            58.8622         estimate D2E/DX2                !
 ! D30   D(1,2,6,18)           -60.4            estimate D2E/DX2                !
 ! D31   D(3,2,6,7)             61.2464         estimate D2E/DX2                !
 ! D32   D(3,2,6,17)           -59.9207         estimate D2E/DX2                !
 ! D33   D(3,2,6,18)          -179.1829         estimate D2E/DX2                !
 ! D34   D(4,2,6,7)            -60.0347         estimate D2E/DX2                !
 ! D35   D(4,2,6,17)           178.7982         estimate D2E/DX2                !
 ! D36   D(4,2,6,18)            59.536          estimate D2E/DX2                !
 ! D37   D(2,4,5,16)           -74.5739         estimate D2E/DX2                !
 ! D38   D(14,4,5,16)           48.8589         estimate D2E/DX2                !
 ! D39   D(15,4,5,16)          164.2585         estimate D2E/DX2                !
 ! D40   D(2,6,7,19)           -75.6104         estimate D2E/DX2                !
 ! D41   D(17,6,7,19)           47.4092         estimate D2E/DX2                !
 ! D42   D(18,6,7,19)          162.9838         estimate D2E/DX2                !
 --------------------------------------------------------------------------------
 Number of steps in this run=    102 maximum allowed number of steps=    114.
 GradGradGradGradGradGradGradGradGradGradGradGradGradGradGradGradGradGrad

                    Distance matrix (angstroms):
                    1          2          3          4          5
     1  C    0.000000
     2  C    1.539788   0.000000
     3  C    2.499771   1.540139   0.000000
     4  C    2.524994   1.543555   2.530472   0.000000
     5  O    2.943379   2.458162   2.950592   1.424714   0.000000
     6  C    2.504891   1.543217   2.528811   2.515897   3.792354
     7  O    3.780342   2.454797   2.960082   2.929916   4.255006
     8  H    1.095432   2.193925   2.749914   2.798830   2.647942
     9  H    1.095916   2.187837   3.469392   2.768697   3.291196
    10  H    1.096066   2.187892   2.755361   3.489061   3.955956
    11  H    2.715635   2.193985   1.095638   2.838291   2.696167
    12  H    2.785431   2.186409   1.095942   3.490414   3.978485
    13  H    3.470312   2.192963   1.095101   2.750349   3.249449
    14  H    3.494212   2.200971   2.809295   1.095783   2.047385
    15  H    2.765806   2.182426   3.486601   1.095048   2.037763
    16  H    3.412805   2.728406   2.686866   1.950736   0.972203
    17  H    2.750984   2.195316   2.789301   3.485490   4.633590
    18  H    2.749866   2.183304   3.486003   2.754952   4.077576
    19  H    4.088850   2.738379   2.711187   3.418886   4.585687
                    6          7          8          9         10
     6  C    0.000000
     7  O    1.421668   0.000000
     8  H    3.477494   4.626906   0.000000
     9  H    2.760306   4.084027   1.769485   0.000000
    10  H    2.746481   4.074497   1.767318   1.769493   0.000000
    11  H    3.492831   3.991452   2.508352   3.737554   3.049919
    12  H    2.736821   3.256478   3.149700   3.792187   2.590565
    13  H    2.838672   2.710284   3.744866   4.336959   3.786943
    14  H    2.778284   2.620081   3.813854   3.780778   4.352700
    15  H    2.754642   3.284125   3.142901   2.557536   3.770503
    16  H    4.094404   4.371049   3.057892   3.986082   4.293480
    17  H    1.096254   2.048589   3.764733   3.103232   2.536634
    18  H    1.094836   2.037578   3.767679   2.551279   3.091842
    19  H    1.952663   0.971930   4.859986   4.600431   4.234031
                   11         12         13         14         15
    11  H    0.000000
    12  H    1.764539   0.000000
    13  H    1.766622   1.770732   0.000000
    14  H    3.237283   3.793142   2.581819   0.000000
    15  H    3.828686   4.336330   3.771007   1.765416   0.000000
    16  H    2.257523   3.745035   2.799230   2.211693   2.825681
    17  H    3.772937   2.545567   3.217644   3.798196   3.763336
    18  H    4.341675   3.751412   3.836234   3.113014   2.539854
    19  H    3.770322   2.826635   2.280096   3.059638   3.993286
                   16         17         18         19
    16  H    0.000000
    17  H    4.863903   0.000000
    18  H    4.590128   1.764982   0.000000
    19  H    4.508755   2.211001   2.826130   0.000000
 Framework group  C1[X(C5H12O2)]
 Deg. of freedom    51
                         Standard orientation:                         
 ---------------------------------------------------------------------
 Center     Atomic      Atomic             Coordinates (Angstroms)
 Number     Number       Type             X           Y           Z
 ---------------------------------------------------------------------
      1          6           0       -0.651219    1.643323   -0.496598
      2          6           0        0.001003    0.338817   -0.002819
      3          6           0       -0.009969    0.339102    1.537281
      4          6           0       -0.779882   -0.877957   -0.543415
      5          8           0       -2.137809   -0.867842   -0.112440
      6          6           0        1.451999    0.283130   -0.525339
      7          8           0        2.117060   -0.901242   -0.105698
      8          1           0       -1.681512    1.740370   -0.137361
      9          1           0       -0.675006    1.682529   -1.591554
     10          1           0       -0.095459    2.519983   -0.144523
     11          1           0       -1.020774    0.487805    1.932987
     12          1           0        0.616182    1.146570    1.933537
     13          1           0        0.366159   -0.606402    1.941997
     14          1           0       -0.331695   -1.825571   -0.224202
     15          1           0       -0.787313   -0.872110   -1.638422
     16          1           0       -2.147868   -1.124342    0.825262
     17          1           0        2.035508    1.144388   -0.179617
     18          1           0        1.467253    0.297270   -1.619978
     19          1           0        2.348932   -0.796303    0.832317
 ---------------------------------------------------------------------
 Rotational constants (GHZ):           3.3417887           1.9155055           1.7033113
   122 basis functions,   223 primitive gaussians,   129 cartesian basis functions
    29 alpha electrons       29 beta electrons
       nuclear repulsion energy       344.1566322680 Hartrees.
 NAtoms=   19 NActive=   19 NUniq=   19 SFac= 1.00D+00 NAtFMM=   60 NAOKFM=F Big=F
 Nuclear repulsion after empirical dispersion term =      344.1438259550 Hartrees.
   1 Symmetry operations used in ECPInt.
 ECPInt:  NShTT=    2211 NPrTT=    8905 LenC2=    2201 LenP2D=    7252.
 LDataN:  DoStor=T MaxTD1= 4 Len=   56
 ExpMin= 1.22D-01 ExpMax= 2.27D+03 ExpMxC= 3.41D+02 IAcc=3 IRadAn=         5 AccDes= 0.00D+00
 Harris functional with IExCor= 4639 and IRadAn=       5 diagonalized for initial guess.
 HarFok:  IExCor= 4639 AccDes= 0.00D+00 IRadAn=         5 IDoV= 1 UseB2=F ITyADJ=14
 ICtDFT=  3500011 ScaDFX=  1.000000  1.000000  1.000000  1.000000
 FoFCou: FMM=F IPFlag=           0 FMFlag=      100000 FMFlg1=           0
         NFxFlg=           0 DoJE=T BraDBF=F KetDBF=T FulRan=T
         wScrn=  0.000000 ICntrl=       500 IOpCl=  0 I1Cent=   200000004 NGrid=           0
         NMat0=    1 NMatS0=      1 NMatT0=    0 NMatD0=    1 NMtDS0=    0 NMtDT0=    0
 Petite list used in FoFCou.
     Minimum is close to point  3 DX=  2.42D-03 DF= -9.13D-07 DXR=  4.01D-03 DFR=  1.60D-05 which will be used.
     Accept linear search using points  2 and  3.
     Accept linear search using points  1 and  2.
     Accept linear search using points  2 and  3.
     Accept linear search using points  1 and  2.
     Minimum is close to point  2 DX= -1.22D-04 DF= -1.14D-13 DXR=  1.22D-04 DFR=  1.37D-08 which will be used.
 SCF Done:  E(RwB97XD) =  -347.795865419     a.u. after    8 cycles
            Convg  =    0.1368D-09                    35 Fock formations.
              S**2 =  0.0000                  -V/T =  2.0092

 **********************************************************************

            Population analysis using the SCF Density.

 **********************************************************************

 Orbital symmetries:
       Occupied  (A) (A) (A) (A) (A) (A) (A) (A) (A) (A) (A) (A)
                 (A) (A) (A) (A) (A) (A) (A) (A) (A) (A) (A) (A)
                 (A) (A) (A) (A) (A)
       Virtual   (A) (A) (A) (A) (A) (A) (A) (A) (A) (A) (A) (A)
                 (A) (A) (A) (A) (A) (A) (A) (A) (A) (A) (A) (A)
                 (A) (A) (A) (A) (A) (A) (A) (A) (A) (A) (A) (A)
                 (A) (A) (A) (A) (A) (A) (A) (A) (A) (A) (A) (A)
                 (A) (A) (A) (A) (A) (A) (A) (A) (A) (A) (A) (A)
                 (A) (A) (A) (A) (A) (A) (A) (A) (A) (A) (A) (A)
                 (A) (A) (A) (A) (A) (A) (A) (A) (A) (A) (A) (A)
                 (A) (A) (A) (A) (A) (A) (A) (A) (A)
 The electronic state is 1-A.
 Alpha  occ. eigenvalues --  -19.25070 -19.24448 -10.33713 -10.32857 -10.30751
 Alpha  occ. eigenvalues --  -10.29135 -10.27837  -1.11065  -1.10194  -0.90652
 Alpha  occ. eigenvalues --   -0.78862  -0.76855  -0.75834  -0.64409  -0.60839
 Alpha  occ. eigenvalues --   -0.58213  -0.55412  -0.54580  -0.52667  -0.50508
 Alpha  occ. eigenvalues --   -0.47289  -0.46791  -0.45659  -0.44536  -0.42361
 Alpha  occ. eigenvalues --   -0.40957  -0.39783  -0.36229  -0.33949
 Alpha virt. eigenvalues --    0.11694   0.14066   0.15468   0.17660   0.18791
 Alpha virt. eigenvalues --    0.19594   0.20749   0.22729   0.23437   0.23892
 Alpha virt. eigenvalues --    0.25432   0.26516   0.27476   0.29169   0.30692
 Alpha virt. eigenvalues --    0.32517   0.33475   0.34708   0.48631   0.50947
 Alpha virt. eigenvalues --    0.52161   0.55660   0.57850   0.62124   0.62852
 Alpha virt. eigenvalues --    0.66163   0.67481   0.68166   0.71089   0.72821
 Alpha virt. eigenvalues --    0.75566   0.76096   0.76770   0.77352   0.78382
 Alpha virt. eigenvalues --    0.79448   0.80526   0.81196   0.82611   0.83604
 Alpha virt. eigenvalues --    0.83942   0.84270   0.84755   0.86275   0.90888
 Alpha virt. eigenvalues --    0.94123   1.06173   1.10359   1.12047   1.16636
 Alpha virt. eigenvalues --    1.17785   1.22949   1.24493   1.26090   1.31528
 Alpha virt. eigenvalues --    1.36571   1.49858   1.53460   1.61687   1.68990
 Alpha virt. eigenvalues --    1.77631   1.78460   1.81909   1.89146   1.90147
 Alpha virt. eigenvalues --    1.93448   2.04923   2.07271   2.09703   2.11576
 Alpha virt. eigenvalues --    2.12838   2.17393   2.20199   2.23403   2.23973
 Alpha virt. eigenvalues --    2.26139   2.27792   2.30253   2.55069   2.58757
 Alpha virt. eigenvalues --    2.68937   2.71832   2.72435   2.74788   2.75035
 Alpha virt. eigenvalues --    2.90938   2.91983   3.04097   3.08628   3.09336
 Alpha virt. eigenvalues --    3.09592   3.45036   3.47734
          Condensed to atoms (all electrons):
 Mulliken charges:
               1
     1  C   -0.265850
     2  C   -0.278240
     3  C   -0.341664
     4  C    0.073754
     5  O   -0.498644
     6  C    0.065388
     7  O   -0.497853
     8  H    0.130844
     9  H    0.112605
    10  H    0.108531
    11  H    0.122499
    12  H    0.118989
    13  H    0.110683
    14  H    0.104530
    15  H    0.100701
    16  H    0.316706
    17  H    0.091946
    18  H    0.105935
    19  H    0.319139
 Sum of Mulliken charges =   0.00000
 Mulliken charges with hydrogens summed into heavy atoms:
               1
     1  C    0.086130
     2  C   -0.278240
     3  C    0.010507
     4  C    0.278985
     5  O   -0.181938
     6  C    0.263269
     7  O   -0.178714
 Electronic spatial extent (au):  <R**2>=            851.2663
 Charge=              0.0000 electrons
 Dipole moment (field-independent basis, Debye):
    X=              0.9425    Y=              0.9049    Z=              2.0990  Tot=              2.4725
   1 Symmetry operations used in ECPInt.
 ECPInt:  NShTT=    2211 NPrTT=    8905 LenC2=    2201 LenP2D=    7252.
 LDataN:  DoStor=T MaxTD1= 5 Len=  102
 Calling FoFJK, ICntrl=      2127 FMM=F ISym2X=0 I1Cent= 0 IOpClX= 0 NMat=1 NMatS=1 NMatT=0.

 GradGradGradGradGradGradGradGradGradGradGradGradGradGradGradGradGradGrad
 FormGI is forming the generalized inverse of G from B-inverse, IUseBI=4.
 Internal  Forces:  Max     0.008422762 RMS     0.003268572
 Step number   1 out of a maximum of  102
 All quantities printed in internal units (Hartrees-Bohrs-Radians)
 Mixed Optimization -- RFO/linear search
 Second derivative matrix not updated -- first step.
 ITU=  0
     Eigenvalues ---    0.00230   0.00230   0.00235   0.00240   0.01365
     Eigenvalues ---    0.01405   0.04568   0.04749   0.04766   0.04783
     Eigenvalues ---    0.04895   0.05335   0.05361   0.05405   0.05418
     Eigenvalues ---    0.05520   0.05550   0.11722   0.11738   0.13929
     Eigenvalues ---    0.13930   0.14251   0.14517   0.16000   0.16000
     Eigenvalues ---    0.16000   0.16000   0.16000   0.16000   0.16000
     Eigenvalues ---    0.16000   0.21999   0.22000   0.28206   0.28236
     Eigenvalues ---    0.28507   0.28538   0.34100   0.34121   0.34135
     Eigenvalues ---    0.34138   0.34153   0.34169   0.34192   0.34230
     Eigenvalues ---    0.34236   0.34260   0.41758   0.42210   0.52929
     Eigenvalues ---    0.52985
 Linear search not attempted -- first point.
 Iteration  1 RMS(Cart)=  0.03528244 RMS(Int)=  0.00099955
 Iteration  2 RMS(Cart)=  0.00109056 RMS(Int)=  0.00041890
 Iteration  3 RMS(Cart)=  0.00000113 RMS(Int)=  0.00041889
 Iteration  4 RMS(Cart)=  0.00000000 RMS(Int)=  0.00041889
 Variable       Old X    -DE/DX   Delta X   Delta X   Delta X     New X
                                 (Linear)    (Quad)   (Total)
    R1        2.90978  -0.00356   0.00000  -0.01225  -0.01225   2.89753
    R2        2.07007   0.00422   0.00000   0.01216   0.01216   2.08223
    R3        2.07098   0.00609   0.00000   0.01758   0.01758   2.08856
    R4        2.07126   0.00612   0.00000   0.01767   0.01767   2.08893
    R5        2.91044  -0.00242   0.00000  -0.00834  -0.00834   2.90210
    R6        2.91690  -0.00360   0.00000  -0.01253  -0.01253   2.90436
    R7        2.91626  -0.00364   0.00000  -0.01265  -0.01265   2.90361
    R8        2.07046   0.00504   0.00000   0.01452   0.01452   2.08498
    R9        2.07103   0.00614   0.00000   0.01770   0.01770   2.08873
   R10        2.06944   0.00731   0.00000   0.02103   0.02103   2.09047
   R11        2.69232  -0.00590   0.00000  -0.01396  -0.01396   2.67836
   R12        2.07073   0.00648   0.00000   0.01870   0.01870   2.08943
   R13        2.06934   0.00507   0.00000   0.01458   0.01458   2.08392
   R14        1.83720  -0.00683   0.00000  -0.01278  -0.01278   1.82442
   R15        2.68656  -0.00443   0.00000  -0.01037  -0.01037   2.67620
   R16        2.07162   0.00825   0.00000   0.02382   0.02382   2.09544
   R17        2.06894   0.00535   0.00000   0.01537   0.01537   2.08431
   R18        1.83668  -0.00656   0.00000  -0.01227  -0.01227   1.82441
    A1        1.94796  -0.00281   0.00000  -0.01841  -0.01845   1.92950
    A2        1.93896   0.00041   0.00000   0.00124   0.00120   1.94016
    A3        1.93888  -0.00077   0.00000  -0.00201  -0.00201   1.93687
    A4        1.87976   0.00070   0.00000  -0.00072  -0.00079   1.87897
    A5        1.87622   0.00218   0.00000   0.01553   0.01553   1.89175
    A6        1.87898   0.00050   0.00000   0.00563   0.00564   1.88462
    A7        1.89388   0.00163   0.00000   0.02197   0.02199   1.91587
    A8        1.91903  -0.00084   0.00000  -0.00534  -0.00541   1.91362
    A9        1.89680   0.00007   0.00000   0.00039   0.00034   1.89714
   A10        1.92491   0.00011   0.00000   0.00090   0.00083   1.92574
   A11        1.92334  -0.00083   0.00000  -0.00591  -0.00598   1.91736
   A12        1.90566  -0.00014   0.00000  -0.01189  -0.01193   1.89373
   A13        1.94739  -0.00124   0.00000  -0.00946  -0.00948   1.93791
   A14        1.93652  -0.00020   0.00000  -0.00195  -0.00199   1.93453
   A15        1.94653   0.00038   0.00000   0.00502   0.00502   1.95155
   A16        1.87184   0.00015   0.00000  -0.00427  -0.00432   1.86751
   A17        1.87609   0.00062   0.00000   0.00512   0.00514   1.88123
   A18        1.88207   0.00035   0.00000   0.00587   0.00586   1.88794
   A19        1.95050   0.00633   0.00000   0.03328   0.03309   1.98359
   A20        1.95278  -0.00715   0.00000  -0.03703  -0.03855   1.91423
   A21        1.92777  -0.00163   0.00000  -0.02681  -0.02718   1.90059
   A22        1.88373   0.00461   0.00000   0.06703   0.06720   1.95093
   A23        1.87128  -0.00408   0.00000  -0.03376  -0.03324   1.83804
   A24        1.87412   0.00200   0.00000  -0.00223  -0.00304   1.87108
   A25        1.87523   0.00237   0.00000   0.01437   0.01437   1.88960
   A26        1.94977   0.00842   0.00000   0.04242   0.04222   1.99199
   A27        1.94479  -0.00678   0.00000  -0.03324  -0.03473   1.91006
   A28        1.92961  -0.00173   0.00000  -0.02405  -0.02420   1.90541
   A29        1.88853   0.00304   0.00000   0.05561   0.05563   1.94416
   A30        1.87482  -0.00496   0.00000  -0.03738  -0.03674   1.83808
   A31        1.87313   0.00191   0.00000  -0.00386  -0.00445   1.86868
   A32        1.88234   0.00159   0.00000   0.00965   0.00965   1.89199
    D1       -1.03303  -0.00081   0.00000  -0.03832  -0.03828  -1.07130
    D2        1.07363  -0.00017   0.00000  -0.02680  -0.02679   1.04684
    D3       -3.12461  -0.00080   0.00000  -0.04422  -0.04423   3.11434
    D4       -3.13130  -0.00007   0.00000  -0.02578  -0.02577   3.12611
    D5       -1.02464   0.00056   0.00000  -0.01426  -0.01428  -1.03892
    D6        1.06030  -0.00006   0.00000  -0.03168  -0.03172   1.02858
    D7        1.06070  -0.00046   0.00000  -0.03238  -0.03234   1.02835
    D8       -3.11583   0.00017   0.00000  -0.02086  -0.02086  -3.13669
    D9       -1.03089  -0.00045   0.00000  -0.03827  -0.03830  -1.06918
   D10        0.95865  -0.00047   0.00000  -0.00254  -0.00248   0.95617
   D11       -1.12755   0.00029   0.00000   0.01045   0.01048  -1.11707
   D12        3.05706  -0.00027   0.00000   0.00095   0.00098   3.05804
   D13       -1.14437  -0.00053   0.00000  -0.01030  -0.01031  -1.15468
   D14        3.05262   0.00024   0.00000   0.00269   0.00264   3.05526
   D15        0.95404  -0.00032   0.00000  -0.00681  -0.00685   0.94719
   D16        3.03358   0.00011   0.00000   0.00777   0.00779   3.04137
   D17        0.94739   0.00088   0.00000   0.02076   0.02074   0.96813
   D18       -1.15120   0.00032   0.00000   0.01126   0.01125  -1.13995
   D19       -1.04362   0.00168   0.00000   0.01205   0.01194  -1.03169
   D20        3.12482  -0.00370   0.00000  -0.07181  -0.07122   3.05359
   D21        1.03806  -0.00043   0.00000  -0.02662  -0.02700   1.01106
   D22        1.04423   0.00323   0.00000   0.03643   0.03628   1.08051
   D23       -1.07051  -0.00215   0.00000  -0.04743  -0.04688  -1.11740
   D24        3.12592   0.00112   0.00000  -0.00224  -0.00266   3.12326
   D25       -3.12315   0.00218   0.00000   0.02203   0.02186  -3.10130
   D26        1.04529  -0.00319   0.00000  -0.06184  -0.06131   0.98398
   D27       -1.04147   0.00008   0.00000  -0.01665  -0.01708  -1.05855
   D28       -3.14108   0.00305   0.00000   0.03353   0.03343  -3.10765
   D29        1.02734  -0.00198   0.00000  -0.04417  -0.04371   0.98363
   D30       -1.05418   0.00117   0.00000  -0.00186  -0.00224  -1.05642
   D31        1.06895   0.00151   0.00000   0.01003   0.00997   1.07893
   D32       -1.04581  -0.00352   0.00000  -0.06767  -0.06717  -1.11299
   D33       -3.12733  -0.00037   0.00000  -0.02536  -0.02570   3.13016
   D34       -1.04780   0.00199   0.00000   0.02027   0.02015  -1.02765
   D35        3.12062  -0.00305   0.00000  -0.05743  -0.05699   3.06363
   D36        1.03910   0.00010   0.00000  -0.01511  -0.01552   1.02358
   D37       -1.30156   0.00003   0.00000  -0.03200  -0.03314  -1.33470
   D38        0.85275  -0.00166   0.00000  -0.01055  -0.00911   0.84364
   D39        2.86685   0.00089   0.00000   0.00308   0.00279   2.86964
   D40       -1.31965   0.00035   0.00000  -0.01131  -0.01250  -1.33215
   D41        0.82745  -0.00061   0.00000   0.01279   0.01423   0.84168
   D42        2.84460   0.00061   0.00000   0.01714   0.01689   2.86150
         Item               Value     Threshold  Converged?
 Maximum Force            0.008423     0.000015     NO 
 RMS     Force            0.003269     0.000010     NO 
 Maximum Displacement     0.123953     0.000060     NO 
 RMS     Displacement     0.035358     0.000040     NO 
 GradGradGradGradGradGradGradGradGradGradGradGradGradGradGradGradGradGrad

                    Distance matrix (angstroms):
                    1          2          3          4          5
     1  C    0.000000
     2  C    1.533305   0.000000
     3  C    2.510485   1.535723   0.000000
     4  C    2.509475   1.536922   2.522137   0.000000
     5  O    2.952151   2.473601   2.994006   1.417326   0.000000
     6  C    2.494491   1.536523   2.514434   2.494373   3.783297
     7  O    3.785309   2.479070   2.991330   2.936753   4.277245
     8  H    1.101867   2.179767   2.770636   2.757386   2.628391
     9  H    1.105219   2.190008   3.484380   2.764349   3.300953
    10  H    1.105415   2.187777   2.758418   3.482776   3.972555
    11  H    2.726395   2.189080   1.103322   2.831623   2.746838
    12  H    2.798807   2.188140   1.105310   3.489558   4.027805
    13  H    3.488385   2.201104   1.106232   2.749211   3.296607
    14  H    3.470368   2.174642   2.795025   1.105678   2.096251
    15  H    2.716520   2.162398   3.472824   1.102761   2.012557
    16  H    3.444961   2.770901   2.772347   1.949012   0.965440
    17  H    2.695574   2.173589   2.781336   3.461825   4.623215
    18  H    2.723857   2.165773   3.469772   2.706445   4.025777
    19  H    4.120689   2.777912   2.770576   3.434106   4.635126
                    6          7          8          9         10
     6  C    0.000000
     7  O    1.416183   0.000000
     8  H    3.464974   4.634326   0.000000
     9  H    2.740891   4.064811   1.781681   0.000000
    10  H    2.757346   4.095141   1.790126   1.788219   0.000000
    11  H    3.482946   4.029056   2.527365   3.760521   3.046248
    12  H    2.733117   3.295020   3.185148   3.806127   2.590097
    13  H    2.828105   2.746350   3.768283   4.355835   3.802048
    14  H    2.696658   2.558103   3.789857   3.755297   4.330239
    15  H    2.719148   3.272494   3.068316   2.507205   3.736795
    16  H    4.118445   4.436120   3.059775   4.013400   4.336524
    17  H    1.108861   2.093016   3.724204   3.029906   2.489777
    18  H    1.102969   2.011765   3.729994   2.504677   3.105728
    19  H    1.949597   0.965439   4.903614   4.605754   4.278753
                   11         12         13         14         15
    11  H    0.000000
    12  H    1.775432   0.000000
    13  H    1.785147   1.791110   0.000000
    14  H    3.251685   3.777766   2.567988   0.000000
    15  H    3.818038   4.323155   3.772114   1.777616   0.000000
    16  H    2.346050   3.839385   2.889575   2.276160   2.809807
    17  H    3.760191   2.540343   3.236579   3.738556   3.711897
    18  H    4.323978   3.753650   3.822422   3.004324   2.462978
    19  H    3.838513   2.896773   2.338931   3.007790   3.989148
                   16         17         18         19
    16  H    0.000000
    17  H    4.900446   0.000000
    18  H    4.570004   1.778771   0.000000
    19  H    4.608105   2.272092   2.809484   0.000000
 Framework group  C1[X(C5H12O2)]
 Deg. of freedom    51
                         Standard orientation:                         
 ---------------------------------------------------------------------
 Center     Atomic      Atomic             Coordinates (Angstroms)
 Number     Number       Type             X           Y           Z
 ---------------------------------------------------------------------
      1          6           0       -0.653366    1.625187   -0.538856
      2          6           0       -0.004568    0.348176    0.008253
      3          6           0        0.002720    0.385876    1.543497
      4          6           0       -0.780247   -0.880644   -0.492201
      5          8           0       -2.145017   -0.886015   -0.109860
      6          6           0        1.436306    0.263077   -0.518573
      7          8           0        2.132191   -0.902696   -0.115718
      8          1           0       -1.699448    1.702713   -0.201493
      9          1           0       -0.656387    1.629236   -1.644064
     10          1           0       -0.108807    2.523919   -0.195814
     11          1           0       -1.013606    0.549726    1.940426
     12          1           0        0.631877    1.215924    1.913485
     13          1           0        0.386471   -0.557190    1.976059
     14          1           0       -0.261331   -1.803576   -0.173694
     15          1           0       -0.786773   -0.874094   -1.594923
     16          1           0       -2.197595   -1.137939    0.820647
     17          1           0        1.988024    1.181978   -0.234318
     18          1           0        1.417336    0.224767   -1.620713
     19          1           0        2.397769   -0.795806    0.806299
 ---------------------------------------------------------------------
 Rotational constants (GHZ):           3.3350190           1.9059531           1.6959952
   122 basis functions,   223 primitive gaussians,   129 cartesian basis functions
    29 alpha electrons       29 beta electrons
       nuclear repulsion energy       344.0263790511 Hartrees.
 NAtoms=   19 NActive=   19 NUniq=   19 SFac= 1.00D+00 NAtFMM=   60 NAOKFM=F Big=F
 Nuclear repulsion after empirical dispersion term =      344.0135201132 Hartrees.
   1 Symmetry operations used in ECPInt.
 ECPInt:  NShTT=    2211 NPrTT=    8905 LenC2=    2201 LenP2D=    7248.
 LDataN:  DoStor=T MaxTD1= 4 Len=   56
 Initial guess from the checkpoint file:  "/scratch/user/peterchao1/peterchao1/6097792_1659647566000000875664383/Gau-200916.chk"
 B after Tr=    -0.000000    0.000000   -0.000000
         Rot=    0.999930    0.011556   -0.001962   -0.001701 Ang=   1.36 deg.
 ExpMin= 1.22D-01 ExpMax= 2.27D+03 ExpMxC= 3.41D+02 IAcc=3 IRadAn=         5 AccDes= 0.00D+00
 Harris functional with IExCor= 4639 and IRadAn=       5 diagonalized for initial guess.
 HarFok:  IExCor= 4639 AccDes= 0.00D+00 IRadAn=         5 IDoV= 1 UseB2=F ITyADJ=14
 ICtDFT=  3500011 ScaDFX=  1.000000  1.000000  1.000000  1.000000
 FoFCou: FMM=F IPFlag=           0 FMFlag=      100000 FMFlg1=           0
         NFxFlg=           0 DoJE=T BraDBF=F KetDBF=T FulRan=T
         wScrn=  0.000000 ICntrl=       500 IOpCl=  0 I1Cent=   200000004 NGrid=           0
         NMat0=    1 NMatS0=      1 NMatT0=    0 NMatD0=    1 NMtDS0=    0 NMtDT0=    0
 Petite list used in FoFCou.
     Accept linear search using points  3 and  4.
     Minimum is close to point  4 DX= -9.62D-02 DF= -4.38D-06 DXR=  8.71D-02 DFR=  2.42D-03 which will be used.
     Minimum is close to point  2 DX=  8.86D-02 DF= -1.25D-06 DXR=  8.96D-02 DFR=  8.10D-03 which will be used.
     Minimum is close to point  2 DX=  4.13D-02 DF= -1.38D-07 DXR=  4.39D-02 DFR=  1.93D-03 which will be used.
     Minimum is close to point  2 DX=  4.25D-04 DF= -1.32D-11 DXR=  4.25D-04 DFR=  1.80D-07 which will be used.
 SCF Done:  E(RwB97XD) =  -347.798416917     a.u. after    7 cycles
            Convg  =    0.1606D-08                    32 Fock formations.
              S**2 =  0.0000                  -V/T =  2.0093
   1 Symmetry operations used in ECPInt.
 ECPInt:  NShTT=    2211 NPrTT=    8905 LenC2=    2201 LenP2D=    7248.
 LDataN:  DoStor=T MaxTD1= 5 Len=  102
 Calling FoFJK, ICntrl=      2127 FMM=F ISym2X=0 I1Cent= 0 IOpClX= 0 NMat=1 NMatS=1 NMatT=0.

 GradGradGradGradGradGradGradGradGradGradGradGradGradGradGradGradGradGrad
 Using GEDIIS/GDIIS optimizer.
 FormGI is forming the generalized inverse of G from B-inverse, IUseBI=4.
 Internal  Forces:  Max     0.005545538 RMS     0.000939807
 Step number   2 out of a maximum of  102
 All quantities printed in internal units (Hartrees-Bohrs-Radians)
 Mixed Optimization -- En-DIIS/RFO-DIIS
 Trust test= 9.24D-01 RLast= 2.47D-01 DXMaxT set to 5.05D-01
 ITU=  1  0
 Use linear search instead of GDIIS.
     Eigenvalues ---    0.00227   0.00230   0.00235   0.00240   0.01366
     Eigenvalues ---    0.01402   0.04536   0.04552   0.04694   0.04917
     Eigenvalues ---    0.05314   0.05389   0.05426   0.05468   0.05604
     Eigenvalues ---    0.05770   0.05789   0.11504   0.11812   0.13824
     Eigenvalues ---    0.14080   0.14422   0.14479   0.15761   0.16000
     Eigenvalues ---    0.16000   0.16000   0.16000   0.16000   0.16000
     Eigenvalues ---    0.16192   0.21780   0.22052   0.28216   0.28337
     Eigenvalues ---    0.28498   0.28520   0.32517   0.34115   0.34126
     Eigenvalues ---    0.34138   0.34156   0.34169   0.34190   0.34212
     Eigenvalues ---    0.34249   0.34307   0.41728   0.42370   0.52951
     Eigenvalues ---    0.53257
 Quartic linear search produced a step of -0.02367.
 Iteration  1 RMS(Cart)=  0.04857696 RMS(Int)=  0.00113899
 Iteration  2 RMS(Cart)=  0.00152555 RMS(Int)=  0.00002053
 Iteration  3 RMS(Cart)=  0.00000163 RMS(Int)=  0.00002052
 Iteration  4 RMS(Cart)=  0.00000000 RMS(Int)=  0.00002052
 Variable       Old X    -DE/DX   Delta X   Delta X   Delta X     New X
                                 (Linear)    (Quad)   (Total)
    R1        2.89753  -0.00068   0.00029  -0.00397  -0.00368   2.89384
    R2        2.08223   0.00007  -0.00029   0.00183   0.00155   2.08377
    R3        2.08856  -0.00022  -0.00042   0.00176   0.00134   2.08990
    R4        2.08893  -0.00003  -0.00042   0.00228   0.00186   2.09080
    R5        2.90210  -0.00041   0.00020  -0.00251  -0.00231   2.89979
    R6        2.90436   0.00124   0.00030   0.00255   0.00285   2.90721
    R7        2.90361   0.00087   0.00030   0.00129   0.00159   2.90520
    R8        2.08498   0.00051  -0.00034   0.00339   0.00305   2.08802
    R9        2.08873   0.00014  -0.00042   0.00280   0.00238   2.09111
   R10        2.09047  -0.00027  -0.00050   0.00207   0.00158   2.09205
   R11        2.67836  -0.00555   0.00033  -0.01475  -0.01442   2.66394
   R12        2.08943   0.00048  -0.00044   0.00389   0.00345   2.09288
   R13        2.08392   0.00064  -0.00035   0.00377   0.00342   2.08734
   R14        1.82442   0.00032   0.00030  -0.00113  -0.00083   1.82359
   R15        2.67620  -0.00521   0.00025  -0.01335  -0.01310   2.66309
   R16        2.09544   0.00060  -0.00056   0.00490   0.00434   2.09978
   R17        2.08431   0.00061  -0.00036   0.00379   0.00343   2.08773
   R18        1.82441   0.00045   0.00029  -0.00083  -0.00054   1.82387
    A1        1.92950  -0.00052   0.00044  -0.00608  -0.00565   1.92385
    A2        1.94016  -0.00031  -0.00003  -0.00234  -0.00238   1.93778
    A3        1.93687   0.00074   0.00005   0.00531   0.00536   1.94222
    A4        1.87897   0.00020   0.00002  -0.00103  -0.00103   1.87794
    A5        1.89175   0.00002  -0.00037   0.00341   0.00305   1.89480
    A6        1.88462  -0.00013  -0.00013   0.00085   0.00072   1.88533
    A7        1.91587   0.00001  -0.00052   0.00243   0.00191   1.91778
    A8        1.91362   0.00051   0.00013   0.00408   0.00421   1.91783
    A9        1.89714  -0.00031  -0.00001  -0.00016  -0.00017   1.89697
   A10        1.92574  -0.00061  -0.00002  -0.00586  -0.00588   1.91986
   A11        1.91736   0.00030   0.00014  -0.00012   0.00002   1.91738
   A12        1.89373   0.00011   0.00028  -0.00030  -0.00002   1.89371
   A13        1.93791   0.00031   0.00022   0.00063   0.00085   1.93876
   A14        1.93453   0.00055   0.00005   0.00371   0.00376   1.93829
   A15        1.95155  -0.00054  -0.00012  -0.00334  -0.00345   1.94809
   A16        1.86751  -0.00029   0.00010  -0.00091  -0.00082   1.86670
   A17        1.88123  -0.00001  -0.00012  -0.00062  -0.00075   1.88049
   A18        1.88794  -0.00002  -0.00014   0.00052   0.00039   1.88832
   A19        1.98359  -0.00002  -0.00078   0.00396   0.00313   1.98673
   A20        1.91423  -0.00026   0.00091  -0.01279  -0.01186   1.90238
   A21        1.90059   0.00012   0.00064   0.00287   0.00348   1.90407
   A22        1.95093  -0.00066  -0.00159  -0.00342  -0.00504   1.94589
   A23        1.83804   0.00086   0.00079   0.01003   0.01076   1.84881
   A24        1.87108   0.00003   0.00007   0.00042   0.00053   1.87160
   A25        1.88960   0.00161  -0.00034   0.01167   0.01133   1.90093
   A26        1.99199   0.00010  -0.00100   0.00589   0.00484   1.99683
   A27        1.91006  -0.00027   0.00082  -0.01229  -0.01144   1.89862
   A28        1.90541   0.00025   0.00057   0.00448   0.00500   1.91041
   A29        1.94416  -0.00072  -0.00132  -0.00548  -0.00681   1.93735
   A30        1.83808   0.00071   0.00087   0.00869   0.00948   1.84756
   A31        1.86868  -0.00002   0.00011  -0.00048  -0.00033   1.86834
   A32        1.89199   0.00156  -0.00023   0.01073   0.01050   1.90249
    D1       -1.07130  -0.00013   0.00091  -0.06188  -0.06097  -1.13228
    D2        1.04684  -0.00055   0.00063  -0.06500  -0.06435   0.98249
    D3        3.11434  -0.00031   0.00105  -0.06309  -0.06203   3.05231
    D4        3.12611   0.00016   0.00061  -0.05507  -0.05447   3.07165
    D5       -1.03892  -0.00026   0.00034  -0.05818  -0.05785  -1.09677
    D6        1.02858  -0.00002   0.00075  -0.05628  -0.05553   0.97305
    D7        1.02835   0.00004   0.00077  -0.05814  -0.05737   0.97098
    D8       -3.13669  -0.00038   0.00049  -0.06125  -0.06075   3.08575
    D9       -1.06918  -0.00014   0.00091  -0.05934  -0.05844  -1.12762
   D10        0.95617   0.00039   0.00006   0.04115   0.04121   0.99738
   D11       -1.11707   0.00020  -0.00025   0.03949   0.03923  -1.07784
   D12        3.05804   0.00022  -0.00002   0.03852   0.03850   3.09654
   D13       -1.15468   0.00014   0.00024   0.03827   0.03852  -1.11616
   D14        3.05526  -0.00005  -0.00006   0.03660   0.03654   3.09180
   D15        0.94719  -0.00003   0.00016   0.03564   0.03581   0.98299
   D16        3.04137   0.00020  -0.00018   0.04238   0.04219   3.08356
   D17        0.96813   0.00000  -0.00049   0.04071   0.04022   1.00834
   D18       -1.13995   0.00003  -0.00027   0.03975   0.03948  -1.10047
   D19       -1.03169  -0.00092  -0.00028  -0.07238  -0.07266  -1.10434
   D20        3.05359   0.00018   0.00169  -0.06061  -0.05894   2.99465
   D21        1.01106   0.00021   0.00064  -0.05552  -0.05486   0.95620
   D22        1.08051  -0.00097  -0.00086  -0.07047  -0.07133   1.00918
   D23       -1.11740   0.00013   0.00111  -0.05870  -0.05762  -1.17502
   D24        3.12326   0.00017   0.00006  -0.05362  -0.05354   3.06972
   D25       -3.10130  -0.00091  -0.00052  -0.07436  -0.07487   3.10702
   D26        0.98398   0.00020   0.00145  -0.06259  -0.06116   0.92282
   D27       -1.05855   0.00023   0.00040  -0.05750  -0.05708  -1.11563
   D28       -3.10765  -0.00110  -0.00079  -0.07387  -0.07467   3.10087
   D29        0.98363   0.00000   0.00103  -0.06115  -0.06013   0.92350
   D30       -1.05642   0.00003   0.00005  -0.05614  -0.05606  -1.11248
   D31        1.07893  -0.00110  -0.00024  -0.07666  -0.07690   1.00202
   D32       -1.11299   0.00000   0.00159  -0.06394  -0.06237  -1.17535
   D33        3.13016   0.00004   0.00061  -0.05893  -0.05830   3.07186
   D34       -1.02765  -0.00060  -0.00048  -0.06923  -0.06972  -1.09737
   D35        3.06363   0.00050   0.00135  -0.05651  -0.05518   3.00845
   D36        1.02358   0.00053   0.00037  -0.05151  -0.05111   0.97247
   D37       -1.33470   0.00056   0.00078   0.00976   0.01060  -1.32411
   D38        0.84364  -0.00034   0.00022  -0.00712  -0.00692   0.83671
   D39        2.86964  -0.00014  -0.00007  -0.00252  -0.00261   2.86703
   D40       -1.33215   0.00087   0.00030   0.03058   0.03093  -1.30122
   D41        0.84168  -0.00000  -0.00034   0.01418   0.01382   0.85550
   D42        2.86150   0.00002  -0.00040   0.01583   0.01540   2.87690
         Item               Value     Threshold  Converged?
 Maximum Force            0.005546     0.000015     NO 
 RMS     Force            0.000940     0.000010     NO 
 Maximum Displacement     0.163329     0.000060     NO 
 RMS     Displacement     0.048423     0.000040     NO 
 GradGradGradGradGradGradGradGradGradGradGradGradGradGradGradGradGradGrad

                    Distance matrix (angstroms):
                    1          2          3          4          5
     1  C    0.000000
     2  C    1.531356   0.000000
     3  C    2.509574   1.534501   0.000000
     4  C    2.512834   1.538429   2.517199   0.000000
     5  O    2.996185   2.471134   2.948456   1.409695   0.000000
     6  C    2.493442   1.537366   2.514137   2.496262   3.779486
     7  O    3.779610   2.477935   2.951203   2.978153   4.278001
     8  H    1.102686   2.174556   2.794923   2.726825   2.646876
     9  H    1.105928   2.187105   3.481734   2.793660   3.407827
    10  H    1.106402   2.190675   2.737051   3.488111   3.990422
    11  H    2.746222   2.189839   1.104935   2.808251   2.676953
    12  H    2.783722   2.190733   1.106567   3.490183   3.985101
    13  H    3.487309   2.198180   1.107066   2.755477   3.251578
    14  H    3.465437   2.168556   2.808258   1.107502   2.087523
    15  H    2.699836   2.167638   3.471300   1.104573   2.015440
    16  H    3.501571   2.771493   2.729108   1.949471   0.965000
    17  H    2.657550   2.167535   2.803361   3.457991   4.615268
    18  H    2.755619   2.171552   3.472206   2.689017   4.029814
    19  H    4.092547   2.770641   2.722183   3.476528   4.621077
                    6          7          8          9         10
     6  C    0.000000
     7  O    1.409248   0.000000
     8  H    3.460943   4.627605   0.000000
     9  H    2.711911   4.057118   1.782239   0.000000
    10  H    2.789132   4.092797   1.793560   1.790057   0.000000
    11  H    3.486140   3.990303   2.576664   3.787161   3.039566
    12  H    2.754667   3.262602   3.200826   3.781163   2.550518
    13  H    2.806304   2.679780   3.794913   4.351982   3.779175
    14  H    2.660083   2.570458   3.774388   3.755093   4.328162
    15  H    2.752781   3.378275   2.985832   2.519521   3.742320
    16  H    4.097640   4.395900   3.126985   4.117832   4.357272
    17  H    1.111156   2.084004   3.704719   2.935309   2.488269
    18  H    1.104782   2.014288   3.736562   2.511344   3.193871
    19  H    1.950218   0.965151   4.885096   4.574033   4.238761
                   11         12         13         14         15
    11  H    0.000000
    12  H    1.777203   0.000000
    13  H    1.786637   1.793055   0.000000
    14  H    3.254366   3.796336   2.595076   0.000000
    15  H    3.788396   4.329525   3.788453   1.780888   0.000000
    16  H    2.290329   3.795923   2.833403   2.272529   2.816290
    17  H    3.787437   2.588689   3.246618   3.717503   3.719037
    18  H    4.331215   3.786078   3.792504   2.918778   2.480831
    19  H    3.789176   2.844567   2.275771   3.053941   4.083837
                   16         17         18         19
    16  H    0.000000
    17  H    4.887994   0.000000
    18  H    4.552889   1.781855   0.000000
    19  H    4.556487   2.273567   2.817183   0.000000
 Framework group  C1[X(C5H12O2)]
 Deg. of freedom    51
                         Standard orientation:                         
 ---------------------------------------------------------------------
 Center     Atomic      Atomic             Coordinates (Angstroms)
 Number     Number       Type             X           Y           Z
 ---------------------------------------------------------------------
      1          6           0       -0.611870    1.679889   -0.444850
      2          6           0       -0.004748    0.349831    0.010560
      3          6           0       -0.001399    0.275342    1.543248
      4          6           0       -0.814662   -0.821549   -0.571396
      5          8           0       -2.149156   -0.871237   -0.119847
      6          6           0        1.435315    0.258391   -0.519869
      7          8           0        2.128722   -0.903197   -0.125054
      8          1           0       -1.674790    1.732531   -0.156152
      9          1           0       -0.558497    1.784588   -1.544517
     10          1           0       -0.081182    2.539169    0.006961
     11          1           0       -1.021544    0.398706    1.949408
     12          1           0        0.619087    1.081274    1.979095
     13          1           0        0.390086   -0.695492    1.903547
     14          1           0       -0.280017   -1.768633   -0.362232
     15          1           0       -0.869953   -0.712499   -1.669182
     16          1           0       -2.161272   -1.209931    0.783682
     17          1           0        1.987080    1.173970   -0.216653
     18          1           0        1.420220    0.240196   -1.624398
     19          1           0        2.378442   -0.819831    0.803496
 ---------------------------------------------------------------------
 Rotational constants (GHZ):           3.3389124           1.9086422           1.6978600
   122 basis functions,   223 primitive gaussians,   129 cartesian basis functions
    29 alpha electrons       29 beta electrons
       nuclear repulsion energy       344.3219252211 Hartrees.
 NAtoms=   19 NActive=   19 NUniq=   19 SFac= 1.00D+00 NAtFMM=   60 NAOKFM=F Big=F
 Nuclear repulsion after empirical dispersion term =      344.3090954458 Hartrees.
   1 Symmetry operations used in ECPInt.
 ECPInt:  NShTT=    2211 NPrTT=    8905 LenC2=    2201 LenP2D=    7258.
 LDataN:  DoStor=T MaxTD1= 4 Len=   56
 Initial guess from the checkpoint file:  "/scratch/user/peterchao1/peterchao1/6097792_1659647566000000875664383/Gau-200916.chk"
 B after Tr=    -0.000000    0.000000   -0.000000
         Rot=    0.999557   -0.029218    0.000567    0.005644 Ang=  -3.41 deg.
 ExpMin= 1.22D-01 ExpMax= 2.27D+03 ExpMxC= 3.41D+02 IAcc=3 IRadAn=         5 AccDes= 0.00D+00
 Harris functional with IExCor= 4639 and IRadAn=       5 diagonalized for initial guess.
 HarFok:  IExCor= 4639 AccDes= 0.00D+00 IRadAn=         5 IDoV= 1 UseB2=F ITyADJ=14
 ICtDFT=  3500011 ScaDFX=  1.000000  1.000000  1.000000  1.000000
 FoFCou: FMM=F IPFlag=           0 FMFlag=      100000 FMFlg1=           0
         NFxFlg=           0 DoJE=T BraDBF=F KetDBF=T FulRan=T
         wScrn=  0.000000 ICntrl=       500 IOpCl=  0 I1Cent=   200000004 NGrid=           0
         NMat0=    1 NMatS0=      1 NMatT0=    0 NMatD0=    1 NMtDS0=    0 NMtDT0=    0
 Petite list used in FoFCou.
     Minimum is close to point  4 DX=  1.04D-01 DF= -2.18D-05 DXR=  7.99D-02 DFR=  6.43D-03 which will be used.
     Accept linear search using points  1 and  2.
     Accept linear search using points  1 and  2.
     Minimum is close to point  2 DX=  8.21D-02 DF= -4.76D-07 DXR=  8.36D-02 DFR=  7.03D-03 which will be used.
     Accept linear search using points  1 and  2.
     Minimum is close to point  2 DX= -1.42D-04 DF= -1.48D-12 DXR=  1.42D-04 DFR=  2.04D-08 which will be used.
 SCF Done:  E(RwB97XD) =  -347.798765606     a.u. after    8 cycles
            Convg  =    0.7581D-09                    36 Fock formations.
              S**2 =  0.0000                  -V/T =  2.0093
   1 Symmetry operations used in ECPInt.
 ECPInt:  NShTT=    2211 NPrTT=    8905 LenC2=    2201 LenP2D=    7258.
 LDataN:  DoStor=T MaxTD1= 5 Len=  102
 Calling FoFJK, ICntrl=      2127 FMM=F ISym2X=0 I1Cent= 0 IOpClX= 0 NMat=1 NMatS=1 NMatT=0.

 GradGradGradGradGradGradGradGradGradGradGradGradGradGradGradGradGradGrad
 Using GEDIIS/GDIIS optimizer.
 FormGI is forming the generalized inverse of G from B-inverse, IUseBI=4.
 Internal  Forces:  Max     0.001729875 RMS     0.000390197
 Step number   3 out of a maximum of  102
 All quantities printed in internal units (Hartrees-Bohrs-Radians)
 Mixed Optimization -- En-DIIS/RFO-DIIS
 Swapping is turned off.
 Trust test= 8.64D-01 RLast= 3.46D-01 DXMaxT set to 8.49D-01
 ITU=  1  1  0
     Eigenvalues ---    0.00206   0.00230   0.00235   0.00349   0.01355
     Eigenvalues ---    0.01380   0.04548   0.04586   0.04694   0.04899
     Eigenvalues ---    0.05315   0.05397   0.05407   0.05495   0.05592
     Eigenvalues ---    0.05796   0.05959   0.11349   0.11825   0.13717
     Eigenvalues ---    0.14097   0.14439   0.14552   0.15517   0.16000
     Eigenvalues ---    0.16000   0.16000   0.16000   0.16000   0.16063
     Eigenvalues ---    0.16109   0.21130   0.22108   0.27888   0.28229
     Eigenvalues ---    0.28515   0.28743   0.32524   0.34121   0.34131
     Eigenvalues ---    0.34140   0.34168   0.34187   0.34200   0.34247
     Eigenvalues ---    0.34297   0.34647   0.38856   0.42033   0.52952
     Eigenvalues ---    0.53310
 En-DIIS/RFO-DIIS/Sim-DIIS IScMMF=       -3 using points:     3    2
 RFO step:  Lambda=-1.35646933D-04.
 DidBck=F Rises=F RFO-DIIS coefs:    1.03428   -0.03428
 Iteration  1 RMS(Cart)=  0.02099144 RMS(Int)=  0.00040914
 Iteration  2 RMS(Cart)=  0.00042394 RMS(Int)=  0.00000155
 Iteration  3 RMS(Cart)=  0.00000014 RMS(Int)=  0.00000155
 Variable       Old X    -DE/DX   Delta X   Delta X   Delta X     New X
                                 (Linear)    (Quad)   (Total)
    R1        2.89384   0.00021  -0.00013  -0.00009  -0.00022   2.89363
    R2        2.08377  -0.00008   0.00005   0.00023   0.00028   2.08405
    R3        2.08990  -0.00048   0.00005  -0.00084  -0.00079   2.08911
    R4        2.09080  -0.00089   0.00006  -0.00191  -0.00185   2.08895
    R5        2.89979  -0.00018  -0.00008  -0.00111  -0.00119   2.89860
    R6        2.90721   0.00121   0.00010   0.00437   0.00447   2.91168
    R7        2.90520   0.00120   0.00005   0.00413   0.00419   2.90939
    R8        2.08802  -0.00072   0.00010  -0.00126  -0.00116   2.08687
    R9        2.09111  -0.00062   0.00008  -0.00105  -0.00097   2.09014
   R10        2.09205  -0.00082   0.00005  -0.00169  -0.00163   2.09042
   R11        2.66394  -0.00157  -0.00049  -0.00621  -0.00670   2.65724
   R12        2.09288  -0.00004   0.00012   0.00075   0.00087   2.09374
   R13        2.08734  -0.00053   0.00012  -0.00067  -0.00055   2.08679
   R14        1.82359   0.00030  -0.00003   0.00021   0.00018   1.82377
   R15        2.66309  -0.00173  -0.00045  -0.00626  -0.00671   2.65638
   R16        2.09978  -0.00036   0.00015   0.00008   0.00023   2.10001
   R17        2.08773  -0.00058   0.00012  -0.00080  -0.00069   2.08705
   R18        1.82387   0.00034  -0.00002   0.00034   0.00032   1.82419
    A1        1.92385   0.00006  -0.00019  -0.00083  -0.00102   1.92283
    A2        1.93778  -0.00004  -0.00008  -0.00043  -0.00051   1.93726
    A3        1.94222   0.00036   0.00018   0.00271   0.00289   1.94512
    A4        1.87794   0.00005  -0.00004   0.00068   0.00064   1.87857
    A5        1.89480  -0.00026   0.00010  -0.00122  -0.00111   1.89369
    A6        1.88533  -0.00018   0.00002  -0.00099  -0.00097   1.88436
    A7        1.91778  -0.00026   0.00007  -0.00138  -0.00132   1.91646
    A8        1.91783   0.00007   0.00014   0.00034   0.00048   1.91831
    A9        1.89697   0.00012  -0.00001   0.00101   0.00101   1.89798
   A10        1.91986   0.00010  -0.00020  -0.00056  -0.00076   1.91910
   A11        1.91738   0.00019   0.00000   0.00192   0.00192   1.91930
   A12        1.89371  -0.00022  -0.00000  -0.00130  -0.00130   1.89241
   A13        1.93876  -0.00002   0.00003  -0.00037  -0.00034   1.93843
   A14        1.93829   0.00010   0.00013   0.00127   0.00140   1.93969
   A15        1.94809   0.00004  -0.00012  -0.00009  -0.00021   1.94789
   A16        1.86670  -0.00009  -0.00003  -0.00110  -0.00113   1.86557
   A17        1.88049  -0.00002  -0.00003  -0.00024  -0.00026   1.88022
   A18        1.88832  -0.00003   0.00001   0.00046   0.00047   1.88879
   A19        1.98673   0.00063   0.00011   0.00399   0.00409   1.99082
   A20        1.90238  -0.00003  -0.00041  -0.00163  -0.00204   1.90033
   A21        1.90407  -0.00025   0.00012  -0.00186  -0.00175   1.90232
   A22        1.94589  -0.00021  -0.00017   0.00046   0.00029   1.94617
   A23        1.84881  -0.00023   0.00037  -0.00059  -0.00022   1.84858
   A24        1.87160   0.00005   0.00002  -0.00064  -0.00062   1.87098
   A25        1.90093  -0.00006   0.00039   0.00178   0.00217   1.90310
   A26        1.99683   0.00013   0.00017   0.00250   0.00266   1.99949
   A27        1.89862   0.00033  -0.00039   0.00126   0.00087   1.89948
   A28        1.91041  -0.00022   0.00017  -0.00243  -0.00226   1.90815
   A29        1.93735  -0.00006  -0.00023   0.00171   0.00147   1.93882
   A30        1.84756  -0.00007   0.00033  -0.00109  -0.00077   1.84679
   A31        1.86834  -0.00015  -0.00001  -0.00245  -0.00246   1.86589
   A32        1.90249  -0.00013   0.00036   0.00115   0.00151   1.90401
    D1       -1.13228   0.00003  -0.00209  -0.03259  -0.03468  -1.16695
    D2        0.98249   0.00003  -0.00221  -0.03396  -0.03616   0.94633
    D3        3.05231  -0.00011  -0.00213  -0.03473  -0.03685   3.01546
    D4        3.07165  -0.00004  -0.00187  -0.03262  -0.03449   3.03716
    D5       -1.09677  -0.00004  -0.00198  -0.03399  -0.03597  -1.13274
    D6        0.97305  -0.00019  -0.00190  -0.03476  -0.03666   0.93639
    D7        0.97098  -0.00003  -0.00197  -0.03289  -0.03486   0.93612
    D8        3.08575  -0.00003  -0.00208  -0.03426  -0.03635   3.04940
    D9       -1.12762  -0.00017  -0.00200  -0.03503  -0.03704  -1.16466
   D10        0.99738  -0.00020   0.00141  -0.04867  -0.04726   0.95012
   D11       -1.07784  -0.00014   0.00135  -0.04788  -0.04654  -1.12437
   D12        3.09654  -0.00021   0.00132  -0.04929  -0.04796   3.04857
   D13       -1.11616  -0.00018   0.00132  -0.04784  -0.04652  -1.16269
   D14        3.09180  -0.00013   0.00125  -0.04705  -0.04580   3.04600
   D15        0.98299  -0.00019   0.00123  -0.04845  -0.04723   0.93576
   D16        3.08356  -0.00009   0.00145  -0.04709  -0.04565   3.03792
   D17        1.00834  -0.00004   0.00138  -0.04630  -0.04492   0.96342
   D18       -1.10047  -0.00010   0.00135  -0.04771  -0.04635  -1.14682
   D19       -1.10434   0.00019  -0.00249  -0.00009  -0.00258  -1.10692
   D20        2.99465   0.00003  -0.00202  -0.00233  -0.00435   2.99030
   D21        0.95620   0.00013  -0.00188   0.00039  -0.00149   0.95471
   D22        1.00918  -0.00002  -0.00245  -0.00195  -0.00440   1.00478
   D23       -1.17502  -0.00019  -0.00198  -0.00419  -0.00617  -1.18119
   D24        3.06972  -0.00008  -0.00184  -0.00147  -0.00331   3.06641
   D25        3.10702   0.00013  -0.00257  -0.00074  -0.00330   3.10371
   D26        0.92282  -0.00003  -0.00210  -0.00298  -0.00508   0.91775
   D27       -1.11563   0.00007  -0.00196  -0.00026  -0.00222  -1.11784
   D28        3.10087   0.00013  -0.00256   0.00586   0.00331   3.10418
   D29        0.92350  -0.00015  -0.00206   0.00079  -0.00127   0.92223
   D30       -1.11248  -0.00003  -0.00192   0.00437   0.00244  -1.11003
   D31        1.00202   0.00026  -0.00264   0.00578   0.00314   1.00516
   D32       -1.17535  -0.00002  -0.00214   0.00071  -0.00143  -1.17679
   D33        3.07186   0.00010  -0.00200   0.00428   0.00228   3.07413
   D34       -1.09737   0.00016  -0.00239   0.00610   0.00372  -1.09365
   D35        3.00845  -0.00012  -0.00189   0.00104  -0.00086   3.00759
   D36        0.97247   0.00000  -0.00175   0.00461   0.00285   0.97533
   D37       -1.32411  -0.00022   0.00036  -0.00719  -0.00683  -1.33094
   D38        0.83671   0.00006  -0.00024  -0.00595  -0.00618   0.83053
   D39        2.86703  -0.00012  -0.00009  -0.00681  -0.00690   2.86012
   D40       -1.30122  -0.00013   0.00106   0.00926   0.01032  -1.29090
   D41        0.85550   0.00037   0.00047   0.01422   0.01470   0.87019
   D42        2.87690   0.00012   0.00053   0.01157   0.01209   2.88899
         Item               Value     Threshold  Converged?
 Maximum Force            0.001730     0.000015     NO 
 RMS     Force            0.000390     0.000010     NO 
 Maximum Displacement     0.084127     0.000060     NO 
 RMS     Displacement     0.020988     0.000040     NO 
 GradGradGradGradGradGradGradGradGradGradGradGradGradGradGradGradGradGrad

                    Distance matrix (angstroms):
                    1          2          3          4          5
     1  C    0.000000
     2  C    1.531240   0.000000
     3  C    2.507802   1.533872   0.000000
     4  C    2.515103   1.540795   2.517952   0.000000
     5  O    3.002323   2.473519   2.949455   1.406150   0.000000
     6  C    2.496052   1.539583   2.517133   2.498814   3.780800
     7  O    3.779635   2.479015   2.957635   2.978571   4.275929
     8  H    1.102834   2.173818   2.809095   2.711454   2.638149
     9  H    1.105510   2.186315   3.478334   2.812167   3.438946
    10  H    1.105423   2.191912   2.721804   3.489714   3.984415
    11  H    2.722337   2.188578   1.104323   2.830188   2.706945
    12  H    2.804711   2.190803   1.106055   3.490126   3.997888
    13  H    3.483613   2.196819   1.106202   2.733965   3.211871
    14  H    3.466449   2.169447   2.810647   1.107961   2.084995
    15  H    2.700062   2.168199   3.470704   1.104281   2.012045
    16  H    3.513107   2.778658   2.736994   1.947843   0.965097
    17  H    2.660894   2.170209   2.808386   3.461272   4.619131
    18  H    2.755285   2.171558   3.473088   2.690080   4.028821
    19  H    4.092405   2.768284   2.724530   3.470596   4.612541
                    6          7          8          9         10
     6  C    0.000000
     7  O    1.405696   0.000000
     8  H    3.461480   4.626635   0.000000
     9  H    2.697008   4.042444   1.782438   0.000000
    10  H    2.811552   4.108959   1.792168   1.788298   0.000000
    11  H    3.486665   4.006422   2.573210   3.774197   2.978070
    12  H    2.738289   3.234475   3.255146   3.785648   2.563619
    13  H    2.830728   2.715914   3.789964   4.348902   3.776131
    14  H    2.657947   2.567408   3.763112   3.766436   4.330417
    15  H    2.754285   3.376763   2.958344   2.540003   3.749397
    16  H    4.102266   4.396802   3.134039   4.148924   4.353225
    17  H    1.111276   2.082047   3.714492   2.909781   2.516957
    18  H    1.104419   2.010431   3.724586   2.494579   3.220022
    19  H    1.948199   0.965319   4.889478   4.558871   4.252083
                   11         12         13         14         15
    11  H    0.000000
    12  H    1.775556   0.000000
    13  H    1.785274   1.792247   0.000000
    14  H    3.288988   3.784181   2.577991   0.000000
    15  H    3.802089   4.329508   3.772100   1.780614   0.000000
    16  H    2.340801   3.813717   2.790015   2.269633   2.813756
    17  H    3.777641   2.576713   3.282313   3.716404   3.720356
    18  H    4.330067   3.773100   3.809891   2.915797   2.481342
    19  H    3.799764   2.808738   2.315333   3.042894   4.077924
                   16         17         18         19
    16  H    0.000000
    17  H    4.896689   0.000000
    18  H    4.554431   1.780041   0.000000
    19  H    4.550280   2.277572   2.815768   0.000000
 Framework group  C1[X(C5H12O2)]
 Deg. of freedom    51
                         Standard orientation:                         
 ---------------------------------------------------------------------
 Center     Atomic      Atomic             Coordinates (Angstroms)
 Number     Number       Type             X           Y           Z
 ---------------------------------------------------------------------
      1          6           0       -0.607073    1.680809   -0.453614
      2          6           0       -0.003996    0.352003    0.010358
      3          6           0       -0.006489    0.287077    1.542854
      4          6           0       -0.816378   -0.823000   -0.567097
      5          8           0       -2.148425   -0.873905   -0.119529
      6          6           0        1.438732    0.252228   -0.517748
      7          8           0        2.127375   -0.907186   -0.120867
      8          1           0       -1.679489    1.720999   -0.199545
      9          1           0       -0.518041    1.795008   -1.549600
     10          1           0       -0.101637    2.541713    0.021085
     11          1           0       -1.019488    0.462891    1.945908
     12          1           0        0.650986    1.063899    1.976019
     13          1           0        0.335387   -0.699080    1.909321
     14          1           0       -0.279885   -1.768731   -0.354155
     15          1           0       -0.869644   -0.717890   -1.665073
     16          1           0       -2.164468   -1.215241    0.783048
     17          1           0        1.993570    1.168152   -0.220809
     18          1           0        1.423140    0.229913   -1.621831
     19          1           0        2.369190   -0.827618    0.810280
 ---------------------------------------------------------------------
 Rotational constants (GHZ):           3.3311379           1.9093173           1.6962759
   122 basis functions,   223 primitive gaussians,   129 cartesian basis functions
    29 alpha electrons       29 beta electrons
       nuclear repulsion energy       344.2810007143 Hartrees.
 NAtoms=   19 NActive=   19 NUniq=   19 SFac= 1.00D+00 NAtFMM=   60 NAOKFM=F Big=F
 Nuclear repulsion after empirical dispersion term =      344.2681521741 Hartrees.
   1 Symmetry operations used in ECPInt.
 ECPInt:  NShTT=    2211 NPrTT=    8905 LenC2=    2201 LenP2D=    7260.
 LDataN:  DoStor=T MaxTD1= 4 Len=   56
 Initial guess from the checkpoint file:  "/scratch/user/peterchao1/peterchao1/6097792_1659647566000000875664383/Gau-200916.chk"
 B after Tr=    -0.000000    0.000000    0.000000
         Rot=    0.999996    0.002305    0.001173    0.000965 Ang=   0.32 deg.
 ExpMin= 1.22D-01 ExpMax= 2.27D+03 ExpMxC= 3.41D+02 IAcc=3 IRadAn=         5 AccDes= 0.00D+00
 Harris functional with IExCor= 4639 and IRadAn=       5 diagonalized for initial guess.
 HarFok:  IExCor= 4639 AccDes= 0.00D+00 IRadAn=         5 IDoV= 1 UseB2=F ITyADJ=14
 ICtDFT=  3500011 ScaDFX=  1.000000  1.000000  1.000000  1.000000
 FoFCou: FMM=F IPFlag=           0 FMFlag=      100000 FMFlg1=           0
         NFxFlg=           0 DoJE=T BraDBF=F KetDBF=T FulRan=T
         wScrn=  0.000000 ICntrl=       500 IOpCl=  0 I1Cent=   200000004 NGrid=           0
         NMat0=    1 NMatS0=      1 NMatT0=    0 NMatD0=    1 NMtDS0=    0 NMtDT0=    0
 Petite list used in FoFCou.
     Minimum is close to point  2 DX=  2.95D-05 DF= -1.14D-13 DXR=  2.95D-05 DFR=  1.80D-09 which will be used.
 SCF Done:  E(RwB97XD) =  -347.798816298     a.u. after    5 cycles
            Convg  =    0.4308D-09                    31 Fock formations.
              S**2 =  0.0000                  -V/T =  2.0093
   1 Symmetry operations used in ECPInt.
 ECPInt:  NShTT=    2211 NPrTT=    8905 LenC2=    2201 LenP2D=    7260.
 LDataN:  DoStor=T MaxTD1= 5 Len=  102
 Calling FoFJK, ICntrl=      2127 FMM=F ISym2X=0 I1Cent= 0 IOpClX= 0 NMat=1 NMatS=1 NMatT=0.

 GradGradGradGradGradGradGradGradGradGradGradGradGradGradGradGradGradGrad
 Using GEDIIS/GDIIS optimizer.
 FormGI is forming the generalized inverse of G from B-inverse, IUseBI=4.
 Internal  Forces:  Max     0.000769380 RMS     0.000194033
 Step number   4 out of a maximum of  102
 All quantities printed in internal units (Hartrees-Bohrs-Radians)
 Mixed Optimization -- En-DIIS/RFO-DIIS
 Swapping is turned off.
 Trust test= 7.24D-01 RLast= 1.79D-01 DXMaxT set to 8.49D-01
 ITU=  1  1  1  0
     Eigenvalues ---    0.00210   0.00234   0.00249   0.00373   0.01264
     Eigenvalues ---    0.01389   0.04525   0.04574   0.04662   0.04893
     Eigenvalues ---    0.05335   0.05385   0.05402   0.05550   0.05602
     Eigenvalues ---    0.05805   0.05936   0.11246   0.11844   0.13948
     Eigenvalues ---    0.14108   0.14452   0.14579   0.15715   0.16000
     Eigenvalues ---    0.16000   0.16000   0.16000   0.16004   0.16025
     Eigenvalues ---    0.16318   0.22068   0.23707   0.28178   0.28409
     Eigenvalues ---    0.28515   0.29101   0.33011   0.34121   0.34135
     Eigenvalues ---    0.34139   0.34165   0.34187   0.34188   0.34247
     Eigenvalues ---    0.34295   0.34391   0.37707   0.41997   0.52950
     Eigenvalues ---    0.53125
 En-DIIS/RFO-DIIS/Sim-DIIS IScMMF=       -3 using points:     4    3    2
 RFO step:  Lambda=-2.32349384D-05.
 DidBck=F Rises=F RFO-DIIS coefs:    0.84488    0.18566   -0.03054
 Iteration  1 RMS(Cart)=  0.00578463 RMS(Int)=  0.00001750
 Iteration  2 RMS(Cart)=  0.00001933 RMS(Int)=  0.00000094
 Iteration  3 RMS(Cart)=  0.00000000 RMS(Int)=  0.00000094
 Variable       Old X    -DE/DX   Delta X   Delta X   Delta X     New X
                                 (Linear)    (Quad)   (Total)
    R1        2.89363   0.00016  -0.00008   0.00065   0.00057   2.89420
    R2        2.08405  -0.00010   0.00000  -0.00028  -0.00028   2.08377
    R3        2.08911  -0.00014   0.00016  -0.00063  -0.00047   2.08864
    R4        2.08895  -0.00029   0.00034  -0.00123  -0.00089   2.08806
    R5        2.89860   0.00018   0.00011   0.00037   0.00049   2.89909
    R6        2.91168  -0.00020  -0.00061   0.00036  -0.00024   2.91144
    R7        2.90939  -0.00028  -0.00060   0.00019  -0.00042   2.90897
    R8        2.08687  -0.00025   0.00027  -0.00106  -0.00079   2.08608
    R9        2.09014  -0.00023   0.00022  -0.00093  -0.00071   2.08943
   R10        2.09042  -0.00008   0.00030  -0.00072  -0.00042   2.09000
   R11        2.65724   0.00051   0.00060   0.00033   0.00093   2.65817
   R12        2.09374  -0.00025  -0.00003  -0.00062  -0.00065   2.09309
   R13        2.08679  -0.00022   0.00019  -0.00088  -0.00069   2.08610
   R14        1.82377   0.00026  -0.00005   0.00050   0.00044   1.82421
   R15        2.65638   0.00036   0.00064  -0.00004   0.00060   2.65698
   R16        2.10001  -0.00028   0.00010  -0.00090  -0.00080   2.09921
   R17        2.08705  -0.00027   0.00021  -0.00102  -0.00081   2.08624
   R18        1.82419   0.00032  -0.00007   0.00059   0.00053   1.82471
    A1        1.92283   0.00000  -0.00001   0.00022   0.00021   1.92303
    A2        1.93726   0.00015   0.00001   0.00103   0.00103   1.93830
    A3        1.94512  -0.00003  -0.00029  -0.00014  -0.00043   1.94469
    A4        1.87857   0.00002  -0.00013   0.00098   0.00085   1.87942
    A5        1.89369  -0.00007   0.00027  -0.00143  -0.00116   1.89252
    A6        1.88436  -0.00007   0.00017  -0.00069  -0.00051   1.88385
    A7        1.91646   0.00010   0.00026   0.00021   0.00047   1.91693
    A8        1.91831  -0.00014   0.00005  -0.00095  -0.00090   1.91741
    A9        1.89798   0.00011  -0.00016   0.00149   0.00133   1.89930
   A10        1.91910  -0.00001  -0.00006  -0.00050  -0.00056   1.91854
   A11        1.91930  -0.00014  -0.00030  -0.00018  -0.00048   1.91882
   A12        1.89241   0.00008   0.00020  -0.00006   0.00014   1.89256
   A13        1.93843  -0.00010   0.00008  -0.00033  -0.00025   1.93818
   A14        1.93969  -0.00004  -0.00010  -0.00023  -0.00033   1.93936
   A15        1.94789   0.00016  -0.00007   0.00081   0.00074   1.94863
   A16        1.86557   0.00010   0.00015   0.00043   0.00058   1.86615
   A17        1.88022   0.00000   0.00002   0.00024   0.00026   1.88049
   A18        1.88879  -0.00013  -0.00006  -0.00095  -0.00101   1.88778
   A19        1.99082  -0.00077  -0.00054  -0.00197  -0.00252   1.98830
   A20        1.90033   0.00019  -0.00005   0.00101   0.00096   1.90129
   A21        1.90232   0.00007   0.00038  -0.00071  -0.00034   1.90198
   A22        1.94617   0.00030  -0.00020   0.00146   0.00126   1.94743
   A23        1.84858   0.00032   0.00036   0.00040   0.00076   1.84935
   A24        1.87098  -0.00009   0.00011  -0.00017  -0.00006   1.87092
   A25        1.90310  -0.00017   0.00001  -0.00106  -0.00106   1.90205
   A26        1.99949  -0.00076  -0.00026  -0.00240  -0.00267   1.99682
   A27        1.89948   0.00020  -0.00048   0.00156   0.00108   1.90056
   A28        1.90815   0.00003   0.00050  -0.00108  -0.00058   1.90757
   A29        1.93882   0.00028  -0.00044   0.00165   0.00121   1.94003
   A30        1.84679   0.00038   0.00041   0.00091   0.00131   1.84810
   A31        1.86589  -0.00009   0.00037  -0.00063  -0.00026   1.86563
   A32        1.90401  -0.00020   0.00009  -0.00129  -0.00120   1.90281
    D1       -1.16695   0.00010   0.00352   0.00431   0.00783  -1.15912
    D2        0.94633   0.00006   0.00364   0.00322   0.00687   0.95320
    D3        3.01546   0.00014   0.00382   0.00349   0.00731   3.02277
    D4        3.03716  -0.00001   0.00369   0.00230   0.00599   3.04315
    D5       -1.13274  -0.00006   0.00381   0.00121   0.00502  -1.12772
    D6        0.93639   0.00002   0.00399   0.00148   0.00547   0.94185
    D7        0.93612  -0.00000   0.00366   0.00257   0.00622   0.94234
    D8        3.04940  -0.00004   0.00378   0.00148   0.00526   3.05466
    D9       -1.16466   0.00003   0.00396   0.00174   0.00570  -1.15895
   D10        0.95012  -0.00004   0.00859  -0.00268   0.00591   0.95604
   D11       -1.12437  -0.00008   0.00842  -0.00286   0.00556  -1.11881
   D12        3.04857   0.00000   0.00862  -0.00204   0.00658   3.05515
   D13       -1.16269   0.00008   0.00839  -0.00131   0.00708  -1.15561
   D14        3.04600   0.00004   0.00822  -0.00149   0.00673   3.05273
   D15        0.93576   0.00012   0.00842  -0.00068   0.00774   0.94351
   D16        3.03792   0.00008   0.00837  -0.00082   0.00755   3.04546
   D17        0.96342   0.00004   0.00820  -0.00100   0.00719   0.97061
   D18       -1.14682   0.00012   0.00840  -0.00019   0.00821  -1.13861
   D19       -1.10692   0.00003  -0.00182   0.00613   0.00431  -1.10261
   D20        2.99030   0.00005  -0.00113   0.00486   0.00373   2.99403
   D21        0.95471   0.00001  -0.00144   0.00490   0.00346   0.95817
   D22        1.00478   0.00006  -0.00150   0.00546   0.00396   1.00874
   D23       -1.18119   0.00008  -0.00080   0.00419   0.00339  -1.17780
   D24        3.06641   0.00003  -0.00112   0.00423   0.00311   3.06952
   D25        3.10371  -0.00006  -0.00177   0.00491   0.00313   3.10685
   D26        0.91775  -0.00005  -0.00108   0.00364   0.00256   0.92031
   D27       -1.11784  -0.00009  -0.00140   0.00368   0.00228  -1.11556
   D28        3.10418   0.00001  -0.00279  -0.00431  -0.00710   3.09708
   D29        0.92223   0.00005  -0.00164  -0.00596  -0.00760   0.91463
   D30       -1.11003   0.00003  -0.00209  -0.00548  -0.00757  -1.11760
   D31        1.00516  -0.00010  -0.00284  -0.00538  -0.00821   0.99695
   D32       -1.17679  -0.00006  -0.00168  -0.00702  -0.00871  -1.18549
   D33        3.07413  -0.00009  -0.00213  -0.00655  -0.00868   3.06546
   D34       -1.09365  -0.00005  -0.00271  -0.00463  -0.00733  -1.10098
   D35        3.00759  -0.00001  -0.00155  -0.00628  -0.00783   2.99976
   D36        0.97533  -0.00004  -0.00200  -0.00580  -0.00780   0.96752
   D37       -1.33094   0.00001   0.00138  -0.00103   0.00035  -1.33059
   D38        0.83053  -0.00008   0.00075  -0.00004   0.00071   0.83124
   D39        2.86012   0.00015   0.00099   0.00073   0.00173   2.86185
   D40       -1.29090   0.00015  -0.00066   0.00931   0.00865  -1.28225
   D41        0.87019   0.00005  -0.00186   0.01088   0.00902   0.87921
   D42        2.88899   0.00030  -0.00141   0.01147   0.01007   2.89906
         Item               Value     Threshold  Converged?
 Maximum Force            0.000769     0.000015     NO 
[...]
 03,-0.01073903,0.58314423,-0.01723542,-0.02199247,0.02928192,-0.098425
 42,-0.02198007,0.02380200,0.00372724,0.00670676,-0.00858750,0.61487471
 ,-0.00474666,-0.00183419,0.00278896,-0.02247017,-0.12320787,0.03882754
 ,-0.00873545,-0.02752002,0.02799494,-0.05302013,0.59306713,0.00897590,
 0.00183592,-0.00126941,0.02783927,0.04522036,-0.11626644,-0.00285267,0
 .00615931,0.00284522,0.00944038,0.03939234,0.48538608,-0.00090159,0.00
 035313,-0.00031905,0.00636871,0.00394192,0.00411752,-0.00037764,-0.001
 29649,-0.00062038,-0.10530378,0.00873964,-0.04032626,0.27583778,-0.000
 87045,0.00086203,-0.00096397,0.00634848,0.00900192,0.01068917,-0.00047
 473,-0.00144714,-0.00049788,-0.01312057,-0.10458952,-0.07500677,-0.214
 45449,0.40930854,-0.00238435,-0.00040914,0.00078786,-0.01293147,-0.013
 95874,-0.04473693,0.00084773,-0.00327337,0.00164789,-0.07160777,-0.043
 71491,-0.22232686,0.02442924,0.18430117,0.36520916,-0.02174286,-0.0110
 5122,-0.02874938,-0.08012662,-0.01084152,-0.01994079,0.00582919,-0.000
 25487,0.00829250,0.00916447,0.00893381,0.00277366,-0.00233428,-0.00240
 870,0.00671864,0.52462355,-0.00181229,0.00039558,0.00240826,-0.0076816
 2,-0.09983634,-0.02948177,-0.01163815,-0.01992971,-0.03236320,0.008654
 99,0.00984463,0.01018453,-0.00119086,-0.00183823,0.00731464,-0.0265233
 6,0.63844698,-0.00467108,0.00177570,0.00262753,-0.01855665,-0.03416048
 ,-0.16185997,-0.00062826,-0.00831637,-0.00645879,-0.00937023,-0.008706
 80,-0.03338345,0.00202159,0.00280813,-0.00296262,-0.03814918,-0.042250
 25,0.52033713,0.00077687,-0.00287596,-0.00719458,-0.03271831,0.0001322
 8,-0.00668332,-0.00038436,0.00360606,0.00196524,-0.00301428,-0.0023295
 5,0.00350755,0.00184107,0.00054024,-0.00227205,-0.26340352,-0.02278217
 ,-0.00516225,0.43566444,-0.00076225,-0.00042363,-0.00319472,-0.0131366
 2,0.00266703,0.00020431,0.00022000,-0.00003283,-0.00013368,-0.00006898
 ,0.00012008,0.00054215,0.00035516,0.00048326,0.00010072,0.02480281,-0.
 10199517,0.00779967,-0.12625332,0.54554825,-0.00123833,-0.00228116,-0.
 00593891,-0.03295734,0.00078900,0.00454611,0.00161149,0.00053806,0.000
 09567,0.00247985,0.00174570,0.00084974,-0.00174011,-0.00099215,-0.0007
 4167,-0.01089579,0.00459976,-0.06801867,0.04193223,-0.06566906,0.06979
 331,-0.08441392,-0.02717747,-0.09014274,-0.01310800,-0.00975671,-0.030
 52318,0.00114168,-0.00116025,-0.00067224,0.00025225,-0.00088662,-0.002
 56219,0.00139804,0.00105267,0.00086428,-0.00492499,0.00173796,0.003606
 62,-0.00244662,-0.00098552,-0.00206569,0.09332647,-0.02761055,-0.06933
 613,-0.06507884,-0.00017859,-0.00113074,0.00099717,0.00044078,0.000474
 52,0.00119569,-0.00068774,-0.00018867,-0.00138814,0.00050321,-0.000241
 24,0.00035341,-0.00007910,-0.00020090,0.00041422,-0.00001019,0.0006290
 7,-0.00014383,0.02953279,0.06864433,-0.09273947,-0.06607314,-0.2634159
 2,0.00069095,0.00013796,0.00307458,0.00026564,0.00019513,0.00035789,-0
 .00008557,0.00060871,-0.00051687,0.00116552,0.00041317,-0.00030636,0.0
 0033598,0.00032110,0.00023209,0.00016944,0.00004759,0.00027187,0.09940
 501,0.07127024,0.27816567,-0.07609026,0.07738684,0.01844818,-0.0092202
 7,0.03066348,0.00675824,-0.00678633,-0.00130739,0.00028736,0.00112812,
 0.00181949,-0.00063714,0.00003737,-0.00025485,-0.00001272,0.00027136,0
 .00190919,0.00071054,0.00072707,-0.00060490,0.00004565,0.00397185,-0.0
 1213426,-0.00125464,0.08333731,0.07933024,-0.27385513,-0.05164092,-0.0
 0031705,-0.00020693,0.00082043,0.00104216,0.00098310,-0.00009115,-0.00
 063333,0.00053982,0.00042087,0.00022615,0.00019572,-0.00021317,-0.0008
 9268,0.00012154,-0.00059234,0.00014702,0.00044011,0.00028198,0.0021821
 0,-0.00575424,0.00029380,-0.08679566,0.29136553,0.01847175,-0.05159124
 ,-0.06122437,-0.00010912,-0.00038203,-0.00162882,0.00019141,0.00010727
 ,0.00012093,0.00034449,-0.00142828,0.00006112,0.00023084,0.00070480,-0
 .00033564,-0.00105792,0.00073183,0.00023257,0.00048955,0.00001462,-0.0
 0011605,0.01044723,-0.02561373,-0.00282373,-0.02024080,0.05638491,0.05
 837533,-0.07738315,-0.05469712,0.06166038,-0.01000526,-0.02115160,0.02
 379761,0.00129218,-0.00126796,0.00048441,-0.00729103,0.00077517,-0.002
 53022,0.00107398,0.00054585,0.00030849,0.00048430,-0.00046474,0.002151
 28,0.00055931,0.00045520,-0.00052075,0.00413705,0.00935877,-0.00777035
 ,0.00333702,0.00600483,-0.00866844,0.08474158,-0.05605744,-0.15390230,
 0.11694864,0.00087693,-0.00054393,-0.00146580,0.00083848,0.00069243,-0
 .00076502,-0.00028888,0.00023687,-0.00077284,0.00028891,0.00025997,0.0
 0019225,-0.00013353,-0.00038449,0.00090609,0.00024522,0.00013129,-0.00
 053795,0.00441832,0.00677980,-0.00702493,-0.01035213,-0.01476475,0.020
 60421,0.06068983,0.16018866,0.06255200,0.11669352,-0.17943828,-0.00029
 936,-0.00014537,-0.00110585,-0.00031186,0.00012248,0.00028421,0.000205
 58,-0.00074484,0.00010412,0.00065534,0.00028150,0.00015178,-0.00098555
 ,-0.00084247,0.00046467,0.00033050,-0.00008848,0.00019077,0.01030551,0
 .01823758,-0.01552689,-0.00374855,-0.00564763,0.00638313,-0.06867587,-
 0.12772769,0.18831572,0.00088399,0.00048216,0.00121783,0.00399418,0.00
 442712,0.01035882,-0.09837184,-0.04906402,-0.09363567,-0.00016741,-0.0
 0083733,-0.00110287,0.00005248,0.00075095,0.00018398,-0.00211619,0.002
 86431,-0.00010417,0.00084231,-0.00082688,-0.00069770,-0.00015013,0.000
 34697,-0.00026956,0.00005261,-0.00023249,-0.00003016,-0.00000675,-0.00
 012287,0.00009533,0.10129866,-0.00135835,0.00126678,-0.00021223,-0.013
 72295,-0.01131432,-0.02548827,-0.04778865,-0.09121255,-0.08887013,-0.0
 0084561,-0.00033833,-0.00285442,0.00059031,0.00203264,0.00151290,0.003
 35902,-0.00608670,0.00151936,-0.00021379,0.00053002,0.00019298,0.00103
 154,-0.00006689,0.00019210,-0.00022971,0.00015321,0.00032545,0.0001204
 7,-0.00000141,0.00010534,0.05041323,0.09918551,-0.00028507,0.00036915,
 0.00046421,-0.00100592,-0.00176140,-0.00284262,-0.09286555,-0.08923841
 ,-0.22156916,0.00031088,-0.00004085,-0.00095244,0.00048342,0.00169773,
 -0.00059475,0.00104719,-0.00127272,0.00071833,-0.00008774,0.00027698,0
 .00030796,0.00034041,-0.00019923,0.00021183,0.00011311,0.00015917,0.00
 018081,0.00002028,-0.00008685,-0.00024609,0.10013463,0.09677471,0.2363
 6040,0.00077391,0.00061041,-0.00108981,0.00157901,0.00479299,-0.009122
 51,-0.06505311,-0.03621101,0.05180566,-0.00059110,0.00149322,0.0002393
 7,0.00024591,0.00037254,0.00000255,0.00067274,-0.00070502,0.00024149,-
 0.00026130,0.00010263,-0.00043258,-0.00000987,0.00004130,-0.00002290,0
 .00005411,-0.00021920,0.00008253,-0.00034901,0.00019387,0.00032075,0.0
 0377509,0.00917728,-0.01130358,0.06373178,-0.00138139,0.00066583,0.000
 40181,-0.00880367,-0.01747003,0.02515128,-0.03555763,-0.12876037,0.117
 27602,0.00340929,-0.00606182,-0.00356521,0.00010687,0.00119158,0.00005
 307,-0.00043301,0.00101317,0.00219990,-0.00023683,0.00014877,-0.000599
 66,-0.00002114,0.00001212,-0.00008728,-0.00009340,0.00023478,-0.000319
 18,0.00081883,0.00028690,-0.00032801,0.00447726,0.00805337,-0.01111530
 ,0.03781685,0.14113355,-0.00008915,-0.00017565,0.00011941,-0.00113100,
 -0.00350892,0.00382537,0.05090790,0.11782985,-0.21469507,-0.00013025,-
 0.00169411,-0.00045645,0.00024349,0.00101699,0.00029998,-0.00098214,-0
 .00109126,0.00097745,0.00050809,0.00000077,0.00025337,0.00013649,0.000
 05869,-0.00008166,-0.00021297,-0.00008278,0.00015705,-0.00035028,0.000
 12560,0.00020002,0.00759399,0.01449225,-0.01764458,-0.05583707,-0.1271
 0974,0.22697288,0.00032003,0.00337842,0.00060290,-0.00927005,-0.000171
 41,0.00113534,-0.30520758,0.00708142,0.03182710,0.00031135,-0.00078938
 ,0.00118903,0.00036421,-0.00001612,-0.00083281,-0.00234226,0.00008529,
 -0.00087366,0.00133844,-0.00161296,-0.00154773,0.00027819,-0.00017587,
 0.00005137,-0.00083237,0.00008044,-0.00002692,0.00032980,-0.00014024,-
 0.00010364,-0.01084473,0.00076314,0.00322112,-0.00428898,0.00051287,-0
 .00054468,0.32906889,0.00075659,-0.00635447,-0.00122851,0.03038354,0.0
 0200788,-0.00271092,0.00633292,-0.04872200,0.00011960,0.00156688,0.001
 78575,-0.00027959,-0.00024136,-0.00002793,0.00006819,0.00171402,0.0007
 3487,0.00037060,-0.00158547,0.00056582,0.00026846,-0.00013667,-0.00002
 626,0.00010954,0.00201883,-0.00013329,-0.00013557,-0.00009640,0.000063
 42,-0.00022034,-0.01234992,-0.00016291,0.00340949,-0.01725829,0.000641
 39,-0.00010631,-0.00947210,0.05064190,-0.00012005,-0.00061102,0.000011
 13,0.00347202,0.00110987,-0.00184615,0.03233302,-0.00039028,-0.0542356
 9,-0.00113108,0.00044312,0.00047690,0.00024331,0.00002327,-0.00018038,
 0.00193903,-0.00000944,-0.00000090,-0.00116851,0.00038284,-0.00013212,
 0.00030261,-0.00006514,0.00016859,0.00018454,-0.00016990,0.00050703,-0
 .00033447,-0.00012935,0.00011841,-0.02595844,0.00180242,0.00586789,0.0
 2538964,-0.00245070,-0.00109821,-0.03394768,0.00158999,0.05242427,0.00
 042103,-0.00206248,0.00218862,-0.01155696,0.00125182,0.00122949,0.0006
 2636,0.00061772,-0.00038908,-0.30321008,-0.01554726,-0.00255849,-0.003
 68707,-0.00475841,-0.00910605,-0.00240529,-0.00062451,-0.00030384,0.00
 124898,0.00056487,-0.00271576,0.00033067,0.00017008,-0.00018717,0.0002
 6033,0.00002031,-0.00005567,-0.00077862,-0.00016800,-0.00000642,0.0000
 6189,0.00018301,0.00002935,0.00025098,0.00000552,0.00005135,0.00040704
 ,-0.00071962,0.00007339,0.32561562,0.00005925,-0.00184946,0.00263372,-
 0.02014960,-0.00101235,0.00201465,-0.00144468,0.00134528,-0.00042111,-
 0.01220867,-0.05848899,-0.00044266,-0.01449802,-0.00033206,-0.00759232
 ,-0.00068275,0.00042665,-0.00046227,0.00074343,-0.00027735,-0.00069816
 ,0.00018062,-0.00005527,-0.00019493,-0.00025319,0.00025995,0.00018672,
 -0.00109004,0.00031380,0.00011350,0.00002519,-0.00001812,-0.00003495,0
 .00025697,0.00022090,-0.00005089,0.00044810,-0.00064562,-0.00003314,0.
 02225609,0.05438604,0.00066166,0.00361870,-0.00426434,0.02418152,0.001
 42023,0.00161498,-0.00001154,-0.00125103,0.00050788,-0.00027676,-0.002
 64639,-0.05070998,-0.03932484,-0.00819913,-0.01503132,0.00239171,-0.00
 040302,0.00059424,-0.00148066,0.00017409,-0.00074728,-0.00003197,0.000
 06984,0.00001183,-0.00028976,-0.00004598,0.00004416,0.00177179,0.00025
 187,-0.00020836,-0.00000421,0.00021499,-0.00001567,-0.00009093,-0.0000
 9830,0.00001495,-0.00044147,0.00044405,0.00020164,0.01154474,0.0035624
 0,0.06428932,0.00086503,-0.00146683,-0.00007916,0.00378574,-0.01145969
 ,0.00109893,-0.00024901,-0.00073662,0.00154188,-0.09951788,0.10206066,
 0.00957551,0.00722279,-0.01170214,-0.00277955,-0.00006961,0.00052313,-
 0.00036683,0.00008108,-0.00041256,-0.00078837,-0.00003890,0.00002185,-
 0.00009832,-0.00008344,0.00007682,0.00034228,0.00010265,0.00012002,-0.
 00013688,0.00000867,0.00011080,-0.00011848,0.00048104,-0.00051630,-0.0
 0010160,0.00030155,-0.00029469,0.00004890,-0.00890353,0.02798663,0.002
 76456,0.09518903,0.00113066,0.00072815,-0.00104632,0.00867264,-0.01879
 471,-0.00056985,-0.00186439,-0.00078118,0.00375860,0.09526231,-0.26752
 198,-0.01845344,0.00354846,-0.00957688,-0.00925249,-0.00000383,-0.0001
 3415,-0.00119785,-0.00007198,0.00014666,0.00032462,-0.00001882,-0.0001
 1626,-0.00002291,-0.00092198,0.00029631,0.00041533,0.00004404,0.000462
 46,-0.00003312,0.00001744,0.00017444,-0.00014136,0.00026799,-0.0012050
 2,-0.00005590,0.00002047,0.00019930,-0.00003078,-0.00150334,0.00481662
 ,0.00110408,-0.10209457,0.29028322,-0.00088687,0.00003430,0.00076043,-
 0.00909008,0.02153539,0.00179609,0.00186628,0.00243193,-0.00422300,0.0
 0467853,-0.01029297,-0.04770494,0.01358526,-0.03692947,-0.01599369,-0.
 00025335,0.00182088,0.00128404,0.00001783,-0.00042963,-0.00013561,0.00
 021837,-0.00002426,-0.00001352,0.00046490,-0.00025414,-0.00014722,-0.0
 0023277,-0.00017610,0.00006025,0.00017645,0.00005161,0.00010292,-0.000
 29528,0.00161961,0.00030069,0.00005310,-0.00030679,-0.00007951,0.00079
 691,0.00055843,0.00152715,-0.00839798,0.02543153,0.06768962,-0.0002179
 6,-0.00032867,0.00035103,-0.00062446,0.00072794,-0.00049065,0.00128029
 ,0.00052163,0.00075181,0.00617670,-0.01365443,-0.00949038,-0.18216320,
 0.23843349,0.06916324,0.00068360,-0.00002685,0.00008514,-0.00052469,0.
 00000511,0.00023040,-0.00012634,0.00031996,0.00010874,-0.00001426,-0.0
 0012495,-0.00018314,-0.00000079,0.00001356,0.00003013,-0.00009604,-0.0
 0098508,0.00003713,-0.00050698,-0.00010631,-0.00036345,-0.00065333,0.0
 0011656,-0.00029711,0.00112041,-0.00178100,-0.00066468,0.00075439,-0.0
 0227490,-0.00300147,0.17488436,-0.00010066,-0.00051144,0.00031203,-0.0
 0023813,0.00163154,0.00117113,0.00047433,0.00080942,0.00053154,0.00992
 574,-0.01432301,-0.00200784,0.21329376,-0.30648194,-0.11410178,0.00029
 821,-0.00063333,0.00022605,-0.00020168,-0.00008747,0.00031503,0.000128
 76,0.00025277,-0.00010945,0.00003385,-0.00006528,-0.00005775,-0.000159
 12,-0.00000147,0.00006024,-0.00083730,-0.00141172,0.00109598,-0.000085
 30,-0.00015637,-0.00036525,0.00026098,0.00006283,0.00011976,0.00023653
 ,0.00105315,0.00175309,-0.00221175,-0.00004179,-0.00430893,-0.22081590
 ,0.31981109,0.00006159,0.00005894,-0.00002520,0.00107046,-0.00165936,-
 0.00068334,-0.00045590,-0.00010907,-0.00050229,0.02371007,-0.03536082,
 -0.01451795,0.03474195,-0.08042291,-0.06263015,-0.00047142,-0.00006747
 ,-0.00036618,0.00025366,0.00018108,0.00035753,0.00024698,-0.00000822,-
 0.00010713,-0.00017206,0.00015670,0.00010047,-0.00004120,-0.00000008,0
 .00009087,0.00078820,0.00179127,-0.00031899,0.00002106,0.00014511,0.00
 071702,-0.00034656,0.00019054,-0.00031857,-0.00083661,0.00034308,0.001
 94910,-0.00224486,-0.00082404,-0.00479917,-0.05614142,0.11517272,0.081
 05076,0.00097566,0.00045613,-0.00121895,0.00440092,0.00410191,-0.00765
 004,-0.00014040,0.00023746,0.00046469,-0.00111674,-0.00132094,-0.00133
 963,0.00040795,0.00026218,-0.00118508,-0.08158869,-0.04005297,0.068793
 13,-0.03562921,-0.01727300,0.02622914,0.00011027,0.00015955,0.00011724
 ,0.00009452,0.00012621,0.00013813,-0.00011986,-0.00037339,-0.00016648,
 0.00003881,0.00013655,-0.00005468,0.00000785,0.00014401,0.00026847,0.0
 0013308,-0.00020281,-0.00016404,0.00018984,0.00007377,-0.00028471,-0.0
 0002383,-0.00014799,0.00013221,-0.00005777,0.00000319,-0.00001785,0.10
 563318,0.00060561,0.00050118,-0.00004595,0.00332960,0.00527117,-0.0118
 3289,0.00038279,0.00169544,-0.00080154,-0.00090831,-0.00147266,-0.0007
 2195,0.00002937,0.00080082,-0.00100948,-0.04416727,-0.11773053,0.09626
 431,-0.00112274,0.00612214,-0.00261533,0.00027483,-0.00006118,-0.00002
 244,-0.00012908,-0.00014125,0.00014712,0.00004081,0.00008364,0.0001730
 2,-0.00002892,0.00014597,0.00019207,-0.00013080,-0.00000618,0.00033554
 ,0.00009091,-0.00015524,-0.00006977,0.00010733,-0.00002962,-0.00013576
 ,-0.00004746,0.00042556,-0.00024019,-0.00002590,0.00003533,0.00016036,
 0.05256211,0.11520060,0.00142443,0.00059525,0.00060896,0.00984989,0.01
 665691,-0.02486478,0.00019017,0.00158466,0.00107490,-0.00314824,-0.004
 80303,-0.00112545,0.00024115,0.00046587,-0.00327697,0.07041213,0.09560
 056,-0.19956285,0.00123503,-0.00463194,0.00866910,0.00000177,-0.000284
 11,0.00031924,-0.00013324,0.00001493,-0.00006093,-0.00108097,-0.000574
 71,0.00023650,-0.00019540,-0.00005408,0.00035930,0.00005249,-0.0012306
 7,0.00018303,-0.00005427,-0.00002794,0.00005644,0.00012042,0.00000268,
 0.00029250,-0.00016143,0.00007233,0.00020272,-0.00006426,0.00025845,0.
 00006827,-0.07797033,-0.10168535,0.21281546,0.00087149,-0.00117905,-0.
 00008822,0.00333405,-0.00893973,0.00002268,-0.00085665,-0.00095829,-0.
 00232967,0.00009381,0.00020556,0.00012396,-0.00006386,-0.00009177,0.00
 003452,-0.06096572,0.05084052,0.00677541,-0.02395404,0.03972518,-0.001
 33597,0.00008331,0.00015159,0.00009719,-0.00043701,0.00016902,-0.00033
 556,-0.00000598,-0.00000750,-0.00006623,0.00048640,-0.00065598,-0.0003
 1208,-0.00010233,0.00034075,-0.00001821,0.00013733,-0.00000470,-0.0001
 6725,-0.00001502,0.00010085,-0.00015688,0.00011433,0.00009412,0.000061
 58,-0.00004624,-0.00006254,0.00003243,0.00503283,-0.01097226,-0.001788
 02,0.08356484,0.00050043,0.00011955,0.00018696,0.00333886,-0.01196951,
 -0.00059040,-0.00169452,0.00002213,-0.00281320,0.00012855,0.00013051,0
 .00164239,-0.00026555,0.00049292,-0.00011208,0.06281878,-0.30021705,-0
 .01773100,0.00343758,0.00384314,0.00101124,-0.00018923,0.00036437,-0.0
 0001342,-0.00086344,0.00032707,-0.00013798,0.00008571,0.00006713,-0.00
 006802,0.00041035,-0.00076740,-0.00027632,-0.00003134,0.00045505,0.000
 06248,0.00004159,0.00005068,0.00002971,-0.00004476,-0.00003281,-0.0000
 7396,0.00011057,0.00066590,-0.00054991,-0.00005662,-0.00002617,0.00029
 316,0.00309012,-0.01192072,-0.00191449,-0.06996266,0.31593608,0.001316
 16,-0.00005291,0.00047190,0.00617075,-0.02844285,-0.00288323,-0.002735
 74,-0.00088854,-0.00462270,0.00052695,-0.00221261,0.00029020,-0.000024
 49,0.00069524,0.00074896,0.00623936,-0.01710578,-0.05413927,-0.0025917
 5,0.00288604,0.00178937,0.00010535,0.00025201,0.00000130,-0.00055272,0
 .00034097,0.00021818,-0.00008490,0.00009350,-0.00003555,0.00056979,-0.
 00165250,-0.00024215,-0.00014364,-0.00012596,0.00012181,0.00017422,0.0
 0014819,0.00010259,0.00012425,0.00018480,-0.00000695,-0.00037790,0.000
 71227,-0.00073887,-0.00000976,-0.00009892,0.00020218,-0.00620893,0.023
 51800,0.00332259,-0.00193280,0.02204814,0.05460097,0.00000207,0.000061
 73,0.00043655,-0.00002567,0.00083761,-0.00038548,0.00020602,-0.0002499
 3,-0.00025134,0.00014448,0.00031038,-0.00026478,-0.00001886,-0.0001541
 6,0.00055918,-0.01970917,0.04688716,-0.00619908,-0.08074323,0.09570603
 ,-0.01559263,0.00018897,-0.00017054,0.00002090,0.00019228,-0.00018994,
 -0.00003050,-0.00011741,-0.00004117,0.00000571,0.00025801,-0.00008520,
 0.00029557,-0.00040976,-0.00048256,0.00005102,0.00044939,-0.00052730,-
 0.00069784,0.00002341,-0.00002297,-0.00025758,-0.00002011,-0.00015633,
 0.00010640,0.00013230,0.00005703,-0.00019855,0.00165158,0.00010937,0.0
 0106865,-0.00727154,-0.00085441,-0.00056420,0.10506724,-0.00003957,-0.
 00050355,-0.00052951,-0.00150402,0.00077564,-0.00007251,-0.00018596,0.
 00050187,0.00001966,0.00010024,-0.00017772,0.00009498,-0.00003012,-0.0
 0009448,-0.00025884,-0.00445480,-0.00199682,-0.00086668,0.14883185,-0.
 45855918,0.06347047,-0.00020714,0.00002080,-0.00004083,0.00010829,0.00
 000373,0.00004349,-0.00001250,0.00003195,0.00005880,0.00008474,-0.0001
 6159,0.00019213,-0.00048507,-0.00039761,0.00031861,-0.00038554,-0.0005
 2613,-0.00154145,0.00001513,-0.00008074,0.00024022,-0.00006788,-0.0000
 2665,0.00002871,0.00004237,0.00008386,-0.00004101,-0.00198210,0.001235
 52,-0.00004534,0.00120688,0.00245912,-0.00029910,-0.14103480,0.4574119
 6,-0.00017714,-0.00058838,-0.00004349,-0.00066998,0.00223498,0.0000606
 9,-0.00198305,-0.00024424,0.00096668,-0.00044326,-0.00015570,-0.000783
 13,0.00019649,-0.00008476,0.00027173,0.00133532,0.00190582,-0.00071536
 ,-0.02376825,0.06153665,-0.01129449,0.00001737,-0.00004335,-0.00002281
 ,0.00024207,-0.00013577,-0.00004403,0.00009596,0.00013918,-0.00003942,
 0.00087916,0.00015624,-0.00014720,0.00018274,0.00018320,-0.00016707,0.
 00046522,-0.00170267,-0.00204337,0.00000056,0.00033046,-0.00006383,0.0
 0027930,-0.00019070,0.00011162,-0.00005133,0.00003392,-0.00026722,0.00
 011770,-0.00160978,0.00068198,0.00138311,-0.00099330,0.00079868,0.0218
 9800,-0.06077180,0.01274003\\-0.00000068,0.00000022,-0.00000005,0.0000
 0029,0.00000002,-0.00000106,-0.00000005,0.00000007,-0.00000038,-0.0000
 0019,-0.00000033,0.00000044,0.00000110,0.00000123,0.00000008,0.0000003
 6,-0.00000038,0.00000125,-0.00000042,-0.00000049,0.00000044,0.00000019
 ,0.00000042,-0.00000049,0.00000015,0.00000007,-0.00000014,-0.00000008,
 0.00000007,-0.00000079,-0.00000007,0.00000024,-0.00000039,-0.00000025,
 -0.00000015,-0.00000060,-0.00000021,-0.00000013,-0.00000025,0.00000041
 ,0.00000057,0.00000062,0.00000036,0.00000025,0.00000072,0.,0.00000009,
 0.00000027,-0.00000050,-0.00000045,-0.00000026,-0.00000011,-0.00000055
 ,0.00000032,-0.00000032,-0.00000075,0.00000028\\\@


 ALL THINGS ARE POSSIBLE EXCEPT SKIING THROUGH A REVOLVING DOOR.
 File lengths (MBytes):  RWF=     40 Int=      0 D2E=      0 Chk=      2 Scr=      1
 Normal termination of Gaussian 16 at Thu Aug  4 16:20:11 2022.
real 444.01
user 1686.41
sys 12.34
