 Entering Gaussian System, Link 0=g16
 Input=gaussian_test.inp
 Output=gaussian_test.log
 Initial command:
 /sw/restricted/lms/sw/Gaussian/g16_B01/g16/l1.exe "/scratch/user/peterchao1/peterchao1/9230105_1699909712000000285845610/Gau-50863.inp" -scrdir="/scratch/user/peterchao1/peterchao1/9230105_1699909712000000285845610/"
 Entering Link 1 = /sw/restricted/lms/sw/Gaussian/g16_B01/g16/l1.exe PID=     50869.
  
 Copyright (c) 1988-2017, Gaussian, Inc.  All Rights Reserved.
  
 This is part of the Gaussian(R) 16 program.  It is based on
 the Gaussian(R) 09 system (copyright 2009, Gaussian, Inc.),
 the Gaussian(R) 03 system (copyright 2003, Gaussian, Inc.),
 the Gaussian(R) 98 system (copyright 1998, Gaussian, Inc.),
 the Gaussian(R) 94 system (copyright 1995, Gaussian, Inc.),
 the Gaussian 92(TM) system (copyright 1992, Gaussian, Inc.),
 the Gaussian 90(TM) system (copyright 1990, Gaussian, Inc.),
 the Gaussian 88(TM) system (copyright 1988, Gaussian, Inc.),
 the Gaussian 86(TM) system (copyright 1986, Carnegie Mellon
 University), and the Gaussian 82(TM) system (copyright 1983,
 Carnegie Mellon University). Gaussian is a federally registered
 trademark of Gaussian, Inc.
  
 This software contains proprietary and confidential information,
 including trade secrets, belonging to Gaussian, Inc.
  
 This software is provided under written license and may be
 used, copied, transmitted, or stored only in accord with that
 written license.
  
 The following legend is applicable only to US Government
 contracts under FAR:
  
                    RESTRICTED RIGHTS LEGEND
  
 Use, reproduction and disclosure by the US Government is
 subject to restrictions as set forth in subparagraphs (a)
 and (c) of the Commercial Computer Software - Restricted
 Rights clause in FAR 52.227-19.
  
 Gaussian, Inc.
 340 Quinnipiac St., Bldg. 40, Wallingford CT 06492
  
  
 ---------------------------------------------------------------
 Warning -- This program may not be used in any manner that
 competes with the business of Gaussian, Inc. or will provide
 assistance to any competitor of Gaussian, Inc.  The licensee
 of this program is prohibited from giving any competitor of
 Gaussian, Inc. access to this program.  By using this program,
 the user acknowledges that Gaussian, Inc. is engaged in the
 business of creating and licensing software in the field of
 computational chemistry and represents and warrants to the
 licensee that it is not a competitor of Gaussian, Inc. and that
 it will not use this program in any manner prohibited above.
 ---------------------------------------------------------------
  

 Cite this work as:
 Gaussian 16, Revision B.01,
 M. J. Frisch, G. W. Trucks, H. B. Schlegel, G. E. Scuseria, 
 M. A. Robb, J. R. Cheeseman, G. Scalmani, V. Barone, 
 G. A. Petersson, H. Nakatsuji, X. Li, M. Caricato, A. V. Marenich, 
 J. Bloino, B. G. Janesko, R. Gomperts, B. Mennucci, H. P. Hratchian, 
 J. V. Ortiz, A. F. Izmaylov, J. L. Sonnenberg, D. Williams-Young, 
 F. Ding, F. Lipparini, F. Egidi, J. Goings, B. Peng, A. Petrone, 
 T. Henderson, D. Ranasinghe, V. G. Zakrzewski, J. Gao, N. Rega, 
 G. Zheng, W. Liang, M. Hada, M. Ehara, K. Toyota, R. Fukuda, 
 J. Hasegawa, M. Ishida, T. Nakajima, Y. Honda, O. Kitao, H. Nakai, 
 T. Vreven, K. Throssell, J. A. Montgomery, Jr., J. E. Peralta, 
 F. Ogliaro, M. J. Bearpark, J. J. Heyd, E. N. Brothers, K. N. Kudin, 
 V. N. Staroverov, T. A. Keith, R. Kobayashi, J. Normand, 
 K. Raghavachari, A. P. Rendell, J. C. Burant, S. S. Iyengar, 
 J. Tomasi, M. Cossi, J. M. Millam, M. Klene, C. Adamo, R. Cammi, 
 J. W. Ochterski, R. L. Martin, K. Morokuma, O. Farkas, 
 J. B. Foresman, and D. J. Fox, Gaussian, Inc., Wallingford CT, 2016.
 
 ******************************************
 Gaussian 16:  ES64L-G16RevB.01 20-Dec-2017
                13-Nov-2023 
 ******************************************
 %nprocshared=4
 Will use up to    4 processors via shared memory.
 %mem=8000mb
 %nprocshared=4
 Will use up to    4 processors via shared memory.
 %mem=8000mb
 %nprocshared=4
 Will use up to    4 processors via shared memory.
 %mem=8000mb
 %chk=1.chk
 %nprocshared=4
 Will use up to    4 processors via shared memory.
 %mem=8000mb
 ----------------------------------------------------------------------
 #T wB97XD/def2svpp opt=(tight,calcall,MaxStep=15) freq int(grid=ultraf
 ine) scf=(verytight,qc) Volume=tight
 ----------------------------------------------------------------------
 -------
 Monomer
 -------
 Symbolic Z-matrix:
 Charge =  0 Multiplicity = 1
 Cl                   -1.1568   -0.88785   2.38462 
 C                     0.04763   0.13535   1.5321 
 C                     0.        0.        0. 
 C                     1.0489    0.94656  -0.60972 
 Cl                    2.73013   0.59298  -0.08738 
 C                     0.28899  -1.46466  -0.37308 
 Cl                    0.30576  -1.76863  -2.14274 
 C                    -1.38553   0.38275  -0.54931 
 Cl                   -1.87909   2.06349  -0.1545 
 H                     1.03736  -0.14927   1.91397 
 H                    -0.16333   1.17475   1.82133 
 H                     0.83852   1.98748  -0.32935 
 H                     1.03651   0.86055  -1.7056 
 H                    -0.47062  -2.12995   0.05909 
 H                     1.27906  -1.75725   0.00462 
 H                    -2.15225  -0.27805  -0.12035 
 H                    -1.40527   0.29174  -1.64371 
 

 GradGradGradGradGradGradGradGradGradGradGradGradGradGradGradGradGradGrad
 Initialization pass.
                           ----------------------------
                           !    Initial Parameters    !
                           ! (Angstroms and Degrees)  !
 --------------------------                            --------------------------
 ! Name  Definition              Value          Derivative Info.                !
 --------------------------------------------------------------------------------
 ! R1    R(1,2)                  1.7957         calculate D2E/DX2 analytically  !
 ! R2    R(2,3)                  1.5388         calculate D2E/DX2 analytically  !
 ! R3    R(2,10)                 1.0984         calculate D2E/DX2 analytically  !
 ! R4    R(2,11)                 1.0993         calculate D2E/DX2 analytically  !
 ! R5    R(3,4)                  1.5388         calculate D2E/DX2 analytically  !
 ! R6    R(3,6)                  1.5388         calculate D2E/DX2 analytically  !
 ! R7    R(3,8)                  1.5388         calculate D2E/DX2 analytically  !
 ! R8    R(4,5)                  1.7957         calculate D2E/DX2 analytically  !
 ! R9    R(4,12)                 1.0984         calculate D2E/DX2 analytically  !
 ! R10   R(4,13)                 1.0993         calculate D2E/DX2 analytically  !
 ! R11   R(6,7)                  1.7957         calculate D2E/DX2 analytically  !
 ! R12   R(6,14)                 1.0984         calculate D2E/DX2 analytically  !
 ! R13   R(6,15)                 1.0993         calculate D2E/DX2 analytically  !
 ! R14   R(8,9)                  1.7957         calculate D2E/DX2 analytically  !
 ! R15   R(8,16)                 1.0993         calculate D2E/DX2 analytically  !
 ! R16   R(8,17)                 1.0984         calculate D2E/DX2 analytically  !
 ! A1    A(1,2,3)              113.6919         calculate D2E/DX2 analytically  !
 ! A2    A(1,2,10)             106.9593         calculate D2E/DX2 analytically  !
 ! A3    A(1,2,11)             106.5667         calculate D2E/DX2 analytically  !
 ! A4    A(3,2,10)             110.5641         calculate D2E/DX2 analytically  !
 ! A5    A(3,2,11)             109.8265         calculate D2E/DX2 analytically  !
 ! A6    A(10,2,11)            109.0537         calculate D2E/DX2 analytically  !
 ! A7    A(2,3,4)              108.6204         calculate D2E/DX2 analytically  !
 ! A8    A(2,3,6)              108.6204         calculate D2E/DX2 analytically  !
 ! A9    A(2,3,8)              111.1867         calculate D2E/DX2 analytically  !
 ! A10   A(4,3,6)              111.1866         calculate D2E/DX2 analytically  !
 ! A11   A(4,3,8)              108.6204         calculate D2E/DX2 analytically  !
 ! A12   A(6,3,8)              108.6204         calculate D2E/DX2 analytically  !
 ! A13   A(3,4,5)              113.6919         calculate D2E/DX2 analytically  !
 ! A14   A(3,4,12)             110.5641         calculate D2E/DX2 analytically  !
 ! A15   A(3,4,13)             109.8265         calculate D2E/DX2 analytically  !
 ! A16   A(5,4,12)             106.9593         calculate D2E/DX2 analytically  !
 ! A17   A(5,4,13)             106.5667         calculate D2E/DX2 analytically  !
 ! A18   A(12,4,13)            109.0536         calculate D2E/DX2 analytically  !
 ! A19   A(3,6,7)              113.6919         calculate D2E/DX2 analytically  !
 ! A20   A(3,6,14)             110.5641         calculate D2E/DX2 analytically  !
 ! A21   A(3,6,15)             109.8266         calculate D2E/DX2 analytically  !
 ! A22   A(7,6,14)             106.9592         calculate D2E/DX2 analytically  !
 ! A23   A(7,6,15)             106.5667         calculate D2E/DX2 analytically  !
 ! A24   A(14,6,15)            109.0536         calculate D2E/DX2 analytically  !
 ! A25   A(3,8,9)              113.6919         calculate D2E/DX2 analytically  !
 ! A26   A(3,8,16)             109.8265         calculate D2E/DX2 analytically  !
 ! A27   A(3,8,17)             110.5641         calculate D2E/DX2 analytically  !
 ! A28   A(9,8,16)             106.5667         calculate D2E/DX2 analytically  !
 ! A29   A(9,8,17)             106.9592         calculate D2E/DX2 analytically  !
 ! A30   A(16,8,17)            109.0537         calculate D2E/DX2 analytically  !
 ! D1    D(1,2,3,4)            178.6104         calculate D2E/DX2 analytically  !
 ! D2    D(1,2,3,6)            -60.328          calculate D2E/DX2 analytically  !
 ! D3    D(1,2,3,8)             59.1412         calculate D2E/DX2 analytically  !
 ! D4    D(10,2,3,4)           -61.069          calculate D2E/DX2 analytically  !
 ! D5    D(10,2,3,6)            59.9925         calculate D2E/DX2 analytically  !
 ! D6    D(10,2,3,8)           179.4618         calculate D2E/DX2 analytically  !
 ! D7    D(11,2,3,4)            59.3223         calculate D2E/DX2 analytically  !
 ! D8    D(11,2,3,6)          -179.6161         calculate D2E/DX2 analytically  !
 ! D9    D(11,2,3,8)           -60.1469         calculate D2E/DX2 analytically  !
 ! D10   D(2,3,4,5)             60.3279         calculate D2E/DX2 analytically  !
 ! D11   D(2,3,4,12)           -59.9926         calculate D2E/DX2 analytically  !
 ! D12   D(2,3,4,13)           179.6161         calculate D2E/DX2 analytically  !
 ! D13   D(6,3,4,5)            -59.1412         calculate D2E/DX2 analytically  !
 ! D14   D(6,3,4,12)          -179.4618         calculate D2E/DX2 analytically  !
 ! D15   D(6,3,4,13)            60.1469         calculate D2E/DX2 analytically  !
 ! D16   D(8,3,4,5)           -178.6104         calculate D2E/DX2 analytically  !
 ! D17   D(8,3,4,12)            61.069          calculate D2E/DX2 analytically  !
 ! D18   D(8,3,4,13)           -59.3222         calculate D2E/DX2 analytically  !
 ! D19   D(2,3,6,7)           -178.6104         calculate D2E/DX2 analytically  !
 ! D20   D(2,3,6,14)            61.0691         calculate D2E/DX2 analytically  !
 ! D21   D(2,3,6,15)           -59.3222         calculate D2E/DX2 analytically  !
 ! D22   D(4,3,6,7)            -59.1412         calculate D2E/DX2 analytically  !
 ! D23   D(4,3,6,14)          -179.4618         calculate D2E/DX2 analytically  !
 ! D24   D(4,3,6,15)            60.147          calculate D2E/DX2 analytically  !
 ! D25   D(8,3,6,7)             60.328          calculate D2E/DX2 analytically  !
 ! D26   D(8,3,6,14)           -59.9926         calculate D2E/DX2 analytically  !
 ! D27   D(8,3,6,15)           179.6161         calculate D2E/DX2 analytically  !
 ! D28   D(2,3,8,9)             59.1412         calculate D2E/DX2 analytically  !
 ! D29   D(2,3,8,16)           -60.1469         calculate D2E/DX2 analytically  !
 ! D30   D(2,3,8,17)           179.4618         calculate D2E/DX2 analytically  !
 ! D31   D(4,3,8,9)            -60.328          calculate D2E/DX2 analytically  !
 ! D32   D(4,3,8,16)          -179.6161         calculate D2E/DX2 analytically  !
 ! D33   D(4,3,8,17)            59.9926         calculate D2E/DX2 analytically  !
 ! D34   D(6,3,8,9)            178.6104         calculate D2E/DX2 analytically  !
 ! D35   D(6,3,8,16)            59.3223         calculate D2E/DX2 analytically  !
 ! D36   D(6,3,8,17)           -61.069          calculate D2E/DX2 analytically  !
 --------------------------------------------------------------------------------
 Trust Radius=1.50D-01 FncErr=1.00D-07 GrdErr=1.00D-06 EigMax=2.50D+02 EigMin=1.00D-04
 Number of steps in this run=     92 maximum allowed number of steps=    102.
 GradGradGradGradGradGradGradGradGradGradGradGradGradGradGradGradGradGrad

                    Distance matrix (angstroms):
                    1          2          3          4          5
     1  Cl   0.000000
     2  C    1.795653   0.000000
     3  C    2.795151   1.538806   0.000000
     4  C    4.146832   2.499598   1.538806   0.000000
     5  Cl   4.838580   3.166692   2.795152   1.795653   0.000000
     6  C    3.166692   2.499597   1.538805   2.539175   3.205411
     7  Cl   4.838579   4.146832   2.795151   3.205410   3.959705
     8  C    3.205411   2.539177   1.538806   2.499597   4.146832
     9  Cl   3.959706   3.205411   2.795151   3.166692   4.838579
    10  H    2.362487   1.098356   2.182123   2.751352   2.724296
    11  H    2.357665   1.099323   2.173467   2.726089   3.514784
    12  H    4.428817   2.742423   2.182124   1.098357   2.362488
    13  H    4.959573   3.462152   2.173466   1.099323   2.357665
    14  H    2.724296   2.751353   2.182124   3.495875   4.204830
    15  H    3.514784   2.726088   2.173467   2.782258   2.763631
    16  H    2.763630   2.782258   2.173466   3.462151   4.959574
    17  H    4.204830   3.495876   2.182124   2.742423   4.428817
                    6          7          8          9         10
     6  C    0.000000
     7  Cl   1.795653   0.000000
     8  C    2.499597   3.166691   0.000000
     9  Cl   4.146831   4.838579   1.795653   0.000000
    10  H    2.742422   4.428816   3.495875   4.204829   0.000000
    11  H    3.462151   4.959573   2.782258   2.763630   1.789762
    12  H    3.495875   4.204829   2.751352   2.724295   3.104461
    13  H    2.782257   2.763629   2.726088   3.514784   3.757789
    14  H    1.098357   2.362487   2.742423   4.428816   3.104460
    15  H    1.099323   2.357665   3.462151   4.959573   2.507914
    16  H    2.726089   3.514784   1.099324   2.357665   3.785315
    17  H    2.751353   2.724296   1.098357   2.362487   4.337968
                   11         12         13         14         15
    11  H    0.000000
    12  H    2.507915   0.000000
    13  H    3.738657   1.789763   0.000000
    14  H    3.757790   4.337968   3.785316   0.000000
    15  H    3.738657   3.785316   3.136327   1.789762   0.000000
    16  H    3.136327   3.757789   3.738657   2.507915   3.738657
    17  H    3.785316   3.104460   2.507915   3.104461   3.757790
                   16         17
    16  H    0.000000
    17  H    1.789763   0.000000
 This structure is nearly, but not quite of a higher symmetry.
 Consider Symm=Loose if the higher symmetry is desired.
 Framework group  C1[X(C5H8Cl4)]
 Deg. of freedom    45
                         Standard orientation:                         
 ---------------------------------------------------------------------
 Center     Atomic      Atomic             Coordinates (Angstroms)
 Number     Number       Type             X           Y           Z
 ---------------------------------------------------------------------
      1         17           0       -1.805145   -1.330036   -1.668930
      2          6           0       -0.914915   -1.232146   -0.112563
      3          6           0       -0.000000    0.000000   -0.000000
      4          6           0        0.674409   -0.013505    1.383081
      5         17           0        1.686106   -1.467351    1.678332
      6          6           0        1.044394   -0.058780   -1.128586
      7         17           0        2.214127    1.303324   -1.100845
      8          6           0       -0.803889    1.304432   -0.141932
      9         17           0       -2.095089    1.494064    1.091443
     10          1           0       -0.329758   -2.156976   -0.019461
     11          1           0       -1.674353   -1.206469    0.681859
     12          1           0       -0.080138    0.019085    2.180568
     13          1           0        1.339201    0.856395    1.482256
     14          1           0        0.552790   -0.038962   -2.110585
     15          1           0        1.635629   -0.981504   -1.041789
     16          1           0       -1.300478    1.331577   -1.122327
     17          1           0       -0.142896    2.176855   -0.050523
 ---------------------------------------------------------------------
 Rotational constants (GHZ):           0.7721207           0.5508450           0.5508450
   158 basis functions,   305 primitive gaussians,   167 cartesian basis functions
    53 alpha electrons       53 beta electrons
       nuclear repulsion energy       840.1915474416 Hartrees.
 NAtoms=   17 NActive=   17 NUniq=   17 SFac= 1.00D+00 NAtFMM=   60 NAOKFM=F Big=F
 Nuclear repulsion after empirical dispersion term =      840.1784805752 Hartrees.
   1 Symmetry operations used in ECPInt.
 ECPInt:  NShTT=    3081 NPrTT=   13711 LenC2=    2992 LenP2D=    9821.
 LDataN:  DoStor=T MaxTD1= 4 Len=   56
 ExpMin= 1.22D-01 ExpMax= 1.04D+04 ExpMxC= 1.57D+03 IAcc=3 IRadAn=         5 AccDes= 0.00D+00
 Harris functional with IExCor= 4639 and IRadAn=       5 diagonalized for initial guess.
 HarFok:  IExCor= 4639 AccDes= 0.00D+00 IRadAn=         5 IDoV= 1 UseB2=F ITyADJ=14
 ICtDFT=  3500011 ScaDFX=  1.000000  1.000000  1.000000  1.000000
 FoFCou: FMM=F IPFlag=           0 FMFlag=      100000 FMFlg1=           0
         NFxFlg=           0 DoJE=T BraDBF=F KetDBF=T FulRan=T
         wScrn=  0.000000 ICntrl=       500 IOpCl=  0 I1Cent=   200000004 NGrid=           0
         NMat0=    1 NMatS0=      1 NMatT0=    0 NMatD0=    1 NMtDS0=    0 NMtDT0=    0
 Petite list used in FoFCou.
     Accept linear search using points  3 and  4.
     Accept linear search using points  2 and  3.
     Accept linear search using points  2 and  3.
     Accept linear search using points  1 and  2.
     Accept linear search using points  1 and  2.
     Minimum is close to point  2 DX= -2.01D-04 DF= -2.50D-12 DXR=  2.02D-04 DFR=  4.03D-08 which will be used.
 SCF Done:  E(RwB97XD) =  -2035.36357393     a.u. after    7 cycles
            Convg  =    0.2511D-08                    31 Fock formations.
              S**2 =  0.0000                  -V/T =  2.0029
 DoSCS=F DFT=T ScalE2(SS,OS)=  1.000000  1.000000
 NROrb=    158 NOA=    53 NOB=    53 NVA=   105 NVB=   105

 **** Warning!!: The largest alpha MO coefficient is  0.10385068D+02

   1 Symmetry operations used in ECPInt.
 ECPInt:  NShTT=    3081 NPrTT=   13711 LenC2=    2992 LenP2D=    9821.
 LDataN:  DoStor=T MaxTD1= 5 Len=  102
 Symmetrizing basis deriv contribution to polar:
 IMax=3 JMax=2 DiffMx= 0.00D+00
 Calling FoFCou, ICntrl=  3107 FMM=F I1Cent=   0 AccDes= 0.00D+00.
 End of G2Drv F.D. properties file   721 does not exist.
 End of G2Drv F.D. properties file   722 does not exist.
 End of G2Drv F.D. properties file   788 does not exist.
          IDoAtm=11111111111111111
 End of Minotr F.D. properties file   721 does not exist.
 End of Minotr F.D. properties file   722 does not exist.
 End of Minotr F.D. properties file   788 does not exist.

 **********************************************************************

            Population analysis using the SCF Density.

 **********************************************************************

 Orbital symmetries:
       Occupied  (A) (A) (A) (A) (A) (A) (A) (A) (A) (A) (A) (A)
                 (A) (A) (A) (A) (A) (A) (A) (A) (A) (A) (A) (A)
                 (A) (A) (A) (A) (A) (A) (A) (A) (A) (A) (A) (A)
                 (A) (A) (A) (A) (A) (A) (A) (A) (A) (A) (A) (A)
                 (A) (A) (A) (A) (A)
       Virtual   (A) (A) (A) (A) (A) (A) (A) (A) (A) (A) (A) (A)
                 (A) (A) (A) (A) (A) (A) (A) (A) (A) (A) (A) (A)
                 (A) (A) (A) (A) (A) (A) (A) (A) (A) (A) (A) (A)
                 (A) (A) (A) (A) (A) (A) (A) (A) (A) (A) (A) (A)
                 (A) (A) (A) (A) (A) (A) (A) (A) (A) (A) (A) (A)
                 (A) (A) (A) (A) (A) (A) (A) (A) (A) (A) (A) (A)
                 (A) (A) (A) (A) (A) (A) (A) (A) (A) (A) (A) (A)
                 (A) (A) (A) (A) (A) (A) (A) (A) (A) (A) (A) (A)
                 (A) (A) (A) (A) (A) (A) (A) (A) (A)
 The electronic state is 1-A.
 Alpha  occ. eigenvalues -- -101.67945-101.67942-101.67942-101.67940 -10.36889
 Alpha  occ. eigenvalues --  -10.36888 -10.36886 -10.36882 -10.36578  -9.58707
 Alpha  occ. eigenvalues --   -9.58704  -9.58704  -9.58703  -7.34091  -7.34089
 Alpha  occ. eigenvalues --   -7.34088  -7.34087  -7.33126  -7.33124  -7.33124
 Alpha  occ. eigenvalues --   -7.33123  -7.33091  -7.33088  -7.33088  -7.33087
 Alpha  occ. eigenvalues --   -1.01523  -0.96331  -0.95749  -0.95749  -0.88458
 Alpha  occ. eigenvalues --   -0.78486  -0.78485  -0.76488  -0.65531  -0.61180
 Alpha  occ. eigenvalues --   -0.58371  -0.58371  -0.56165  -0.53745  -0.51079
 Alpha  occ. eigenvalues --   -0.51078  -0.49898  -0.47740  -0.47740  -0.47110
 Alpha  occ. eigenvalues --   -0.41439  -0.40055  -0.40055  -0.39477  -0.38795
 Alpha  occ. eigenvalues --   -0.38029  -0.38028  -0.37953
 Alpha virt. eigenvalues --    0.09856   0.10039   0.10479   0.10480   0.15497
 Alpha virt. eigenvalues --    0.16379   0.16379   0.16901   0.18580   0.21192
 Alpha virt. eigenvalues --    0.22469   0.22469   0.25023   0.25680   0.27429
 Alpha virt. eigenvalues --    0.27429   0.45444   0.46351   0.47812   0.47850
 Alpha virt. eigenvalues --    0.47851   0.52606   0.52606   0.56701   0.60232
 Alpha virt. eigenvalues --    0.61951   0.62504   0.65188   0.65189   0.66647
 Alpha virt. eigenvalues --    0.66647   0.69885   0.71936   0.72841   0.72842
 Alpha virt. eigenvalues --    0.73555   0.74474   0.74765   0.74765   0.77151
 Alpha virt. eigenvalues --    0.77908   0.77909   0.78019   0.79980   0.83716
 Alpha virt. eigenvalues --    0.85066   0.86128   0.86128   0.86215   0.87170
 Alpha virt. eigenvalues --    0.88342   0.88342   0.88479   0.90129   0.90130
 Alpha virt. eigenvalues --    0.90207   0.90450   0.91655   0.93372   0.93423
 Alpha virt. eigenvalues --    0.93423   0.96381   1.00474   1.00475   1.06801
 Alpha virt. eigenvalues --    1.10955   1.12417   1.14947   1.14947   1.18431
 Alpha virt. eigenvalues --    1.18432   1.19714   1.19949   1.27045   1.27047
 Alpha virt. eigenvalues --    1.27893   1.42234   1.42367   1.42447   1.42449
 Alpha virt. eigenvalues --    1.51727   1.57372   1.79222   1.79222   1.82055
 Alpha virt. eigenvalues --    1.85928   1.88453   1.88453   2.07424   2.07424
 Alpha virt. eigenvalues --    2.08448   2.09967   2.10379   2.19746   2.20213
 Alpha virt. eigenvalues --    2.20214   2.24470   2.27509   2.27509   2.32033
 Alpha virt. eigenvalues --    2.57757   2.59814   2.73545   2.73545   2.73840
          Condensed to atoms (all electrons):
 Mulliken charges:
               1
     1  Cl  -0.143105
     2  C   -0.129768
     3  C   -0.281027
     4  C   -0.129832
     5  Cl  -0.143123
     6  C   -0.129808
     7  Cl  -0.143097
     8  C   -0.129860
     9  Cl  -0.143105
    10  H    0.171161
    11  H    0.172003
    12  H    0.171199
    13  H    0.172004
    14  H    0.171179
    15  H    0.171990
    16  H    0.172001
    17  H    0.171188
 Sum of Mulliken charges =   0.00000
 Mulliken charges with hydrogens summed into heavy atoms:
               1
     1  Cl  -0.143105
     2  C    0.213396
     3  C   -0.281027
     4  C    0.213372
     5  Cl  -0.143123
     6  C    0.213361
     7  Cl  -0.143097
     8  C    0.213330
     9  Cl  -0.143105
 APT charges:
               1
     1  Cl  -0.294620
     2  C    0.266709
     3  C   -0.059784
     4  C    0.267181
     5  Cl  -0.295167
     6  C    0.267217
     7  Cl  -0.293714
     8  C    0.267175
     9  Cl  -0.294299
    10  H    0.027208
    11  H    0.016013
    12  H    0.026551
    13  H    0.015127
    14  H    0.026711
    15  H    0.016183
    16  H    0.016160
    17  H    0.025350
 Sum of APT charges =   0.00000
 APT charges with hydrogens summed into heavy atoms:
               1
     1  Cl  -0.294620
     2  C    0.309930
     3  C   -0.059784
     4  C    0.308859
     5  Cl  -0.295167
     6  C    0.310111
     7  Cl  -0.293714
     8  C    0.308685
     9  Cl  -0.294299
 Electronic spatial extent (au):  <R**2>=           2424.0355
 Charge=              0.0000 electrons
 Dipole moment (field-independent basis, Debye):
    X=              0.0003    Y=             -0.0001    Z=              0.0005  Tot=              0.0006
  Exact polarizability:  91.388  -0.387  82.303   1.350  -0.052  82.449
 Approx polarizability: 101.671  -0.214  96.597   0.753  -0.032  96.700
 Evaluate density.
 Using the total density.
 Monte-Carlo method of calculating molar volume:
 based on  0.001 e/bohr**3 density envelope.
 Number of points per bohr**3 =  100 CutOff= 1.00D-04
 Using the SCF density.
 There are      2294 points.  Will hold      2294 in memory.
 LenV=  1048157137 MDV=  1048576000.
 Box volume =12080.798 fraction occupied=0.115
 Integrated density= 8.5636409872355713D+01 error=-2.0363590127644287D+01
 Molar volume = 1385.026 bohr**3/mol (123.598 cm**3/mol)
 Recommended a0 for SCRF calculation =  4.53 angstrom (  8.56 bohr)
   1 Symmetry operations used in ECPInt.
 ECPInt:  NShTT=    3081 NPrTT=   13711 LenC2=    2992 LenP2D=    9821.
 LDataN:  DoStor=T MaxTD1= 6 Len=  172
 Calling FoFJK, ICntrl=    100127 FMM=F ISym2X=0 I1Cent= 0 IOpClX= 0 NMat=1 NMatS=1 NMatT=0.
 FormGI is forming the generalized inverse of G from B-inverse, IUseBI=4.

 GradGradGradGradGradGradGradGradGradGradGradGradGradGradGradGradGradGrad
 Internal  Forces:  Max     0.000142136 RMS     0.000037163
 Step number   1 out of a maximum of   92
 All quantities printed in internal units (Hartrees-Bohrs-Radians)
 Mixed Optimization -- En-DIIS/RFO-DIIS
 Second derivative matrix not updated -- analytic derivatives used.
 ITU=  0
     Eigenvalues ---    0.00281   0.00589   0.00606   0.00661   0.04635
     Eigenvalues ---    0.04642   0.04690   0.04738   0.05465   0.05586
     Eigenvalues ---    0.05646   0.06561   0.06594   0.06688   0.06711
     Eigenvalues ---    0.12404   0.12520   0.12595   0.13529   0.14063
     Eigenvalues ---    0.14513   0.14581   0.14742   0.17535   0.18326
     Eigenvalues ---    0.22436   0.22994   0.23095   0.23228   0.24319
     Eigenvalues ---    0.24359   0.24724   0.25882   0.32095   0.32442
     Eigenvalues ---    0.33005   0.35011   0.35058   0.35073   0.35105
     Eigenvalues ---    0.35250   0.35455   0.35649   0.35855   0.36812
 Linear search not attempted -- first point.
 Iteration  1 RMS(Cart)=  0.00088047 RMS(Int)=  0.00000042
 Iteration  2 RMS(Cart)=  0.00000043 RMS(Int)=  0.00000004
 Variable       Old X    -DE/DX   Delta X   Delta X   Delta X     New X
                                 (Linear)    (Quad)   (Total)
    R1        3.39329   0.00007   0.00000   0.00013   0.00013   3.39343
    R2        2.90792   0.00002   0.00000  -0.00006  -0.00006   2.90786
    R3        2.07559   0.00003   0.00000   0.00010   0.00010   2.07569
    R4        2.07742  -0.00001   0.00000  -0.00002  -0.00002   2.07740
    R5        2.90792  -0.00001   0.00000   0.00004   0.00004   2.90796
    R6        2.90792   0.00004   0.00000   0.00008   0.00008   2.90800
    R7        2.90792   0.00006   0.00000  -0.00000  -0.00000   2.90792
    R8        3.39329  -0.00000   0.00000   0.00007   0.00007   3.39336
    R9        2.07559  -0.00002   0.00000  -0.00003  -0.00003   2.07556
   R10        2.07742  -0.00002   0.00000  -0.00005  -0.00005   2.07737
   R11        3.39329   0.00002   0.00000   0.00007   0.00007   3.39336
   R12        2.07559  -0.00001   0.00000  -0.00002  -0.00002   2.07557
   R13        2.07742   0.00001   0.00000   0.00002   0.00002   2.07744
   R14        3.39329   0.00005   0.00000   0.00017   0.00017   3.39346
   R15        2.07742  -0.00001   0.00000  -0.00002  -0.00002   2.07740
   R16        2.07559  -0.00002   0.00000  -0.00003  -0.00003   2.07556
    A1        1.98430   0.00014   0.00000   0.00049   0.00049   1.98479
    A2        1.86679  -0.00001   0.00000   0.00033   0.00033   1.86713
    A3        1.85994  -0.00006   0.00000  -0.00014  -0.00014   1.85980
    A4        1.92971  -0.00011   0.00000  -0.00077  -0.00077   1.92894
    A5        1.91683   0.00002   0.00000   0.00023   0.00023   1.91706
    A6        1.90335   0.00001   0.00000  -0.00014  -0.00014   1.90321
    A7        1.89578  -0.00006   0.00000  -0.00056  -0.00056   1.89522
    A8        1.89578  -0.00001   0.00000  -0.00012  -0.00012   1.89566
    A9        1.94057   0.00008   0.00000   0.00071   0.00071   1.94129
   A10        1.94057   0.00003   0.00000   0.00007   0.00007   1.94064
   A11        1.89578  -0.00000   0.00000  -0.00005  -0.00005   1.89574
   A12        1.89578  -0.00003   0.00000  -0.00004  -0.00004   1.89574
   A13        1.98430  -0.00005   0.00000  -0.00010  -0.00010   1.98420
   A14        1.92971   0.00004   0.00000   0.00016   0.00016   1.92987
   A15        1.91683   0.00004   0.00000   0.00031   0.00031   1.91715
   A16        1.86679  -0.00001   0.00000  -0.00020  -0.00020   1.86659
   A17        1.85994   0.00001   0.00000  -0.00002  -0.00002   1.85992
   A18        1.90334  -0.00003   0.00000  -0.00018  -0.00018   1.90317
   A19        1.98430   0.00007   0.00000   0.00021   0.00021   1.98451
   A20        1.92971  -0.00001   0.00000  -0.00008  -0.00008   1.92962
   A21        1.91684  -0.00001   0.00000  -0.00000  -0.00000   1.91683
   A22        1.86679  -0.00003   0.00000  -0.00016  -0.00016   1.86664
   A23        1.85994  -0.00002   0.00000   0.00001   0.00001   1.85995
   A24        1.90334   0.00001   0.00000   0.00002   0.00002   1.90336
   A25        1.98430   0.00008   0.00000   0.00023   0.00023   1.98453
   A26        1.91683   0.00005   0.00000   0.00046   0.00046   1.91729
   A27        1.92971  -0.00004   0.00000  -0.00030  -0.00030   1.92940
   A28        1.85994  -0.00004   0.00000   0.00002   0.00002   1.85996
   A29        1.86679  -0.00003   0.00000  -0.00020  -0.00020   1.86660
   A30        1.90335  -0.00002   0.00000  -0.00023  -0.00023   1.90312
    D1        3.11734   0.00002   0.00000   0.00083   0.00083   3.11817
    D2       -1.05292   0.00001   0.00000   0.00050   0.00050  -1.05242
    D3        1.03221   0.00001   0.00000   0.00081   0.00081   1.03302
    D4       -1.06586   0.00003   0.00000   0.00104   0.00104  -1.06482
    D5        1.04707   0.00002   0.00000   0.00071   0.00071   1.04778
    D6        3.13220   0.00002   0.00000   0.00102   0.00102   3.13322
    D7        1.03537  -0.00002   0.00000   0.00052   0.00052   1.03589
    D8       -3.13489  -0.00003   0.00000   0.00020   0.00020  -3.13469
    D9       -1.04976  -0.00002   0.00000   0.00050   0.00050  -1.04926
   D10        1.05292  -0.00004   0.00000   0.00012   0.00012   1.05304
   D11       -1.04707  -0.00002   0.00000   0.00033   0.00033  -1.04673
   D12        3.13489  -0.00003   0.00000   0.00025   0.00025   3.13515
   D13       -1.03221  -0.00000   0.00000   0.00058   0.00058  -1.03163
   D14       -3.13220   0.00002   0.00000   0.00080   0.00080  -3.13140
   D15        1.04976   0.00001   0.00000   0.00072   0.00072   1.05048
   D16       -3.11734   0.00002   0.00000   0.00062   0.00062  -3.11672
   D17        1.06586   0.00004   0.00000   0.00084   0.00084   1.06669
   D18       -1.03537   0.00002   0.00000   0.00076   0.00076  -1.03461
   D19       -3.11734   0.00004   0.00000   0.00079   0.00079  -3.11655
   D20        1.06586   0.00004   0.00000   0.00091   0.00091   1.06677
   D21       -1.03537   0.00005   0.00000   0.00094   0.00094  -1.03442
   D22       -1.03221  -0.00003   0.00000   0.00007   0.00007  -1.03214
   D23       -3.13220  -0.00002   0.00000   0.00019   0.00019  -3.13201
   D24        1.04976  -0.00001   0.00000   0.00022   0.00022   1.04998
   D25        1.05292  -0.00003   0.00000   0.00002   0.00002   1.05294
   D26       -1.04707  -0.00003   0.00000   0.00014   0.00014  -1.04693
   D27        3.13489  -0.00002   0.00000   0.00018   0.00018   3.13507
   D28        1.03221  -0.00000   0.00000  -0.00074  -0.00074   1.03147
   D29       -1.04976  -0.00004   0.00000  -0.00123  -0.00123  -1.05100
   D30        3.13220  -0.00002   0.00000  -0.00105  -0.00105   3.13115
   D31       -1.05292   0.00003   0.00000  -0.00045  -0.00045  -1.05337
   D32       -3.13489  -0.00000   0.00000  -0.00095  -0.00095  -3.13584
   D33        1.04707   0.00001   0.00000  -0.00076  -0.00076   1.04630
   D34        3.11734   0.00001   0.00000  -0.00048  -0.00048   3.11686
   D35        1.03537  -0.00002   0.00000  -0.00097  -0.00097   1.03439
   D36       -1.06586  -0.00001   0.00000  -0.00079  -0.00079  -1.06665
         Item               Value     Threshold  Converged?
 Maximum Force            0.000142     0.000015     NO 
 RMS     Force            0.000037     0.000010     NO 
 Maximum Displacement     0.003198     0.000060     NO 
 RMS     Displacement     0.000881     0.000040     NO 
 GradGradGradGradGradGradGradGradGradGradGradGradGradGradGradGradGradGrad

                    Distance matrix (angstroms):
                    1          2          3          4          5
     1  Cl   0.000000
     2  C    1.795724   0.000000
     3  C    2.795632   1.538775   0.000000
     4  C    4.146846   2.499089   1.538829   0.000000
     5  Cl   4.837644   3.166028   2.795115   1.795690   0.000000
     6  C    3.166856   2.499498   1.538846   2.539285   3.205064
     7  Cl   4.839354   4.146896   2.795403   3.205771   3.959200
     8  C    3.207371   2.539770   1.538805   2.499574   4.146792
     9  Cl   3.961326   3.206095   2.795434   3.167278   4.839437
    10  H    2.362854   1.098410   2.181579   2.749586   2.722051
    11  H    2.357607   1.099312   2.173598   2.725893   3.514646
    12  H    4.428821   2.741772   2.182246   1.098339   2.362345
    13  H    4.960149   3.461889   2.173696   1.099297   2.357666
    14  H    2.724871   2.751594   2.182089   3.495915   4.204591
    15  H    3.513794   2.725525   2.173507   2.782483   2.763342
    16  H    2.767210   2.783981   2.173793   3.462340   4.959827
    17  H    4.206975   3.496134   2.181890   2.741754   4.428032
                    6          7          8          9         10
     6  C    0.000000
     7  Cl   1.795689   0.000000
     8  C    2.499592   3.166968   0.000000
     9  Cl   4.147047   4.839232   1.795741   0.000000
    10  H    2.741983   4.428025   3.495998   4.205188   0.000000
    11  H    3.462179   4.959902   2.782968   2.764587   1.789708
    12  H    3.496022   4.205503   2.751848   2.725541   3.102435
    13  H    2.782969   2.764732   2.725959   3.514937   3.756291
    14  H    1.098345   2.362387   2.742266   4.428669   3.105007
    15  H    1.099333   2.357715   3.462159   4.959868   2.506893
    16  H    2.725998   3.514367   1.099313   2.357751   3.786902
    17  H    2.751441   2.724750   1.098340   2.362398   4.337464
                   11         12         13         14         15
    11  H    0.000000
    12  H    2.507510   0.000000
    13  H    3.738481   1.789613   0.000000
    14  H    3.757934   4.338056   3.785866   0.000000
    15  H    3.738324   3.785333   3.137293   1.789771   0.000000
    16  H    3.138106   3.758553   3.738529   2.507660   3.738685
    17  H    3.785640   3.104368   2.507083   3.104664   3.757814
                   16         17
    16  H    0.000000
    17  H    1.789595   0.000000
 Framework group  C1[X(C5H8Cl4)]
 Deg. of freedom    45
                         Standard orientation:                         
 ---------------------------------------------------------------------
 Center     Atomic      Atomic             Coordinates (Angstroms)
 Number     Number       Type             X           Y           Z
 ---------------------------------------------------------------------
      1         17           0       -1.971965   -1.780819   -0.869002
      2          6           0       -0.869382   -1.197019    0.422552
      3          6           0       -0.000297    0.000459   -0.000020
      4          6           0        0.868599    0.422848    1.197729
      5         17           0        1.972279   -0.868705    1.779354
      6          6           0        0.869805   -0.422196   -1.196821
      7         17           0        1.974105    0.868962   -1.778142
      8          6           0       -0.869334    1.197860   -0.423016
      9         17           0       -1.974248    1.779614    0.867493
     10          1           0       -0.237940   -2.047293    0.713789
     11          1           0       -1.505469   -0.914522    1.273477
     12          1           0        0.237889    0.712382    2.049036
     13          1           0        1.503882    1.274591    0.915944
     14          1           0        0.239722   -0.712084   -2.048479
     15          1           0        1.504772   -1.273829   -0.913854
     16          1           0       -1.503795    0.916054   -1.275385
     17          1           0       -0.238326    2.049128   -0.712020
 ---------------------------------------------------------------------
 Rotational constants (GHZ):           0.7719053           0.5509146           0.5506537
   158 basis functions,   305 primitive gaussians,   167 cartesian basis functions
    53 alpha electrons       53 beta electrons
       nuclear repulsion energy       840.1377189811 Hartrees.
 NAtoms=   17 NActive=   17 NUniq=   17 SFac= 1.00D+00 NAtFMM=   60 NAOKFM=F Big=F
 Nuclear repulsion after empirical dispersion term =      840.1246504869 Hartrees.
   1 Symmetry operations used in ECPInt.
 ECPInt:  NShTT=    3081 NPrTT=   13711 LenC2=    2992 LenP2D=    9821.
 LDataN:  DoStor=T MaxTD1= 4 Len=   56
 Initial guess from the checkpoint file:  "1.chk"
 B after Tr=    -0.000000   -0.000000   -0.000000
         Rot=    0.983985    0.161210   -0.075549   -0.008769 Ang=  20.54 deg.
     Accept linear search using points  1 and  2.
     Minimum is close to point  2 DX= -1.41D-07 DF=  0.00D+00 DXR=  1.41D-07 DFR=  0.00D+00 which will be used.
 SCF Done:  E(RwB97XD) =  -2035.36357681     a.u. after    2 cycles
            Convg  =    0.1344D-06                    11 Fock formations.
              S**2 =  0.0000                  -V/T =  2.0029
 DoSCS=F DFT=T ScalE2(SS,OS)=  1.000000  1.000000
 NROrb=    158 NOA=    53 NOB=    53 NVA=   105 NVB=   105

 **** Warning!!: The largest alpha MO coefficient is  0.10397900D+02

   1 Symmetry operations used in ECPInt.
 ECPInt:  NShTT=    3081 NPrTT=   13711 LenC2=    2992 LenP2D=    9821.
 LDataN:  DoStor=T MaxTD1= 5 Len=  102
 Symmetrizing basis deriv contribution to polar:
 IMax=3 JMax=2 DiffMx= 0.00D+00
 Calling FoFCou, ICntrl=  3107 FMM=F I1Cent=   0 AccDes= 0.00D+00.
 End of G2Drv F.D. properties file   721 does not exist.
 End of G2Drv F.D. properties file   722 does not exist.
 End of G2Drv F.D. properties file   788 does not exist.
          IDoAtm=11111111111111111
 End of Minotr F.D. properties file   721 does not exist.
 End of Minotr F.D. properties file   722 does not exist.
 End of Minotr F.D. properties file   788 does not exist.
   1 Symmetry operations used in ECPInt.
 ECPInt:  NShTT=    3081 NPrTT=   13711 LenC2=    2992 LenP2D=    9821.
 LDataN:  DoStor=T MaxTD1= 6 Len=  172
 Calling FoFJK, ICntrl=    100127 FMM=F ISym2X=0 I1Cent= 0 IOpClX= 0 NMat=1 NMatS=1 NMatT=0.
 FormGI is forming the generalized inverse of G from B-inverse, IUseBI=4.

 GradGradGradGradGradGradGradGradGradGradGradGradGradGradGradGradGradGrad
 Using GEDIIS/GDIIS optimizer.
 Internal  Forces:  Max     0.000150739 RMS     0.000037333
 Step number   2 out of a maximum of   92
 All quantities printed in internal units (Hartrees-Bohrs-Radians)
 Mixed Optimization -- En-DIIS/RFO-DIIS
 Swapping is turned off.
 Second derivative matrix not updated -- analytic derivatives used.
 Trust test= 8.09D+00 RLast= 4.47D-03 DXMaxT set to 1.50D-01
 ITU=  1  0
     Eigenvalues ---    0.00280   0.00581   0.00585   0.00707   0.04647
     Eigenvalues ---    0.04648   0.04662   0.04768   0.05573   0.05685
     Eigenvalues ---    0.05692   0.06540   0.06670   0.06716   0.06720
     Eigenvalues ---    0.12571   0.12581   0.12631   0.13412   0.14473
     Eigenvalues ---    0.14701   0.14708   0.14787   0.18090   0.18433
     Eigenvalues ---    0.22484   0.22960   0.22965   0.23171   0.24423
     Eigenvalues ---    0.24442   0.24802   0.26357   0.32939   0.33064
     Eigenvalues ---    0.33068   0.34973   0.35046   0.35054   0.35055
     Eigenvalues ---    0.35253   0.35943   0.35945   0.36064   0.37292
 En-DIIS/RFO-DIIS/Sim-DIIS IScMMF=       -3 using points:     2    1
 RFO step:  Lambda=-6.19733170D-07.
 DidBck=T Rises=F RFO-DIIS coefs:    0.50674    0.49326
 Iteration  1 RMS(Cart)=  0.00041198 RMS(Int)=  0.00000009
 Iteration  2 RMS(Cart)=  0.00000009 RMS(Int)=  0.00000002
 Variable       Old X    -DE/DX   Delta X   Delta X   Delta X     New X
                                 (Linear)    (Quad)   (Total)
    R1        3.39343  -0.00005  -0.00007   0.00004  -0.00003   3.39340
    R2        2.90786  -0.00003   0.00003  -0.00001   0.00002   2.90788
    R3        2.07569  -0.00003  -0.00005   0.00001  -0.00004   2.07565
    R4        2.07740   0.00001   0.00001   0.00000   0.00001   2.07741
    R5        2.90796   0.00000  -0.00002  -0.00001  -0.00003   2.90793
    R6        2.90800  -0.00005  -0.00004  -0.00003  -0.00006   2.90793
    R7        2.90792  -0.00008   0.00000  -0.00002  -0.00001   2.90791
    R8        3.39336   0.00003  -0.00003   0.00003  -0.00001   3.39336
    R9        2.07556   0.00003   0.00002   0.00002   0.00004   2.07560
   R10        2.07737   0.00002   0.00002   0.00000   0.00003   2.07740
   R11        3.39336  -0.00000  -0.00003   0.00003  -0.00000   3.39336
   R12        2.07557   0.00002   0.00001   0.00002   0.00003   2.07560
   R13        2.07744  -0.00001  -0.00001   0.00001  -0.00000   2.07743
   R14        3.39346  -0.00003  -0.00008   0.00003  -0.00005   3.39341
   R15        2.07740   0.00001   0.00001   0.00000   0.00001   2.07741
   R16        2.07556   0.00003   0.00002   0.00002   0.00003   2.07559
    A1        1.98479  -0.00015  -0.00024   0.00001  -0.00023   1.98456
    A2        1.86713   0.00001  -0.00016  -0.00000  -0.00017   1.86696
    A3        1.85980   0.00006   0.00007   0.00002   0.00009   1.85989
    A4        1.92894   0.00009   0.00038  -0.00008   0.00030   1.92924
    A5        1.91706  -0.00000  -0.00011   0.00010  -0.00002   1.91705
    A6        1.90321  -0.00001   0.00007  -0.00005   0.00002   1.90323
    A7        1.89522   0.00005   0.00028  -0.00005   0.00022   1.89545
    A8        1.89566  -0.00002   0.00006  -0.00009  -0.00003   1.89564
    A9        1.94129  -0.00002  -0.00035   0.00015  -0.00021   1.94108
   A10        1.94064   0.00003  -0.00003   0.00018   0.00015   1.94078
   A11        1.89574  -0.00003   0.00002  -0.00011  -0.00009   1.89565
   A12        1.89574   0.00000   0.00002  -0.00007  -0.00004   1.89570
   A13        1.98420   0.00007   0.00005   0.00005   0.00009   1.98429
   A14        1.92987  -0.00008  -0.00008  -0.00016  -0.00024   1.92962
   A15        1.91715  -0.00002  -0.00015   0.00010  -0.00006   1.91709
   A16        1.86659   0.00002   0.00010   0.00007   0.00018   1.86676
   A17        1.85992  -0.00002   0.00001   0.00001   0.00002   1.85994
   A18        1.90317   0.00003   0.00009  -0.00007   0.00002   1.90319
   A19        1.98451  -0.00007  -0.00010   0.00002  -0.00008   1.98442
   A20        1.92962  -0.00004   0.00004  -0.00015  -0.00011   1.92951
   A21        1.91683   0.00004   0.00000   0.00009   0.00009   1.91692
   A22        1.86664   0.00005   0.00008   0.00007   0.00014   1.86678
   A23        1.85995   0.00002  -0.00001   0.00002   0.00001   1.85997
   A24        1.90336  -0.00000  -0.00001  -0.00004  -0.00005   1.90332
   A25        1.98453  -0.00009  -0.00011   0.00000  -0.00011   1.98441
   A26        1.91729  -0.00002  -0.00023   0.00012  -0.00011   1.91719
   A27        1.92940  -0.00000   0.00015  -0.00015   0.00000   1.92941
   A28        1.85996   0.00005  -0.00001   0.00002   0.00001   1.85997
   A29        1.86660   0.00005   0.00010   0.00006   0.00015   1.86675
   A30        1.90312   0.00002   0.00011  -0.00006   0.00006   1.90317
    D1        3.11817  -0.00002  -0.00041   0.00000  -0.00040   3.11776
    D2       -1.05242   0.00002  -0.00025   0.00014  -0.00011  -1.05253
    D3        1.03302   0.00000  -0.00040   0.00009  -0.00031   1.03271
    D4       -1.06482  -0.00005  -0.00051  -0.00005  -0.00057  -1.06538
    D5        1.04778   0.00000  -0.00035   0.00008  -0.00027   1.04751
    D6        3.13322  -0.00002  -0.00050   0.00003  -0.00047   3.13275
    D7        1.03589  -0.00001  -0.00026  -0.00010  -0.00036   1.03554
    D8       -3.13469   0.00004  -0.00010   0.00003  -0.00006  -3.13476
    D9       -1.04926   0.00002  -0.00025  -0.00001  -0.00026  -1.04952
   D10        1.05304   0.00001  -0.00006   0.00002  -0.00004   1.05300
   D11       -1.04673  -0.00000  -0.00016   0.00001  -0.00016  -1.04689
   D12        3.13515   0.00002  -0.00012   0.00013   0.00001   3.13515
   D13       -1.03163  -0.00001  -0.00029   0.00005  -0.00024  -1.03187
   D14       -3.13140  -0.00003  -0.00039   0.00004  -0.00035  -3.13175
   D15        1.05048   0.00000  -0.00035   0.00016  -0.00019   1.05029
   D16       -3.11672  -0.00001  -0.00031   0.00009  -0.00021  -3.11693
   D17        1.06669  -0.00002  -0.00041   0.00009  -0.00033   1.06637
   D18       -1.03461   0.00000  -0.00037   0.00021  -0.00016  -1.03478
   D19       -3.11655  -0.00004  -0.00039  -0.00020  -0.00059  -3.11714
   D20        1.06677  -0.00004  -0.00045  -0.00019  -0.00064   1.06613
   D21       -1.03442  -0.00004  -0.00047  -0.00010  -0.00056  -1.03499
   D22       -1.03214   0.00002  -0.00003  -0.00021  -0.00024  -1.03239
   D23       -3.13201   0.00002  -0.00009  -0.00020  -0.00029  -3.13230
   D24        1.04998   0.00003  -0.00011  -0.00011  -0.00022   1.04976
   D25        1.05294  -0.00001  -0.00001  -0.00029  -0.00030   1.05265
   D26       -1.04693   0.00000  -0.00007  -0.00027  -0.00034  -1.04727
   D27        3.13507   0.00000  -0.00009  -0.00018  -0.00027   3.13480
   D28        1.03147   0.00002   0.00036   0.00010   0.00046   1.03193
   D29       -1.05100   0.00004   0.00061  -0.00002   0.00059  -1.05040
   D30        3.13115   0.00003   0.00052   0.00007   0.00059   3.13173
   D31       -1.05337   0.00000   0.00022   0.00015   0.00037  -1.05300
   D32       -3.13584   0.00001   0.00047   0.00003   0.00050  -3.13534
   D33        1.04630   0.00000   0.00038   0.00012   0.00049   1.04680
   D34        3.11686  -0.00001   0.00024   0.00004   0.00027   3.11714
   D35        1.03439  -0.00000   0.00048  -0.00008   0.00040   1.03480
   D36       -1.06665  -0.00001   0.00039   0.00001   0.00040  -1.06625
         Item               Value     Threshold  Converged?
 Maximum Force            0.000151     0.000015     NO 
 RMS     Force            0.000037     0.000010     NO 
 Maximum Displacement     0.001240     0.000060     NO 
 RMS     Displacement     0.000412     0.000040     NO 
 GradGradGradGradGradGradGradGradGradGradGradGradGradGradGradGradGradGrad

                    Distance matrix (angstroms):
                    1          2          3          4          5
     1  Cl   0.000000
     2  C    1.795710   0.000000
     3  C    2.795418   1.538785   0.000000
     4  C    4.146823   2.499282   1.538811   0.000000
     5  Cl   4.838136   3.166361   2.795182   1.795687   0.000000
     6  C    3.166599   2.499454   1.538812   2.539369   3.205463
     7  Cl   4.838750   4.146830   2.795302   3.205955   3.959936
     8  C    3.206647   2.539592   1.538797   2.499472   4.146770
     9  Cl   3.960970   3.205990   2.795304   3.166761   4.838878
    10  H    2.362691   1.098387   2.181786   2.750346   2.723097
    11  H    2.357674   1.099319   2.173600   2.725959   3.514663
    12  H    4.428627   2.741883   2.182069   1.098359   2.362495
    13  H    4.959943   3.462021   2.173652   1.099312   2.357690
    14  H    2.724103   2.751147   2.181989   3.495930   4.204855
    15  H    3.514162   2.725814   2.173540   2.782575   2.763824
    16  H    2.765885   2.783392   2.173714   3.462216   4.959805
    17  H    4.206099   3.496028   2.181899   2.741879   4.428194
                    6          7          8          9         10
     6  C    0.000000
     7  Cl   1.795689   0.000000
     8  C    2.499518   3.166589   0.000000
     9  Cl   4.146901   4.838720   1.795716   0.000000
    10  H    2.742060   4.428361   3.495983   4.205198   0.000000
    11  H    3.462138   4.959814   2.782858   2.764520   1.789710
    12  H    3.495978   4.205488   2.751372   2.724511   3.103255
    13  H    2.782960   2.764836   2.725873   3.514440   3.756976
    14  H    1.098360   2.362512   2.742253   4.428636   3.104411
    15  H    1.099330   2.357725   3.462136   4.959773   2.507346
    16  H    2.726023   3.514206   1.099319   2.357744   3.786355
    17  H    2.751184   2.724077   1.098357   2.362511   4.337603
                   11         12         13         14         15
    11  H    0.000000
    12  H    2.507498   0.000000
    13  H    3.738559   1.789656   0.000000
    14  H    3.757577   4.337855   3.785913   0.000000
    15  H    3.738540   3.785476   3.137174   1.789753   0.000000
    16  H    3.137552   3.757963   3.738530   2.507739   3.738748
    17  H    3.785688   3.104238   2.507215   3.104492   3.757568
                   16         17
    16  H    0.000000
    17  H    1.789650   0.000000
 Framework group  C1[X(C5H8Cl4)]
 Deg. of freedom    45
                         Standard orientation:                         
 ---------------------------------------------------------------------
 Center     Atomic      Atomic             Coordinates (Angstroms)
 Number     Number       Type             X           Y           Z
 ---------------------------------------------------------------------
      1         17           0       -1.972403   -1.821811   -0.777725
      2          6           0       -0.869386   -1.174255    0.482672
      3          6           0       -0.000148    0.000192    0.000013
      4          6           0        0.868970    0.482774    1.174614
      5         17           0        1.972669   -0.777577    1.821033
      6          6           0        0.869519   -0.482523   -1.174129
      7         17           0        1.973227    0.777759   -1.820673
      8          6           0       -0.869294    1.174649   -0.482825
      9         17           0       -1.973382    1.821216    0.777150
     10          1           0       -0.238334   -2.009160    0.816080
     11          1           0       -1.505143   -0.849046    1.318467
     12          1           0        0.238194    0.815300    2.010042
     13          1           0        1.504242    1.319077    0.849785
     14          1           0        0.239027   -0.815449   -2.009614
     15          1           0        1.504817   -1.318574   -0.848642
     16          1           0       -1.504290    0.849824   -1.319348
     17          1           0       -0.238354    2.010022   -0.815172
 ---------------------------------------------------------------------
 Rotational constants (GHZ):           0.7718494           0.5509022           0.5507862
   158 basis functions,   305 primitive gaussians,   167 cartesian basis functions
    53 alpha electrons       53 beta electrons
       nuclear repulsion energy       840.1551882720 Hartrees.
 NAtoms=   17 NActive=   17 NUniq=   17 SFac= 1.00D+00 NAtFMM=   60 NAOKFM=F Big=F
 Nuclear repulsion after empirical dispersion term =      840.1421202534 Hartrees.
   1 Symmetry operations used in ECPInt.
 ECPInt:  NShTT=    3081 NPrTT=   13711 LenC2=    2992 LenP2D=    9821.
 LDataN:  DoStor=T MaxTD1= 4 Len=   56
 Initial guess from the checkpoint file:  "1.chk"
 B after Tr=     0.000000    0.000000    0.000000
         Rot=    0.999680    0.025283   -0.000141    0.000055 Ang=   2.90 deg.
     Accept linear search using points  1 and  2.
     Minimum is close to point  2 DX= -3.43D-06 DF=  0.00D+00 DXR=  3.43D-06 DFR=  0.00D+00 which will be used.
 SCF Done:  E(RwB97XD) =  -2035.36358209     a.u. after    2 cycles
            Convg  =    0.5038D-07                    10 Fock formations.
              S**2 =  0.0000                  -V/T =  2.0029
 DoSCS=F DFT=T ScalE2(SS,OS)=  1.000000  1.000000
 NROrb=    158 NOA=    53 NOB=    53 NVA=   105 NVB=   105

 **** Warning!!: The largest alpha MO coefficient is  0.10389585D+02

   1 Symmetry operations used in ECPInt.
 ECPInt:  NShTT=    3081 NPrTT=   13711 LenC2=    2992 LenP2D=    9821.
 LDataN:  DoStor=T MaxTD1= 5 Len=  102
 Symmetrizing basis deriv contribution to polar:
 IMax=3 JMax=2 DiffMx= 0.00D+00
 Calling FoFCou, ICntrl=  3107 FMM=F I1Cent=   0 AccDes= 0.00D+00.
 End of G2Drv F.D. properties file   721 does not exist.
 End of G2Drv F.D. properties file   722 does not exist.
 End of G2Drv F.D. properties file   788 does not exist.
          IDoAtm=11111111111111111
 End of Minotr F.D. properties file   721 does not exist.
 End of Minotr F.D. properties file   722 does not exist.
 End of Minotr F.D. properties file   788 does not exist.
   1 Symmetry operations used in ECPInt.
 ECPInt:  NShTT=    3081 NPrTT=   13711 LenC2=    2992 LenP2D=    9821.
 LDataN:  DoStor=T MaxTD1= 6 Len=  172
 Calling FoFJK, ICntrl=    100127 FMM=F ISym2X=0 I1Cent= 0 IOpClX= 0 NMat=1 NMatS=1 NMatT=0.
 FormGI is forming the generalized inverse of G from B-inverse, IUseBI=4.

 GradGradGradGradGradGradGradGradGradGradGradGradGradGradGradGradGradGrad
 Using GEDIIS/GDIIS optimizer.
 Internal  Forces:  Max     0.000137202 RMS     0.000043291
 Step number   3 out of a maximum of   92
 All quantities printed in internal units (Hartrees-Bohrs-Radians)
 Mixed Optimization -- En-DIIS/RFO-DIIS
 Swapping is turned off.
 Second derivative matrix not updated -- analytic derivatives used.
 Trust test= 2.19D+01 RLast= 2.35D-03 DXMaxT set to 1.50D-01
 ITU=  1  1  0
     Eigenvalues ---    0.00291   0.00558   0.00564   0.00689   0.04635
     Eigenvalues ---    0.04637   0.04647   0.04746   0.05495   0.05639
     Eigenvalues ---    0.05642   0.06539   0.06657   0.06658   0.06672
     Eigenvalues ---    0.12499   0.12510   0.12529   0.13386   0.14347
     Eigenvalues ---    0.14453   0.14564   0.14581   0.17960   0.18082
     Eigenvalues ---    0.22416   0.22972   0.22977   0.23170   0.24209
     Eigenvalues ---    0.24230   0.24675   0.26048   0.32462   0.32577
     Eigenvalues ---    0.32581   0.34974   0.35047   0.35052   0.35053
     Eigenvalues ---    0.35246   0.35717   0.35720   0.35785   0.36662
 En-DIIS/RFO-DIIS/Sim-DIIS IScMMF=       -3 using points:     3    2    1
 RFO step:  Lambda=-1.15402864D-06.
 DidBck=T Rises=F RFO-DIIS coefs:    0.20512    0.36071    0.43417
 Iteration  1 RMS(Cart)=  0.00021230 RMS(Int)=  0.00000002
 Iteration  2 RMS(Cart)=  0.00000002 RMS(Int)=  0.00000001
 Variable       Old X    -DE/DX   Delta X   Delta X   Delta X     New X
                                 (Linear)    (Quad)   (Total)
    R1        3.39340  -0.00004  -0.00004   0.00003  -0.00000   3.39340
    R2        2.90788  -0.00000   0.00001  -0.00001   0.00000   2.90789
    R3        2.07565  -0.00002  -0.00001  -0.00000  -0.00001   2.07564
    R4        2.07741   0.00001  -0.00000   0.00000   0.00000   2.07741
    R5        2.90793   0.00001   0.00001  -0.00001  -0.00000   2.90793
    R6        2.90793  -0.00001   0.00002  -0.00002  -0.00000   2.90793
    R7        2.90791  -0.00002   0.00001  -0.00001   0.00000   2.90791
    R8        3.39336  -0.00001  -0.00003   0.00003   0.00000   3.39336
    R9        2.07560  -0.00000  -0.00001   0.00001  -0.00001   2.07559
   R10        2.07740   0.00002  -0.00000   0.00001   0.00000   2.07740
   R11        3.39336  -0.00002  -0.00003   0.00003   0.00000   3.39336
   R12        2.07560  -0.00001  -0.00001   0.00001  -0.00001   2.07559
   R13        2.07743   0.00000  -0.00000   0.00000   0.00000   2.07743
   R14        3.39341  -0.00003  -0.00003   0.00003  -0.00001   3.39341
   R15        2.07741   0.00001   0.00000   0.00000   0.00000   2.07741
   R16        2.07559  -0.00000  -0.00001   0.00001  -0.00000   2.07559
    A1        1.98456  -0.00005  -0.00003  -0.00001  -0.00004   1.98451
    A2        1.86696  -0.00002  -0.00001  -0.00003  -0.00004   1.86692
    A3        1.85989   0.00001  -0.00001  -0.00002  -0.00003   1.85986
    A4        1.92924   0.00011   0.00010   0.00004   0.00014   1.92938
    A5        1.91705  -0.00006  -0.00009  -0.00001  -0.00009   1.91695
    A6        1.90323   0.00001   0.00004   0.00003   0.00007   1.90330
    A7        1.89545   0.00008   0.00007   0.00002   0.00009   1.89554
    A8        1.89564   0.00006   0.00007  -0.00001   0.00007   1.89570
    A9        1.94108  -0.00014  -0.00015  -0.00001  -0.00016   1.94092
   A10        1.94078  -0.00012  -0.00014   0.00002  -0.00013   1.94066
   A11        1.89565   0.00005   0.00009  -0.00003   0.00007   1.89571
   A12        1.89570   0.00006   0.00005   0.00001   0.00006   1.89576
   A13        1.98429   0.00004  -0.00003   0.00002  -0.00001   1.98428
   A14        1.92962   0.00004   0.00012  -0.00003   0.00009   1.92972
   A15        1.91709  -0.00007  -0.00009  -0.00001  -0.00010   1.91699
   A16        1.86676  -0.00002  -0.00005   0.00003  -0.00002   1.86674
   A17        1.85994  -0.00002  -0.00001  -0.00003  -0.00004   1.85991
   A18        1.90319   0.00003   0.00006   0.00001   0.00007   1.90326
   A19        1.98442  -0.00002  -0.00003  -0.00000  -0.00003   1.98440
   A20        1.92951   0.00006   0.00013  -0.00002   0.00011   1.92962
   A21        1.91692  -0.00004  -0.00007  -0.00001  -0.00008   1.91684
   A22        1.86678  -0.00001  -0.00005   0.00003  -0.00002   1.86676
   A23        1.85997  -0.00000  -0.00002  -0.00003  -0.00004   1.85993
   A24        1.90332   0.00001   0.00003   0.00003   0.00006   1.90338
   A25        1.98441  -0.00002  -0.00001  -0.00002  -0.00002   1.98439
   A26        1.91719  -0.00007  -0.00012   0.00001  -0.00011   1.91708
   A27        1.92941   0.00007   0.00013  -0.00001   0.00012   1.92953
   A28        1.85997   0.00001  -0.00002  -0.00002  -0.00004   1.85993
   A29        1.86675  -0.00001  -0.00004   0.00002  -0.00002   1.86673
   A30        1.90317   0.00002   0.00005   0.00002   0.00007   1.90325
    D1        3.11776  -0.00000  -0.00004  -0.00008  -0.00012   3.11764
    D2       -1.05253  -0.00006  -0.00013  -0.00005  -0.00018  -1.05271
    D3        1.03271  -0.00004  -0.00011  -0.00006  -0.00016   1.03255
    D4       -1.06538   0.00001  -0.00000  -0.00010  -0.00010  -1.06548
    D5        1.04751  -0.00005  -0.00009  -0.00007  -0.00016   1.04735
    D6        3.13275  -0.00002  -0.00007  -0.00007  -0.00014   3.13261
    D7        1.03554   0.00005   0.00006  -0.00004   0.00001   1.03555
    D8       -3.13476  -0.00001  -0.00004  -0.00001  -0.00004  -3.13480
    D9       -1.04952   0.00002  -0.00001  -0.00002  -0.00003  -1.04955
   D10        1.05300   0.00008  -0.00002   0.00014   0.00012   1.05312
   D11       -1.04689   0.00005  -0.00002   0.00011   0.00009  -1.04680
   D12        3.13515   0.00003  -0.00012   0.00011  -0.00000   3.13515
   D13       -1.03187   0.00003  -0.00006   0.00012   0.00006  -1.03181
   D14       -3.13175  -0.00000  -0.00007   0.00009   0.00002  -3.13173
   D15        1.05029  -0.00002  -0.00016   0.00009  -0.00007   1.05022
   D16       -3.11693  -0.00001  -0.00010   0.00012   0.00002  -3.11691
   D17        1.06637  -0.00004  -0.00010   0.00009  -0.00002   1.06635
   D18       -1.03478  -0.00005  -0.00020   0.00009  -0.00010  -1.03488
   D19       -3.11714  -0.00002   0.00012  -0.00009   0.00004  -3.11710
   D20        1.06613  -0.00005   0.00011  -0.00011   0.00000   1.06613
   D21       -1.03499  -0.00007   0.00004  -0.00013  -0.00009  -1.03508
   D22       -1.03239   0.00004   0.00017  -0.00005   0.00011  -1.03227
   D23       -3.13230   0.00002   0.00015  -0.00007   0.00008  -3.13223
   D24        1.04976  -0.00001   0.00008  -0.00009  -0.00001   1.04975
   D25        1.05265   0.00007   0.00023  -0.00007   0.00015   1.05280
   D26       -1.04727   0.00005   0.00021  -0.00009   0.00012  -1.04715
   D27        3.13480   0.00003   0.00014  -0.00011   0.00003   3.13483
   D28        1.03193  -0.00003  -0.00005  -0.00002  -0.00007   1.03186
   D29       -1.05040   0.00003   0.00007   0.00001   0.00007  -1.05033
   D30        3.13173   0.00000  -0.00001  -0.00001  -0.00002   3.13171
   D31       -1.05300  -0.00007  -0.00010  -0.00003  -0.00013  -1.05313
   D32       -3.13534  -0.00002   0.00001   0.00000   0.00002  -3.13532
   D33        1.04680  -0.00004  -0.00006  -0.00002  -0.00008   1.04672
   D34        3.11714  -0.00000  -0.00001  -0.00004  -0.00005   3.11709
   D35        1.03480   0.00006   0.00010  -0.00001   0.00010   1.03490
   D36       -1.06625   0.00003   0.00003  -0.00003  -0.00000  -1.06625
         Item               Value     Threshold  Converged?
 Maximum Force            0.000137     0.000015     NO 
 RMS     Force            0.000043     0.000010     NO 
 Maximum Displacement     0.000623     0.000060     NO 
 RMS     Displacement     0.000212     0.000040     NO 
 GradGradGradGradGradGradGradGradGradGradGradGradGradGradGradGradGradGrad

                    Distance matrix (angstroms):
                    1          2          3          4          5
     1  Cl   0.000000
     2  C    1.795708   0.000000
     3  C    2.795379   1.538787   0.000000
     4  C    4.146851   2.499364   1.538811   0.000000
     5  Cl   4.838333   3.166535   2.795173   1.795688   0.000000
     6  C    3.166742   2.499515   1.538811   2.539259   3.205267
     7  Cl   4.838865   4.146856   2.795277   3.205704   3.959537
     8  C    3.206307   2.539455   1.538798   2.499530   4.146804
     9  Cl   3.960432   3.205728   2.795280   3.166888   4.838986
    10  H    2.362652   1.098381   2.181886   2.750614   2.723513
    11  H    2.357647   1.099321   2.173535   2.725987   3.514869
    12  H    4.428719   2.742022   2.182134   1.098356   2.362479
    13  H    4.959855   3.462040   2.173581   1.099315   2.357662
    14  H    2.724387   2.751311   2.182063   3.495896   4.204715
    15  H    3.514435   2.725864   2.173482   2.782362   2.763475
    16  H    2.765298   2.783092   2.173637   3.462211   4.959735
    17  H    4.205813   3.495982   2.181983   2.742015   4.428334
                    6          7          8          9         10
     6  C    0.000000
     7  Cl   1.795690   0.000000
     8  C    2.499571   3.166727   0.000000
     9  Cl   4.146919   4.838841   1.795713   0.000000
    10  H    2.742178   4.428488   3.495944   4.205018   0.000000
    11  H    3.462141   4.959741   2.782616   2.764091   1.789751
    12  H    3.495938   4.205278   2.751515   2.724757   3.103512
    13  H    2.782708   2.764378   2.725911   3.514675   3.757205
    14  H    1.098358   2.362495   2.742353   4.428728   3.104518
    15  H    1.099331   2.357691   3.462140   4.959705   2.507471
    16  H    2.726042   3.514450   1.099320   2.357709   3.786078
    17  H    2.751350   2.724365   1.098354   2.362493   4.337723
                   11         12         13         14         15
    11  H    0.000000
    12  H    2.507600   0.000000
    13  H    3.738544   1.789702   0.000000
    14  H    3.757727   4.337944   3.785688   0.000000
    15  H    3.738530   3.785295   3.136857   1.789789   0.000000
    16  H    3.137202   3.758073   3.738517   2.507815   3.738713
    17  H    3.785485   3.104371   2.507347   3.104609   3.757721
                   16         17
    16  H    0.000000
    17  H    1.789696   0.000000
 Framework group  C1[X(C5H8Cl4)]
 Deg. of freedom    45
                         Standard orientation:                         
 ---------------------------------------------------------------------
 Center     Atomic      Atomic             Coordinates (Angstroms)
 Number     Number       Type             X           Y           Z
 ---------------------------------------------------------------------
      1         17           0       -1.972666   -1.818188   -0.785363
      2          6           0       -0.869463   -1.176229    0.477728
      3          6           0       -0.000128    0.000168    0.000014
      4          6           0        0.869104    0.477814    1.176546
      5         17           0        1.972907   -0.785232    1.817505
      6          6           0        0.869583   -0.477596   -1.176117
      7         17           0        1.973380    0.785396   -1.817198
      8          6           0       -0.869383    1.176576   -0.477856
      9         17           0       -1.973530    1.817664    0.784860
     10          1           0       -0.238610   -2.012704    0.807539
     11          1           0       -1.505152   -0.854394    1.314883
     12          1           0        0.238494    0.806847    2.013478
     13          1           0        1.504366    1.315414    0.855047
     14          1           0        0.239221   -0.806992   -2.013094
     15          1           0        1.504877   -1.314968   -0.854035
     16          1           0       -1.504400    0.855085   -1.315652
     17          1           0       -0.238627    2.013458   -0.806728
 ---------------------------------------------------------------------
 Rotational constants (GHZ):           0.7720127           0.5508644           0.5507634
   158 basis functions,   305 primitive gaussians,   167 cartesian basis functions
    53 alpha electrons       53 beta electrons
       nuclear repulsion energy       840.1639404113 Hartrees.
 NAtoms=   17 NActive=   17 NUniq=   17 SFac= 1.00D+00 NAtFMM=   60 NAOKFM=F Big=F
 Nuclear repulsion after empirical dispersion term =      840.1508727088 Hartrees.
   1 Symmetry operations used in ECPInt.
 ECPInt:  NShTT=    3081 NPrTT=   13711 LenC2=    2992 LenP2D=    9821.
 LDataN:  DoStor=T MaxTD1= 4 Len=   56
 Initial guess from the checkpoint file:  "1.chk"
 B after Tr=    -0.000000   -0.000000   -0.000000
         Rot=    0.999998   -0.002123   -0.000011    0.000006 Ang=  -0.24 deg.
     Accept linear search using points  1 and  2.
     Minimum is close to point  2 DX= -1.16D-05 DF=  0.00D+00 DXR=  1.16D-05 DFR=  0.00D+00 which will be used.
 SCF Done:  E(RwB97XD) =  -2035.36358222     a.u. after    2 cycles
            Convg  =    0.6163D-07                     9 Fock formations.
              S**2 =  0.0000                  -V/T =  2.0029
 DoSCS=F DFT=T ScalE2(SS,OS)=  1.000000  1.000000
 NROrb=    158 NOA=    53 NOB=    53 NVA=   105 NVB=   105

 **** Warning!!: The largest alpha MO coefficient is  0.10392892D+02

   1 Symmetry operations used in ECPInt.
 ECPInt:  NShTT=    3081 NPrTT=   13711 LenC2=    2992 LenP2D=    9821.
 LDataN:  DoStor=T MaxTD1= 5 Len=  102
 Symmetrizing basis deriv contribution to polar:
 IMax=3 JMax=2 DiffMx= 0.00D+00
 Calling FoFCou, ICntrl=  3107 FMM=F I1Cent=   0 AccDes= 0.00D+00.
 End of G2Drv F.D. properties file   721 does not exist.
 End of G2Drv F.D. properties file   722 does not exist.
 End of G2Drv F.D. properties file   788 does not exist.
          IDoAtm=11111111111111111
 End of Minotr F.D. properties file   721 does not exist.
 End of Minotr F.D. properties file   722 does not exist.
 End of Minotr F.D. properties file   788 does not exist.
   1 Symmetry operations used in ECPInt.
 ECPInt:  NShTT=    3081 NPrTT=   13711 LenC2=    2992 LenP2D=    9821.
 LDataN:  DoStor=T MaxTD1= 6 Len=  172
 Calling FoFJK, ICntrl=    100127 FMM=F ISym2X=0 I1Cent= 0 IOpClX= 0 NMat=1 NMatS=1 NMatT=0.
 FormGI is forming the generalized inverse of G from B-inverse, IUseBI=4.

 GradGradGradGradGradGradGradGradGradGradGradGradGradGradGradGradGradGrad
 Using GEDIIS/GDIIS optimizer.
 Internal  Forces:  Max     0.000102831 RMS     0.000032683
 Step number   4 out of a maximum of   92
 All quantities printed in internal units (Hartrees-Bohrs-Radians)
 Mixed Optimization -- En-DIIS/RFO-DIIS
 Swapping is turned off.
 Second derivative matrix not updated -- analytic derivatives used.
 Trust test= 6.47D-01 RLast= 6.86D-04 DXMaxT set to 1.50D-01
 ITU=  0  1  1  0
     Eigenvalues ---    0.00289   0.00551   0.00556   0.00690   0.04634
     Eigenvalues ---    0.04636   0.04640   0.04748   0.05485   0.05646
     Eigenvalues ---    0.05649   0.06519   0.06662   0.06664   0.06666
     Eigenvalues ---    0.12490   0.12500   0.12528   0.13344   0.14357
     Eigenvalues ---    0.14436   0.14566   0.14580   0.18025   0.18052
     Eigenvalues ---    0.22416   0.22959   0.22963   0.23161   0.24201
     Eigenvalues ---    0.24219   0.24683   0.26077   0.32452   0.32612
     Eigenvalues ---    0.32617   0.34969   0.35046   0.35052   0.35053
     Eigenvalues ---    0.35246   0.35734   0.35737   0.35806   0.36688
 En-DIIS/RFO-DIIS/Sim-DIIS IScMMF=       -3 using points:     4    3    2    1
 RFO step:  Lambda=-6.54806557D-07.
 DIIS inversion failure, remove point   4.
 DIIS inversion failure, remove point   3.
 RFO-DIIS uses    2 points instead of    4
 DidBck=F Rises=F RFO-DIIS coefs:    3.00000   -2.00000    0.00000    0.00000
 Iteration  1 RMS(Cart)=  0.00071586 RMS(Int)=  0.00000021
 Iteration  2 RMS(Cart)=  0.00000023 RMS(Int)=  0.00000004
 Variable       Old X    -DE/DX   Delta X   Delta X   Delta X     New X
                                 (Linear)    (Quad)   (Total)
    R1        3.39340  -0.00003  -0.00001  -0.00005  -0.00006   3.39334
    R2        2.90789  -0.00000   0.00001   0.00002   0.00003   2.90792
    R3        2.07564  -0.00002  -0.00002  -0.00003  -0.00006   2.07558
    R4        2.07741   0.00001   0.00001   0.00001   0.00001   2.07743
    R5        2.90793   0.00001  -0.00000  -0.00001  -0.00001   2.90792
    R6        2.90793  -0.00001  -0.00000  -0.00001  -0.00002   2.90791
    R7        2.90791  -0.00002   0.00000   0.00001   0.00001   2.90792
    R8        3.39336  -0.00000   0.00000  -0.00002  -0.00002   3.39334
    R9        2.07559  -0.00000  -0.00001   0.00000  -0.00001   2.07558
   R10        2.07740   0.00001   0.00001   0.00002   0.00002   2.07743
   R11        3.39336  -0.00001   0.00000  -0.00003  -0.00002   3.39334
   R12        2.07559  -0.00000  -0.00001   0.00000  -0.00001   2.07558
   R13        2.07743   0.00000   0.00000  -0.00001  -0.00000   2.07743
   R14        3.39341  -0.00002  -0.00001  -0.00006  -0.00007   3.39334
   R15        2.07741   0.00001   0.00001   0.00001   0.00001   2.07743
   R16        2.07559  -0.00000  -0.00001   0.00000  -0.00000   2.07558
    A1        1.98451  -0.00005  -0.00009  -0.00016  -0.00024   1.98427
    A2        1.86692  -0.00001  -0.00008  -0.00010  -0.00018   1.86674
    A3        1.85986   0.00002  -0.00007   0.00003  -0.00004   1.85982
    A4        1.92938   0.00008   0.00028   0.00027   0.00055   1.92993
    A5        1.91695  -0.00004  -0.00019  -0.00011  -0.00030   1.91665
    A6        1.90330   0.00000   0.00014   0.00007   0.00021   1.90351
    A7        1.89554   0.00006   0.00018   0.00019   0.00037   1.89591
    A8        1.89570   0.00004   0.00013   0.00007   0.00020   1.89591
    A9        1.94092  -0.00010  -0.00032  -0.00028  -0.00060   1.94032
   A10        1.94066  -0.00008  -0.00025  -0.00009  -0.00034   1.94032
   A11        1.89571   0.00004   0.00013   0.00006   0.00019   1.89590
   A12        1.89576   0.00005   0.00012   0.00004   0.00016   1.89591
   A13        1.98428   0.00003  -0.00002   0.00001  -0.00001   1.98427
   A14        1.92972   0.00002   0.00019   0.00002   0.00020   1.92992
   A15        1.91699  -0.00005  -0.00020  -0.00014  -0.00034   1.91666
   A16        1.86674  -0.00001  -0.00004   0.00004   0.00000   1.86674
   A17        1.85991  -0.00001  -0.00008  -0.00001  -0.00009   1.85982
   A18        1.90326   0.00002   0.00015   0.00010   0.00024   1.90350
   A19        1.98440  -0.00002  -0.00005  -0.00007  -0.00012   1.98427
   A20        1.92962   0.00004   0.00021   0.00009   0.00030   1.92992
   A21        1.91684  -0.00003  -0.00016  -0.00004  -0.00020   1.91665
   A22        1.86676  -0.00000  -0.00004   0.00002  -0.00001   1.86675
   A23        1.85993  -0.00000  -0.00008  -0.00002  -0.00011   1.85982
   A24        1.90338   0.00001   0.00012   0.00002   0.00014   1.90351
   A25        1.98439  -0.00002  -0.00005  -0.00007  -0.00012   1.98427
   A26        1.91708  -0.00005  -0.00022  -0.00020  -0.00042   1.91666
   A27        1.92953   0.00006   0.00024   0.00016   0.00040   1.92992
   A28        1.85993   0.00001  -0.00008  -0.00003  -0.00011   1.85982
   A29        1.86673  -0.00000  -0.00003   0.00004   0.00001   1.86674
   A30        1.90325   0.00002   0.00015   0.00011   0.00026   1.90350
    D1        3.11764  -0.00000  -0.00024  -0.00029  -0.00053   3.11711
    D2       -1.05271  -0.00005  -0.00036  -0.00024  -0.00060  -1.05331
    D3        1.03255  -0.00003  -0.00032  -0.00032  -0.00064   1.03191
    D4       -1.06548   0.00001  -0.00020  -0.00032  -0.00053  -1.06601
    D5        1.04735  -0.00003  -0.00032  -0.00027  -0.00059   1.04675
    D6        3.13261  -0.00001  -0.00028  -0.00035  -0.00064   3.13197
    D7        1.03555   0.00004   0.00003  -0.00014  -0.00011   1.03544
    D8       -3.13480  -0.00000  -0.00009  -0.00009  -0.00018  -3.13498
    D9       -1.04955   0.00002  -0.00005  -0.00016  -0.00022  -1.04976
   D10        1.05312   0.00006   0.00025  -0.00004   0.00021   1.05333
   D11       -1.04680   0.00003   0.00017  -0.00011   0.00007  -1.04674
   D12        3.13515   0.00003  -0.00000  -0.00015  -0.00015   3.13500
   D13       -1.03181   0.00002   0.00012  -0.00019  -0.00007  -1.03188
   D14       -3.13173  -0.00000   0.00005  -0.00026  -0.00021  -3.13195
   D15        1.05022  -0.00001  -0.00013  -0.00030  -0.00043   1.04979
   D16       -3.11691  -0.00001   0.00004  -0.00022  -0.00018  -3.11709
   D17        1.06635  -0.00003  -0.00003  -0.00029  -0.00033   1.06602
   D18       -1.03488  -0.00004  -0.00021  -0.00033  -0.00054  -1.03542
   D19       -3.11710  -0.00002   0.00007  -0.00012  -0.00005  -3.11715
   D20        1.06613  -0.00004   0.00000  -0.00017  -0.00017   1.06596
   D21       -1.03508  -0.00005  -0.00018  -0.00023  -0.00041  -1.03549
   D22       -1.03227   0.00003   0.00023   0.00010   0.00033  -1.03194
   D23       -3.13223   0.00001   0.00016   0.00006   0.00021  -3.13201
   D24        1.04975  -0.00000  -0.00003   0.00000  -0.00003   1.04972
   D25        1.05280   0.00005   0.00031   0.00015   0.00046   1.05326
   D26       -1.04715   0.00004   0.00024   0.00010   0.00034  -1.04681
   D27        3.13483   0.00002   0.00006   0.00005   0.00010   3.13493
   D28        1.03186  -0.00002  -0.00014   0.00017   0.00002   1.03189
   D29       -1.05033   0.00002   0.00015   0.00039   0.00054  -1.04979
   D30        3.13171   0.00000  -0.00005   0.00029   0.00024   3.13195
   D31       -1.05313  -0.00005  -0.00025   0.00006  -0.00019  -1.05332
   D32       -3.13532  -0.00001   0.00004   0.00029   0.00032  -3.13500
   D33        1.04672  -0.00003  -0.00016   0.00018   0.00002   1.04674
   D34        3.11709  -0.00000  -0.00010   0.00011   0.00001   3.11710
   D35        1.03490   0.00004   0.00019   0.00033   0.00053   1.03542
   D36       -1.06625   0.00002  -0.00000   0.00023   0.00022  -1.06602
         Item               Value     Threshold  Converged?
 Maximum Force            0.000103     0.000015     NO 
 RMS     Force            0.000033     0.000010     NO 
 Maximum Displacement     0.002329     0.000060     NO 
 RMS     Displacement     0.000716     0.000040     NO 
 GradGradGradGradGradGradGradGradGradGradGradGradGradGradGradGradGradGrad

                    Distance matrix (angstroms):
                    1          2          3          4          5
     1  Cl   0.000000
     2  C    1.795677   0.000000
     3  C    2.795147   1.538803   0.000000
     4  C    4.146908   2.499706   1.538803   0.000000
     5  Cl   4.839018   3.167087   2.795147   1.795677   0.000000
     6  C    3.167068   2.499702   1.538802   2.538950   3.204888
     7  Cl   4.838984   4.146907   2.795147   3.204930   3.958656
     8  C    3.204907   2.538951   1.538803   2.499700   4.146904
     9  Cl   3.958622   3.204889   2.795144   3.167072   4.839013
    10  H    2.362461   1.098352   2.182278   2.751748   2.725071
    11  H    2.357591   1.099328   2.173334   2.726103   3.515334
    12  H    4.428968   2.742585   2.182273   1.098352   2.362468
    13  H    4.959469   3.462154   2.173338   1.099328   2.357590
    14  H    2.725016   2.751715   2.182272   3.495804   4.204461
    15  H    3.515341   2.726114   2.173329   2.781795   2.762734
    16  H    2.762806   2.781841   2.173340   3.462152   4.959470
    17  H    4.204497   3.495804   2.182272   2.742580   4.428956
                    6          7          8          9         10
     6  C    0.000000
     7  Cl   1.795677   0.000000
     8  C    2.499709   3.167050   0.000000
     9  Cl   4.146908   4.838999   1.795677   0.000000
    10  H    2.742595   4.428991   3.495807   4.204476   0.000000
    11  H    3.462149   4.959466   2.781821   2.762763   1.789867
    12  H    3.495803   4.204516   2.751743   2.725053   3.104735
    13  H    2.781839   2.762832   2.726090   3.515300   3.758149
    14  H    1.098352   2.362469   2.742621   4.428987   3.104708
    15  H    1.099328   2.357591   3.462151   4.959459   2.508026
    16  H    2.726105   3.515261   1.099327   2.357592   3.784919
    17  H    2.751754   2.725031   1.098352   2.362466   4.338167
                   11         12         13         14         15
    11  H    0.000000
    12  H    2.508000   0.000000
    13  H    3.738564   1.789864   0.000000
    14  H    3.758115   4.338163   3.784925   0.000000
    15  H    3.738575   3.784873   3.135788   1.789871   0.000000
    16  H    3.135821   3.758143   3.738557   2.508039   3.738584
    17  H    3.784895   3.104737   2.507985   3.104796   3.758131
                   16         17
    16  H    0.000000
    17  H    1.789863   0.000000
 Framework group  C1[X(C5H8Cl4)]
 Deg. of freedom    45
                         Standard orientation:                         
 ---------------------------------------------------------------------
 Center     Atomic      Atomic             Coordinates (Angstroms)
 Number     Number       Type             X           Y           Z
 ---------------------------------------------------------------------
      1         17           0       -1.973606    0.644747   -1.871362
      2          6           0       -0.869681   -0.565875   -1.136380
      3          6           0        0.000004   -0.000009   -0.000000
      4          6           0        0.869683   -1.136392    0.565869
      5         17           0        1.973636   -1.871355   -0.644739
      6          6           0        0.869689    1.136366   -0.565873
      7         17           0        1.973579    1.871393    0.644755
      8          6           0       -0.869674    0.565858    1.136384
[...]
   iso        0.853331D+02      0.126451D+02      0.140695D+02
   aniso      0.915145D+01      0.135611D+01      0.150887D+01
   xx         0.876990D+02      0.129957D+02      0.144596D+02
   yx        -0.209751D+01     -0.310818D+00     -0.345832D+00
   yy         0.830949D+02      0.123134D+02      0.137005D+02
   zx        -0.397882D+01     -0.589600D+00     -0.656018D+00
   zy         0.154079D+01      0.228322D+00      0.254042D+00
   zz         0.852054D+02      0.126261D+02      0.140485D+02

 ----------------------------------------------------------------------
 1\1\GINC-C129\Freq\RwB97XD\def2SVPP\C5H8Cl4\PETERCHAO1\13-Nov-2023\0\\
 #T Geom=AllCheck Guess=TCheck SCRF=Check GenChk RwB97XD/def2SVPP Freq\
 \Monomer\\0,1\Cl,-1.1528655313,-0.8912658801,2.3855115658\C,0.04875192
 31,0.134456937,1.5321349545\C,0.00000006,-0.0000000586,-0.0000000008\C
 ,1.048565167,0.9475454856,-0.6087377173\Cl,2.7296030011,0.5969461379,-
 0.0839183744\C,0.287626196,-1.4649845638,-0.372806324\Cl,0.300841231,-
 1.7704832477,-2.1421958689\C,-1.384943046,0.3829819069,-0.5505909165\C
 l,-1.8775784607,2.0648027557,-0.1593973257\H,1.0398943455,-0.149089583
 2,1.9114701757\H,-0.162618294,1.1732428503,1.8232287246\H,0.8351335643
 ,1.9879768106,-0.3283687645\H,1.0379851816,0.8623832827,-1.7046960141\
 H,-0.4723139201,-2.1284784904,0.061847527\H,1.2777092697,-1.7591341271
 ,0.0036251662\H,-2.1530759172,-0.2764922401,-0.1221578799\H,-1.4027137
 497,0.2895910288,-1.6449489415\\Version=ES64L-G16RevB.01\State=1-A\HF=
 -2035.363575\RMSD=5.135e-10\RMSF=2.017e-06\ZeroPoint=0.1268504\Thermal
 =0.1372809\Dipole=0.,0.,0.\DipoleDeriv=-0.2938914,-0.1220863,0.1633863
 ,-0.1304035,-0.2445589,0.1258569,0.1331815,0.1023903,-0.3436178,0.2682
 502,0.2087535,-0.2541412,0.203571,0.1899222,-0.2726407,-0.2360729,-0.1
 73989,0.3405342,-0.0496742,-0.0592678,0.0093143,0.0411746,-0.069532,0.
 0750124,-0.0436357,-0.0617215,-0.0604293,0.7027155,0.0054931,0.083483,
 -0.0266053,0.0544811,-0.0429782,0.1603347,0.0131377,0.0415101,-0.55001
 08,-0.00471,-0.0471894,0.024168,-0.1642641,0.0215413,-0.0735089,0.0238
 93,-0.1677932,0.0174867,0.0278863,-0.0131758,-0.0351922,0.1518928,0.19
 56856,-0.0398532,0.2691355,0.6293272,-0.1441997,0.0208546,0.013983,0.0
 172402,-0.2323373,-0.1124984,0.0269843,-0.149242,-0.505531,0.1720108,-
 0.2316394,-0.0269785,-0.3216338,0.5782814,0.0525745,0.0051275,0.083488
 7,0.0484145,-0.25626,0.1412034,-0.0020498,0.1747842,-0.4703445,-0.0449
 688,0.0148368,-0.055894,-0.1554635,-0.0232815,-0.0101102,-0.0092299,0.
 0073965,0.0494107,0.0511048,0.0036925,0.0325989,0.0536816,0.0544779,-0
 .0280155,0.0833614,-0.0372894,-0.0350825,0.0014052,0.0575737,0.0082945
 ,0.0290641,0.0074982,0.0265459,-0.0193508,0.0225524,-0.00183,-0.015557
 3,-0.0223829,-0.0436785,0.0741426,-0.0457619,-0.0023474,-0.0201161,0.0
 179289,0.1159582,-0.0023034,-0.0225059,0.0172321,-0.0217369,0.0348498,
 -0.0612594,0.0275793,-0.0343431,0.0501036,0.0002829,0.0185272,-0.00280
 12,-0.0051426,0.0178335,0.0605246,-0.0315237,0.0370175,0.0746821,-0.02
 99989,-0.0274308,-0.0451362,-0.0440562,0.0032932,0.0038941,0.025048,0.
 0099372,-0.0580522,0.0038554,0.0525389,0.0013643,0.1032184,0.0846636,0
 .0242806,0.0175998,0.0296968,0.0112695,-0.0063732,-0.0074068,-0.019072
 6,-0.0161223\Polar=87.6990428,-2.0975057,83.094876,-3.9788158,1.540793
 2,85.2053912\Quadrupole=-1.3570303,1.2837785,0.0732518,1.203065,2.2821
 268,-0.8837517\PG=S04 [O(C1),X(C4H8Cl4)]\NImag=0\\0.11310275,0.0741088
 9,0.08959011,-0.06020469,-0.04982491,0.07954451,-0.08789195,-0.0424838
 3,0.03099047,0.51479509,-0.04321086,-0.07409376,0.02705601,-0.09407040
 ,0.53542212,0.02971460,0.02501398,-0.05317759,0.06359211,0.04342425,0.
 42706790,-0.00715164,-0.00485336,0.02275945,-0.07856097,0.00514722,-0.
 01145332,0.49314395,-0.00567344,-0.00430375,0.02020107,0.00549567,-0.0
 8154256,-0.01557480,0.00683513,0.50814753,0.00614643,0.00564216,-0.013
 03274,-0.01040947,-0.01898444,-0.17451107,0.01296574,-0.00502098,0.501
 27000,0.00092455,0.00125856,-0.00237675,-0.00198784,-0.00142709,0.0098
 7972,-0.11030414,-0.04154049,0.02987474,0.35608828,0.00139868,0.001391
 19,-0.00201018,-0.00061238,-0.00077969,0.00521784,-0.04113958,-0.12258
 080,0.02394937,-0.01505129,0.55261973,0.00162491,0.00200808,-0.0067881
 5,0.02428919,0.02050002,-0.01685705,0.03228109,0.02657339,-0.10172966,
 -0.02763493,0.05562257,0.56857710,0.00028836,-0.00005842,0.00009608,-0
 .00123885,-0.00075732,-0.00019783,-0.03097676,0.00709953,-0.01048195,-
 0.12387882,0.02542162,-0.03298579,0.19864779,-0.00013945,0.00014327,-0
 .00017398,-0.00024099,0.00038503,0.00101216,-0.01020891,0.00390915,-0.
 00526065,0.02417799,-0.04300321,0.00765973,-0.03168629,0.03818414,0.00
 090553,0.00000970,0.00050056,0.00168195,0.00074974,-0.00228409,0.00305
 005,-0.00282552,0.00257948,-0.03081358,0.00790704,-0.04828127,0.049637
 67,-0.01462863,0.04540545,0.00030686,0.00058089,0.00065696,-0.00051710
 ,-0.00013510,0.00142430,-0.08922888,0.02051730,0.00423060,0.00576855,-
 0.02538901,-0.00645656,-0.00077976,-0.00200743,-0.00043524,0.61375864,
 -0.00090596,-0.00156073,-0.00053448,0.00214236,-0.00220937,-0.01084204
 ,0.01728047,-0.17239623,-0.01502957,-0.00397727,-0.02885908,-0.0041003
 6,0.00117060,-0.00207976,0.00047447,0.02946155,0.47950386,0.00088612,-
 0.00180168,-0.00188404,0.00604314,-0.03122147,-0.01689812,0.00331926,-
 0.01379300,-0.07298948,-0.00584525,0.01139163,0.00567774,0.00069064,0.
 00027682,0.00004453,0.00334333,-0.06237082,0.38402260,0.00019482,0.000
 48429,0.00010110,-0.00011407,0.00023426,0.00018893,-0.00004779,-0.0005
 3207,0.00448381,-0.00010053,-0.00116436,-0.00073616,0.00033713,-0.0000
 8976,-0.00000156,-0.03750385,-0.00025452,0.00031692,0.02687597,0.00015
 830,0.00076973,0.00023270,0.00072883,-0.00601109,0.00029806,-0.0009536
 2,-0.00135779,-0.02665318,0.00019095,-0.00212873,-0.00097876,-0.000258
 38,0.00030289,-0.00012084,-0.00075176,-0.03635908,-0.01149455,-0.00284
 655,0.04160704,0.00001498,-0.00053008,-0.00003238,0.00131502,-0.005239
 68,0.00165275,0.00029850,-0.00495220,-0.02308254,0.00135060,0.00130490
 ,-0.00058573,-0.00037676,-0.00009942,0.00034404,-0.00093756,-0.0093719
 8,-0.14130037,-0.00185997,0.03299198,0.21375437,-0.00113017,-0.0010620
 2,0.00062809,-0.00048680,0.00178174,-0.00963973,-0.16291555,0.01380373
 ,-0.03384032,-0.03138718,0.00181301,-0.00612533,-0.00230840,-0.0016229
 6,0.00070435,-0.00801279,0.01061013,0.00226105,-0.00113868,0.00142894,
 -0.00132919,0.48294171,0.00077440,0.00005280,-0.00001840,-0.00236336,0
 .00127201,0.00399173,0.01131625,-0.07449883,0.00955354,-0.01352986,0.0
 0773462,-0.00788816,-0.00588044,-0.00240339,0.00011278,0.02904517,-0.0
 1602244,0.00835988,0.00202026,-0.00135228,-0.00015306,0.08154825,0.404
 18256,-0.00218560,0.00032403,-0.00173762,-0.03486744,0.01071622,-0.018
 19800,-0.03130145,0.01000449,-0.09720022,0.00778239,-0.00428076,0.0040
 2798,0.00433557,0.00104408,0.00023938,0.00738163,-0.00034476,0.0044106
 5,0.00051105,-0.00051756,-0.00064694,-0.03571889,-0.03806298,0.5901608
 4,0.00048603,0.00017343,-0.00015069,-0.00094602,0.00033566,-0.00006981
 ,-0.00443037,0.02566214,0.00724763,-0.00289248,0.00040888,0.00007165,-
 0.00004736,0.00065059,-0.00003774,-0.00491360,-0.00010712,-0.00289037,
 0.00020948,-0.00013965,0.00012223,-0.04047048,0.02232076,0.00684738,0.
 04982154,-0.00012160,0.00019505,0.00035010,0.00034934,-0.00035146,-0.0
 0158446,0.00711208,-0.02148012,-0.00434800,-0.00115296,-0.00091868,0.0
 0069750,-0.00015944,0.00086469,0.00003210,0.00478505,0.00148418,0.0028
 2687,0.00026337,0.00003056,0.00009909,0.01985286,-0.13072207,-0.025412
 04,-0.05033118,0.19545852,-0.00003307,0.00008783,0.00030298,-0.0019226
 2,0.00123927,-0.00151751,-0.00001871,0.00522919,0.00142237,0.00034034,
 -0.00046762,0.00067326,0.00013131,-0.00007173,0.00011484,-0.00139384,0
 .00037609,-0.00104299,0.00067651,-0.00037617,0.00069214,0.00648925,-0.
 02508419,-0.04397075,-0.00797472,0.03936210,0.03695732,-0.01535042,-0.
 00312065,0.00147819,-0.27597643,0.07488687,-0.09459416,0.00119582,0.00
 107343,-0.00126320,0.00007827,-0.00025428,-0.00026171,-0.00216514,-0.0
 0093681,0.00271178,0.00030709,0.00007967,0.00028417,0.00012379,0.00002
 617,0.00022167,0.00040381,-0.00009717,0.00033188,0.00004652,-0.0000788
 4,-0.00000258,0.29256508,-0.02325503,-0.00108488,-0.00009068,0.0745852
 2,-0.07041351,0.02290592,-0.00417496,0.00162210,-0.00311357,0.00071513
 ,-0.00004206,0.00059158,-0.00048365,-0.00006955,0.00012381,-0.00140112
 ,0.00020914,-0.00084903,0.00008354,0.00004280,0.00046236,0.00038552,-0
 .00048766,-0.00092387,0.00020856,0.00034960,0.00072302,-0.07230200,0.0
 7334890,0.01859455,0.00212911,0.00098215,-0.09177208,0.02313848,-0.081
 99036,-0.02852272,0.00845448,-0.01013157,-0.00194949,0.00021347,0.0001
 1209,0.00149980,-0.00008480,-0.00002734,-0.00103407,0.00119369,0.00038
 724,0.00032818,0.00012069,0.00054113,0.00189799,-0.00145189,-0.0066195
 9,0.00038081,0.00000042,0.00047624,0.09307481,-0.03064073,0.09270611,-
 0.00445872,-0.02593395,0.00182693,-0.05847162,0.05999847,0.01143734,0.
 00123152,-0.00288593,-0.00141019,0.00039166,0.00088232,0.00069130,-0.0
 0029093,-0.00025546,-0.00012243,0.00004765,0.00032706,-0.00033940,0.00
 019485,0.00000293,0.00004985,0.00007092,-0.00128922,-0.00018958,-0.000
 70521,0.00061877,-0.00054554,-0.00128808,0.02556386,0.00836070,0.06312
 553,-0.00435190,-0.01187243,0.00226890,0.05831812,-0.29924175,-0.07528
 331,0.00053608,-0.00101685,-0.00137631,-0.00021706,0.00082961,0.000586
 65,0.00028314,-0.00001153,-0.00019876,0.00006444,0.00048927,-0.0003861
 9,0.00007508,0.00019291,0.00027694,0.00040114,-0.00057589,-0.00018439,
 0.00106987,-0.00022127,0.00171999,0.00071682,-0.00341484,-0.00242888,-
 0.05684091,0.31449830,0.00409087,0.01760312,-0.00001342,0.01207501,-0.
 07286461,-0.06691495,0.00691659,-0.03060557,-0.00943865,-0.00019967,-0
 .00142824,0.00115487,-0.00014786,0.00006559,-0.00004251,-0.00091041,0.
 00211975,-0.00465762,0.00012997,-0.00153175,-0.00174036,0.00083133,-0.
 00176857,0.00048990,-0.00056724,0.00128402,0.00009466,-0.00205914,0.01
 112863,0.00428681,-0.02046398,0.07471100,0.07724658,-0.00002145,0.0001
 7139,-0.00007100,0.00031669,-0.00019870,-0.00090216,0.00614848,-0.0198
 7683,-0.00566881,-0.04943296,0.04968184,0.01696897,-0.01942314,0.02383
 471,0.00068039,-0.00379216,-0.00195959,0.00244250,-0.00000488,0.000215
 02,0.00005655,0.00093523,-0.00136772,-0.00054796,-0.00289940,0.0009725
 1,0.00039671,-0.00008790,0.00004824,0.00013020,0.00010624,0.00008498,0
 .00054285,0.06614026,0.00013661,0.00049752,-0.00019150,0.00028493,0.00
 005207,-0.00091973,0.00242491,-0.01717672,-0.00541709,0.04690743,-0.30
 625688,-0.07274837,0.00105055,0.00199340,0.00061128,-0.00320169,-0.000
 96889,0.00220541,0.00004619,0.00033692,0.00005117,0.00057625,-0.001041
 45,-0.00003326,0.00228226,0.00073197,-0.00004557,-0.00003299,0.0000004
 1,0.00002859,-0.00016081,0.00020464,0.00078461,-0.04980035,0.32098305,
 -0.00029846,-0.00047153,0.00023165,-0.00028646,0.00181710,0.00053471,-
 0.00205346,0.01443257,0.00371458,0.01722290,-0.07333774,-0.07269047,-0
 .00813714,0.01092746,0.00197660,0.00245215,0.00101311,-0.00194239,-0.0
 0031069,-0.00071589,0.00054032,-0.00041553,-0.00040034,0.00025452,0.00
 039577,-0.00009392,-0.00009460,-0.00007680,-0.00000606,-0.00003839,0.0
 0047469,0.00000486,-0.00055177,-0.01439799,0.07528718,0.07149678,-0.00
 059789,-0.00077044,0.00155497,-0.00223537,-0.00252771,-0.00023451,0.00
 026646,0.00173528,0.02146902,-0.04038259,-0.00041017,0.00210604,-0.016
 38822,0.00166350,-0.02866369,0.00024868,0.00069395,0.00020709,-0.00014
 228,-0.00045319,-0.00059815,0.00097703,0.00006574,0.00161388,0.0000294
 6,0.00002210,-0.00022927,-0.00010722,-0.00008676,0.00014487,-0.0000831
 5,-0.00009485,-0.00029374,0.00181604,-0.00086261,0.00564766,0.05744141
 ,-0.00057500,-0.00035681,0.00123724,-0.00241910,-0.00236489,-0.0004987
 7,-0.00097968,0.00186036,0.02213826,-0.00187578,-0.05263326,-0.0267978
 4,0.00433492,0.00098854,0.00791695,0.00049330,0.00069027,0.00192900,-0
 .00022911,-0.00122301,-0.00117019,0.00082582,0.00090342,-0.00013492,0.
 00018178,-0.00032288,0.00013871,0.00013775,-0.00001817,-0.00014463,-0.
 00011132,0.00014760,0.00010784,-0.00088298,0.00139980,-0.02892720,0.00
 132173,0.05071292,0.00016873,0.00008696,-0.00039791,0.00154754,0.00136
 865,0.00047955,0.00104677,-0.00046607,-0.01135080,0.00307408,-0.024349
 32,-0.33161247,-0.00331226,0.00041913,-0.00094488,0.00005518,-0.000590
 10,-0.00095402,-0.00067528,-0.00175146,0.00053347,-0.00072638,-0.00022
 265,0.00049568,0.00030213,-0.00009091,-0.00005154,-0.00009170,-0.00005
 828,0.00012339,-0.00006606,-0.00001929,0.00015623,0.00055991,0.0008027
 3,-0.00363195,-0.00228771,0.02476405,0.34671610,-0.00047193,0.00100263
 ,0.00158326,0.00005293,-0.00069889,0.00007026,0.00570399,0.00542067,-0
 .00372665,-0.00086466,0.00165886,0.00050838,0.00023282,-0.00069379,0.0
 0012963,-0.19281177,-0.12097684,0.07543119,0.00495252,0.00294711,-0.00
 398654,0.00096626,0.00119783,-0.00063047,0.00004777,-0.00030667,-0.000
 05015,-0.00004030,-0.00007162,0.00008223,-0.00009705,-0.00001786,-0.00
 006698,0.00033147,0.00035796,-0.00011571,-0.00005950,-0.00011362,-0.00
 002725,0.19674816,0.00057185,0.00101863,0.00006084,-0.00112654,-0.0005
 0874,0.00122916,-0.02111334,-0.01779133,0.01124807,0.00314107,-0.00526
 538,-0.00253767,0.00015785,0.00060997,-0.00012677,-0.11954761,-0.15420
 850,0.06767384,0.00517649,0.00482891,-0.00754637,-0.00156400,0.0001298
 5,0.00014847,0.00002599,0.00071511,-0.00013801,0.00005332,-0.00002452,
 -0.00010034,0.00011586,0.00009763,0.00001263,-0.00134001,-0.00089564,0
 .00074716,0.00010482,0.00020720,-0.00004112,0.12716882,0.16433451,0.00
 112084,-0.00108736,-0.00280874,-0.00086153,-0.00046796,0.00060411,-0.0
 0511087,-0.00284013,0.00477369,0.00037215,-0.00167224,-0.00057340,0.00
 013691,-0.00028924,0.00002957,0.07588640,0.07009444,-0.08136004,0.0156
 6683,0.01011901,-0.02523458,-0.00004517,0.00051301,-0.00019265,0.00002
 028,-0.00026348,-0.00005516,0.00001280,0.00007348,-0.00006106,0.000193
 55,0.00018016,-0.00000258,-0.00037012,-0.00040162,0.00027830,0.0000356
 6,-0.00018901,-0.00009040,-0.08009396,-0.06642436,0.09753743,-0.000115
 58,-0.00005445,0.00039602,0.00023821,-0.00005131,-0.00042009,-0.003204
 87,0.00152939,-0.00100940,-0.00017611,-0.00016754,0.00031380,-0.000762
 08,-0.00196316,0.00010789,-0.28418219,0.06840012,-0.08548637,0.0068661
 7,-0.00132678,0.00458591,0.00034380,0.00068805,0.00045451,-0.00003027,
 0.00006261,-0.00004746,0.00019506,0.00027172,0.00038985,0.00020263,-0.
 00003762,0.00005591,-0.00011915,0.00006100,-0.00013190,-0.00006093,0.0
 0002371,0.00002989,-0.01444584,0.00699490,-0.00702909,0.29500251,-0.00
 009141,-0.00016570,0.00013850,0.00053843,0.00117084,0.00107401,0.02904
 253,-0.00916543,0.00977667,0.00214657,0.00044736,0.00079405,-0.0015126
 9,-0.00004826,-0.00032439,0.06647449,-0.06918792,0.02626618,-0.0043087
 3,0.00200649,-0.00522455,-0.00157506,-0.00432382,-0.00211929,0.0014590
 3,-0.00155220,0.00020215,-0.00018014,-0.00008758,-0.00093941,-0.000262
 34,0.00001703,0.00022143,0.00003249,0.00017654,-0.00021448,-0.00015969
 ,-0.00015261,0.00002545,-0.01713616,0.00708968,-0.00745286,-0.07432469
 ,0.07367582,-0.00020008,0.00020106,-0.00006369,0.00120858,-0.00067581,
 0.00096709,0.00634003,-0.00137717,0.00314630,-0.00064845,0.00043606,-0
 .00028632,-0.00017058,-0.00066140,-0.00002147,-0.08466665,0.02843421,-
 0.07125822,-0.02060182,0.00269600,-0.02521723,-0.00019175,-0.00105374,
 -0.00014068,0.00049960,-0.00081459,0.00022986,-0.00009652,-0.00045739,
 -0.00034836,-0.00002246,0.00011356,0.00000103,0.00006118,-0.00002620,-
 0.00000008,-0.00001070,-0.00009356,-0.00001063,0.01079053,-0.00430510,
 0.00694006,0.08778576,-0.02212647,0.08619209,0.00123423,0.00047253,0.0
 0015745,-0.00055438,-0.00100419,0.00144006,-0.02073857,-0.01618134,0.0
 1108736,-0.00255958,0.00270009,-0.00285073,-0.00180427,-0.00050211,0.0
 0001185,0.00059072,-0.00138613,0.00045869,-0.00005661,0.00014178,-0.00
 002383,-0.18822141,-0.12008759,0.07870959,0.00687086,0.01289081,-0.002
 60508,0.00000526,0.00004246,0.00016662,-0.00006286,0.00004313,-0.00015
 691,0.00006365,-0.00000903,-0.00003768,0.00016464,0.00018252,-0.000068
 17,-0.00021211,0.00107807,-0.00004794,0.00025647,-0.00002727,-0.000257
 61,0.20229610,0.00069598,-0.00031069,0.00117071,-0.00058109,-0.0002121
 3,0.00008393,0.00519484,0.00562236,-0.00338846,0.00080820,-0.00032672,
 0.00078164,0.00101759,0.00032329,0.00016799,0.00106308,0.00118248,-0.0
 0032026,-0.00027409,0.00001528,0.00010573,-0.12179848,-0.14029604,0.06
 788576,-0.00900178,-0.02680563,0.00417802,0.00001145,-0.00005165,-0.00
 004204,0.00004736,-0.00002111,0.00008955,0.00027269,0.00000937,0.00001
 055,-0.00001884,-0.00015682,0.00012827,0.00028830,-0.00030610,0.000148
 46,-0.00006710,0.00005338,-0.00006211,0.11976242,0.15684903,-0.0001764
 5,0.00068840,-0.00175536,-0.00069501,-0.00120899,0.00075143,-0.0103122
 4,-0.00791736,0.00589222,-0.00114394,0.00120866,-0.00123440,-0.0009074
 4,-0.00019034,0.00012837,0.00063808,-0.00014292,0.00060293,-0.00006310
 ,-0.00032569,-0.00030364,0.07985968,0.07008360,-0.09611088,-0.00470531
 ,-0.01073348,0.00359020,0.00014724,0.00022667,0.00010370,0.00005144,0.
 00001197,-0.00014020,0.00014483,-0.00002337,-0.00007503,-0.00015885,-0
 .00001139,0.00021286,0.00017067,0.00010924,0.00027733,-0.00001761,-0.0
 0015745,-0.00008917,-0.08415786,-0.06994290,0.09572529,0.00065214,0.00
 008451,0.00057417,-0.00642152,0.00169736,-0.00023572,-0.00013065,-0.00
 248218,-0.02969537,0.00071559,0.00022332,-0.00180411,0.00055765,0.0000
 2034,0.00045316,0.00071390,-0.00059848,-0.00112269,-0.00064604,0.00088
 991,0.00109668,-0.05056729,-0.00436135,-0.00252651,-0.00017648,0.00522
 120,0.00678894,0.00009482,-0.00012912,-0.00177224,0.00008664,-0.000032
 62,0.00022340,-0.00007703,-0.00006061,0.00006867,-0.00088656,-0.000314
 96,0.00047059,-0.00003275,0.00010245,0.00011327,-0.00000781,-0.0001153
 7,0.00018095,0.00272785,0.00257947,0.02132589,0.05339754,0.00047992,0.
 00009044,0.00012806,0.00145478,-0.00057312,0.00045205,-0.00146606,0.00
 214891,0.00628420,-0.00057411,-0.00022801,-0.00076406,0.00026085,-0.00
 008867,0.00011905,-0.00005155,0.00029281,0.00130737,0.00131571,-0.0017
 0155,-0.00100466,-0.00540489,-0.04255139,-0.01810922,0.00480078,-0.017
 45535,-0.02707308,0.00001740,0.00012149,0.00055378,0.00018331,-0.00010
 133,0.00007057,0.00011228,-0.00004611,-0.00007280,-0.00022284,0.000318
 34,-0.00000603,-0.00002673,-0.00003128,-0.00004029,-0.00003884,0.00004
 638,-0.00022735,0.00188384,0.00443168,0.01832535,-0.00272387,0.0553267
 8,-0.00016918,-0.00007887,0.00012979,-0.00192840,0.00065321,0.00029120
 ,-0.00020473,0.00047760,-0.00933191,0.00071513,0.00029459,0.00041589,0
 .00018963,0.00005521,0.00023874,-0.00023428,-0.00037872,-0.00085841,0.
 00184529,-0.00199260,0.00008556,-0.00463945,-0.01651056,-0.33526162,0.
 00050841,-0.00131132,0.00217868,0.00018327,-0.00009586,-0.00050218,0.0
 0007384,0.00000311,0.00007200,-0.00002605,0.00003574,-0.00000275,-0.00
 030256,-0.00026455,0.00032733,-0.00006844,-0.00000966,-0.00006186,0.00
 002240,0.00006045,-0.00004058,-0.00182582,-0.00099483,-0.00757565,0.00
 586092,0.02005707,0.34989577\\-0.00000246,-0.00000239,-0.00000208,-0.0
 0000076,-0.00000244,0.00000023,0.,0.,0.,0.00000144,-0.00000025,0.00000
 211,0.00000074,-0.00000299,0.00000257,-0.00000145,0.00000025,-0.000002
 09,-0.00000073,0.00000299,-0.00000258,0.00000077,0.00000243,-0.0000002
 4,0.00000245,0.00000240,0.00000209,-0.00000133,-0.00000415,0.00000040,
 0.00000023,-0.00000264,0.00000172,0.00000248,-0.00000045,0.00000358,0.
 00000201,0.00000145,0.00000196,-0.00000246,0.00000044,-0.00000360,-0.0
 0000200,-0.00000146,-0.00000197,-0.00000024,0.00000265,-0.00000171,0.0
 0000131,0.00000416,-0.00000039\\\@


 ON A TOMBSTONE, "HERE LIES LESTER MOORE,
 FOUR SLUGS FROM A 44, NO LES, NO MORE".
 File lengths (MBytes):  RWF=     71 Int=      0 D2E=      0 Chk=      3 Scr=      1
 Normal termination of Gaussian 16 at Mon Nov 13 18:35:21 2023.
real 12399.03
user 48057.33
sys 168.36
