 Entering Gaussian System, Link 0=g16
 Input=gaussian_test.inp
 Output=gaussian_test.log
 Initial command:
 /sw/restricted/lms/sw/Gaussian/g16_B01/g16/l1.exe "/scratch/user/peterchao1/peterchao1/6318277_1663960373000000430386078/Gau-149935.inp" -scrdir="/scratch/user/peterchao1/peterchao1/6318277_1663960373000000430386078/"
 Entering Link 1 = /sw/restricted/lms/sw/Gaussian/g16_B01/g16/l1.exe PID=    149936.
  
 Copyright (c) 1988-2017, Gaussian, Inc.  All Rights Reserved.
  
 This is part of the Gaussian(R) 16 program.  It is based on
 the Gaussian(R) 09 system (copyright 2009, Gaussian, Inc.),
 the Gaussian(R) 03 system (copyright 2003, Gaussian, Inc.),
 the Gaussian(R) 98 system (copyright 1998, Gaussian, Inc.),
 the Gaussian(R) 94 system (copyright 1995, Gaussian, Inc.),
 the Gaussian 92(TM) system (copyright 1992, Gaussian, Inc.),
 the Gaussian 90(TM) system (copyright 1990, Gaussian, Inc.),
 the Gaussian 88(TM) system (copyright 1988, Gaussian, Inc.),
 the Gaussian 86(TM) system (copyright 1986, Carnegie Mellon
 University), and the Gaussian 82(TM) system (copyright 1983,
 Carnegie Mellon University). Gaussian is a federally registered
 trademark of Gaussian, Inc.
  
 This software contains proprietary and confidential information,
 including trade secrets, belonging to Gaussian, Inc.
  
 This software is provided under written license and may be
 used, copied, transmitted, or stored only in accord with that
 written license.
  
 The following legend is applicable only to US Government
 contracts under FAR:
  
                    RESTRICTED RIGHTS LEGEND
  
 Use, reproduction and disclosure by the US Government is
 subject to restrictions as set forth in subparagraphs (a)
 and (c) of the Commercial Computer Software - Restricted
 Rights clause in FAR 52.227-19.
  
 Gaussian, Inc.
 340 Quinnipiac St., Bldg. 40, Wallingford CT 06492
  
  
 ---------------------------------------------------------------
 Warning -- This program may not be used in any manner that
 competes with the business of Gaussian, Inc. or will provide
 assistance to any competitor of Gaussian, Inc.  The licensee
 of this program is prohibited from giving any competitor of
 Gaussian, Inc. access to this program.  By using this program,
 the user acknowledges that Gaussian, Inc. is engaged in the
 business of creating and licensing software in the field of
 computational chemistry and represents and warrants to the
 licensee that it is not a competitor of Gaussian, Inc. and that
 it will not use this program in any manner prohibited above.
 ---------------------------------------------------------------
  

 Cite this work as:
 Gaussian 16, Revision B.01,
 M. J. Frisch, G. W. Trucks, H. B. Schlegel, G. E. Scuseria, 
 M. A. Robb, J. R. Cheeseman, G. Scalmani, V. Barone, 
 G. A. Petersson, H. Nakatsuji, X. Li, M. Caricato, A. V. Marenich, 
 J. Bloino, B. G. Janesko, R. Gomperts, B. Mennucci, H. P. Hratchian, 
 J. V. Ortiz, A. F. Izmaylov, J. L. Sonnenberg, D. Williams-Young, 
 F. Ding, F. Lipparini, F. Egidi, J. Goings, B. Peng, A. Petrone, 
 T. Henderson, D. Ranasinghe, V. G. Zakrzewski, J. Gao, N. Rega, 
 G. Zheng, W. Liang, M. Hada, M. Ehara, K. Toyota, R. Fukuda, 
 J. Hasegawa, M. Ishida, T. Nakajima, Y. Honda, O. Kitao, H. Nakai, 
 T. Vreven, K. Throssell, J. A. Montgomery, Jr., J. E. Peralta, 
 F. Ogliaro, M. J. Bearpark, J. J. Heyd, E. N. Brothers, K. N. Kudin, 
 V. N. Staroverov, T. A. Keith, R. Kobayashi, J. Normand, 
 K. Raghavachari, A. P. Rendell, J. C. Burant, S. S. Iyengar, 
 J. Tomasi, M. Cossi, J. M. Millam, M. Klene, C. Adamo, R. Cammi, 
 J. W. Ochterski, R. L. Martin, K. Morokuma, O. Farkas, 
 J. B. Foresman, and D. J. Fox, Gaussian, Inc., Wallingford CT, 2016.
 
 ******************************************
 Gaussian 16:  ES64L-G16RevB.01 20-Dec-2017
                23-Sep-2022 
 ******************************************
 %chk=24.chk
 %nprocshared=4
 Will use up to    4 processors via shared memory.
 %mem=8000mb
 --------------------------------------------------------------
 #T wB97XD//def2svpp Volume=tight Geom=AllCheckpoint Guess=Read
 --------------------------------------------------------------
 Structure from the checkpoint file:  "24.chk"
 -------
 Monomer
 -------
 Charge =  0 Multiplicity = 1
 Redundant internal coordinates found in file.  (old form).
 O,0,-0.000927,1.643373,-0.542145
 C,0,0.191025,1.135229,0.772722
 C,0,-0.011607,-0.374791,0.746871
 C,0,-1.472397,-0.750387,0.462807
 O,0,-1.900789,-0.379974,-0.819949
 C,0,0.932035,-1.050902,-0.264047
 O,0,2.237846,-0.528912,-0.247329
 H,0,0.052832,2.607729,-0.528496
 H,0,-0.528946,1.595375,1.47849
 H,0,1.213146,1.363818,1.127522
 H,0,0.239408,-0.730908,1.763018
 H,0,-2.115428,-0.299083,1.250106
 H,0,-1.595938,-1.845255,0.54026
 H,0,-1.519505,0.492223,-1.016551
 H,0,0.484252,-0.982512,-1.27157
 H,0,1.013944,-2.122603,-0.017209
 H,0,2.232857,0.290425,-0.7603
 Recover connectivity data from disk.
                           ----------------------------
                           !    Current Parameters    !
                           ! (Angstroms and Degrees)  !
 --------------------------                            --------------------------
 ! Name  Definition              Value                                          !
 --------------------------------------------------------------------------------
 ! R1    R(1,2)                  1.4226                                         !
 ! R2    R(1,8)                  0.9659                                         !
 ! R3    R(2,3)                  1.5238                                         !
 ! R4    R(2,9)                  1.1082                                         !
 ! R5    R(2,10)                 1.1058                                         !
 ! R6    R(3,4)                  1.5348                                         !
 ! R7    R(3,6)                  1.5393                                         !
 ! R8    R(3,11)                 1.1056                                         !
 ! R9    R(4,5)                  1.4022                                         !
 ! R10   R(4,12)                 1.1122                                         !
 ! R11   R(4,13)                 1.1045                                         !
 ! R12   R(5,14)                 0.972                                          !
 ! R13   R(6,7)                  1.4064                                         !
 ! R14   R(6,15)                 1.1047                                         !
 ! R15   R(6,16)                 1.1028                                         !
 ! R16   R(7,17)                 0.9667                                         !
 ! A1    A(2,1,8)              109.6348                                         !
 ! A2    A(1,2,3)              108.6832                                         !
 ! A3    A(1,2,9)              110.6483                                         !
 ! A4    A(1,2,10)             110.3292                                         !
 ! A5    A(3,2,9)              109.6254                                         !
 ! A6    A(3,2,10)             109.4633                                         !
 ! A7    A(9,2,10)             108.0785                                         !
 ! A8    A(2,3,4)              111.8522                                         !
 ! A9    A(2,3,6)              111.4003                                         !
 ! A10   A(2,3,11)             105.8671                                         !
 ! A11   A(4,3,6)              110.7579                                         !
 ! A12   A(4,3,11)             107.9006                                         !
 ! A13   A(6,3,11)             108.8403                                         !
 ! A14   A(3,4,5)              113.2937                                         !
 ! A15   A(3,4,12)             108.6604                                         !
 ! A16   A(3,4,13)             109.6364                                         !
 ! A17   A(5,4,12)             111.3303                                         !
 ! A18   A(5,4,13)             106.9675                                         !
 ! A19   A(12,4,13)            106.7334                                         !
 ! A20   A(4,5,14)             107.592                                          !
 ! A21   A(3,6,7)              113.4755                                         !
 ! A22   A(3,6,15)             108.862                                          !
 ! A23   A(3,6,16)             108.9882                                         !
 ! A24   A(7,6,15)             111.3604                                         !
 ! A25   A(7,6,16)             106.8022                                         !
 ! A26   A(15,6,16)            107.1225                                         !
 ! A27   A(6,7,17)             107.6671                                         !
 ! D1    D(8,1,2,3)            175.3928                                         !
 ! D2    D(8,1,2,9)             54.9738                                         !
 ! D3    D(8,1,2,10)           -64.5817                                         !
 ! D4    D(1,2,3,4)            -67.8641                                         !
 ! D5    D(1,2,3,6)             56.6979                                         !
 ! D6    D(1,2,3,11)           174.8606                                         !
 ! D7    D(9,2,3,4)             53.1857                                         !
 ! D8    D(9,2,3,6)            177.7478                                         !
 ! D9    D(9,2,3,11)           -64.0895                                         !
 ! D10   D(10,2,3,4)           171.5739                                         !
 ! D11   D(10,2,3,6)           -63.8641                                         !
 ! D12   D(10,2,3,11)           54.2986                                         !
 ! D13   D(2,3,4,5)             65.5518                                         !
 ! D14   D(2,3,4,12)           -58.7391                                         !
 ! D15   D(2,3,4,13)          -175.0444                                         !
 ! D16   D(6,3,4,5)            -59.3673                                         !
 ! D17   D(6,3,4,12)           176.3418                                         !
 ! D18   D(6,3,4,13)            60.0366                                         !
 ! D19   D(11,3,4,5)          -178.4023                                         !
 ! D20   D(11,3,4,12)           57.3069                                         !
 ! D21   D(11,3,4,13)          -58.9984                                         !
 ! D22   D(2,3,6,7)             41.7794                                         !
 ! D23   D(2,3,6,15)           -82.8321                                         !
 ! D24   D(2,3,6,16)           160.6433                                         !
 ! D25   D(4,3,6,7)            166.9539                                         !
 ! D26   D(4,3,6,15)            42.3424                                         !
 ! D27   D(4,3,6,16)           -74.1821                                         !
 ! D28   D(11,3,6,7)           -74.5799                                         !
 ! D29   D(11,3,6,15)          160.8086                                         !
 ! D30   D(11,3,6,16)           44.284                                          !
 ! D31   D(3,4,5,14)           -39.5573                                         !
 ! D32   D(12,4,5,14)           83.2688                                         !
 ! D33   D(13,4,5,14)         -160.4803                                         !
 ! D34   D(3,6,7,17)           -80.2609                                         !
 ! D35   D(15,6,7,17)           42.9906                                         !
 ! D36   D(16,6,7,17)          159.6269                                         !
 --------------------------------------------------------------------------------
                    Distance matrix (angstroms):
                    1          2          3          4          5
     1  O    0.000000
     2  C    1.422649   0.000000
     3  C    2.394715   1.523774   0.000000
     4  C    2.984165   2.533489   1.534820   0.000000
     5  O    2.789370   3.034490   2.454376   1.402208   0.000000
     6  C    2.864764   2.530446   1.539332   2.529806   2.963792
     7  O    3.133344   2.828311   2.464189   3.784078   4.180715
     8  H    0.965950   1.969904   3.244401   3.819155   3.581613
     9  H    2.089037   1.108242   2.164361   2.724759   3.326677
    10  H    2.083246   1.105833   2.160481   3.481932   4.065716
    11  H    3.317943   2.113172   1.105614   2.149699   3.372731
    12  H    3.384732   2.757693   2.164495   1.112207   2.082724
    13  H    3.985748   3.482895   2.171418   1.104535   2.022412
    14  H    1.963743   2.557512   2.476919   1.932563   0.971986
    15  H    2.768164   2.958030   2.165480   2.624961   2.501087
    16  H    3.935492   3.451761   2.165738   2.880153   3.489529
    17  H    2.620658   2.689410   2.784187   4.038340   4.188081
                    6          7          8          9         10
     6  C    0.000000
     7  O    1.406377   0.000000
     8  H    3.772070   3.832996   0.000000
     9  H    3.489080   3.891810   2.321921   0.000000
    10  H    2.801136   2.553948   2.374034   1.792117   0.000000
    11  H    2.165900   2.841840   4.053683   2.466357   2.395808
    12  H    3.484957   4.609352   4.039100   2.481543   3.722858
    13  H    2.769215   4.129280   4.867212   3.722456   4.305111
    14  H    2.992916   3.968892   2.680636   2.902306   3.581076
    15  H    1.104667   2.080845   3.691627   3.903191   3.433976
    16  H    1.102806   2.022558   4.853987   4.294297   3.674945
    17  H    1.933278   0.966684   3.190006   3.787167   2.399136
                   11         12         13         14         15
    11  H    0.000000
    12  H    2.448429   0.000000
    13  H    2.470911   1.778876   0.000000
    14  H    3.509391   2.473666   2.809503   0.000000
    15  H    3.054829   3.685683   2.890371   2.500984   0.000000
    16  H    2.388709   3.837223   2.683128   3.775495   1.775895
    17  H    3.374032   4.826679   4.572992   3.766511   2.222473
                   16         17
    16  H    0.000000
    17  H    2.803683   0.000000
 Framework group  C1[X(C4H10O3)]
 Deg. of freedom    45
                         Standard orientation:                         
 ---------------------------------------------------------------------
 Center     Atomic      Atomic             Coordinates (Angstroms)
 Number     Number       Type             X           Y           Z
 ---------------------------------------------------------------------
      1          8           0       -0.000927    1.643373   -0.542145
      2          6           0        0.191025    1.135229    0.772722
      3          6           0       -0.011607   -0.374791    0.746871
      4          6           0       -1.472397   -0.750387    0.462807
      5          8           0       -1.900789   -0.379974   -0.819949
      6          6           0        0.932035   -1.050902   -0.264047
      7          8           0        2.237846   -0.528912   -0.247329
      8          1           0        0.052832    2.607729   -0.528496
      9          1           0       -0.528946    1.595375    1.478490
     10          1           0        1.213146    1.363818    1.127522
     11          1           0        0.239408   -0.730908    1.763018
     12          1           0       -2.115428   -0.299083    1.250106
     13          1           0       -1.595938   -1.845255    0.540260
     14          1           0       -1.519505    0.492223   -1.016551
     15          1           0        0.484252   -0.982512   -1.271570
     16          1           0        1.013944   -2.122603   -0.017209
     17          1           0        2.232857    0.290425   -0.760300
 ---------------------------------------------------------------------
 Rotational constants (GHZ):           3.2840078           2.1235879           1.6806336
   118 basis functions,   215 primitive gaussians,   125 cartesian basis functions
    29 alpha electrons       29 beta electrons
       nuclear repulsion energy       346.7297989003 Hartrees.
 NAtoms=   17 NActive=   17 NUniq=   17 SFac= 1.00D+00 NAtFMM=   60 NAOKFM=F Big=F
 Nuclear repulsion after empirical dispersion term =      346.7197113933 Hartrees.
   1 Symmetry operations used in ECPInt.
 ECPInt:  NShTT=    1953 NPrTT=    7871 LenC2=    1943 LenP2D=    6386.
 LDataN:  DoStor=T MaxTD1= 4 Len=   56
 Initial guess from the checkpoint file:  "24.chk"
 B after Tr=    -0.000000   -0.000000   -0.000000
         Rot=    1.000000   -0.000000   -0.000000   -0.000000 Ang=   0.00 deg.
 Skip diagonalization as Alpha Fock matrix is already diagonal.
 SCF Done:  E(RwB97XD) =  -383.656814754     A.U. after    1 cycles
            NFock=  1  Conv=0.00D+00     -V/T= 2.0081

 **********************************************************************

            Population analysis using the SCF Density.

 **********************************************************************

 Orbital symmetries:
       Occupied  (A) (A) (A) (A) (A) (A) (A) (A) (A) (A) (A) (A)
                 (A) (A) (A) (A) (A) (A) (A) (A) (A) (A) (A) (A)
                 (A) (A) (A) (A) (A)
       Virtual   (A) (A) (A) (A) (A) (A) (A) (A) (A) (A) (A) (A)
                 (A) (A) (A) (A) (A) (A) (A) (A) (A) (A) (A) (A)
                 (A) (A) (A) (A) (A) (A) (A) (A) (A) (A) (A) (A)
                 (A) (A) (A) (A) (A) (A) (A) (A) (A) (A) (A) (A)
                 (A) (A) (A) (A) (A) (A) (A) (A) (A) (A) (A) (A)
                 (A) (A) (A) (A) (A) (A) (A) (A) (A) (A) (A) (A)
                 (A) (A) (A) (A) (A) (A) (A) (A) (A) (A) (A) (A)
                 (A) (A) (A) (A) (A)
 The electronic state is 1-A.
 Alpha  occ. eigenvalues --  -19.28343 -19.24436 -19.22986 -10.35318 -10.33201
 Alpha  occ. eigenvalues --  -10.32930 -10.29894  -1.14241  -1.10708  -1.09632
 Alpha  occ. eigenvalues --   -0.88615  -0.77704  -0.75357  -0.66554  -0.64258
 Alpha  occ. eigenvalues --   -0.60473  -0.58489  -0.54875  -0.53988  -0.50475
 Alpha  occ. eigenvalues --   -0.49866  -0.48893  -0.47132  -0.43875  -0.40557
 Alpha  occ. eigenvalues --   -0.40030  -0.37061  -0.36026  -0.33247
 Alpha virt. eigenvalues --    0.10637   0.14747   0.16527   0.17700   0.19303
 Alpha virt. eigenvalues --    0.20049   0.22043   0.22175   0.24609   0.25306
 Alpha virt. eigenvalues --    0.27092   0.28888   0.29717   0.31248   0.34809
 Alpha virt. eigenvalues --    0.37434   0.53371   0.54730   0.56203   0.58778
 Alpha virt. eigenvalues --    0.59014   0.61360   0.65796   0.65938   0.68789
 Alpha virt. eigenvalues --    0.71555   0.73308   0.74154   0.75186   0.75446
 Alpha virt. eigenvalues --    0.76076   0.77737   0.78356   0.79858   0.81598
 Alpha virt. eigenvalues --    0.82114   0.82336   0.84222   0.92097   0.99473
 Alpha virt. eigenvalues --    1.05229   1.08982   1.10259   1.13707   1.17192
 Alpha virt. eigenvalues --    1.20437   1.24435   1.26748   1.30056   1.34553
 Alpha virt. eigenvalues --    1.46339   1.52733   1.56054   1.59518   1.67188
 Alpha virt. eigenvalues --    1.70695   1.75705   1.82078   1.86569   1.93168
 Alpha virt. eigenvalues --    1.94192   2.02096   2.04883   2.10145   2.12891
 Alpha virt. eigenvalues --    2.15493   2.16223   2.20162   2.24704   2.42542
 Alpha virt. eigenvalues --    2.43765   2.50224   2.66223   2.69191   2.70713
 Alpha virt. eigenvalues --    2.74102   2.75605   2.91552   2.92889   2.94711
 Alpha virt. eigenvalues --    2.96514   3.04085   3.08413   3.09022   3.11025
 Alpha virt. eigenvalues --    3.14469   3.42372   3.46886   3.49013
          Condensed to atoms (all electrons):
 Mulliken charges:
               1
     1  O   -0.514271
     2  C   -0.018873
     3  C   -0.274406
     4  C    0.059356
     5  O   -0.509320
     6  C    0.037144
     7  O   -0.491814
     8  H    0.332252
     9  H    0.104636
    10  H    0.114897
    11  H    0.106075
    12  H    0.083112
    13  H    0.103678
    14  H    0.326240
    15  H    0.112102
    16  H    0.106999
    17  H    0.322195
 Sum of Mulliken charges =  -0.00000
 Mulliken charges with hydrogens summed into heavy atoms:
               1
     1  O   -0.182019
     2  C    0.200660
     3  C   -0.168331
     4  C    0.246145
     5  O   -0.183080
     6  C    0.256244
     7  O   -0.169619
 Electronic spatial extent (au):  <R**2>=            804.5817
 Charge=             -0.0000 electrons
 Dipole moment (field-independent basis, Debye):
    X=              0.3378    Y=              3.2004    Z=              1.3219  Tot=              3.4791
 Evaluate density.
 Using the total density.
 Monte-Carlo method of calculating molar volume:
 based on  0.001 e/bohr**3 density envelope.
 Number of points per bohr**3 =  100 CutOff= 1.00D-04
 Using the SCF density.
 There are      1681 points.  Will hold      1681 in memory.
 LenV=  1048344255 MDV=  1048576000.
 Box volume = 4754.802 fraction occupied=0.203
 Integrated density= 4.6586253305848039D+01 error=-1.1413746694151961D+01
 Molar volume =  964.537 bohr**3/mol ( 86.074 cm**3/mol)
 Recommended a0 for SCRF calculation =  4.07 angstrom (  7.69 bohr)
 1\1\GINC-C324\SP\RwB97XD\def2SVPP\C4H10O3\PETERCHAO1\23-Sep-2022\0\\#T
  wB97XD//def2svpp Volume=tight Geom=AllCheckpoint Guess=Read\\Monomer\
 \0,1\O,0,-0.000927,1.643373,-0.542145\C,0,0.191025,1.135229,0.772722\C
 ,0,-0.011607,-0.374791,0.746871\C,0,-1.472397,-0.750387,0.462807\O,0,-
 1.900789,-0.379974,-0.819949\C,0,0.932035,-1.050902,-0.264047\O,0,2.23
 7846,-0.528912,-0.247329\H,0,0.052832,2.607729,-0.528496\H,0,-0.528946
 ,1.595375,1.47849\H,0,1.213146,1.363818,1.127522\H,0,0.239408,-0.73090
 8,1.763018\H,0,-2.115428,-0.299083,1.250106\H,0,-1.595938,-1.845255,0.
 54026\H,0,-1.519505,0.492223,-1.016551\H,0,0.484252,-0.982512,-1.27157
 \H,0,1.013944,-2.122603,-0.017209\H,0,2.232857,0.290425,-0.7603\\Versi
 on=ES64L-G16RevB.01\State=1-A\HF=-383.6568148\RMSD=0.000e+00\Dipole=0.
 1328913,1.2591295,0.5200605\Quadrupole=-6.7328583,6.3340946,0.3987637,
 1.2255131,-2.9912272,-1.5505316\PG=C01 [X(C4H10O3)]\\@



 WE LOSE BECAUSE WE WIN

 GAMBLERS,

 RECOLLECTING WHICH,

 TOSS THEIR DICE AGAIN....


                          EMILY DICKINSON  BOLTS OF MELODY NO. 533
 File lengths (MBytes):  RWF=     10 Int=      0 D2E=      0 Chk=      2 Scr=      1
 Normal termination of Gaussian 16 at Fri Sep 23 14:20:02 2022.
