 Entering Gaussian System, Link 0=g16
 Input=gaussian_test.inp
 Output=gaussian_test.log
 Initial command:
 /sw/restricted/lms/sw/Gaussian/g16_B01/g16/l1.exe "/scratch/user/peterchao1/peterchao1/6113326_1660079104000000081366362/Gau-88361.inp" -scrdir="/scratch/user/peterchao1/peterchao1/6113326_1660079104000000081366362/"
 Entering Link 1 = /sw/restricted/lms/sw/Gaussian/g16_B01/g16/l1.exe PID=     88362.
  
 Copyright (c) 1988-2017, Gaussian, Inc.  All Rights Reserved.
  
 This is part of the Gaussian(R) 16 program.  It is based on
 the Gaussian(R) 09 system (copyright 2009, Gaussian, Inc.),
 the Gaussian(R) 03 system (copyright 2003, Gaussian, Inc.),
 the Gaussian(R) 98 system (copyright 1998, Gaussian, Inc.),
 the Gaussian(R) 94 system (copyright 1995, Gaussian, Inc.),
 the Gaussian 92(TM) system (copyright 1992, Gaussian, Inc.),
 the Gaussian 90(TM) system (copyright 1990, Gaussian, Inc.),
 the Gaussian 88(TM) system (copyright 1988, Gaussian, Inc.),
 the Gaussian 86(TM) system (copyright 1986, Carnegie Mellon
 University), and the Gaussian 82(TM) system (copyright 1983,
 Carnegie Mellon University). Gaussian is a federally registered
 trademark of Gaussian, Inc.
  
 This software contains proprietary and confidential information,
 including trade secrets, belonging to Gaussian, Inc.
  
 This software is provided under written license and may be
 used, copied, transmitted, or stored only in accord with that
 written license.
  
 The following legend is applicable only to US Government
 contracts under FAR:
  
                    RESTRICTED RIGHTS LEGEND
  
 Use, reproduction and disclosure by the US Government is
 subject to restrictions as set forth in subparagraphs (a)
 and (c) of the Commercial Computer Software - Restricted
 Rights clause in FAR 52.227-19.
  
 Gaussian, Inc.
 340 Quinnipiac St., Bldg. 40, Wallingford CT 06492
  
  
 ---------------------------------------------------------------
 Warning -- This program may not be used in any manner that
 competes with the business of Gaussian, Inc. or will provide
 assistance to any competitor of Gaussian, Inc.  The licensee
 of this program is prohibited from giving any competitor of
 Gaussian, Inc. access to this program.  By using this program,
 the user acknowledges that Gaussian, Inc. is engaged in the
 business of creating and licensing software in the field of
 computational chemistry and represents and warrants to the
 licensee that it is not a competitor of Gaussian, Inc. and that
 it will not use this program in any manner prohibited above.
 ---------------------------------------------------------------
  

 Cite this work as:
 Gaussian 16, Revision B.01,
 M. J. Frisch, G. W. Trucks, H. B. Schlegel, G. E. Scuseria, 
 M. A. Robb, J. R. Cheeseman, G. Scalmani, V. Barone, 
 G. A. Petersson, H. Nakatsuji, X. Li, M. Caricato, A. V. Marenich, 
 J. Bloino, B. G. Janesko, R. Gomperts, B. Mennucci, H. P. Hratchian, 
 J. V. Ortiz, A. F. Izmaylov, J. L. Sonnenberg, D. Williams-Young, 
 F. Ding, F. Lipparini, F. Egidi, J. Goings, B. Peng, A. Petrone, 
 T. Henderson, D. Ranasinghe, V. G. Zakrzewski, J. Gao, N. Rega, 
 G. Zheng, W. Liang, M. Hada, M. Ehara, K. Toyota, R. Fukuda, 
 J. Hasegawa, M. Ishida, T. Nakajima, Y. Honda, O. Kitao, H. Nakai, 
 T. Vreven, K. Throssell, J. A. Montgomery, Jr., J. E. Peralta, 
 F. Ogliaro, M. J. Bearpark, J. J. Heyd, E. N. Brothers, K. N. Kudin, 
 V. N. Staroverov, T. A. Keith, R. Kobayashi, J. Normand, 
 K. Raghavachari, A. P. Rendell, J. C. Burant, S. S. Iyengar, 
 J. Tomasi, M. Cossi, J. M. Millam, M. Klene, C. Adamo, R. Cammi, 
 J. W. Ochterski, R. L. Martin, K. Morokuma, O. Farkas, 
 J. B. Foresman, and D. J. Fox, Gaussian, Inc., Wallingford CT, 2016.
 
 ******************************************
 Gaussian 16:  ES64L-G16RevB.01 20-Dec-2017
                 9-Aug-2022 
 ******************************************
 %nprocshared=4
 Will use up to    4 processors via shared memory.
 %mem=8000mb
 ----------------------------------------------------------------------
 #T wB97XD/def2svpp opt=tight freq int(grid=ultrafine) scf=(verytight,q
 c)
 ----------------------------------------------------------------------
 -----
 dimer
 -----
 Symbolic Z-matrix:
 Charge =  0 Multiplicity = 1
 O                     1.12793   1.42329  -2.06212 
 C                     1.82509   0.31536  -1.58256 
 C                     2.34402   0.50077  -0.1395 
 Br                    3.70432  -0.82414   0.24082 
 C                     2.93708   1.91617   0.09907 
 O                     1.97111   2.90504   0.05461 
 N                     1.27862   0.32403   0.86238 
 O                     1.57502  -0.05339   1.96091 
 O                     0.15787   0.62205   0.50605 
 H                     0.17601   1.33195  -1.8846 
 H                     2.70588   0.19394  -2.22316 
 H                     1.2314   -0.60487  -1.63414 
 H                     3.72739   2.06552  -0.65089 
 H                     3.38562   1.95055   1.09762 
 H                     1.57492   2.91317  -0.83426 
 O                    -3.68193   0.62574   2.19819 
 C                    -2.68508  -0.19859   1.6717 
 C                    -2.68015  -0.2286    0.13292 
 Br                   -1.49795  -1.61022  -0.49754 
 C                    -4.08673  -0.47801  -0.46936 
 O                    -4.96963   0.55724  -0.21593 
 N                    -2.19355   1.05141  -0.41999 
 O                    -2.4593    2.04065   0.21063 
 O                    -1.62638   1.02498  -1.48332 
 H                    -3.43381   1.55025   2.03956 
 H                    -2.89616  -1.21016   2.03268 
 H                    -1.68732   0.09458   2.02061 
 H                    -4.4446   -1.44026  -0.07277 
 H                    -3.99946  -0.55953  -1.55851 
 H                    -5.09785   0.64064   0.74358 
 
 Add virtual bond connecting atoms O24        and H10        Dist= 3.54D+00.

 GradGradGradGradGradGradGradGradGradGradGradGradGradGradGradGradGradGrad
 Initialization pass.
                           ----------------------------
                           !    Initial Parameters    !
                           ! (Angstroms and Degrees)  !
 --------------------------                            --------------------------
 ! Name  Definition              Value          Derivative Info.                !
 --------------------------------------------------------------------------------
 ! R1    R(1,2)                  1.3941         estimate D2E/DX2                !
 ! R2    R(1,10)                 0.9726         estimate D2E/DX2                !
 ! R3    R(2,3)                  1.5447         estimate D2E/DX2                !
 ! R4    R(2,11)                 1.0959         estimate D2E/DX2                !
 ! R5    R(2,12)                 1.0963         estimate D2E/DX2                !
 ! R6    R(3,4)                  1.9366         estimate D2E/DX2                !
 ! R7    R(3,5)                  1.5531         estimate D2E/DX2                !
 ! R8    R(3,7)                  1.4731         estimate D2E/DX2                !
 ! R9    R(5,6)                  1.3831         estimate D2E/DX2                !
 ! R10   R(5,13)                 1.0997         estimate D2E/DX2                !
 ! R11   R(5,14)                 1.0952         estimate D2E/DX2                !
 ! R12   R(6,15)                 0.9732         estimate D2E/DX2                !
 ! R13   R(7,8)                  1.1988         estimate D2E/DX2                !
 ! R14   R(7,9)                  1.2132         estimate D2E/DX2                !
 ! R15   R(10,24)                1.8719         estimate D2E/DX2                !
 ! R16   R(16,17)                1.3966         estimate D2E/DX2                !
 ! R17   R(16,25)                0.9703         estimate D2E/DX2                !
 ! R18   R(17,18)                1.5391         estimate D2E/DX2                !
 ! R19   R(17,26)                1.0946         estimate D2E/DX2                !
 ! R20   R(17,27)                1.0969         estimate D2E/DX2                !
 ! R21   R(18,19)                1.9246         estimate D2E/DX2                !
 ! R22   R(18,20)                1.5503         estimate D2E/DX2                !
 ! R23   R(18,22)                1.4768         estimate D2E/DX2                !
 ! R24   R(20,21)                1.384          estimate D2E/DX2                !
 ! R25   R(20,28)                1.1006         estimate D2E/DX2                !
 ! R26   R(20,29)                1.0957         estimate D2E/DX2                !
 ! R27   R(21,30)                0.9716         estimate D2E/DX2                !
 ! R28   R(22,23)                1.2029         estimate D2E/DX2                !
 ! R29   R(22,24)                1.2054         estimate D2E/DX2                !
 ! A1    A(2,1,10)             110.6104         estimate D2E/DX2                !
 ! A2    A(1,2,3)              113.2015         estimate D2E/DX2                !
 ! A3    A(1,2,11)             106.7921         estimate D2E/DX2                !
 ! A4    A(1,2,12)             112.3387         estimate D2E/DX2                !
 ! A5    A(3,2,11)             106.8217         estimate D2E/DX2                !
 ! A6    A(3,2,12)             109.0639         estimate D2E/DX2                !
 ! A7    A(11,2,12)            108.3452         estimate D2E/DX2                !
 ! A8    A(2,3,4)              109.7135         estimate D2E/DX2                !
 ! A9    A(2,3,5)              112.4069         estimate D2E/DX2                !
 ! A10   A(2,3,7)              112.2094         estimate D2E/DX2                !
 ! A11   A(4,3,5)              108.9721         estimate D2E/DX2                !
 ! A12   A(4,3,7)              106.9994         estimate D2E/DX2                !
 ! A13   A(5,3,7)              106.3225         estimate D2E/DX2                !
 ! A14   A(3,5,6)              112.331          estimate D2E/DX2                !
 ! A15   A(3,5,13)             107.0644         estimate D2E/DX2                !
 ! A16   A(3,5,14)             108.9689         estimate D2E/DX2                !
 ! A17   A(6,5,13)             112.5137         estimate D2E/DX2                !
 ! A18   A(6,5,14)             107.0314         estimate D2E/DX2                !
 ! A19   A(13,5,14)            108.8564         estimate D2E/DX2                !
 ! A20   A(5,6,15)             108.6419         estimate D2E/DX2                !
 ! A21   A(3,7,8)              118.8282         estimate D2E/DX2                !
 ! A22   A(3,7,9)              116.0326         estimate D2E/DX2                !
 ! A23   A(8,7,9)              125.0928         estimate D2E/DX2                !
 ! A24   A(17,16,25)           108.5569         estimate D2E/DX2                !
 ! A25   A(16,17,18)           112.9984         estimate D2E/DX2                !
 ! A26   A(16,17,26)           106.4699         estimate D2E/DX2                !
 ! A27   A(16,17,27)           111.8142         estimate D2E/DX2                !
 ! A28   A(18,17,26)           108.1988         estimate D2E/DX2                !
 ! A29   A(18,17,27)           108.6821         estimate D2E/DX2                !
 ! A30   A(26,17,27)           108.5126         estimate D2E/DX2                !
 ! A31   A(17,18,19)           110.0897         estimate D2E/DX2                !
 ! A32   A(17,18,20)           112.8707         estimate D2E/DX2                !
 ! A33   A(17,18,22)           111.0067         estimate D2E/DX2                !
 ! A34   A(19,18,20)           108.3346         estimate D2E/DX2                !
 ! A35   A(19,18,22)           107.2884         estimate D2E/DX2                !
 ! A36   A(20,18,22)           107.034          estimate D2E/DX2                !
 ! A37   A(18,20,21)           112.7877         estimate D2E/DX2                !
 ! A38   A(18,20,28)           107.1989         estimate D2E/DX2                !
 ! A39   A(18,20,29)           109.0197         estimate D2E/DX2                !
 ! A40   A(21,20,28)           112.3688         estimate D2E/DX2                !
 ! A41   A(21,20,29)           106.7672         estimate D2E/DX2                !
 ! A42   A(28,20,29)           108.6053         estimate D2E/DX2                !
 ! A43   A(20,21,30)           109.2218         estimate D2E/DX2                !
 ! A44   A(18,22,23)           116.3424         estimate D2E/DX2                !
 ! A45   A(18,22,24)           117.7935         estimate D2E/DX2                !
 ! A46   A(23,22,24)           125.7644         estimate D2E/DX2                !
 ! A47   A(10,24,22)           129.6848         estimate D2E/DX2                !
 ! A48   L(1,10,24,7,-1)       176.7556         estimate D2E/DX2                !
 ! A49   L(1,10,24,7,-2)       183.1502         estimate D2E/DX2                !
 ! D1    D(10,1,2,3)           -92.057          estimate D2E/DX2                !
 ! D2    D(10,1,2,11)          150.6701         estimate D2E/DX2                !
 ! D3    D(10,1,2,12)           32.0215         estimate D2E/DX2                !
 ! D4    D(2,1,24,22)           70.8247         estimate D2E/DX2                !
 ! D5    D(1,2,3,4)           -163.5013         estimate D2E/DX2                !
 ! D6    D(1,2,3,5)            -42.0825         estimate D2E/DX2                !
 ! D7    D(1,2,3,7)             77.6992         estimate D2E/DX2                !
 ! D8    D(11,2,3,4)           -46.2458         estimate D2E/DX2                !
 ! D9    D(11,2,3,5)            75.173          estimate D2E/DX2                !
 ! D10   D(11,2,3,7)          -165.0453         estimate D2E/DX2                !
 ! D11   D(12,2,3,4)            70.6501         estimate D2E/DX2                !
 ! D12   D(12,2,3,5)          -167.9311         estimate D2E/DX2                !
 ! D13   D(12,2,3,7)           -48.1494         estimate D2E/DX2                !
 ! D14   D(2,3,5,6)             67.7599         estimate D2E/DX2                !
 ! D15   D(2,3,5,13)           -56.2337         estimate D2E/DX2                !
 ! D16   D(2,3,5,14)          -173.8148         estimate D2E/DX2                !
 ! D17   D(4,3,5,6)           -170.3988         estimate D2E/DX2                !
 ! D18   D(4,3,5,13)            65.6076         estimate D2E/DX2                !
 ! D19   D(4,3,5,14)           -51.9734         estimate D2E/DX2                !
 ! D20   D(7,3,5,6)            -55.3864         estimate D2E/DX2                !
 ! D21   D(7,3,5,13)          -179.3799         estimate D2E/DX2                !
 ! D22   D(7,3,5,14)            63.039          estimate D2E/DX2                !
 ! D23   D(2,3,7,8)            152.4477         estimate D2E/DX2                !
 ! D24   D(2,3,7,9)            -29.9018         estimate D2E/DX2                !
 ! D25   D(4,3,7,8)             32.0622         estimate D2E/DX2                !
 ! D26   D(4,3,7,9)           -150.2873         estimate D2E/DX2                !
 ! D27   D(5,3,7,8)            -84.2823         estimate D2E/DX2                !
 ! D28   D(5,3,7,9)             93.3682         estimate D2E/DX2                !
 ! D29   D(3,5,6,15)           -62.1389         estimate D2E/DX2                !
 ! D30   D(13,5,6,15)           58.7696         estimate D2E/DX2                !
 ! D31   D(14,5,6,15)          178.2996         estimate D2E/DX2                !
 ! D32   D(25,16,17,18)        -71.9744         estimate D2E/DX2                !
 ! D33   D(25,16,17,26)        169.3871         estimate D2E/DX2                !
 ! D34   D(25,16,17,27)         51.0298         estimate D2E/DX2                !
 ! D35   D(16,17,18,19)       -170.0402         estimate D2E/DX2                !
 ! D36   D(16,17,18,20)        -48.8554         estimate D2E/DX2                !
 ! D37   D(16,17,18,22)         71.3131         estimate D2E/DX2                !
 ! D38   D(26,17,18,19)        -52.411          estimate D2E/DX2                !
 ! D39   D(26,17,18,20)         68.7738         estimate D2E/DX2                !
 ! D40   D(26,17,18,22)       -171.0577         estimate D2E/DX2                !
 ! D41   D(27,17,18,19)         65.2337         estimate D2E/DX2                !
 ! D42   D(27,17,18,20)       -173.5815         estimate D2E/DX2                !
 ! D43   D(27,17,18,22)        -53.413          estimate D2E/DX2                !
 ! D44   D(17,18,20,21)         65.6503         estimate D2E/DX2                !
 ! D45   D(17,18,20,28)        -58.5539         estimate D2E/DX2                !
 ! D46   D(17,18,20,29)       -175.9388         estimate D2E/DX2                !
 ! D47   D(19,18,20,21)       -172.1739         estimate D2E/DX2                !
 ! D48   D(19,18,20,28)         63.622          estimate D2E/DX2                !
 ! D49   D(19,18,20,29)        -53.7629         estimate D2E/DX2                !
 ! D50   D(22,18,20,21)        -56.7717         estimate D2E/DX2                !
 ! D51   D(22,18,20,28)        179.0242         estimate D2E/DX2                !
 ! D52   D(22,18,20,29)         61.6393         estimate D2E/DX2                !
 ! D53   D(17,18,22,23)        -33.2073         estimate D2E/DX2                !
 ! D54   D(17,18,22,24)        150.2129         estimate D2E/DX2                !
 ! D55   D(19,18,22,23)       -153.5301         estimate D2E/DX2                !
 ! D56   D(19,18,22,24)         29.89           estimate D2E/DX2                !
 ! D57   D(20,18,22,23)         90.3708         estimate D2E/DX2                !
 ! D58   D(20,18,22,24)        -86.209          estimate D2E/DX2                !
 ! D59   D(18,20,21,30)        -62.2571         estimate D2E/DX2                !
 ! D60   D(28,20,21,30)         59.0555         estimate D2E/DX2                !
 ! D61   D(29,20,21,30)        178.0233         estimate D2E/DX2                !
 ! D62   D(18,22,24,10)       -110.8149         estimate D2E/DX2                !
 ! D63   D(23,22,24,10)         72.9628         estimate D2E/DX2                !
 --------------------------------------------------------------------------------
 Number of steps in this run=    151 maximum allowed number of steps=    180.
 GradGradGradGradGradGradGradGradGradGradGradGradGradGradGradGradGradGrad

                    Distance matrix (angstroms):
                    1          2          3          4          5
     1  O    0.000000
     2  C    1.394105   0.000000
     3  C    2.454874   1.544698   0.000000
     4  Br   4.122165   2.855635   1.936600   0.000000
     5  C    2.861243   2.574297   1.553061   2.849218   0.000000
     6  O    2.717920   3.067264   2.440750   4.116486   1.383093
     7  N    3.127909   2.505286   1.473125   2.754750   2.422410
     8  O    4.308744   3.571371   2.304384   2.843705   3.033293
     9  O    2.859808   2.689977   2.282700   3.839154   3.092641
    10  H    0.972637   1.960657   2.904575   4.649207   3.449614
    11  H    2.006780   1.095859   2.136996   2.846856   2.900401
    12  H    2.075407   1.096334   2.166636   3.111086   3.502715
    13  H    3.026753   2.747696   2.150273   3.024206   1.099694
    14  H    3.919066   3.506056   2.171920   2.921399   1.095197
    15  H    1.981710   2.714987   2.625618   4.433687   1.928884
    16  O    6.474656   6.687133   6.464717   7.777539   7.062781
    17  C    5.577724   5.585339   5.390865   6.577468   6.209194
    18  C    4.695581   4.851392   5.084146   6.413091   6.012863
    19  Br   4.306436   3.990960   4.398327   5.312884   5.697452
    20  C    5.774471   6.067806   6.513170   7.830998   7.442387
    21  O    6.429523   6.935017   7.314272   8.795122   8.028825
    22  N    3.723862   4.247688   4.579461   6.224083   5.228826
    23  O    4.291243   4.954610   5.056253   6.796912   5.398966
    24  O    2.842515   3.525061   4.224302   5.899846   4.911553
    25  H    6.135915   6.503908   6.263635   7.734733   6.669911
    26  H    6.316316   6.139010   5.924965   6.850262   6.894895
    27  H    5.134178   5.036723   4.591597   5.751643   5.328749
    28  H    6.573481   6.683622   7.060988   8.178196   8.110764
    29  H    5.520454   5.889949   6.586175   7.915547   7.549330
    30  H    6.873494   7.310536   7.495393   8.937367   8.161038
                    6          7          8          9         10
     6  O    0.000000
     7  N    2.791710   0.000000
     8  O    3.541637   1.198776   0.000000
     9  O    2.950199   1.213208   2.140368   0.000000
    10  H    3.075317   3.126915   4.320231   2.493891   0.000000
    11  H    3.616385   3.402150   4.341257   3.758224   2.794631
    12  H    3.964657   2.664153   3.653296   2.690390   2.219878
    13  H    2.070519   3.364413   3.992994   4.020399   3.830474
    14  H    1.999934   2.672143   2.835374   3.540231   4.424693
    15  H    0.973202   3.109664   4.075960   3.008930   2.358057
    16  O    6.461190   5.146111   5.305945   4.196121   5.661416
    17  C    5.824736   4.079094   4.272369   3.180337   4.814112
    18  C    5.608926   4.063172   4.634512   2.986164   3.829277
    19  Br   5.720738   3.646928   4.232123   2.954990   3.658201
    20  C    6.958226   5.586030   6.175910   4.492006   4.842494
    21  O    7.332065   6.344898   6.924154   5.178481   5.464634
    22  N    4.583179   3.772203   4.592536   2.563407   2.799749
    23  O    4.516633   4.164558   4.870746   2.991526   3.440508
    24  O    4.340709   3.799031   4.824368   2.702488   1.871856
    25  H    5.915117   5.009627   5.259873   4.014149   5.336433
    26  H    6.673676   4.599144   4.618951   3.874882   5.589783
    27  H    5.014765   3.192318   3.266235   2.444754   4.500413
    28  H    7.749788   6.061560   6.503469   5.076504   5.684887
    29  H    7.088946   5.873635   6.611912   4.789775   4.595495
    30  H    7.454685   6.385430   6.818414   5.261116   5.932862
                   11         12         13         14         15
    11  H    0.000000
    12  H    1.777395   0.000000
    13  H    2.649222   3.785200   0.000000
    14  H    3.817764   4.316630   1.785297   0.000000
    15  H    3.256125   3.624140   2.320618   2.817337   0.000000
    16  O    7.780682   6.351537   8.067731   7.274381   6.485562
    17  C    6.662322   5.141253   7.186125   6.465424   5.840413
    18  C    5.893984   4.308636   6.850837   6.517122   5.376965
    19  Br   4.889274   3.122815   6.390528   6.250832   5.478772
    20  C    7.047474   5.445670   8.219668   8.011817   6.609646
    21  O    7.941945   6.466425   8.837549   8.571863   6.983109
    22  N    5.290666   3.993464   6.011594   5.851380   4.223633
    23  O    6.001064   4.901348   6.246433   5.912515   4.257694
    24  O    4.472859   3.293335   5.517111   5.712966   3.772906
    25  H    7.596465   6.317030   7.667258   6.895803   5.933273
    26  H    7.174025   5.554165   7.861495   7.094025   6.723967
    27  H    6.108983   4.729199   6.351421   5.480071   5.170767
    28  H    7.643579   5.945826   8.911020   8.612767   7.467720
    29  H    6.780203   5.231612   8.210907   8.239840   6.607413
    30  H    8.360587   6.874907   9.047636   8.591298   7.223557
                   16         17         18         19         20
    16  O    0.000000
    17  C    1.396578   0.000000
    18  C    2.449246   1.539082   0.000000
    19  Br   4.127502   2.847384   1.924564   0.000000
    20  C    2.915124   2.574266   1.550291   2.825676   0.000000
    21  O    2.736936   3.058366   2.445600   4.102406   1.384011
    22  N    3.041602   2.485818   1.476801   2.752123   2.434275
    23  O    2.728953   2.683260   2.281297   3.841163   3.074826
    24  O    4.235353   3.545720   2.300899   2.816472   3.056207
    25  H    0.970284   1.937622   2.714333   4.491441   3.291628
    26  H    2.003839   1.094596   2.149234   2.918403   2.865957
    27  H    2.071751   1.096909   2.157202   3.046850   3.504990
    28  H    3.163428   2.771435   2.150284   2.981959   1.100587
    29  H    3.952029   3.506023   2.170498   2.913275   1.095682
    30  H    2.030008   2.717941   2.640792   4.423355   1.935198
                   21         22         23         24         25
    21  O    0.000000
    22  N    2.827096   0.000000
    23  O    2.946902   1.202865   0.000000
    24  O    3.605885   1.205428   2.143553   0.000000
    25  H    2.903795   2.799369   2.129587   3.994173   0.000000
    26  H    3.532595   3.409398   3.752130   4.355510   2.812297
    27  H    3.998713   2.669888   2.767511   3.625857   2.273672
    28  H    2.070302   3.375835   4.017274   4.001183   3.798262
    29  H    1.997734   2.674457   3.501847   2.854447   4.209191
    30  H    0.971626   3.155567   3.034142   4.142215   2.296946
                   26         27         28         29         30
    26  H    0.000000
    27  H    1.778711   0.000000
    28  H    2.623649   3.786897   0.000000
    29  H    3.812781   4.310916   1.783615   0.000000
    30  H    3.151937   3.682488   2.328804   2.818960   0.000000
 Framework group  C1[X(C6H12Br2N2O8)]
 Deg. of freedom    84
                         Standard orientation:                         
 ---------------------------------------------------------------------
 Center     Atomic      Atomic             Coordinates (Angstroms)
 Number     Number       Type             X           Y           Z
 ---------------------------------------------------------------------
      1          8           0        1.254961    1.394023   -2.003080
      2          6           0        1.929776    0.261409   -1.549938
      3          6           0        2.429230    0.392389   -0.094095
      4         35           0        3.765620   -0.963090    0.262500
      5          6           0        3.037629    1.790835    0.199497
      6          8           0        2.085854    2.794022    0.173318
      7          7           0        1.346476    0.197964    0.885671
      8          8           0        1.621080   -0.219193    1.975458
      9          8           0        0.235373    0.523072    0.522862
     10          1           0        0.299308    1.310244   -1.842675
     11          1           0        2.818455    0.148657   -2.181163
     12          1           0        1.324586   -0.648265   -1.640418
     13          1           0        3.841153    1.953514   -0.533450
     14          1           0        3.471399    1.786360    1.205121
     15          1           0        1.703327    2.836669   -0.720537
     16          8           0       -3.629231    0.525204    2.157567
     17          6           0       -2.635714   -0.295360    1.619024
     18          6           0       -2.607872   -0.275234    0.080326
     19         35           0       -1.434987   -1.651931   -0.577693
     20          6           0       -4.008393   -0.485191   -0.550437
     21          8           0       -4.881001    0.553472   -0.276173
     22          7           0       -2.095738    1.015216   -0.423059
     23          8           0       -2.357652    1.986968    0.235715
     24          8           0       -1.512923    1.015554   -1.478229
     25          1           0       -3.366297    1.450843    2.033031
     26          1           0       -2.865860   -1.315121    1.943464
     27          1           0       -1.639494   -0.027688    1.991997
     28          1           0       -4.385179   -1.454773   -0.190945
     29          1           0       -3.905742   -0.532356   -1.640280
     30          1           0       -5.022613    0.607321    0.683568
 ---------------------------------------------------------------------
 Rotational constants (GHZ):           0.5045707           0.1527202           0.1423662
   312 basis functions,   608 primitive gaussians,   334 cartesian basis functions
    98 alpha electrons       98 beta electrons
       nuclear repulsion energy      2583.0712306469 Hartrees.
 NAtoms=   30 NActive=   30 NUniq=   30 SFac= 1.00D+00 NAtFMM=   60 NAOKFM=F Big=F
 Nuclear repulsion after empirical dispersion term =     2583.0466170201 Hartrees.
   1 Symmetry operations used in ECPInt.
 ECPInt:  NShTT=   10440 NPrTT=   45474 LenC2=    9505 LenP2D=   27471.
 LDataN:  DoStor=T MaxTD1= 4 Len=   56
 ExpMin= 1.22D-01 ExpMax= 1.13D+05 ExpMxC= 1.70D+04 IAcc=3 IRadAn=         5 AccDes= 0.00D+00
 Harris functional with IExCor= 4639 and IRadAn=       5 diagonalized for initial guess.
 HarFok:  IExCor= 4639 AccDes= 0.00D+00 IRadAn=         5 IDoV= 1 UseB2=F ITyADJ=14
 ICtDFT=  3500011 ScaDFX=  1.000000  1.000000  1.000000  1.000000
 FoFCou: FMM=F IPFlag=           0 FMFlag=      100000 FMFlg1=           0
         NFxFlg=           0 DoJE=T BraDBF=F KetDBF=T FulRan=T
         wScrn=  0.000000 ICntrl=       500 IOpCl=  0 I1Cent=   200000004 NGrid=           0
         NMat0=    1 NMatS0=      1 NMatT0=    0 NMatD0=    1 NMtDS0=    0 NMtDT0=    0
 Petite list used in FoFCou.
     Minimum is close to point  2 DX=  2.80D-02 DF= -9.21D-06 DXR=  4.46D-02 DFR=  2.00D-03 which will be used.
     Accept linear search using points  1 and  2.
     Accept linear search using points  1 and  2.
     Accept linear search using points  1 and  2.
     Minimum is close to point  2 DX= -1.34D-04 DF= -9.09D-13 DXR=  1.34D-04 DFR=  1.91D-08 which will be used.
 SCF Done:  E(RwB97XD) =  -6093.69272262     a.u. after    9 cycles
            Convg  =    0.2620D-09                    46 Fock formations.
              S**2 =  0.0000                  -V/T =  2.0020

 **********************************************************************

            Population analysis using the SCF Density.

 **********************************************************************

 Orbital symmetries:
       Occupied  (A) (A) (A) (A) (A) (A) (A) (A) (A) (A) (A) (A)
                 (A) (A) (A) (A) (A) (A) (A) (A) (A) (A) (A) (A)
                 (A) (A) (A) (A) (A) (A) (A) (A) (A) (A) (A) (A)
                 (A) (A) (A) (A) (A) (A) (A) (A) (A) (A) (A) (A)
                 (A) (A) (A) (A) (A) (A) (A) (A) (A) (A) (A) (A)
                 (A) (A) (A) (A) (A) (A) (A) (A) (A) (A) (A) (A)
                 (A) (A) (A) (A) (A) (A) (A) (A) (A) (A) (A) (A)
                 (A) (A) (A) (A) (A) (A) (A) (A) (A) (A) (A) (A)
                 (A) (A)
       Virtual   (A) (A) (A) (A) (A) (A) (A) (A) (A) (A) (A) (A)
                 (A) (A) (A) (A) (A) (A) (A) (A) (A) (A) (A) (A)
                 (A) (A) (A) (A) (A) (A) (A) (A) (A) (A) (A) (A)
                 (A) (A) (A) (A) (A) (A) (A) (A) (A) (A) (A) (A)
                 (A) (A) (A) (A) (A) (A) (A) (A) (A) (A) (A) (A)
                 (A) (A) (A) (A) (A) (A) (A) (A) (A) (A) (A) (A)
                 (A) (A) (A) (A) (A) (A) (A) (A) (A) (A) (A) (A)
                 (A) (A) (A) (A) (A) (A) (A) (A) (A) (A) (A) (A)
                 (A) (A) (A) (A) (A) (A) (A) (A) (A) (A) (A) (A)
                 (A) (A) (A) (A) (A) (A) (A) (A) (A) (A) (A) (A)
                 (A) (A) (A) (A) (A) (A) (A) (A) (A) (A) (A) (A)
                 (A) (A) (A) (A) (A) (A) (A) (A) (A) (A) (A) (A)
                 (A) (A) (A) (A) (A) (A) (A) (A) (A) (A) (A) (A)
                 (A) (A) (A) (A) (A) (A) (A) (A) (A) (A) (A) (A)
                 (A) (A) (A) (A) (A) (A) (A) (A) (A) (A) (A) (A)
                 (A) (A) (A) (A) (A) (A) (A) (A) (A) (A) (A) (A)
                 (A) (A) (A) (A) (A) (A) (A) (A) (A) (A) (A) (A)
                 (A) (A) (A) (A) (A) (A) (A) (A) (A) (A)
 The electronic state is 1-A.
 Alpha  occ. eigenvalues -- -483.08538-483.08153 -62.66737 -62.66370 -56.47532
 Alpha  occ. eigenvalues --  -56.47163 -56.47136 -56.47132 -56.46769 -56.46758
 Alpha  occ. eigenvalues --  -19.32576 -19.32030 -19.31643 -19.31495 -19.28707
 Alpha  occ. eigenvalues --  -19.27809 -19.26961 -19.26168 -14.71563 -14.70774
 Alpha  occ. eigenvalues --  -10.42481 -10.42132 -10.37937 -10.37909 -10.37800
 Alpha  occ. eigenvalues --  -10.37361  -8.83688  -8.83326  -6.66311  -6.65948
 Alpha  occ. eigenvalues --   -6.64881  -6.64862  -6.64527  -6.64490  -2.76667
 Alpha  occ. eigenvalues --   -2.76300  -2.76263  -2.76247  -2.75905  -2.75876
 Alpha  occ. eigenvalues --   -2.75106  -2.75106  -2.74743  -2.74742  -1.37787
 Alpha  occ. eigenvalues --   -1.37034  -1.20036  -1.19051  -1.15960  -1.15166
 Alpha  occ. eigenvalues --   -1.13795  -1.13007  -0.99416  -0.98865  -0.87562
 Alpha  occ. eigenvalues --   -0.87083  -0.81940  -0.81526  -0.80874  -0.80253
 Alpha  occ. eigenvalues --   -0.71179  -0.70373  -0.67944  -0.67317  -0.66923
 Alpha  occ. eigenvalues --   -0.66145  -0.65149  -0.63669  -0.63088  -0.62420
 Alpha  occ. eigenvalues --   -0.59525  -0.58943  -0.57651  -0.57133  -0.55781
 Alpha  occ. eigenvalues --   -0.55410  -0.53245  -0.52893  -0.51687  -0.50609
 Alpha  occ. eigenvalues --   -0.47640  -0.46973  -0.45271  -0.44381  -0.44211
 Alpha  occ. eigenvalues --   -0.43086  -0.42765  -0.42537  -0.42290  -0.41723
 Alpha  occ. eigenvalues --   -0.39898  -0.39470  -0.39161  -0.38599  -0.38102
 Alpha  occ. eigenvalues --   -0.37883  -0.37061  -0.36723
 Alpha virt. eigenvalues --   -0.02622  -0.01961   0.04744   0.05275   0.13640
 Alpha virt. eigenvalues --    0.14381   0.15130   0.15614   0.16790   0.17552
 Alpha virt. eigenvalues --    0.18334   0.18825   0.20533   0.20876   0.21066
 Alpha virt. eigenvalues --    0.21372   0.22200   0.23220   0.23988   0.25090
 Alpha virt. eigenvalues --    0.26534   0.27607   0.28372   0.28694   0.29374
 Alpha virt. eigenvalues --    0.31423   0.35511   0.38169   0.41066   0.43118
 Alpha virt. eigenvalues --    0.44766   0.46103   0.50293   0.50456   0.50918
 Alpha virt. eigenvalues --    0.51442   0.52110   0.52806   0.53320   0.53617
 Alpha virt. eigenvalues --    0.54122   0.54825   0.55703   0.56792   0.58250
 Alpha virt. eigenvalues --    0.58771   0.60281   0.60649   0.61124   0.61681
 Alpha virt. eigenvalues --    0.63079   0.63643   0.64022   0.65344   0.66635
 Alpha virt. eigenvalues --    0.66981   0.67912   0.68649   0.69227   0.70593
 Alpha virt. eigenvalues --    0.72032   0.72770   0.73213   0.74443   0.74918
 Alpha virt. eigenvalues --    0.75763   0.76153   0.76925   0.77139   0.77623
 Alpha virt. eigenvalues --    0.77778   0.79492   0.81259   0.81916   0.82804
 Alpha virt. eigenvalues --    0.85157   0.85911   0.85955   0.88586   0.91347
 Alpha virt. eigenvalues --    0.92632   0.94897   0.96963   0.97706   0.98189
 Alpha virt. eigenvalues --    0.99828   1.00463   1.02247   1.03589   1.06468
 Alpha virt. eigenvalues --    1.08155   1.08236   1.09226   1.09541   1.10899
 Alpha virt. eigenvalues --    1.11695   1.13074   1.16134   1.17811   1.18008
 Alpha virt. eigenvalues --    1.19193   1.20051   1.21002   1.23318   1.25287
 Alpha virt. eigenvalues --    1.26569   1.28122   1.29272   1.30266   1.34898
 Alpha virt. eigenvalues --    1.35648   1.36969   1.38020   1.38829   1.44298
 Alpha virt. eigenvalues --    1.46873   1.49091   1.49499   1.50903   1.55326
 Alpha virt. eigenvalues --    1.56005   1.63104   1.65381   1.65912   1.67275
 Alpha virt. eigenvalues --    1.69423   1.76000   1.77656   1.81273   1.81912
 Alpha virt. eigenvalues --    1.83579   1.84504   1.85410   1.86947   1.89461
 Alpha virt. eigenvalues --    1.91143   1.92331   1.94584   1.97558   1.98437
 Alpha virt. eigenvalues --    2.07569   2.07729   2.08326   2.10911   2.15404
 Alpha virt. eigenvalues --    2.15886   2.17736   2.18843   2.21130   2.21421
 Alpha virt. eigenvalues --    2.31624   2.32644   2.37681   2.38081   2.40645
 Alpha virt. eigenvalues --    2.41137   2.47175   2.48970   2.49985   2.50947
 Alpha virt. eigenvalues --    2.61578   2.62291   2.64538   2.66159   2.67791
 Alpha virt. eigenvalues --    2.68349   2.69446   2.69632   2.70339   2.71771
 Alpha virt. eigenvalues --    2.73089   2.74026   2.76921   2.77684   2.86018
 Alpha virt. eigenvalues --    2.86783   2.88857   2.89513   2.91214   2.92489
 Alpha virt. eigenvalues --    3.01646   3.02204   3.04436   3.06396   3.07650
 Alpha virt. eigenvalues --    3.09098   3.09574   3.12201   3.14056   3.15035
 Alpha virt. eigenvalues --    3.23308   3.24645   3.37549   3.37853   3.42979
 Alpha virt. eigenvalues --    3.44664   3.46004   3.47239   3.51555   3.52561
 Alpha virt. eigenvalues --    3.54255   3.54593   3.55217   3.55863   3.65213
 Alpha virt. eigenvalues --    3.65671   3.67862   3.68063   3.82059   3.83651
 Alpha virt. eigenvalues --    3.87167   3.88112   3.94024   3.94496
          Condensed to atoms (all electrons):
 Mulliken charges:
               1
     1  O   -0.509724
     2  C    0.109221
     3  C   -0.308291
     4  Br   0.008586
     5  C    0.135226
     6  O   -0.482415
     7  N    0.295225
     8  O   -0.201974
     9  O   -0.269056
    10  H    0.354269
    11  H    0.131994
    12  H    0.130111
    13  H    0.123863
    14  H    0.134026
    15  H    0.337138
    16  O   -0.496263
    17  C    0.098037
    18  C   -0.309385
    19  Br   0.006247
    20  C    0.137879
    21  O   -0.480513
    22  N    0.318929
    23  O   -0.228919
    24  O   -0.253869
    25  H    0.347549
    26  H    0.135051
    27  H    0.145508
    28  H    0.125605
    29  H    0.134597
    30  H    0.331350
 Sum of Mulliken charges =   0.00000
 Mulliken charges with hydrogens summed into heavy atoms:
               1
     1  O   -0.155455
     2  C    0.371326
     3  C   -0.308291
     4  Br   0.008586
     5  C    0.393115
     6  O   -0.145277
     7  N    0.295225
     8  O   -0.201974
     9  O   -0.269056
    16  O   -0.148715
    17  C    0.378596
    18  C   -0.309385
    19  Br   0.006247
    20  C    0.398081
    21  O   -0.149163
    22  N    0.318929
    23  O   -0.228919
    24  O   -0.253869
 Electronic spatial extent (au):  <R**2>=           7301.0344
 Charge=              0.0000 electrons
 Dipole moment (field-independent basis, Debye):
    X=              0.4071    Y=             -2.3075    Z=             -0.5706  Tot=              2.4116
   1 Symmetry operations used in ECPInt.
 ECPInt:  NShTT=   10440 NPrTT=   45474 LenC2=    9505 LenP2D=   27471.
 LDataN:  DoStor=T MaxTD1= 5 Len=  102
 Calling FoFJK, ICntrl=      2127 FMM=F ISym2X=0 I1Cent= 0 IOpClX= 0 NMat=1 NMatS=1 NMatT=0.

 GradGradGradGradGradGradGradGradGradGradGradGradGradGradGradGradGradGrad
 FormGI is forming the generalized inverse of G from B-inverse, IUseBI=4.
 Internal  Forces:  Max     0.037897731 RMS     0.007357706
 Step number   1 out of a maximum of  151
 All quantities printed in internal units (Hartrees-Bohrs-Radians)
 Mixed Optimization -- RFO/linear search
 Second derivative matrix not updated -- first step.
 ITU=  0
     Eigenvalues ---    0.00230   0.00230   0.00230   0.00230   0.00230
     Eigenvalues ---    0.00230   0.00249   0.00676   0.00724   0.00733
     Eigenvalues ---    0.01611   0.01737   0.01770   0.01903   0.01915
     Eigenvalues ---    0.03869   0.04733   0.04782   0.04788   0.04795
     Eigenvalues ---    0.04863   0.04927   0.05365   0.05944   0.05975
     Eigenvalues ---    0.05998   0.06028   0.06273   0.06308   0.08654
     Eigenvalues ---    0.08677   0.11595   0.11660   0.11671   0.11687
     Eigenvalues ---    0.13973   0.14009   0.14021   0.14045   0.16000
     Eigenvalues ---    0.16000   0.16000   0.16000   0.16000   0.16574
     Eigenvalues ---    0.17102   0.17977   0.18158   0.19095   0.19264
     Eigenvalues ---    0.22106   0.22107   0.22109   0.22115   0.24975
     Eigenvalues ---    0.25000   0.25000   0.25000   0.27393   0.27626
     Eigenvalues ---    0.28107   0.28600   0.33617   0.33716   0.34026
     Eigenvalues ---    0.34091   0.34144   0.34164   0.34219   0.34287
     Eigenvalues ---    0.34938   0.35369   0.46192   0.46612   0.48376
     Eigenvalues ---    0.48541   0.52728   0.52842   0.53046   0.53319
     Eigenvalues ---    0.98457   1.02142   1.03396   1.05441
 Linear search not attempted -- first point.
 Maximum step size (   0.300) exceeded in Quadratic search.
    -- Step size scaled by   0.466
 Iteration  1 RMS(Cart)=  0.26895842 RMS(Int)=  0.01833413
 Iteration  2 RMS(Cart)=  0.25127580 RMS(Int)=  0.00788575
 Iteration  3 RMS(Cart)=  0.01695897 RMS(Int)=  0.00007889
 Iteration  4 RMS(Cart)=  0.00009568 RMS(Int)=  0.00007157
 Iteration  5 RMS(Cart)=  0.00000001 RMS(Int)=  0.00007157
 Variable       Old X    -DE/DX   Delta X   Delta X   Delta X     New X
                                 (Linear)    (Quad)   (Total)
    R1        2.63448   0.00286   0.00000   0.00252   0.00252   2.63700
    R2        1.83802   0.00806   0.00000   0.00637   0.00637   1.84439
    R3        2.91906   0.00606   0.00000   0.00824   0.00824   2.92729
    R4        2.07087   0.00361   0.00000   0.00417   0.00417   2.07504
    R5        2.07177   0.00539   0.00000   0.00624   0.00624   2.07801
    R6        3.65964   0.00191   0.00000   0.00391   0.00391   3.66355
    R7        2.93486   0.00038   0.00000   0.00053   0.00053   2.93539
    R8        2.78380   0.02338   0.00000   0.02623   0.02623   2.81004
    R9        2.61367   0.00059   0.00000   0.00050   0.00050   2.61417
   R10        2.07812   0.00571   0.00000   0.00667   0.00667   2.08479
   R11        2.06962   0.00391   0.00000   0.00451   0.00451   2.07414
   R12        1.83909  -0.00059   0.00000  -0.00047  -0.00047   1.83862
   R13        2.26536   0.00779   0.00000   0.00326   0.00326   2.26861
   R14        2.29263  -0.00276   0.00000  -0.00123  -0.00123   2.29140
   R15        3.53729   0.00641   0.00000   0.02590   0.02590   3.56320
   R16        2.63915   0.00423   0.00000   0.00377   0.00377   2.64292
   R17        1.83357  -0.00025   0.00000  -0.00020  -0.00020   1.83338
   R18        2.90844   0.00192   0.00000   0.00258   0.00258   2.91102
   R19        2.06849   0.00367   0.00000   0.00423   0.00423   2.07272
   R20        2.07286   0.00485   0.00000   0.00562   0.00562   2.07848
   R21        3.63690   0.00790   0.00000   0.01582   0.01582   3.65271
   R22        2.92963   0.00198   0.00000   0.00273   0.00273   2.93236
   R23        2.79075   0.03274   0.00000   0.03713   0.03713   2.82788
   R24        2.61540   0.00119   0.00000   0.00102   0.00102   2.61642
   R25        2.07981   0.00486   0.00000   0.00569   0.00569   2.08550
   R26        2.07054   0.00361   0.00000   0.00417   0.00417   2.07471
   R27        1.83611  -0.00014   0.00000  -0.00011  -0.00011   1.83600
   R28        2.27309   0.00871   0.00000   0.00371   0.00371   2.27679
   R29        2.27793   0.00640   0.00000   0.00276   0.00276   2.28068
    A1        1.93052   0.01272   0.00000   0.02674   0.02674   1.95725
    A2        1.97574   0.00874   0.00000   0.01550   0.01538   1.99112
    A3        1.86387   0.00191   0.00000   0.00283   0.00294   1.86681
    A4        1.96068  -0.00609   0.00000  -0.00686  -0.00717   1.95351
    A5        1.86439  -0.01254   0.00000  -0.03106  -0.03094   1.83345
    A6        1.90352   0.00641   0.00000   0.01895   0.01886   1.92239
    A7        1.89098   0.00070   0.00000  -0.00207  -0.00193   1.88905
    A8        1.91486  -0.00764   0.00000  -0.01828  -0.01839   1.89647
    A9        1.96187   0.00194   0.00000  -0.00088  -0.00089   1.96098
   A10        1.95842   0.00557   0.00000   0.01317   0.01318   1.97160
   A11        1.90192   0.00097   0.00000  -0.00177  -0.00182   1.90010
   A12        1.86749   0.00626   0.00000   0.01915   0.01921   1.88670
   A13        1.85568  -0.00681   0.00000  -0.01025  -0.01023   1.84545
   A14        1.96055  -0.00154   0.00000  -0.00221  -0.00221   1.95834
   A15        1.86863  -0.00190   0.00000  -0.00508  -0.00508   1.86355
   A16        1.90187  -0.00055   0.00000  -0.00241  -0.00242   1.89945
   A17        1.96373   0.00288   0.00000   0.00763   0.00763   1.97136
   A18        1.86805   0.00124   0.00000   0.00312   0.00312   1.87117
   A19        1.89990  -0.00018   0.00000  -0.00128  -0.00131   1.89859
   A20        1.89616  -0.00492   0.00000  -0.01035  -0.01035   1.88581
   A21        2.07394   0.01100   0.00000   0.01601   0.01570   2.08964
   A22        2.02515  -0.00821   0.00000  -0.01274  -0.01304   2.01211
   A23        2.18328  -0.00304   0.00000  -0.00500  -0.00531   2.17797
   A24        1.89468  -0.00365   0.00000  -0.00768  -0.00768   1.88700
   A25        1.97219   0.00140   0.00000   0.00266   0.00266   1.97485
   A26        1.85825   0.00059   0.00000   0.00114   0.00114   1.85939
   A27        1.95153   0.00108   0.00000   0.00488   0.00487   1.95640
   A28        1.88842  -0.00288   0.00000  -0.00791  -0.00791   1.88051
   A29        1.89686  -0.00077   0.00000  -0.00113  -0.00114   1.89572
   A30        1.89390   0.00045   0.00000  -0.00016  -0.00018   1.89373
   A31        1.92143  -0.00448   0.00000  -0.01044  -0.01053   1.91090
   A32        1.96997   0.00486   0.00000   0.00051   0.00043   1.97040
   A33        1.93743  -0.00370   0.00000  -0.00607  -0.00609   1.93134
   A34        1.89080  -0.00480   0.00000  -0.01240  -0.01245   1.87835
   A35        1.87254   0.01238   0.00000   0.03733   0.03739   1.90993
   A36        1.86810  -0.00378   0.00000  -0.00693  -0.00693   1.86117
   A37        1.96852  -0.00088   0.00000  -0.00114  -0.00114   1.96738
   A38        1.87097  -0.00246   0.00000  -0.00658  -0.00658   1.86439
   A39        1.90275  -0.00066   0.00000  -0.00227  -0.00228   1.90047
   A40        1.96120   0.00258   0.00000   0.00663   0.00663   1.96783
   A41        1.86344   0.00135   0.00000   0.00405   0.00405   1.86749
   A42        1.89552   0.00006   0.00000  -0.00083  -0.00086   1.89466
   A43        1.90628  -0.00517   0.00000  -0.01088  -0.01088   1.89540
   A44        2.03056  -0.00413   0.00000  -0.00651  -0.00661   2.02395
   A45        2.05588   0.01594   0.00000   0.02348   0.02338   2.07927
   A46        2.19500  -0.01203   0.00000  -0.01842  -0.01851   2.17650
   A47        2.26343   0.00585   0.00000   0.01229   0.01229   2.27572
   A48        3.08497   0.03790   0.00000   0.27568   0.27568   3.36064
   A49        3.19657   0.00715   0.00000   0.05203   0.05203   3.24861
    D1       -1.60670  -0.02079   0.00000  -0.10302  -0.10297  -1.70967
    D2        2.62969  -0.01156   0.00000  -0.07551  -0.07550   2.55419
    D3        0.55888  -0.01017   0.00000  -0.07087  -0.07093   0.48795
    D4        1.23612  -0.02221   0.00000  -0.16157  -0.16157   1.07455
    D5       -2.85364   0.00226   0.00000   0.00436   0.00440  -2.84924
    D6       -0.73448  -0.00057   0.00000  -0.01131  -0.01116  -0.74564
    D7        1.35611  -0.00405   0.00000  -0.01584  -0.01567   1.34043
    D8       -0.80714   0.00150   0.00000  -0.00329  -0.00337  -0.81051
    D9        1.31202  -0.00133   0.00000  -0.01897  -0.01892   1.29310
   D10       -2.88058  -0.00481   0.00000  -0.02349  -0.02343  -2.90402
   D11        1.23308  -0.00116   0.00000  -0.01278  -0.01300   1.22008
   D12       -2.93095  -0.00399   0.00000  -0.02846  -0.02855  -2.95950
   D13       -0.84037  -0.00747   0.00000  -0.03298  -0.03306  -0.87343
   D14        1.18263   0.00452   0.00000   0.01559   0.01560   1.19824
   D15       -0.98146   0.00322   0.00000   0.01097   0.01099  -0.97047
   D16       -3.03364   0.00475   0.00000   0.01654   0.01655  -3.01709
   D17       -2.97402  -0.00321   0.00000  -0.00940  -0.00942  -2.98344
   D18        1.14507  -0.00451   0.00000  -0.01401  -0.01404   1.13103
   D19       -0.90711  -0.00297   0.00000  -0.00845  -0.00848  -0.91559
   D20       -0.96667   0.00103   0.00000   0.00672   0.00673  -0.95994
   D21       -3.13077  -0.00027   0.00000   0.00210   0.00212  -3.12865
   D22        1.10024   0.00127   0.00000   0.00767   0.00768   1.10791
   D23        2.66071   0.00118   0.00000   0.01445   0.01453   2.67524
   D24       -0.52188  -0.00535   0.00000  -0.02960  -0.02950  -0.55139
   D25        0.55959   0.00320   0.00000   0.01666   0.01654   0.57613
   D26       -2.62301  -0.00333   0.00000  -0.02739  -0.02749  -2.65050
   D27       -1.47100   0.00240   0.00000   0.01452   0.01453  -1.45647
   D28        1.62958  -0.00413   0.00000  -0.02952  -0.02950   1.60008
   D29       -1.08453   0.00113   0.00000   0.00528   0.00528  -1.07925
   D30        1.02572  -0.00037   0.00000   0.00259   0.00258   1.02830
   D31        3.11192   0.00191   0.00000   0.00752   0.00753   3.11945
   D32       -1.25619  -0.00090   0.00000  -0.00291  -0.00291  -1.25910
   D33        2.95636   0.00146   0.00000   0.00454   0.00454   2.96091
   D34        0.89064  -0.00005   0.00000   0.00134   0.00135   0.89198
   D35       -2.96776   0.00625   0.00000   0.02379   0.02376  -2.94400
   D36       -0.85269   0.00021   0.00000   0.00078   0.00080  -0.85189
   D37        1.24465  -0.00394   0.00000  -0.01209  -0.01207   1.23258
   D38       -0.91474   0.00593   0.00000   0.02163   0.02159  -0.89315
   D39        1.20033  -0.00010   0.00000  -0.00138  -0.00137   1.19896
   D40       -2.98552  -0.00425   0.00000  -0.01425  -0.01424  -2.99976
   D41        1.13854   0.00445   0.00000   0.01644   0.01642   1.15496
   D42       -3.02957  -0.00159   0.00000  -0.00657  -0.00655  -3.03612
   D43       -0.93223  -0.00574   0.00000  -0.01943  -0.01941  -0.95165
   D44        1.14581   0.00085   0.00000   0.00481   0.00480   1.15061
   D45       -1.02196  -0.00008   0.00000   0.00187   0.00186  -1.02010
   D46       -3.07071   0.00155   0.00000   0.00765   0.00763  -3.06308
   D47       -3.00500  -0.00504   0.00000  -0.01686  -0.01685  -3.02185
   D48        1.11041  -0.00596   0.00000  -0.01980  -0.01978   1.09063
   D49       -0.93834  -0.00433   0.00000  -0.01402  -0.01401  -0.95235
   D50       -0.99085   0.00506   0.00000   0.01691   0.01691  -0.97394
   D51        3.12456   0.00414   0.00000   0.01397   0.01397   3.13853
   D52        1.07581   0.00577   0.00000   0.01976   0.01974   1.09555
   D53       -0.57958  -0.00407   0.00000  -0.01825  -0.01827  -0.59785
   D54        2.62171   0.00028   0.00000   0.00728   0.00732   2.62903
   D55       -2.67961  -0.00419   0.00000  -0.02536  -0.02543  -2.70503
   D56        0.52168   0.00015   0.00000   0.00016   0.00016   0.52184
   D57        1.57727  -0.00287   0.00000  -0.02600  -0.02601   1.55126
   D58       -1.50463   0.00148   0.00000  -0.00047  -0.00042  -1.50505
   D59       -1.08659   0.00117   0.00000   0.00506   0.00506  -1.08153
   D60        1.03071  -0.00080   0.00000   0.00051   0.00050   1.03121
   D61        3.10709   0.00161   0.00000   0.00588   0.00589   3.11298
   D62       -1.93409  -0.01682   0.00000  -0.08170  -0.08161  -2.01569
   D63        1.27344  -0.01246   0.00000  -0.05416  -0.05425   1.21919
         Item               Value     Threshold  Converged?
 Maximum Force            0.037898     0.000015     NO 
 RMS     Force            0.007358     0.000010     NO 
 Maximum Displacement     1.874026     0.000060     NO 
 RMS     Displacement     0.513665     0.000040     NO 
 GradGradGradGradGradGradGradGradGradGradGradGradGradGradGradGradGradGrad

                    Distance matrix (angstroms):
                    1          2          3          4          5
     1  O    0.000000
     2  C    1.395440   0.000000
     3  C    2.472032   1.549058   0.000000
     4  Br   4.120538   2.842477   1.938667   0.000000
     5  C    2.887563   2.577384   1.553341   2.849384   0.000000
     6  O    2.755445   3.075875   2.439405   4.117381   1.383359
     7  N    3.159707   2.531445   1.487008   2.785833   2.424250
     8  O    4.343662   3.604954   2.328697   2.909932   3.038850
     9  O    2.879760   2.716767   2.285123   3.867620   3.069198
    10  H    0.976007   1.981542   2.984828   4.696243   3.548631
    11  H    2.011710   1.098065   2.118639   2.799635   2.869428
    12  H    2.074249   1.099634   2.186789   3.103060   3.519944
    13  H    3.041347   2.741272   2.149201   3.012388   1.103223
    14  H    3.949306   3.509867   2.172131   2.923361   1.097585
    15  H    2.009529   2.712558   2.613315   4.421293   1.922069
    16  O    6.622523   6.973570   7.276471   8.638040   8.103811
    17  C    5.781722   5.951429   6.344047   7.564452   7.358962
    18  C    4.845833   5.200174   5.930438   7.265502   6.920305
    19  Br   4.598785   4.552130   5.484841   6.425426   6.746746
    20  C    5.849663   6.390491   7.286295   8.662559   8.192379
    21  O    6.440076   7.161549   7.944643   9.484684   8.661059
    22  N    3.793643   4.438166   5.130573   6.734705   5.868504
    23  O    4.354695   5.079202   5.499402   7.210251   6.022567
    24  O    2.842934   3.660847   4.611136   6.244275   5.293405
    25  H    6.241954   6.699941   6.913742   8.404034   7.584661
    26  H    6.552515   6.582696   7.014946   8.037770   8.155622
    27  H    5.381268   5.388243   5.562537   6.715266   6.598147
    28  H    6.691677   7.079323   7.968105   9.187012   8.995121
    29  H    5.548070   6.182606   7.263086   8.644768   8.128096
    30  H    6.909039   7.543522   8.172532   9.681784   8.906807
                    6          7          8          9         10
     6  O    0.000000
     7  N    2.780945   0.000000
     8  O    3.524823   1.200498   0.000000
     9  O    2.904589   1.212558   2.138356   0.000000
    10  H    3.196946   3.244036   4.439096   2.612586   0.000000
    11  H    3.601116   3.413247   4.359594   3.777359   2.800464
    12  H    3.990988   2.722984   3.720282   2.771749   2.225931
    13  H    2.078700   3.370964   4.007213   4.002524   3.895569
    14  H    2.004210   2.672110   2.836224   3.519592   4.538203
    15  H    0.972954   3.092153   4.055575   2.957559   2.454349
    16  O    7.516389   6.227505   6.702541   5.138673   5.698051
    17  C    6.968983   5.386602   5.914840   4.383247   4.895649
    18  C    6.510912   5.294382   6.088612   4.258549   3.918543
    19  Br   6.706513   5.143595   5.945051   4.434861   3.888582
    20  C    7.680127   6.762615   7.607796   5.697573   4.910569
    21  O    7.949150   7.326468   8.147199   6.167803   5.472860
    22  N    5.269183   4.578767   5.506546   3.442933   2.821535
    23  O    5.220959   4.751375   5.564002   3.541194   3.429977
    24  O    4.750903   4.413312   5.496027   3.413207   1.885564
    25  H    6.880178   5.845592   6.339138   4.708147   5.331754
    26  H    7.885858   6.083013   6.532112   5.192845   5.700226
    27  H    6.295823   4.478113   4.894974   3.552743   4.583606
    28  H    8.581813   7.404659   8.170214   6.401263   5.781270
    29  H    7.635802   6.958876   7.914330   5.942963   4.663858
    30  H    8.190894   7.391100   8.096813   6.225492   5.933040
                   11         12         13         14         15
    11  H    0.000000
    12  H    1.780615   0.000000
    13  H    2.603618   3.784187   0.000000
    14  H    3.782151   4.336792   1.789273   0.000000
    15  H    3.241411   3.635745   2.321778   2.816491   0.000000
    16  O    8.006684   6.442092   8.943232   8.602221   7.221434
    17  C    6.946741   5.288616   8.144614   7.902423   6.653778
    18  C    6.108684   4.558641   7.550939   7.643823   6.006248
    19  Br   5.264000   3.635632   7.218949   7.508471   6.198741
    20  C    7.205228   5.784727   8.739467   8.986950   7.064357
    21  O    8.030123   6.705151   9.260924   9.421483   7.347153
    22  N    5.389412   4.089465   6.495369   6.637245   4.711212
    23  O    6.089125   4.890720   6.759914   6.680984   4.771622
    24  O    4.497381   3.431144   5.754705   6.191927   4.043639
    25  H    7.759246   6.310914   8.449995   8.061428   6.611640
    26  H    7.519923   5.789068   8.914124   8.683728   7.577270
    27  H    6.420177   4.759090   7.448015   7.045778   6.105491
    28  H    7.865813   6.349590   9.548965   9.759778   8.000496
    29  H    6.879936   5.624465   8.548221   9.012780   6.918297
    30  H    8.478645   7.061243   9.597285   9.581197   7.683596
                   16         17         18         19         20
    16  O    0.000000
    17  C    1.398573   0.000000
    18  C    2.454183   1.540446   0.000000
    19  Br   4.129191   2.845300   1.932933   0.000000
    20  C    2.921222   2.576976   1.551737   2.821367   0.000000
    21  O    2.745779   3.062678   2.446351   4.102981   1.384551
    22  N    3.045407   2.497765   1.496451   2.810712   2.444777
    23  O    2.722194   2.694689   2.295572   3.897109   3.068060
    24  O    4.244030   3.569460   2.335477   2.922167   3.083529
    25  H    0.970180   1.934198   2.715236   4.498203   3.296808
    26  H    2.008040   1.096836   2.146154   2.893598   2.862223
    27  H    2.079154   1.099883   2.159740   3.050494   3.509941
    28  H    3.164315   2.768362   2.148717   2.957206   1.103597
    29  H    3.961535   3.509183   2.171707   2.909559   1.097891
    30  H    2.028865   2.710898   2.630445   4.410983   1.928466
                   21         22         23         24         25
    21  O    0.000000
    22  N    2.820221   0.000000
    23  O    2.916739   1.204826   0.000000
    24  O    3.602704   1.206886   2.136332   0.000000
    25  H    2.912808   2.791961   2.115252   3.984552   0.000000
    26  H    3.534338   3.423585   3.763237   4.387548   2.813045
    27  H    4.006694   2.684591   2.797813   3.647981   2.275427
    28  H    2.077645   3.389536   4.011994   4.038530   3.799511
    29  H    2.002788   2.688302   3.502921   2.886758   4.219130
    30  H    0.971568   3.137913   2.992212   4.129353   2.296591
                   26         27         28         29         30
    26  H    0.000000
    27  H    1.782829   0.000000
    28  H    2.611341   3.784931   0.000000
    29  H    3.807212   4.315289   1.787304   0.000000
    30  H    3.146152   3.680000   2.328104   2.818667   0.000000
 Framework group  C1[X(C6H12Br2N2O8)]
 Deg. of freedom    84
                         Standard orientation:                         
 ---------------------------------------------------------------------
 Center     Atomic      Atomic             Coordinates (Angstroms)
 Number     Number       Type             X           Y           Z
 ---------------------------------------------------------------------
      1          8           0        1.216235    0.708118   -1.979313
      2          6           0        1.942017   -0.270819   -1.299477
      3          6           0        2.845353    0.282707   -0.169356
      4         35           0        4.148335   -1.072769    0.303243
      5          6           0        3.595950    1.575153   -0.592508
      6          8           0        2.738734    2.649161   -0.751785
      7          7           0        2.085617    0.640958    1.057694
      8          8           0        2.633455    0.615964    2.125610
      9          8           0        0.953044    1.031332    0.870121
     10          1           0        0.301425    0.784463   -1.647825
     11          1           0        2.634592   -0.717770   -2.024957
     12          1           0        1.291820   -1.066986   -0.908891
     13          1           0        4.155943    1.331747   -1.511345
     14          1           0        4.310497    1.844120    0.196018
     15          1           0        2.111699    2.431473   -1.463176
     16          8           0       -4.056177    1.017097    2.016185
     17          6           0       -3.224738   -0.044658    1.645518
     18          6           0       -3.059867   -0.180721    0.119976
     19         35           0       -2.200769   -1.863454   -0.288183
     20          6           0       -4.413041   -0.147926   -0.638793
     21          8           0       -5.050644    1.077295   -0.542470
     22          7           0       -2.236064    0.943735   -0.424370
     23          8           0       -2.368091    2.008132    0.124478
     24          8           0       -1.569299    0.758520   -1.413154
     25          1           0       -3.579209    1.845640    1.851058
     26          1           0       -3.704707   -0.959942    2.012850
     27          1           0       -2.226621    0.033018    2.101009
     28          1           0       -5.022008   -0.978280   -0.241808
     29          1           0       -4.226967   -0.329957   -1.705379
     30          1           0       -5.250247    1.250076    0.392544
 ---------------------------------------------------------------------
 Rotational constants (GHZ):           0.4747279           0.1192135           0.1111778
   312 basis functions,   608 primitive gaussians,   334 cartesian basis functions
    98 alpha electrons       98 beta electrons
       nuclear repulsion energy      2429.0665255668 Hartrees.
 NAtoms=   30 NActive=   30 NUniq=   30 SFac= 1.00D+00 NAtFMM=   60 NAOKFM=F Big=F
 Nuclear repulsion after empirical dispersion term =     2429.0446400353 Hartrees.
   1 Symmetry operations used in ECPInt.
 ECPInt:  NShTT=   10440 NPrTT=   45474 LenC2=    9178 LenP2D=   26097.
 LDataN:  DoStor=T MaxTD1= 4 Len=   56
 Initial guess from the checkpoint file:  "/scratch/user/peterchao1/peterchao1/6113326_1660079104000000081366362/Gau-88362.chk"
 B after Tr=     0.000000    0.000000   -0.000000
         Rot=    0.993593    0.107342   -0.014452    0.032277 Ang=  12.98 deg.
 ExpMin= 1.22D-01 ExpMax= 1.13D+05 ExpMxC= 1.70D+04 IAcc=3 IRadAn=         5 AccDes= 0.00D+00
 Harris functional with IExCor= 4639 and IRadAn=       5 diagonalized for initial guess.
 HarFok:  IExCor= 4639 AccDes= 0.00D+00 IRadAn=         5 IDoV= 1 UseB2=F ITyADJ=14
 ICtDFT=  3500011 ScaDFX=  1.000000  1.000000  1.000000  1.000000
 FoFCou: FMM=F IPFlag=           0 FMFlag=      100000 FMFlg1=           0
         NFxFlg=           0 DoJE=T BraDBF=F KetDBF=T FulRan=T
         wScrn=  0.000000 ICntrl=       500 IOpCl=  0 I1Cent=   200000004 NGrid=           0
         NMat0=    1 NMatS0=      1 NMatT0=    0 NMatD0=    1 NMtDS0=    0 NMtDT0=    0
 Petite list used in FoFCou.
     Minimum is close to point  4 DX=  9.64D-02 DF= -1.13D-03 DXR=  7.44D-02 DFR=  5.57D-03 which will be used.
     Accept linear search using points  2 and  3.
     Accept linear search using points  1 and  2.
     Minimum is close to point  2 DX= -4.71D-02 DF= -5.27D-05 DXR=  4.47D-02 DFR=  2.36D-03 which will be used.
     Accept linear search using points  1 and  2.
     Accept linear search using points  1 and  2.
     Accept linear search using points  1 and  2.
 Restarting incremental Fock formation.
     Accept linear search using points  1 and  2.
     Accept linear search using points  1 and  2.
     Accept linear search using points  1 and  2.
     Accept linear search using points  1 and  2.
 Restarting incremental Fock formation.
     Accept linear search using points  1 and  2.
     Accept linear search using points  1 and  2.
     Accept linear search using points  1 and  2.
     Accept linear search using points  1 and  2.
 Restarting incremental Fock formation.
     Accept linear search using points  1 and  2.
     Minimum is close to point  2 DX= -5.60D-04 DF= -7.46D-11 DXR=  5.60D-04 DFR=  3.15D-07 which will be used.
 SCF Done:  E(RwB97XD) =  -6093.69144110     a.u. after   27 cycles
            Convg  =    0.4805D-08                    90 Fock formations.
              S**2 =  0.0000                  -V/T =  2.0020
   1 Symmetry operations used in ECPInt.
 ECPInt:  NShTT=   10440 NPrTT=   45474 LenC2=    9178 LenP2D=   26097.
 LDataN:  DoStor=T MaxTD1= 5 Len=  102
 Calling FoFJK, ICntrl=      2127 FMM=F ISym2X=0 I1Cent= 0 IOpClX= 0 NMat=1 NMatS=1 NMatT=0.

 GradGradGradGradGradGradGradGradGradGradGradGradGradGradGradGradGradGrad
 Using GEDIIS/GDIIS optimizer.
 FormGI is forming the generalized inverse of G from B-inverse, IUseBI=4.
 Internal  Forces:  Max     0.016589565 RMS     0.003793745
 Step number   2 out of a maximum of  151
 All quantities printed in internal units (Hartrees-Bohrs-Radians)
 Mixed Optimization -- RFO/linear search
 Trust test=-4.74D-02 RLast= 4.00D-01 DXMaxT set to 1.50D-01
 ITU= -1  0
 Use linear search instead of GDIIS.
     Eigenvalues ---    0.00229   0.00230   0.00230   0.00230   0.00230
     Eigenvalues ---    0.00249   0.00525   0.00685   0.00727   0.00827
     Eigenvalues ---    0.01619   0.01737   0.01903   0.01913   0.02603
     Eigenvalues ---    0.04405   0.04755   0.04782   0.04872   0.04877
     Eigenvalues ---    0.04943   0.05110   0.05552   0.05983   0.06011
     Eigenvalues ---    0.06034   0.06089   0.06352   0.08320   0.08501
     Eigenvalues ---    0.09347   0.11529   0.11600   0.11685   0.11752
     Eigenvalues ---    0.13950   0.13990   0.14024   0.14579   0.15745
     Eigenvalues ---    0.16000   0.16000   0.16000   0.16559   0.16846
     Eigenvalues ---    0.17336   0.17938   0.18435   0.19171   0.21013
     Eigenvalues ---    0.22048   0.22105   0.22111   0.23134   0.24873
     Eigenvalues ---    0.24959   0.25000   0.27296   0.27400   0.27618
     Eigenvalues ---    0.28573   0.30225   0.32859   0.33639   0.33768
     Eigenvalues ---    0.34075   0.34121   0.34160   0.34204   0.34269
     Eigenvalues ---    0.34362   0.36829   0.46170   0.46781   0.48375
     Eigenvalues ---    0.48540   0.52728   0.53046   0.53309   0.53502
     Eigenvalues ---    0.98701   1.01895   1.03084   1.05224
 Quartic linear search produced a step of -0.65596.
 Maximum step size (   0.150) exceeded in Quadratic search.
    -- Step size scaled by   0.266
 Iteration  1 RMS(Cart)=  0.22629418 RMS(Int)=  0.01570673
 Iteration  2 RMS(Cart)=  0.19965484 RMS(Int)=  0.00479807
 Iteration  3 RMS(Cart)=  0.01110758 RMS(Int)=  0.00004026
 Iteration  4 RMS(Cart)=  0.00002837 RMS(Int)=  0.00003698
 Iteration  5 RMS(Cart)=  0.00000000 RMS(Int)=  0.00003698
 Variable       Old X    -DE/DX   Delta X   Delta X   Delta X     New X
                                 (Linear)    (Quad)   (Total)
    R1        2.63700  -0.00308  -0.00165   0.00186   0.00021   2.63721
    R2        1.84439  -0.00578  -0.00418   0.00528   0.00111   1.84549
    R3        2.92729  -0.00760  -0.00540   0.00535  -0.00005   2.92724
    R4        2.07504   0.00258  -0.00273   0.00479   0.00205   2.07710
    R5        2.07801   0.00330  -0.00409   0.00701   0.00292   2.08092
    R6        3.66355   0.00044  -0.00256   0.00381   0.00124   3.66479
    R7        2.93539  -0.00031  -0.00035   0.00040   0.00005   2.93544
    R8        2.81004   0.01649  -0.01721   0.03010   0.01290   2.82293
    R9        2.61417   0.00031  -0.00033   0.00056   0.00023   2.61440
   R10        2.08479   0.00368  -0.00437   0.00754   0.00317   2.08796
   R11        2.07414   0.00229  -0.00296   0.00504   0.00208   2.07622
   R12        1.83862   0.00025   0.00031  -0.00042  -0.00011   1.83850
   R13        2.26861   0.00521  -0.00214   0.00380   0.00167   2.27028
   R14        2.29140   0.00609   0.00081  -0.00064   0.00017   2.29157
   R15        3.56320  -0.00248  -0.01699   0.01486  -0.00213   3.56107
   R16        2.64292   0.00085  -0.00247   0.00392   0.00144   2.64436
   R17        1.83338   0.00056   0.00013  -0.00009   0.00004   1.83341
   R18        2.91102   0.00099  -0.00169   0.00281   0.00112   2.91214
   R19        2.07272   0.00200  -0.00278   0.00469   0.00191   2.07463
   R20        2.07848   0.00437  -0.00369   0.00671   0.00302   2.08150
   R21        3.65271   0.00075  -0.01037   0.01489   0.00451   3.65723
   R22        2.93236   0.00191  -0.00179   0.00328   0.00149   2.93384
   R23        2.82788   0.01071  -0.02436   0.03919   0.01483   2.84271
   R24        2.61642   0.00018  -0.00067   0.00105   0.00038   2.61680
   R25        2.08550   0.00306  -0.00373   0.00641   0.00268   2.08818
   R26        2.07471   0.00215  -0.00274   0.00467   0.00193   2.07665
   R27        1.83600   0.00028   0.00007  -0.00006   0.00001   1.83601
   R28        2.27679   0.00647  -0.00243   0.00439   0.00196   2.27875
   R29        2.28068   0.00347  -0.00181   0.00314   0.00133   2.28202
    A1        1.95725  -0.01659  -0.01754   0.01484  -0.00269   1.95456
    A2        1.99112  -0.00987  -0.01009   0.00960  -0.00041   1.99070
    A3        1.86681   0.00226  -0.00193   0.00639   0.00439   1.87121
    A4        1.95351   0.00546   0.00471  -0.00780  -0.00289   1.95062
    A5        1.83345   0.00643   0.02029  -0.02157  -0.00136   1.83209
    A6        1.92239  -0.00252  -0.01237   0.01204  -0.00028   1.92210
    A7        1.88905  -0.00116   0.00127  -0.00025   0.00093   1.88998
    A8        1.89647   0.00144   0.01206  -0.01561  -0.00346   1.89301
    A9        1.96098   0.00018   0.00058  -0.00011   0.00048   1.96146
   A10        1.97160  -0.00960  -0.00864   0.00487  -0.00377   1.96783
   A11        1.90010  -0.00174   0.00119   0.00056   0.00178   1.90189
   A12        1.88670   0.00314  -0.01260   0.01827   0.00562   1.89232
   A13        1.84545   0.00689   0.00671  -0.00682  -0.00014   1.84532
   A14        1.95834  -0.00165   0.00145  -0.00284  -0.00139   1.95695
   A15        1.86355  -0.00114   0.00333  -0.00554  -0.00221   1.86134
   A16        1.89945  -0.00008   0.00159  -0.00206  -0.00047   1.89898
   A17        1.97136   0.00175  -0.00500   0.00749   0.00249   1.97385
   A18        1.87117   0.00140  -0.00204   0.00387   0.00183   1.87300
   A19        1.89859  -0.00032   0.00086  -0.00119  -0.00032   1.89827
   A20        1.88581  -0.00229   0.00679  -0.01070  -0.00391   1.88190
   A21        2.08964  -0.00029  -0.01030   0.01589   0.00557   2.09521
   A22        2.01211  -0.00282   0.00855  -0.01244  -0.00391   2.00820
   A23        2.17797   0.00335   0.00348  -0.00275   0.00071   2.17868
   A24        1.88700  -0.00141   0.00503  -0.00777  -0.00274   1.88426
   A25        1.97485   0.00125  -0.00174   0.00300   0.00126   1.97611
   A26        1.85939   0.00038  -0.00075   0.00144   0.00069   1.86008
   A27        1.95640  -0.00013  -0.00320   0.00401   0.00082   1.95722
   A28        1.88051  -0.00198   0.00519  -0.00809  -0.00290   1.87762
   A29        1.89572   0.00040   0.00075  -0.00081  -0.00006   1.89566
   A30        1.89373  -0.00007   0.00012  -0.00016  -0.00003   1.89369
   A31        1.91090  -0.00192   0.00691  -0.01129  -0.00431   1.90658
   A32        1.97040   0.00105  -0.00028   0.00428   0.00405   1.97444
   A33        1.93134  -0.00226   0.00399  -0.00764  -0.00363   1.92771
   A34        1.87835   0.00125   0.00817  -0.00872  -0.00052   1.87783
   A35        1.90993   0.00023  -0.02453   0.02930   0.00473   1.91466
   A36        1.86117   0.00182   0.00454  -0.00451   0.00003   1.86120
   A37        1.96738   0.00062   0.00075  -0.00083  -0.00009   1.96729
   A38        1.86439  -0.00209   0.00432  -0.00718  -0.00286   1.86153
   A39        1.90047  -0.00088   0.00149  -0.00256  -0.00106   1.89941
   A40        1.96783   0.00144  -0.00435   0.00689   0.00255   1.97038
   A41        1.86749   0.00072  -0.00265   0.00415   0.00150   1.86898
   A42        1.89466   0.00012   0.00056  -0.00071  -0.00013   1.89453
   A43        1.89540  -0.00238   0.00714  -0.01123  -0.00410   1.89131
   A44        2.02395  -0.00055   0.00434  -0.00603  -0.00168   2.02227
   A45        2.07927   0.00039  -0.01534   0.02294   0.00762   2.08688
   A46        2.17650   0.00038   0.01214  -0.01689  -0.00474   2.17176
   A47        2.27572  -0.00871  -0.00806   0.00621  -0.00186   2.27386
   A48        3.36064  -0.01445  -0.18083  -0.11956  -0.30040   3.06025
   A49        3.24861   0.00096  -0.03413  -0.00343  -0.03756   3.21105
    D1       -1.70967   0.00917   0.06754  -0.02623   0.04127  -1.66839
    D2        2.55419   0.00530   0.04953  -0.00918   0.04034   2.59453
    D3        0.48795   0.00222   0.04653  -0.00845   0.03812   0.52607
    D4        1.07455   0.00367   0.10598   0.04517   0.15116   1.22571
    D5       -2.84924  -0.00091  -0.00288   0.01629   0.01339  -2.83585
    D6       -0.74564  -0.00200   0.00732   0.00637   0.01359  -0.73205
    D7        1.34043   0.00024   0.01028   0.00090   0.01107   1.35151
    D8       -0.81051   0.00072   0.00221   0.01539   0.01765  -0.79286
    D9        1.29310  -0.00036   0.01241   0.00546   0.01784   1.31094
   D10       -2.90402   0.00188   0.01537  -0.00000   0.01533  -2.88869
   D11        1.22008   0.00163   0.00852   0.00919   0.01786   1.23794
   D12       -2.95950   0.00055   0.01873  -0.00073   0.01806  -2.94145
   D13       -0.87343   0.00279   0.02169  -0.00620   0.01554  -0.85789
   D14        1.19824  -0.00252  -0.01024   0.00813  -0.00212   1.19612
   D15       -0.97047  -0.00287  -0.00721   0.00441  -0.00281  -0.97329
   D16       -3.01709  -0.00184  -0.01086   0.00986  -0.00100  -3.01809
   D17       -2.98344  -0.00178   0.00618  -0.01115  -0.00495  -2.98840
   D18        1.13103  -0.00212   0.00921  -0.01487  -0.00565   1.12538
   D19       -0.91559  -0.00110   0.00556  -0.00942  -0.00384  -0.91942
   D20       -0.95994   0.00459  -0.00442   0.00679   0.00237  -0.95758
   D21       -3.12865   0.00425  -0.00139   0.00307   0.00167  -3.12698
   D22        1.10791   0.00528  -0.00504   0.00852   0.00348   1.11140
   D23        2.67524   0.00017  -0.00953   0.00309  -0.00651   2.66874
   D24       -0.55139   0.00319   0.01935   0.01145   0.03074  -0.52065
   D25        0.57613   0.00224  -0.01085   0.00715  -0.00362   0.57251
   D26       -2.65050   0.00526   0.01803   0.01552   0.03363  -2.61687
   D27       -1.45647  -0.00073  -0.00953   0.00123  -0.00832  -1.46479
   D28        1.60008   0.00229   0.01935   0.00960   0.02893   1.62902
   D29       -1.07925   0.00169  -0.00346   0.00627   0.00280  -1.07644
   D30        1.02830   0.00026  -0.00169   0.00239   0.00070   1.02900
   D31        3.11945   0.00185  -0.00494   0.00797   0.00302   3.12247
   D32       -1.25910  -0.00059   0.00191  -0.00246  -0.00054  -1.25964
   D33        2.96091   0.00088  -0.00298   0.00483   0.00185   2.96276
   D34        0.89198   0.00080  -0.00088   0.00188   0.00100   0.89298
   D35       -2.94400  -0.00039  -0.01559   0.01792   0.00236  -2.94164
   D36       -0.85189   0.00055  -0.00052   0.00188   0.00135  -0.85055
   D37        1.23258   0.00201   0.00792  -0.00634   0.00156   1.23414
   D38       -0.89315  -0.00047  -0.01416   0.01621   0.00207  -0.89108
   D39        1.19896   0.00047   0.00090   0.00016   0.00106   1.20002
   D40       -2.99976   0.00192   0.00934  -0.00805   0.00128  -2.99848
   D41        1.15496  -0.00141  -0.01077   0.01118   0.00043   1.15539
   D42       -3.03612  -0.00047   0.00429  -0.00487  -0.00058  -3.03670
   D43       -0.95165   0.00098   0.01274  -0.01308  -0.00036  -0.95201
   D44        1.15061   0.00019  -0.00315   0.00325   0.00010   1.15071
   D45       -1.02010  -0.00055  -0.00122   0.00019  -0.00103  -1.02112
   D46       -3.06308   0.00089  -0.00501   0.00621   0.00121  -3.06187
   D47       -3.02185  -0.00071   0.01105  -0.01417  -0.00313  -3.02498
   D48        1.09063  -0.00144   0.01298  -0.01723  -0.00426   1.08637
   D49       -0.95235  -0.00000   0.00919  -0.01121  -0.00203  -0.95438
   D50       -0.97394   0.00112  -0.01109   0.01322   0.00213  -0.97182
   D51        3.13853   0.00039  -0.00916   0.01016   0.00100   3.13953
   D52        1.09555   0.00182  -0.01295   0.01618   0.00323   1.09879
   D53       -0.59785   0.00098   0.01199   0.00497   0.01697  -0.58088
   D54        2.62903  -0.00169  -0.00480   0.00574   0.00090   2.62993
   D55       -2.70503   0.00464   0.01668   0.00484   0.02158  -2.68346
   D56        0.52184   0.00198  -0.00011   0.00561   0.00551   0.52735
   D57        1.55126   0.00208   0.01706   0.00270   0.01977   1.57103
   D58       -1.50505  -0.00059   0.00027   0.00347   0.00370  -1.50135
   D59       -1.08153   0.00080  -0.00332   0.00415   0.00083  -1.08070
   D60        1.03121  -0.00042  -0.00033  -0.00078  -0.00110   1.03011
   D61        3.11298   0.00104  -0.00386   0.00509   0.00122   3.11420
   D62       -2.01569   0.00356   0.05353  -0.03841   0.01505  -2.00064
   D63        1.21919   0.00069   0.03559  -0.03838  -0.00272   1.21647
         Item               Value     Threshold  Converged?
 Maximum Force            0.016590     0.000015     NO 
 RMS     Force            0.003794     0.000010     NO 
 Maximum Displacement     1.560219     0.000060     NO 
 RMS     Displacement     0.421415     0.000040     NO 
 GradGradGradGradGradGradGradGradGradGradGradGradGradGradGradGradGradGrad

                    Distance matrix (angstroms):
                    1          2          3          4          5
     1  O    0.000000
     2  C    1.395549   0.000000
     3  C    2.471768   1.549031   0.000000
     4  Br   4.116162   2.839549   1.939325   0.000000
     5  C    2.881913   2.577798   1.553370   2.851754   0.000000
     6  O    2.749172   3.073915   2.438395   4.119243   1.383482
     7  N    3.166107   2.533891   1.493832   2.797053   2.429525
     8  O    4.351529   3.609278   2.339240   2.929965   3.052976
     9  O    2.884789   2.705280   2.288385   3.867393   3.087314
    10  H    0.976592   1.980365   2.965698   4.685488   3.515217
    11  H    2.015813   1.099152   2.118331   2.785311   2.878375
    12  H    2.073562   1.101177   2.187710   3.110010   3.520050
    13  H    3.032103   2.741640   2.148749   3.010461   1.104899
    14  H    3.945775   3.510955   2.172615   2.928038   1.098686
    15  H    1.998296   2.705378   2.607698   4.416676   1.919525
    16  O    6.508821   6.743849   6.609468   7.969018   7.243118
    17  C    5.658864   5.686951   5.592243   6.812839   6.449427
    18  C    4.789437   4.964533   5.286123   6.620835   6.238831
    19  Br   4.560397   4.273025   4.752478   5.645624   6.059263
    20  C    5.853198   6.183472   6.709975   8.047272   7.643449
    21  O    6.444042   6.988492   7.447868   8.957231   8.165849
    22  N    3.743247   4.271582   4.680401   6.319974   5.364057
    23  O    4.272037   4.937207   5.106792   6.857346   5.492628
    24  O    2.857394   3.546035   4.308792   5.965331   5.015468
    25  H    6.121556   6.501815   6.339446   7.850331   6.788375
    26  H    6.432663   6.289777   6.183558   7.161761   7.183633
    27  H    5.210357   5.114444   4.773511   5.958197   5.576377
    28  H    6.683956   6.840569   7.302060   8.454411   8.351221
    29  H    5.601446   6.003696   6.770958   8.103595   7.733723
    30  H    6.875041   7.350042   7.618383   9.100742   8.293668
                    6          7          8          9         10
     6  O    0.000000
     7  N    2.781424   0.000000
     8  O    3.533199   1.201381   0.000000
     9  O    2.927787   1.212648   2.139615   0.000000
    10  H    3.151214   3.220714   4.416064   2.581474   0.000000
    11  H    3.611489   3.416001   4.364078   3.768652   2.810634
    12  H    3.983012   2.716947   3.715443   2.734954   2.229514
    13  H    2.081814   3.377435   4.022711   4.017358   3.868455
    14  H    2.006467   2.677774   2.852974   3.542050   4.504838
    15  H    0.972894   3.088481   4.058539   2.971357   2.405570
    16  O    6.618934   5.314652   5.522448   4.327302   5.697599
    17  C    6.044252   4.318185   4.560652   3.388637   4.893893
    18  C    5.828015   4.319560   4.916032   3.250940   3.922296
    19  Br   6.066140   4.042969   4.625995   3.350473   3.901918
    20  C    7.145039   5.842368   6.467459   4.749366   4.915662
    21  O    7.454366   6.535832   7.155339   5.364109   5.475814
    22  N    4.731111   3.916507   4.751886   2.718146   2.819935
    23  O    4.622179   4.236498   4.962637   3.045201   3.423777
    24  O    4.461757   3.932445   4.964983   2.854201   1.884436
    25  H    6.020941   5.098929   5.387735   4.065676   5.328077
    26  H    6.926861   4.897827   4.984887   4.127593   5.698921
    27  H    5.249585   3.397164   3.520438   2.600512   4.577444
    28  H    7.964142   6.359115   6.845684   5.362831   5.786431
    29  H    7.268633   6.122171   6.887598   5.049370   4.669535
    30  H    7.566714   6.557009   7.036124   5.416015   5.932917
                   11         12         13         14         15
    11  H    0.000000
    12  H    1.783345   0.000000
    13  H    2.613935   3.787984   0.000000
    14  H    3.789223   4.337945   1.791324   0.000000
    15  H    3.248719   3.621576   2.322020   2.816706   0.000000
    16  O    7.839202   6.389106   8.225599   7.517806   6.573817
[...]
 0,0.00021190,-0.00006559,-0.00027194,0.00012869,0.00007908,-0.00010298
 ,0.00006693,-0.00005027,0.00125295,0.00045972,-0.00026205,0.00168117,0
 .00332224,-0.00129602,-0.00289168,-0.00393782,0.00053505,-0.00470082,0
 .01205485,0.00607854,-0.00381581,-0.00165672,0.00714014,-0.00114760,-0
 .00357456,0.00255640,0.00109956,0.00224536,0.00056385,0.00955308,-0.16
 865099,-0.14748288,0.00415143,-0.03684679,-0.10314497,-0.00113288,0.20
 049546,0.00531329,0.00265464,0.00478824,-0.00187123,0.00135049,-0.0018
 1497,0.00067020,-0.00008566,-0.00063949,0.00000260,0.00009737,0.000359
 21,0.00173275,-0.00121195,0.00029200,-0.00325666,-0.00038525,0.0005963
 1,0.00120822,-0.00258187,-0.00423020,-0.00140033,0.00127833,0.00336720
 ,0.00086472,0.00090826,0.00179452,-0.00908989,-0.00543478,-0.00490198,
 0.00046226,-0.00016124,0.00024906,-0.00024913,-0.00007555,0.00002224,-
 0.00050129,0.00007654,0.00007614,-0.00008627,0.00017895,-0.00000170,0.
 00196374,0.00020113,-0.00206015,0.00104651,0.00092935,-0.00208408,0.00
 451257,0.00328531,-0.00098111,0.02084589,-0.01367098,-0.03833264,0.000
 31690,0.00170613,-0.00004310,-0.00341634,0.00470890,-0.00625028,0.0023
 2075,-0.00096227,0.00191401,0.13607078,-0.14499229,-0.57149403,-0.0161
 3912,-0.07901546,-0.05679208,-0.14217708,0.23077864,0.67126273,-0.0001
 1868,-0.00008232,-0.00028819,0.00010478,0.00000742,0.00014258,-0.00036
 544,0.00009735,0.00005547,0.00012814,-0.00007530,-0.00003239,-0.000546
 90,0.00032904,-0.00015276,0.00092546,0.00013354,-0.00052459,-0.0000642
 9,0.00123985,0.00221613,0.00086654,-0.00078310,-0.00131582,-0.00057705
 ,-0.00074532,-0.00069659,0.00015844,0.00001611,0.00014193,-0.00000736,
 0.00002016,-0.00003140,-0.00002119,-0.00000212,0.00001164,0.00020079,-
 0.00002839,-0.00005758,-0.00005348,-0.00004811,0.00002138,0.00009219,-
 0.00006632,0.00034781,-0.27069843,-0.21079179,0.12188919,0.00862298,0.
 00827892,-0.00318596,-0.00063609,0.00014789,0.00063404,-0.00011642,0.0
 0036060,0.00040340,0.00017189,-0.00224855,0.00009957,0.00116741,0.0020
 2938,0.00063670,0.00272946,0.00302452,-0.00027689,-0.00603645,-0.00233
 277,0.00404009,-0.00044702,-0.00144865,-0.00062796,0.26751647,-0.00015
 691,-0.00020723,-0.00003015,-0.00005633,-0.00004665,0.00003132,0.00021
 720,0.00008848,-0.00002234,-0.00003340,-0.00008828,0.00001254,-0.00045
 914,0.00040721,-0.00008623,0.00066033,-0.00062052,-0.00010070,0.000896
 41,0.00039835,-0.00035690,-0.00065781,-0.00013889,0.00020092,-0.000656
 80,-0.00013490,0.00016539,0.00028176,0.00011541,-0.00012256,-0.0000226
 3,-0.00000012,0.00003795,0.00002954,-0.00001914,-0.00004581,0.00011041
 ,-0.00009045,-0.00002119,0.00000647,0.00002332,0.00001664,-0.00005609,
 0.00034344,0.00018071,-0.16678181,-0.19898155,0.07360754,-0.03121743,-
 0.03520075,0.01341948,-0.00059016,-0.00064726,0.00001869,0.00023433,0.
 00036639,0.00007857,-0.00040237,0.00037597,-0.00020716,0.00039385,-0.0
 0106787,0.00087820,0.00037239,-0.00185502,-0.00357482,-0.00195007,-0.0
 0112332,0.00642490,-0.00059203,0.00041103,0.00076025,0.19781178,0.2387
 5922,-0.00092166,0.00004255,-0.00012960,0.00053075,-0.00025811,0.00033
 791,0.00006619,-0.00004259,0.00000928,-0.00007089,0.00005510,-0.000085
 82,0.00034840,-0.00018812,0.00019207,-0.00073929,-0.00007135,-0.000381
 46,0.00053965,0.00083419,0.00200601,0.00051606,-0.00033370,-0.00127825
 ,-0.00082559,-0.00053050,-0.00100016,0.00097031,0.00015911,-0.00020054
 ,-0.00009124,0.00001517,-0.00005355,-0.00001034,0.00003990,-0.00002485
 ,-0.00009017,0.00004799,0.00000344,-0.00009838,0.00001861,-0.00002231,
 0.00050291,0.00022118,-0.00002151,0.12936355,0.09924243,-0.07286139,-0
 .00835232,-0.00803325,0.00285030,-0.00123487,-0.00273566,0.00111828,0.
 00023251,0.00011647,-0.00077892,-0.00021463,-0.00082022,-0.00023206,0.
 00101971,0.00114505,-0.00085209,-0.00341615,-0.00992607,-0.00585268,0.
 00518984,0.00776973,-0.00392183,0.00022655,0.00330473,0.00427095,-0.12
 254356,-0.08843717,0.07530020,0.00004258,0.00001266,0.00005511,-0.0000
 5883,-0.00000278,-0.00003872,0.00018275,-0.00008676,-0.00000696,-0.000
 03813,0.00000593,0.00000584,-0.00000488,0.00001751,0.00002993,-0.00004
 417,-0.00006211,0.00003113,0.00073333,0.00012010,-0.00031656,-0.000593
 58,0.00007173,0.00007469,-0.00053514,0.00012905,0.00020676,-0.00005812
 ,-0.00002457,-0.00005359,0.00000349,-0.00000916,0.00002125,0.00000942,
 -0.00000727,-0.00001445,-0.00000897,-0.00002531,0.00000348,0.00001129,
 0.00001359,0.00000224,0.00000113,0.00002889,-0.00003204,0.00903794,0.0
 0774222,-0.00565340,-0.14718803,-0.09950561,0.08954987,0.00404342,0.00
 450430,-0.00717737,0.00025715,0.00059626,-0.00000503,0.00087134,0.0006
 6354,-0.00041939,-0.00015424,-0.00015127,0.00002073,-0.00143311,-0.002
 17804,-0.00296411,0.00059464,0.00052522,0.00110903,0.00092763,0.000573
 06,-0.00017839,0.00093085,0.00245633,0.00037643,0.14423406,0.00005294,
 0.00003012,0.00001337,-0.00001223,0.00001361,-0.00001416,-0.00002813,0
 .00001144,0.00000057,0.00000294,0.00000712,0.00000275,0.00005327,-0.00
 003963,0.00000083,-0.00006775,0.00005313,0.00003015,-0.00022607,-0.000
 16830,-0.00015785,0.00005974,0.00005439,0.00011693,0.00023236,0.000033
 12,0.00004232,-0.00007412,-0.00003589,0.00001165,0.00000546,-0.0000001
 4,-0.00000133,-0.00000283,0.00000134,0.00000504,-0.00001240,0.00000995
 ,0.00000405,0.00000286,-0.00000113,-0.00000123,-0.00000068,-0.00004003
 ,-0.00002407,-0.01876978,-0.03489222,0.01140280,-0.09250236,-0.1445463
 9,0.09117592,0.00149808,0.00233808,-0.00113420,0.00075282,-0.00052774,
 -0.00230048,-0.00019728,-0.00047896,0.00009984,0.00030893,0.00045955,0
 .00029159,-0.00064049,0.00045182,-0.00135323,0.00020784,0.00056313,-0.
 00007985,0.00062948,0.00030025,-0.00043472,0.00374496,-0.00507021,-0.0
 0044003,0.10230419,0.17572233,0.00029581,0.00002599,0.00003754,-0.0001
 5013,0.00008912,-0.00009128,0.00000188,-0.00001272,-0.00001407,0.00001
 151,-0.00001166,0.00002025,-0.00005405,0.00002365,-0.00000123,0.000080
 05,0.00003123,0.00005650,0.00005474,-0.00009005,-0.00037141,-0.0002123
 2,0.00004406,0.00017469,0.00006212,0.00003609,0.00020632,-0.00035491,-
 0.00010815,0.00003869,0.00002879,-0.00000781,0.00001811,0.00000380,-0.
 00001226,0.00000477,0.00000707,-0.00001047,-0.00000339,0.00001061,0.00
 000127,0.00000515,-0.00007321,-0.00006919,-0.00002253,-0.00835075,-0.0
 1323802,0.00888898,0.08612367,0.09670290,-0.13328787,0.01834595,0.0190
 8486,-0.01972026,0.00006801,-0.00013483,-0.00000348,0.00155620,0.00022
 155,0.00116862,-0.00037587,-0.00026390,0.00017467,-0.00387461,-0.00188
 919,-0.00436093,0.00044253,0.00013814,0.00019289,0.00227012,0.00055971
 ,-0.00213709,0.00043422,-0.00301625,0.00028882,-0.09146253,-0.09303726
 ,0.14353604,-0.00016496,0.00003803,-0.00007469,0.00019954,-0.00001064,
 0.00007215,-0.00010623,-0.00038073,0.00006940,0.00010329,0.00002231,-0
 .00003225,0.00009034,-0.00010445,-0.00000728,-0.00009474,0.00006994,-0
 .00004798,-0.00063181,0.00034416,0.00226048,-0.00067784,0.00002576,-0.
 00109460,-0.00223431,0.00020336,0.00046462,0.00015267,0.00001800,0.000
 01787,-0.00001623,0.00001158,-0.00004845,-0.00001558,0.00001410,0.0000
 2438,-0.00000746,0.00003501,-0.00000717,-0.00002273,-0.00002973,-0.000
 01107,0.00005357,-0.00000069,0.00001789,0.00134657,0.00659285,0.001025
 50,-0.30458653,0.04798320,-0.04240612,-0.00490999,0.00076654,-0.000618
 16,0.00058587,-0.00052929,-0.00039416,0.00036466,-0.00037142,-0.000738
 11,0.00006023,0.00004308,-0.00007628,0.00056128,-0.00170971,-0.0003698
 3,0.00042148,0.00006835,0.00109603,-0.00029003,0.00030318,0.00049598,0
 .00082166,0.00022857,0.00116217,-0.01163277,0.00301394,-0.00385530,0.3
 2019489,0.00001673,0.00001061,-0.00005595,0.00009618,0.00006071,0.0000
 0263,-0.00046834,0.00015227,-0.00018860,-0.00000487,-0.00002086,-0.000
 00332,0.00000057,-0.00002833,-0.00002315,0.00008091,0.00013478,-0.0000
 6917,-0.00041699,0.00155190,0.00244165,0.00081796,-0.00116796,-0.00121
 756,0.00012156,-0.00144211,-0.00061807,-0.00002303,-0.00001085,0.00005
 950,0.,-0.00000182,-0.00003855,-0.00001362,-0.00000061,0.00001213,0.00
 001764,0.00003011,-0.00000654,-0.00002070,-0.00002587,0.00000063,0.000
 00132,-0.00006867,0.00004161,0.03692741,-0.02190257,0.00005262,0.03983
 020,-0.06132018,0.00910277,-0.00446181,0.00225230,0.00163710,-0.000388
 20,0.00041847,0.00008018,0.00021169,-0.00099802,-0.00168989,0.00014529
 ,0.00082990,0.00087445,0.00063780,-0.00026271,0.00019797,-0.00043191,-
 0.00002605,0.00044036,0.00011242,0.00005431,-0.00027553,0.00236162,0.0
 0193505,-0.00056068,-0.01759838,0.00575706,-0.00476643,-0.05659584,0.0
 7345055,0.00003279,-0.00002366,0.00010070,-0.00005237,0.00002422,-0.00
 008634,0.00028704,-0.00029117,-0.00025118,-0.00006167,0.00000816,-0.00
 000465,-0.00010548,0.00004009,0.00009236,-0.00003385,-0.00009463,0.000
 03232,0.00254916,0.00192804,0.00228361,-0.00040265,-0.00020439,-0.0018
 1169,-0.00055457,-0.00098796,-0.00157935,-0.00006302,0.00001371,-0.000
 10019,-0.00000226,-0.00002184,0.00001797,0.00002702,-0.00001124,-0.000
 04192,-0.00001288,-0.00006187,-0.00001101,0.00001079,0.00001376,0.0000
 0066,-0.00000400,0.00006102,-0.00004276,0.01362658,-0.00836071,0.00410
 429,-0.03973584,0.01009114,-0.05900886,-0.03264479,0.00562758,-0.01043
 958,0.00011513,0.00072100,0.00048407,0.00102152,-0.00286180,-0.0064807
 6,0.00053712,0.00096667,0.00120159,-0.00245456,-0.00217683,0.00107731,
 0.00053990,0.00128708,0.00064839,0.00013031,0.00018588,0.00004036,-0.0
 0032154,0.00129649,0.00003841,0.01692973,-0.00390984,0.00520632,0.0428
 3264,-0.00380665,0.06556554,-0.00030787,0.00000047,-0.00002516,0.00015
 524,-0.00009054,0.00008851,0.00006967,-0.00001360,0.00000745,-0.000034
 09,0.00001760,-0.00002066,0.00008949,-0.00003347,0.00001690,-0.0001524
 4,-0.00004190,-0.00005055,0.00014121,0.00015645,0.00033401,0.00005944,
 -0.00002707,-0.00019376,-0.00021281,-0.00004266,-0.00019502,0.00037585
 ,0.00006456,-0.00005607,-0.00003026,0.00000334,-0.00001121,0.00000131,
 0.00001176,-0.00001200,-0.00001882,0.00000492,0.00000812,-0.00000885,0
 .00000519,-0.00000599,0.00011687,0.00008455,0.00000714,0.00035897,-0.0
 0006509,-0.00062135,0.00126175,-0.00047296,0.00169391,-0.02615201,-0.0
 1318227,0.01973254,0.00044736,0.00001233,-0.00028410,-0.15232861,-0.07
 377410,0.09773313,0.01051617,0.00292038,-0.00633906,-0.00467133,0.0055
 5395,-0.00469166,0.00031039,-0.00210841,0.00048113,0.00001262,-0.00094
 595,0.00186930,-0.00005673,0.00003038,0.00034300,-0.00016941,0.0002756
 5,-0.00111032,0.00029013,0.00037799,0.00015477,0.16392937,0.00003679,0
 .00003069,-0.00000795,-0.00000695,0.00000848,-0.00000292,-0.00002030,-
 0.00000190,0.00000513,0.00000451,0.00000452,0.00000007,0.00001829,-0.0
 0002218,0.00000111,-0.00001725,0.00005606,-0.00000571,-0.00007286,-0.0
 0006462,-0.00007008,0.00001842,0.00002425,0.00003543,0.00010867,0.0000
 3422,0.00003466,-0.00007539,-0.00003500,0.00001856,0.00000481,-0.00000
 054,-0.00000107,-0.00000456,0.00000160,0.00000324,-0.00000105,0.000004
 32,0.00000010,-0.00000188,-0.00000083,-0.00000045,0.00000480,-0.000051
 43,0.00000506,-0.00057395,0.00078368,-0.00074587,-0.00001350,-0.000563
 10,-0.00011661,0.00405352,0.00441683,-0.00381078,0.00054147,0.00061609
 ,-0.00030582,-0.07252958,-0.09965725,0.06703463,-0.01957794,-0.0365617
 9,0.01851780,0.00243840,-0.00174789,0.00049790,0.00011785,0.00129045,-
 0.00017084,0.00016496,0.00059827,-0.00025916,0.00037029,-0.00014096,0.
 00022912,-0.00009578,0.00011248,-0.00006163,0.00001857,0.00010914,-0.0
 0008474,0.07896122,0.12437948,0.00003115,-0.00001704,0.00001463,-0.000
 02046,0.00001374,-0.00001461,-0.00000282,0.00000003,-0.00001196,0.0000
 0426,-0.00000609,0.00000286,-0.00002662,0.00001897,-0.00000024,0.00003
 541,-0.00002045,0.00000465,0.00003254,0.00007775,0.00013118,0.00002102
 ,-0.00002275,-0.00007695,-0.00009772,-0.00006396,-0.00005192,-0.000004
 06,0.00001040,-0.00000934,0.00000199,-0.00000044,0.00000153,0.00000289
 ,-0.00000286,-0.00000067,0.00000399,-0.00000368,-0.00000257,0.00000031
 ,-0.00000049,0.00000145,-0.00001075,0.00001335,-0.00000439,0.00032346,
 -0.00004184,0.00006393,-0.00055474,-0.00058141,0.00055358,-0.00933914,
 -0.00174285,0.00440359,0.00010982,-0.00077699,0.00002270,0.10144903,0.
 06772463,-0.15286018,-0.00371585,0.00179100,0.01007728,-0.00216342,0.0
 0186080,-0.00212322,0.00042438,-0.00094199,0.00042488,0.00034705,-0.00
 030101,0.00147011,-0.00013169,0.00001330,-0.00003376,-0.00004725,0.000
 14988,-0.00000495,0.00006290,-0.00000716,0.00018379,-0.10465479,-0.079
 65546,0.15131992,0.00016606,0.00000316,0.00005472,-0.00009611,0.000043
 11,-0.00006342,0.00001148,0.00000507,-0.00001339,0.00000508,-0.0000092
 8,0.00001514,-0.00004143,0.00002273,-0.00000069,0.00005212,-0.00001182
 ,0.00003789,0.00007245,-0.00003703,-0.00026333,-0.00014871,-0.00000312
 ,0.00015592,0.00001143,0.00003106,0.00014354,-0.00020480,-0.00005150,-
 0.00000165,0.00001592,-0.00000337,0.00001242,0.00000214,-0.00000796,0.
 00000051,0.00000440,-0.00000924,-0.00000255,0.00000719,0.00000306,0.00
 000359,-0.00004228,-0.00001695,-0.00002620,0.00074155,-0.00079630,0.00
 069323,-0.00590484,0.00288732,0.00105283,-0.01039154,-0.00580940,-0.03
 091001,0.00064152,-0.00090192,0.00010801,-0.06026596,-0.01499339,-0.04
 326257,0.00338356,0.00282289,0.00505993,0.00243307,-0.00050719,-0.0039
 7867,-0.00025503,0.00027553,0.00051244,-0.00011924,0.00062130,0.001706
 36,0.00003441,0.00012579,-0.00013617,0.00003794,0.00014803,-0.00002651
 ,-0.00004431,-0.00029346,-0.00183340,0.00601872,0.00503553,0.01965707,
 0.06301295,0.00004583,-0.00000829,0.00001142,-0.00002156,0.00002125,-0
 .00001394,-0.00002241,-0.00000026,-0.00000550,0.00000753,-0.00000158,0
 .00000243,-0.00000460,-0.00000251,-0.00000212,0.00001113,0.00002052,0.
 00000811,-0.00005316,0.00000198,0.00006213,0.00005384,0.00000124,-0.00
 003458,0.00002534,-0.00003069,-0.00002153,-0.00004032,0.00000770,0.000
 00135,0.00000418,-0.00000071,-0.00000110,0.00000165,-0.00000198,0.0000
 0352,0.00000073,0.00000171,-0.00000138,0.00000018,-0.00000258,0.000000
 57,-0.00001167,-0.00001778,-0.00000891,-0.00090104,0.00093462,-0.00071
 577,0.00256234,-0.00082505,0.00005550,0.00101182,0.00181725,0.00876535
 ,0.00051383,0.00007772,0.00108594,-0.01226954,-0.06331548,-0.05576090,
 -0.00640404,-0.02363772,-0.04036976,-0.00054284,-0.00032302,-0.0012810
 0,0.00007969,0.00027432,0.00026530,0.00000916,-0.00004767,0.00040870,0
 .00029358,-0.00010526,0.00015549,-0.00007095,0.00009312,-0.00033021,0.
 00008766,0.00059657,0.00063946,0.00335120,0.00542804,0.01260142,0.0105
 0123,0.08557043,-0.00000098,0.00000202,0.00001083,-0.00000682,-0.00000
 598,-0.00000462,0.00002163,-0.00000576,0.00000344,-0.00000537,0.000002
 16,0.00000196,0.00000577,-0.00000288,0.00000134,-0.00001110,0.00000460
 ,0.00001063,0.00003912,-0.00004051,-0.00013430,-0.00007179,0.00001648,
 0.00007797,0.00000878,0.00005627,0.00006769,0.00000114,0.00000186,-0.0
 0000714,-0.00000025,0.00000008,0.00000272,0.00000057,0.00000010,-0.000
 00171,-0.00000281,-0.00000213,0.00000144,0.00000285,0.00000175,-0.0000
 0005,-0.00000214,-0.00000499,-0.00000701,0.00009611,0.00009057,0.00010
 261,-0.00133790,0.00049230,0.00071512,-0.00063095,-0.00178908,-0.00623
 992,0.00011957,0.00041184,0.00089986,-0.04670562,-0.06561715,-0.302431
 50,0.00043745,-0.00407469,0.00433629,0.00016626,-0.00022196,-0.0007738
 1,0.00016495,0.00033229,0.00033998,0.00004600,0.00021790,0.00093208,0.
 00006305,0.00006295,-0.00001852,0.00008817,-0.00007212,0.00029974,-0.0
 0006826,-0.00016330,-0.00025708,-0.00428561,-0.00393519,-0.01398280,0.
 05146970,0.07342986,0.31367921,0.00029007,0.00000208,-0.00011052,-0.00
 009503,0.00008308,-0.00003457,-0.00021621,0.00004007,0.00001817,0.0000
 9418,-0.00002713,0.00000497,-0.00019013,0.00006052,-0.00004987,0.00037
 030,0.00007448,-0.00003756,-0.00045507,-0.00011300,0.00024699,0.000351
 95,0.00000009,-0.00014662,0.00036486,-0.00001352,-0.00010299,-0.000322
 68,-0.00008968,0.00017838,0.00003274,0.00000885,-0.00000752,-0.0000192
 6,-0.00001108,0.00003017,0.00006250,0.00000957,-0.00002763,-0.00001210
 ,-0.00002502,0.00001014,-0.00014329,-0.00009841,0.00008725,0.00099891,
 -0.00720266,0.00325185,-0.00128214,0.00794447,0.00201070,0.00213305,0.
 00122703,0.00211388,-0.00048382,-0.00030007,-0.00074697,0.00143733,0.0
 0079741,0.00507516,-0.03475795,-0.02658922,-0.09755265,-0.00006800,0.0
 0365189,0.00395680,0.00008825,-0.00246558,-0.00154435,0.00022213,-0.00
 104451,-0.00240910,-0.00472597,-0.00022256,-0.00264279,0.00000042,-0.0
 0075938,0.00010344,0.00018935,-0.00104014,-0.00051161,-0.00001135,0.00
 109290,-0.00173794,0.00086227,0.00178122,0.00039847,0.03528470,-0.0001
 0993,-0.00009135,0.00001118,0.00000675,-0.00002034,0.00001407,0.000096
 45,0.00001523,-0.00002003,-0.00002817,-0.00002197,0.00000128,-0.000071
 68,0.00010029,-0.00000158,0.00006272,-0.00023686,0.00001531,0.00034976
 ,0.00023518,0.00004880,-0.00018711,-0.00009514,-0.00004038,-0.00030709
 ,-0.00012862,-0.00000867,0.00017611,0.00008536,-0.00005604,-0.00001535
 ,-0.00000135,0.00001070,0.00001737,-0.00000485,-0.00001723,0.00000478,
 -0.00002162,0.00000320,0.00001008,0.00001097,0.00000082,-0.00001329,0.
 00017893,0.00000880,-0.00355901,-0.00390628,-0.00256356,0.00323189,-0.
 00277824,0.00124086,0.00127260,0.00023803,-0.00110787,-0.00046057,0.00
 074004,0.00050270,-0.00834035,-0.02317263,-0.04744173,-0.01411556,-0.0
 7370674,-0.07486619,0.00124070,0.00096578,-0.00038241,-0.00023234,-0.0
 0089195,0.00023405,-0.00043269,-0.00032957,0.00022375,-0.00161427,0.00
 231452,-0.00101939,0.00005339,-0.00021138,0.00010146,-0.00015566,-0.00
 006713,-0.00000698,-0.00103394,0.00094889,-0.00008880,0.00092613,-0.00
 652588,0.00081271,0.02322830,0.10637867,-0.00030520,0.00001830,-0.0001
 2425,0.00019119,-0.00007620,0.00013677,-0.00002173,-0.00000324,0.00001
 892,-0.00000893,0.00001127,-0.00003361,0.00004906,-0.00001947,0.000018
 11,-0.00008064,0.00000602,-0.00014510,-0.00002135,0.00028022,0.0007660
 7,0.00026117,-0.00010565,-0.00046648,-0.00017138,-0.00019276,-0.000398
 24,0.00030092,0.00003795,0.00001453,-0.00002841,0.00000638,-0.00002079
 ,-0.00000688,0.00001385,-0.00000398,0.00000161,0.00001268,-0.00000158,
 -0.00002813,-0.00000070,-0.00000591,0.00013919,0.00003291,0.00008142,0
 .00262164,-0.00557829,-0.00438133,0.00023771,0.00722725,0.00403351,-0.
 00183736,0.00072147,0.00110924,-0.00070375,0.00049940,-0.00047386,0.00
 240999,-0.00505388,-0.00136161,-0.09307732,-0.12327006,-0.41785674,0.0
 0098171,0.00014862,-0.00141360,-0.00024472,0.00013422,-0.00073471,0.00
 007983,-0.00011810,0.00032771,-0.00095028,-0.00118456,0.00133362,-0.00
 013459,-0.00038734,-0.00029961,0.00024770,-0.00145304,-0.00096236,0.00
 008737,0.00285146,0.00050146,-0.00016473,0.00105015,0.00237555,0.09017
 632,0.12439115,0.41796687\\-0.00000019,-0.00000103,-0.00000045,0.00000
 022,-0.00000070,0.00000051,0.00000012,0.00000048,0.00000026,0.00000018
 ,0.00000105,0.00000130,-0.00000073,0.00000075,-0.00000076,-0.00000028,
 0.00000050,-0.00000105,-0.00000002,0.00000091,0.00000115,-0.00000014,0
 .00000133,0.00000013,0.00000014,0.00000033,0.00000083,0.00000068,-0.00
 000132,-0.00000002,0.00000012,-0.00000065,0.00000031,0.00000047,-0.000
 00080,0.00000115,-0.00000031,0.00000041,-0.00000080,-0.00000038,0.0000
 0141,-0.00000053,-0.00000027,-0.00000032,-0.00000112,-0.00000046,0.000
 00082,-0.00000098,-0.00000018,0.00000082,0.00000049,0.00000043,-0.0000
 0028,0.00000011,0.00000049,-0.00000047,0.00000172,0.00000002,-0.000000
 66,-0.00000031,0.00000004,-0.00000092,-0.00000105,0.,-0.00000113,0.000
 00008,0.00000006,-0.00000004,-0.00000023,0.00000036,-0.00000112,0.0000
 0007,-0.00000032,0.00000086,-0.00000078,-0.00000002,0.00000097,0.00000
 060,-0.00000007,0.00000102,0.00000046,0.00000014,-0.00000050,0.0000001
 3,0.00000030,-0.00000155,0.00000003,-0.00000042,-0.00000018,-0.0000012
 5\\\@


 IT IS A SIMPLE TASK TO MAKE THINGS COMPLEX,
 BUT A COMPLEX TASK TO MAKE THEM SIMPLE.
 File lengths (MBytes):  RWF=    418 Int=      0 D2E=      0 Chk=      8 Scr=      1
 Normal termination of Gaussian 16 at Tue Aug  9 22:46:21 2022.
real 24077.85
user 95566.04
sys 57.84
