You are running Q-Chem version: 5.3.2

#
# job setting
#
local host:  tnxt-0468.cluster
current dir: /scratch/user/peterli3819/peterli3819/12613626_1663277479000000998242252
input file:  qchem_test.inp
output file: 
nprocs     : 0
nthreads   : 8
#
# qchem installation setting
#
QC:          /sw/restricted/qchem/sw/5.3.2
QCAUX:       /sw/restricted/qchem/sw/5.3.2/qcaux
QCPROG:      /sw/restricted/qchem/sw/5.3.2/exe/qcprog.exe_s
QCPROG_S:    /sw/restricted/qchem/sw/5.3.2/exe/qcprog.exe_s
PARALLEL:    -DSERIAL
QCMPI:       seq
#
# qchem directory setting
#
qcrun:       qchem37938
QCSCRATCH:   /scratch/user/peterli3819/peterli3819/12613626_1663277479000000998242252
QCLOCALSCR:  
QCTMPDIR:    /scratch/user/peterli3819/peterli3819/12613626_1663277479000000998242252
QCFILEPREF:  /scratch/user/peterli3819/peterli3819/12613626_1663277479000000998242252/qchem37938
QCSAVEDIR:   
workdirs:    /scratch/user/peterli3819/peterli3819/12613626_1663277479000000998242252/qchem37938
workdir0:    /scratch/user/peterli3819/peterli3819/12613626_1663277479000000998242252/qchem37938
partmpdirs =  
#
# parallel setting
#
QCRSH:           ssh
QCMPI:           seq
QCMPIRUN:        
QCMACHINEFILE:   /scratch/user/peterli3819/peterli3819/12613626_1663277479000000998242252/qchem37938/hostfile

#
# env setting
#
exported envs:   QC QCAUX QCSCRATCH QCRUNNAME QCFILEPREF QCPROG QCPROG_S GUIFILE

Running Job 1 of 1 qchem_test.inp
qchem qchem_test.inp_37938.0 /scratch/user/peterli3819/peterli3819/12613626_1663277479000000998242252/qchem37938/ 0
/sw/restricted/qchem/sw/5.3.2/exe/qcprog.exe_s qchem_test.inp_37938.0 /scratch/user/peterli3819/peterli3819/12613626_1663277479000000998242252/qchem37938/
                  Welcome to Q-Chem
     A Quantum Leap Into The Future Of Chemistry


 Q-Chem 5.3, Q-Chem, Inc., Pleasanton, CA (2020)

 License issued to: MRG Daniel Tabor and Mike Hall, Texas A&M University

 Yihan Shao,  Zhengting Gan,  E. Epifanovsky,  A. T. B. Gilbert,  M. Wormit,  
 J. Kussmann,  A. W. Lange,  A. Behn,  Jia Deng,  Xintian Feng,  D. Ghosh,  
 M. Goldey,  P. R. Horn,  L. D. Jacobson,  I. Kaliman,  T. Kus,  A. Landau,  
 Jie Liu,  E. I. Proynov,  R. M. Richard,  R. P. Steele,  E. J. Sundstrom,  
 H. L. Woodcock III,  P. M. Zimmerman,  D. Zuev,  B. Alam,  B. Albrecht,  
 A. Aldossary,  E. Alguire,  S. A. Baeppler,  D. Barton,  Z. Benda,  
 Y. A. Bernard,  E. J. Berquist,  K. B. Bravaya,  H. Burton,  K. Carter-Fenk,  
 D. Casanova,  Chun-Min Chang,  Yunqing Chen,  A. Chien,  K. D. Closser,  
 M. P. Coons,  S. Coriani,  S. Dasgupta,  A. L. Dempwolff,  M. Diedenhofen,  
 Hainam Do,  R. G. Edgar,  Po-Tung Fang,  S. Faraji,  S. Fatehi,  
 Qingguo Feng,  J. Fosso-Tande,  J. Gayvert,  Qinghui Ge,  A. Ghysels,  
 G. Gidofalvi,  J. Gomes,  J. Gonthier,  S. Gulania,  A. Gunina,  D. Hait,  
 M. W. D. Hanson-Heine,  S. Hammes-Schiffer,  P. H. P. Harbach,  
 A. W. Hauser,  M. F. Herbst,  J. E. Herr,  E. G. Hohenstein,  Z. C. Holden,  
 S. Houck,  Kerwin Hui,  B. C. Huynh,  M. Ivanov,  T.-C. Jagau,  Hyunjun Ji,  
 B. Kaduk,  K. Khistyaev,  Jaehoon Kim,  P. Klunzinger,  K. Koh,  
 D. Kosenkov,  L. Koulias,  T. Kowalczyk,  C. M. Krauter,  A. Kunitsa,  
 Ka Un Lao,  A. Laurent,  K. V. Lawler,  Joonho Lee,  D. Lefrancois,  
 S. Lehtola,  D. S. Levine,  Yi-Pei Li,  You-Sheng Lin,  Fenglai Liu,  
 Kuan-Yu Liu,  E. Livshits,  M. Loipersberger,  A. Luenser,  A. Manjanath,  
 P. Manohar,  E. Mansoor,  S. F. Manzer,  Shan-Ping Mao,  Yuezhi Mao,  
 N. Mardirossian,  A. V. Marenich,  T. Markovich,  L. A. Martinez-Martinez,  
 S. A. Maurer,  N. J. Mayhall,  S. C. McKenzie,  J.-M. Mewes,  P. Morgante,  
 A. F. Morrison,  J. W. Mullinax,  K. Nanda,  T. S. Nguyen-Beck,  
 R. Olivares-Amaya,  K. J. Oosterbaan,  J. A. Parkhill,  S. K. Paul,  
 F. Pavosevic,  Zheng Pei,  T. M. Perrine,  F. Plasser,  P. Pokhilko,  
 S. Prager,  A. Prociuk,  E. Ramos,  B. Rana,  D. R. Rehn,  F. Rob,  
 E. Rossomme,  M. Scheurer,  M. Schneider,  N. Sergueev,  S. M. Sharada,  
 S. Sharma,  W. Skomorowski,  D. W. Small,  T. Stauch,  C. J. Stein,  
 T. Stein,  Yu-Chuan Su,  S. P. Veccham,  Zhen Tao,  A. J. W. Thom,  
 A. Tkatchenko,  T. Tsuchimochi,  N. M. Tubman,  L. Vogt,  M. L. Vidal,  
 O. Vydrov,  M. A. Watson,  J. Wenzel,  M. de Wergifosse,  T. A. Wesolowski,  
 A. White,  J. Witte,  A. Yamada,  Jun Yang,  K. Yao,  S. Yeganeh,  
 S. R. Yost,  Zhi-Qiang You,  A. Zech,  Igor Ying Zhang,  Xing Zhang,  
 Yan Zhao,  Ying Zhu,  B. R. Brooks,  G. K. L. Chan,  C. J. Cramer,  
 M. S. Gordon,  W. J. Hehre,  A. Klamt,  M. W. Schmidt,  C. D. Sherrill,  
 D. G. Truhlar,  A. Aspuru-Guzik,  R. Baer,  A. T. Bell,  N. A. Besley,  
 Jeng-Da Chai,  A. E. DePrince, III,  R. A. DiStasio Jr.,  A. Dreuw,  
 B. D. Dunietz,  T. R. Furlani,  Chao-Ping Hsu,  Yousung Jung,  Jing Kong,  
 D. S. Lambrecht,  WanZhen Liang,  C. Ochsenfeld,  V. A. Rassolov,  
 L. V. Slipchenko,  J. E. Subotnik,  T. Van Voorhis,  J. M. Herbert,  
 A. I. Krylov,  P. M. W. Gill,  M. Head-Gordon

 Contributors to earlier versions of Q-Chem not listed above: 
 R. D. Adamson,  B. Austin,  J. Baker,  G. J. O. Beran,  K. Brandhorst,  
 S. T. Brown,  E. F. C. Byrd,  A. K. Chakraborty,  C.-L. Cheng,  
 Siu Hung Chien,  D. M. Chipman,  D. L. Crittenden,  H. Dachsel,  
 R. J. Doerksen,  A. D. Dutoi,  L. Fusti-Molnar,  W. A. Goddard III,  
 A. Golubeva-Zadorozhnaya,  S. R. Gwaltney,  G. Hawkins,  A. Heyden,  
 S. Hirata,  G. Kedziora,  F. J. Keil,  C. Kelley,  Jihan Kim,  R. A. King,  
 R. Z. Khaliullin,  P. P. Korambath,  W. Kurlancheek,  A. M. Lee,  M. S. Lee,  
 S. V. Levchenko,  Ching Yeh Lin,  D. Liotard,  R. C. Lochan,  I. Lotan,  
 P. E. Maslen,  N. Nair,  D. P. O'Neill,  D. Neuhauser,  E. Neuscamman,  
 C. M. Oana,  R. Olson,  B. Peters,  R. Peverati,  P. A. Pieniazek,  
 Y. M. Rhee,  J. Ritchie,  M. A. Rohrdanz,  E. Rosta,  N. J. Russ,  
 H. F. Schaefer III,  N. E. Schultz,  N. Shenvi,  A. C. Simmonett,  A. Sodt,  
 D. Stuck,  K. S. Thanthiriwatte,  V. Vanovschi,  Tao Wang,  A. Warshel,  
 C. F. Williams,  Q. Wu,  X. Xu,  W. Zhang

 Please cite Q-Chem as follows:
 Y. Shao et al., Mol. Phys. 113, 184-215 (2015)
 DOI: 10.1080/00268976.2014.952696

 Q-Chem 5.3.2 for Intel X86 EM64T Linux

 Parts of Q-Chem use Armadillo 9.800.1 (Horizon Scraper).
 http://arma.sourceforge.net/

 Q-Chem begins on Thu Sep 15 16:31:24 2022  

Host: 
0

     Scratch files written to /scratch/user/peterli3819/peterli3819/12613626_1663277479000000998242252/qchem37938//
 Dec820 |scratch|qcdevops|jenkins|workspace|build_RNUM 7711   
Processing $rem in /sw/restricted/qchem/sw/5.3.2/config/preferences:
Processing $rem in /home/peterli3819/.qchemrc:

 Q-Chem warning in module libgen/rem_setup.C, line 2945:

 Neither GIA nor STOLL is specified by user. Use STOLL as the default


Checking the input file for inconsistencies... 	...done.

--------------------------------------------------------------
User input:
--------------------------------------------------------------
$molecule
0 1
--
0 1
Br       -1.957070    1.815789    0.331265
C       -2.544883    0.000631   -0.002609
Br       -4.354543    0.027265   -0.697898
Br       -1.370493   -0.839226   -1.291520
Br       -2.512629   -1.004439    1.656431
--
0 1
Br        4.355942    0.304790    0.624141
C        2.544782    0.001658    0.002086
Br        1.955979    1.529145   -1.033176
Br        2.509434   -1.586422   -1.111673
Br        1.373398   -0.247295    1.522519
$end

$rem
JOBTYPE           eda
EDA2              2
METHOD            wB97X-D
BASIS             def2-SV(P)
SCF_CONVERGENCE   8
THRESH            14
SYMMETRY          false
DISP_FREE_X       wB97X-D
DISP_FREE_C       none
EDA_BSSE          true
$end
--------------------------------------------------------------
 ----------------------------------------------------------------
             Standard Nuclear Orientation (Angstroms)
    I     Atom           X                Y                Z
 ----------------------------------------------------------------
    1      Br      1.9570701660    -1.8157468284     0.3314960533
    2      C       2.5448830820    -0.0006313312    -0.0026090850
    3      Br      4.3545430160    -0.0273537952    -0.6978948623
    4      Br      1.3704929342     0.8390615394    -1.2916268827
    5      Br      2.5126292123     1.0046498693     1.6563029509
    6      Br     -4.3559418492    -0.3047107359     0.6241802939
    7      C      -2.5447819176    -0.0016578792     0.0020865340
    8      Br     -1.9559789731    -1.5292766474    -1.0329810524
    9      Br     -2.5094340699     1.5862803182    -1.1118746361
   10      Br     -1.3733977788     0.2474887160     1.5224877155
 ----------------------------------------------------------------
 Molecular Point Group                 C1    NOp =  1
 Largest Abelian Subgroup              C1    NOp =  1
 Nuclear Repulsion Energy =        5059.33175934 hartrees
 There are      146 alpha and      146 beta electrons
 Requested basis set is def2-SV(P)
 There are 108 shells and 284 basis functions

 Total QAlloc Memory Limit  56000 MB
 Mega-Array Size       188 MB
 MEM_STATIC part       192 MB

                       Distance Matrix (Angstroms)
             Br(  1)   C (  2)   Br(  3)   Br(  4)   Br(  5)   Br(  6)
   C (  2)  1.936955
   Br(  3)  3.163206  1.938815
   Br(  4)  3.166482  1.935418  3.163503
   Br(  5)  3.165185  1.940005  3.162266  3.165783
   Br(  6)  6.497924  6.935900  8.814610  6.145778  7.068025
   C (  7)  4.864782  5.089667  6.934790  4.208311  5.415394  1.938851
   Br(  8)  4.154012  4.863762  6.495440  4.091618  5.798404  3.163158
   Br(  9)  5.797134  5.412475  7.063241  3.955310  5.763872  3.162171
   Br( 10)  4.094804  4.211936  6.149386  3.974687  3.961364  3.163455
             C (  7)   Br(  8)   Br(  9)
   Br(  8)  1.936924
   Br(  9)  1.940027  3.165317
   Br( 10)  1.935416  3.166499  3.165882
 
 A cutoff of  1.0D-14 yielded   3900 shell pairs
 There are     26692 function pairs (     31591 Cartesian)
 Smallest overlap matrix eigenvalue = 5.48E-03

 Scale SEOQF with 1.000000e-01/1.000000e-01/1.000000e-01

 Standard Electronic Orientation quadrupole field applied
 Nucleus-field energy     =     0.0000000677 hartrees

 -----------------------------------------------------------------------
  General SCF calculation program by
  Eric Jon Sundstrom, Paul Horn, Yuezhi Mao, Dmitri Zuev, Alec White,
  David Stuck, Shaama M.S., Shane Yost, Joonho Lee, David Small,
  Daniel Levine, Susi Lehtola, Hugh Burton, Evgeny Epifanovsky,
  Bang C. Huynh
 -----------------------------------------------------------------------
================================================================
                 ALMO-EDA with the EDA2 driver                  
================================================================
 The second-generation ALMO-EDA (for DFT):                      
 P. R. Horn, Y. Mao and M. Head-Gordon, PCCP, 18, 23067 (2016)  
 Decomposition of the frozen energy:                            
 P. R. Horn, Y. Mao and M. Head-Gordon, JCP, 144, 114107 (2016) 
Using eda2 option set 2
Option set summary: Frozen orbital wavefunction, initial wavefunction decomposition, and traditional AO-based POL.
--------------------------------
Printing EDA Options
--------------------------------
eda_child_super_basis      0
fragmo_guess_mode          0
child_mp                   0
child_mp_orders            0
cls_elec                   1
cls_disp                   0
scfmi_mode                 1
scfmi_occs                 0
scfmi_virts                0
frz_relax                  0
frz_relax_method           0
dc_pen_start               0
dc_pen_conv                0
dc_pen_increment           0
dc_pen_steps               0
dc_pen_thresh_factor       0
dc_pen_pre_newton_thresh   0
frz_ortho_decomp           1
frz_ortho_decomp_conv      6
plot_mo_ortho_frz          0
frgm_method                2
scfmi_freeze_ss            0
separate_rehyb             0
plot_diff_den              0
eda_nocv                   0
eda_vct_relax              1
disp_free_x                -110
disp_free_c                0
eda_bsse                   1
eda_pct_a                  0
eda_covp                   0
--------------------------------
Attempting to make child job directory: /scratch/user/peterli3819/peterli3819/12613626_1663277479000000998242252/qchem37938//Frg1/
Attempting to make child job directory: /scratch/user/peterli3819/peterli3819/12613626_1663277479000000998242252/qchem37938//Frg2/
Creating input file /scratch/user/peterli3819/peterli3819/12613626_1663277479000000998242252/qchem37938/Frg1.input
using default PutDataFrgm: nothing
calling putenv with: QCSCRATCH=/scratch/user/peterli3819/peterli3819/12613626_1663277479000000998242252/qchem37938/ 
Spawning Job For Fragment 0
Done Job For Fragment 0
calling putenv with: QCSCRATCH=/scratch/user/peterli3819/peterli3819/12613626_1663277479000000998242252 
calling putenv with: QCTHREADS=8 
Creating input file /scratch/user/peterli3819/peterli3819/12613626_1663277479000000998242252/qchem37938/Frg2.input
using default PutDataFrgm: nothing
calling putenv with: QCSCRATCH=/scratch/user/peterli3819/peterli3819/12613626_1663277479000000998242252/qchem37938/ 
Spawning Job For Fragment 1
Done Job For Fragment 1
calling putenv with: QCSCRATCH=/scratch/user/peterli3819/peterli3819/12613626_1663277479000000998242252 
calling putenv with: QCTHREADS=8 
Doing General SCFMI
 Exchange:     0.2220 Hartree-Fock + 1.0000 wB97X-D + LR-HF
 Correlation:  1.0000 wB97X-D
 Using SG-2 standard quadrature grid
 Dispersion:   Grimme D
performing fock build before subrot guess so that all methods have access
Printing subrot_rss_gen Method Specification:
Occupied Subspace Method is 0
Virtual Subspace Method is 0
Energy of the unrelaxed supersystem initial determinant -20667.268338356647
write pseudocanon occs and virts to disk
write pseudocanon orbital energies to disk
Tolerance of ortho_decomp_scf: 1.00e-06
GDM subspace size: 20
Beginning the Orthogonal Decomposition of the Initial Supersystem Wavefunction
    1  -20667.2361730915      5.86e-02     ortho_decomp Preconditoned Steepest Descent
    2  -20667.2484945808      1.79e-04     ortho_decomp BFGS Step
    3  -20667.2484957556      4.97e-06     ortho_decomp BFGS Step
    4  -20667.2484957583      3.63e-07     ortho_decomp 00000 Convergence criterion met
 Exchange:     0.2220 Hartree-Fock + 1.0000 wB97X-D + LR-HF
 Correlation:  1.0000 wB97X-D
 Using SG-2 standard quadrature grid
 Dispersion:   Grimme D
 Long-range K will be added via erf
 Coulomb attenuation parameter = 0.2 bohr**(-1)
 Exchange:     0.2220 Hartree-Fock + 1.0000 wB97X-D + LR-HF
 Correlation:  1.0000 wB97X-D
 Using SG-2 standard quadrature grid
 Dispersion:   Grimme D
 Long-range K will be added via erf
 Coulomb attenuation parameter = 0.2 bohr**(-1)
 Exchange:     0.2220 Hartree-Fock + 1.0000 wB97X-D + LR-HF
 Correlation:  1.0000 wB97X-D
 Using SG-2 standard quadrature grid
 Dispersion:   Grimme D
 Long-range K will be added via erf
 Coulomb attenuation parameter = 0.2 bohr**(-1)
Doing General SCFMI
 Exchange:     0.2220 Hartree-Fock + 1.0000 wB97X-D + LR-HF
 Correlation:  1.0000 wB97X-D
 Using SG-2 standard quadrature grid
 Dispersion:   Grimme D
performing fock build at end of subrot_r(subrot) constructor so that all methods have access
<S^2> of initial wavefunction before polarization iterations 0.0000000000
Beginning iterations for the determination of the polarized wavefunction
Energy prior to optimization (guess energy) = -20667.268338356647
Begin Timing: Total SCF Calculation
begin iterations for algorithm: DIIS         
the SCF tolerance is set to 1.00e-08
    1  -20667.2683383566      5.46e-05     00000 
    2  -20667.2683949711      2.50e-05     00000 
    3  -20667.2684046074      1.39e-05     00000 
    4  -20667.2684077665      5.67e-06     00000 
    5  -20667.2684084144      1.24e-06     00000 
    6  -20667.2684084535      2.97e-07     00000 
    7  -20667.2684084588      9.65e-08     00000 
    8  -20667.2684084595      3.48e-08     00000 
    9  -20667.2684084596      8.13e-09     00000 Convergence criterion met
write pseudocanon occs and virts to disk
write pseudocanon orbital energies to disk
Timing for Total SCF: 20.00s (wall), 153.79s (cpu)
<S^2> of polarized wavefunction after polarization iterations 0.0000000000
relaxing scfmi constraint to allow all rotations in the entire AO span
Doing General SCFMI
 Exchange:     0.2220 Hartree-Fock + 1.0000 wB97X-D + LR-HF
 Correlation:  1.0000 wB97X-D
 Using SG-2 standard quadrature grid
 Dispersion:   Grimme D
performing fock build at end of subrot_r(subrot) constructor so that all methods have access
<S^2> of polarized wavefunction before ct-allowed iterations 0.0000000000
Beginning iterations for the determination of the CT-Allowed wavefunction
Energy prior to optimization (guess energy) = -20667.268408459568
Begin Timing: Total SCF Calculation
begin iterations for algorithm: DIIS         
the SCF tolerance is set to 1.00e-08
    1  -20667.2684084596      4.63e-04     00000 
    2  -20667.2716681487      3.13e-05     00000 
    3  -20667.2718019150      7.78e-06     00000 
    4  -20667.2718096716      4.56e-06     00000 
    5  -20667.2718107119      1.12e-06     00000 
    6  -20667.2718107715      6.44e-07     00000 
    7  -20667.2718107957      1.72e-07     00000 
    8  -20667.2718107968      2.16e-08     00000 
    9  -20667.2718107968      7.20e-09     00000 Convergence criterion met
write pseudocanon occs and virts to disk
write pseudocanon orbital energies to disk
Timing for Total SCF: 21.00s (wall), 161.19s (cpu)
<S^2> of ct_allowed wavefunction after ct-allowed iterations 0.0000000000
Attempting to make child job directory: /scratch/user/peterli3819/peterli3819/12613626_1663277479000000998242252/qchem37938//FrgBSSE1/
Attempting to make child job directory: /scratch/user/peterli3819/peterli3819/12613626_1663277479000000998242252/qchem37938//FrgBSSE2/
Creating input file /scratch/user/peterli3819/peterli3819/12613626_1663277479000000998242252/qchem37938/FrgBSSE1.input
calling putenv with: QCSCRATCH=/scratch/user/peterli3819/peterli3819/12613626_1663277479000000998242252/qchem37938/ 
Spawning Job For Fragment 0
Done Job For Fragment 0
calling putenv with: QCSCRATCH=/scratch/user/peterli3819/peterli3819/12613626_1663277479000000998242252 
calling putenv with: QCTHREADS=8 
Creating input file /scratch/user/peterli3819/peterli3819/12613626_1663277479000000998242252/qchem37938/FrgBSSE2.input
calling putenv with: QCSCRATCH=/scratch/user/peterli3819/peterli3819/12613626_1663277479000000998242252/qchem37938/ 
Spawning Job For Fragment 1
Done Job For Fragment 1
calling putenv with: QCSCRATCH=/scratch/user/peterli3819/peterli3819/12613626_1663277479000000998242252 
calling putenv with: QCTHREADS=8 
====================================================================
   Evaluating the BSSE with fragment SCF in the supersystem basis
   Fragment contributions (kJ/mol) 
   Frgm 1: 3.5441
   Frgm 2: 3.5610
   BSSE (kJ/mol) = 7.1051
====================================================================

================================
        Results of EDA2         
================================
Basic EDA Quantities
--------------------
Fragment Energies (Ha):
1-10333.6324511336
2-10333.6324914600
--------------------
  E_prp (kJ/mol) = 0.0000
  E_frz (kJ/mol) = -8.9157
  E_pol (kJ/mol) = -0.1841
  E_vct (kJ/mol) = -1.8278 (CP-corrected)
  E_int (kJ/mol) = -10.9276 (CP-corrected)
--------------------


Decomposition of frozen interaction energy
--------------------
  --------------------
  Orthogonal Frozen Decomposition:
  --------------------
     E_elec   (ELEC)   (kJ/mol) = -19.9680
     E_pauli  (PAULI)  (kJ/mol) = 23.9281
     E_disp   (DISP)   (kJ/mol) = -12.8758
  --------------------
  Classical Frozen Decomposition:
  --------------------
     E_cls_elec  (CLS ELEC)  (kJ/mol) = -3.6184
     E_mod_pauli (MOD PAULI) (kJ/mol) = 7.5785 (FRZ - CLS ELEC - DISP)
     E_disp      (DISP)      (kJ/mol) = -12.8758
  --------------------
--------------------

Simplified EDA Summary (kJ/mol)
--------------------
 PREPARATION      0.0000
 FROZEN           -8.9157 (ELEC + PAULI + DISP)
[ELEC + PAULI = 3.9601, DISP = -12.8758]
 POLARIZATION    -0.1841
 CHARGE TRANSFER -1.8278     (counterpoise-corrected)
 TOTAL           -10.9276     (PRP + FRZ + POL + CT)
--------------------
 
 --------------------------------------------------------------
 
                    Orbital Energies (a.u.)
 --------------------------------------------------------------
 
 Alpha MOs
 -- Occupied --
********-483.0899-483.0888-483.0888-483.0888-483.0888-483.0886-483.0885
-62.6720 -62.6720 -62.6710 -62.6710 -62.6709 -62.6709 -62.6706 -62.6706
-56.4803 -56.4802 -56.4792 -56.4792 -56.4792 -56.4792 -56.4789 -56.4789
-56.4759 -56.4759 -56.4759 -56.4759 -56.4748 -56.4748 -56.4748 -56.4748
-56.4748 -56.4748 -56.4748 -56.4748 -56.4745 -56.4745 -56.4744 -56.4744
-10.5047 -10.5047  -8.8419  -8.8419  -8.8409  -8.8409  -8.8408  -8.8408
 -8.8404  -8.8404  -6.6689  -6.6689  -6.6680  -6.6680  -6.6679  -6.6679
 -6.6676  -6.6675  -6.6533  -6.6533  -6.6532  -6.6532  -6.6522  -6.6522
 -6.6522  -6.6521  -6.6521  -6.6521  -6.6521  -6.6521  -6.6518  -6.6518
 -6.6517  -6.6517  -2.7722  -2.7722  -2.7712  -2.7712  -2.7711  -2.7711
 -2.7708  -2.7708  -2.7679  -2.7679  -2.7678  -2.7678  -2.7670  -2.7669
 -2.7669  -2.7669  -2.7668  -2.7667  -2.7667  -2.7667  -2.7665  -2.7665
 -2.7664  -2.7664  -2.7553  -2.7553  -2.7553  -2.7553  -2.7543  -2.7543
 -2.7542  -2.7542  -2.7542  -2.7542  -2.7541  -2.7541  -2.7538  -2.7538
 -2.7537  -2.7537  -1.0135  -1.0123  -0.8958  -0.8955  -0.8954  -0.8943
 -0.8941  -0.8935  -0.6998  -0.6970  -0.5515  -0.5510  -0.5491  -0.5490
 -0.5470  -0.5465  -0.4319  -0.4278  -0.4267  -0.4206  -0.4119  -0.3983
 -0.3980  -0.3977  -0.3975  -0.3816  -0.3694  -0.3689  -0.3665  -0.3664
 -0.3650  -0.3648
 -- Virtual --
 -0.0188  -0.0184   0.0409   0.0422   0.0425   0.0429   0.0439   0.0463
  0.2477   0.3121   0.3685   0.3693   0.3818   0.4020   0.4040   0.4137
  0.4372   0.4428   0.4455   0.4487   0.4576   0.4609   0.4623   0.4627
  0.4651   0.4689   0.5261   0.5505   0.5527   0.5573   0.5578   0.5676
  0.5693   0.5763   0.5780   0.5796   0.5844   0.5857   0.5906   0.5915
  0.5926   0.5933   0.5935   0.5956   0.6019   0.6071   0.6077   0.6088
  0.6100   0.6136   0.6166   0.6251   0.6329   0.6356   0.6453   0.6722
  0.6951   0.7026   0.7063   0.7118   0.7180   0.7231   0.7281   0.7542
  0.7579   0.8044   0.8204   0.8381   0.8700   0.8768   0.8903   0.8913
  0.9042   0.9085   1.0275   1.0301   1.0359   1.0398   1.0428   1.0518
  1.1111   1.1213   1.1447   1.1502   1.1541   1.1594   1.1646   1.1852
  1.7821   1.7828   1.7837   1.7852   2.0797   2.0819   2.0842   2.0940
  2.0974   2.0983   3.4655   3.4665   3.4673   3.4688   3.4834   3.4839
  3.4850   3.4860   3.4869   3.4930   3.5024   3.5038   3.5039   3.5044
  3.5052   3.5071   3.5286   3.5291   3.5315   3.5321   3.5981   3.5996
  3.5999   3.6009   3.6026   3.6043   3.6899   3.6909   3.6918   3.6923
  3.6927   3.6956   3.8604   3.8648   3.8653   3.8686   3.8690   3.8695
  3.8911   3.8926
 --------------------------------------------------------------
 
          Ground-State Mulliken Net Atomic Charges

     Atom                 Charge (a.u.)
  ----------------------------------------
      1 Br                    0.077331
      2 C                    -0.302211
      3 Br                    0.074411
      4 Br                    0.080348
      5 Br                    0.070079
      6 Br                    0.074415
      7 C                    -0.302149
      8 Br                    0.077238
      9 Br                    0.069977
     10 Br                    0.080562
  ----------------------------------------
  Sum of atomic charges =     0.000000

 -----------------------------------------------------------------
                    Cartesian Multipole Moments
 -----------------------------------------------------------------
    Charge (ESU x 10^10)
                 0.0000
    Dipole Moment (Debye)
         X       0.0004      Y      -0.0376      Z      -0.0078
       Tot       0.0384
    Quadrupole Moments (Debye-Ang)
        XX    -153.0026     XY       0.0303     YY    -152.4388
        XZ      -0.1519     YZ       0.0238     ZZ    -152.5392
    Octopole Moments (Debye-Ang^2)
       XXX      -0.0393    XXY      -1.2474    XYY      -2.4081
       YYY      -7.2312    XXZ      -0.2975    XYZ       5.5214
       YYZ      -5.5984    XZZ       2.4554    YZZ       8.1165
       ZZZ       5.8178
    Hexadecapole Moments (Debye-Ang^3)
      XXXX   -6975.3597   XXXY      24.6904   XXYY   -1439.4215
      XYYY     -17.8959   YYYY   -1181.1183   XXXZ    -117.4742
      XXYZ      -4.7900   XYYZ      26.3997   YYYZ      -6.6883
      XXZZ   -1417.2053   XYZZ       8.0140   YYZZ    -386.2326
      XZZZ      20.6074   YZZZ      11.4055   ZZZZ   -1202.4305
 -----------------------------------------------------------------
Archival summary:
1\1\tnxt-0468.cluster\SP\ProcedureUnspecified\BasisUnspecified\r82\peterli3\ThuSep1516:33:562022ThuSep1516:33:562022\0\\#,ProcedureUnspecified,BasisUnspecified,\\0,1\Br\C,1,1.93542\Br,2,1.93695,1,109.713\Br,2,1.93882,1,109.482,3,120.07,0\Br,2,1.94001,1,109.549,3,-120.175,0\Br,1,3.95531,2,130.31,3,61.1211,0\C,6,1.94003,1,83.6465,2,-30.2174,0\Br,7,1.93542,6,109.553,1,57.9746,0\Br,7,1.93692,6,109.461,1,-62.3681,0\Br,7,1.93885,6,109.22,1,177.879,0\\\@

 Total job time:  152.00s(wall), 687.36s(cpu) 
 Thu Sep 15 16:33:56 2022

        *************************************************************
        *                                                           *
        *  Thank you very much for using Q-Chem.  Have a nice day.  *
        *                                                           *
        *************************************************************


remove work dirs /scratch/user/peterli3819/peterli3819/12613626_1663277479000000998242252/qchem37938.0 -- /scratch/user/peterli3819/peterli3819/12613626_1663277479000000998242252/qchem37938.-1
rm -rf /scratch/user/peterli3819/peterli3819/12613626_1663277479000000998242252/qchem37938
real 152.62
user 1083.21
sys 31.18
