You are running Q-Chem version: 5.3.2

#
# job setting
#
local host:  c163.cluster
current dir: /scratch/user/peterchao1/peterchao1/6959663_1675470087000000858601861
input file:  qchem_test.inp
output file: 
nprocs     : 0
nthreads   : 8
#
# qchem installation setting
#
QC:          /sw/restricted/qchem/sw/5.3.2
QCAUX:       /sw/restricted/qchem/sw/5.3.2/qcaux
QCPROG:      /sw/restricted/qchem/sw/5.3.2/exe/qcprog.exe_s
QCPROG_S:    /sw/restricted/qchem/sw/5.3.2/exe/qcprog.exe_s
PARALLEL:    -DSERIAL
QCMPI:       seq
#
# qchem directory setting
#
qcrun:       qchem31640
QCSCRATCH:   /scratch/user/peterchao1/peterchao1/6959663_1675470087000000858601861
QCLOCALSCR:  
QCTMPDIR:    /scratch/user/peterchao1/peterchao1/6959663_1675470087000000858601861
QCFILEPREF:  /scratch/user/peterchao1/peterchao1/6959663_1675470087000000858601861/qchem31640
QCSAVEDIR:   
workdirs:    /scratch/user/peterchao1/peterchao1/6959663_1675470087000000858601861/qchem31640
workdir0:    /scratch/user/peterchao1/peterchao1/6959663_1675470087000000858601861/qchem31640
partmpdirs =  
#
# parallel setting
#
QCRSH:           ssh
QCMPI:           seq
QCMPIRUN:        
QCMACHINEFILE:   /scratch/user/peterchao1/peterchao1/6959663_1675470087000000858601861/qchem31640/hostfile

#
# env setting
#
exported envs:   QC QCAUX QCSCRATCH QCRUNNAME QCFILEPREF QCPROG QCPROG_S GUIFILE

Running Job 1 of 1 qchem_test.inp
qchem qchem_test.inp_31640.0 /scratch/user/peterchao1/peterchao1/6959663_1675470087000000858601861/qchem31640/ 0
/sw/restricted/qchem/sw/5.3.2/exe/qcprog.exe_s qchem_test.inp_31640.0 /scratch/user/peterchao1/peterchao1/6959663_1675470087000000858601861/qchem31640/
                  Welcome to Q-Chem
     A Quantum Leap Into The Future Of Chemistry


 Q-Chem 5.3, Q-Chem, Inc., Pleasanton, CA (2020)

 License issued to: MRG Daniel Tabor and Mike Hall, Texas A&M University

 Yihan Shao,  Zhengting Gan,  E. Epifanovsky,  A. T. B. Gilbert,  M. Wormit,  
 J. Kussmann,  A. W. Lange,  A. Behn,  Jia Deng,  Xintian Feng,  D. Ghosh,  
 M. Goldey,  P. R. Horn,  L. D. Jacobson,  I. Kaliman,  T. Kus,  A. Landau,  
 Jie Liu,  E. I. Proynov,  R. M. Richard,  R. P. Steele,  E. J. Sundstrom,  
 H. L. Woodcock III,  P. M. Zimmerman,  D. Zuev,  B. Alam,  B. Albrecht,  
 A. Aldossary,  E. Alguire,  S. A. Baeppler,  D. Barton,  Z. Benda,  
 Y. A. Bernard,  E. J. Berquist,  K. B. Bravaya,  H. Burton,  K. Carter-Fenk,  
 D. Casanova,  Chun-Min Chang,  Yunqing Chen,  A. Chien,  K. D. Closser,  
 M. P. Coons,  S. Coriani,  S. Dasgupta,  A. L. Dempwolff,  M. Diedenhofen,  
 Hainam Do,  R. G. Edgar,  Po-Tung Fang,  S. Faraji,  S. Fatehi,  
 Qingguo Feng,  J. Fosso-Tande,  J. Gayvert,  Qinghui Ge,  A. Ghysels,  
 G. Gidofalvi,  J. Gomes,  J. Gonthier,  S. Gulania,  A. Gunina,  D. Hait,  
 M. W. D. Hanson-Heine,  S. Hammes-Schiffer,  P. H. P. Harbach,  
 A. W. Hauser,  M. F. Herbst,  J. E. Herr,  E. G. Hohenstein,  Z. C. Holden,  
 S. Houck,  Kerwin Hui,  B. C. Huynh,  M. Ivanov,  T.-C. Jagau,  Hyunjun Ji,  
 B. Kaduk,  K. Khistyaev,  Jaehoon Kim,  P. Klunzinger,  K. Koh,  
 D. Kosenkov,  L. Koulias,  T. Kowalczyk,  C. M. Krauter,  A. Kunitsa,  
 Ka Un Lao,  A. Laurent,  K. V. Lawler,  Joonho Lee,  D. Lefrancois,  
 S. Lehtola,  D. S. Levine,  Yi-Pei Li,  You-Sheng Lin,  Fenglai Liu,  
 Kuan-Yu Liu,  E. Livshits,  M. Loipersberger,  A. Luenser,  A. Manjanath,  
 P. Manohar,  E. Mansoor,  S. F. Manzer,  Shan-Ping Mao,  Yuezhi Mao,  
 N. Mardirossian,  A. V. Marenich,  T. Markovich,  L. A. Martinez-Martinez,  
 S. A. Maurer,  N. J. Mayhall,  S. C. McKenzie,  J.-M. Mewes,  P. Morgante,  
 A. F. Morrison,  J. W. Mullinax,  K. Nanda,  T. S. Nguyen-Beck,  
 R. Olivares-Amaya,  K. J. Oosterbaan,  J. A. Parkhill,  S. K. Paul,  
 F. Pavosevic,  Zheng Pei,  T. M. Perrine,  F. Plasser,  P. Pokhilko,  
 S. Prager,  A. Prociuk,  E. Ramos,  B. Rana,  D. R. Rehn,  F. Rob,  
 E. Rossomme,  M. Scheurer,  M. Schneider,  N. Sergueev,  S. M. Sharada,  
 S. Sharma,  W. Skomorowski,  D. W. Small,  T. Stauch,  C. J. Stein,  
 T. Stein,  Yu-Chuan Su,  S. P. Veccham,  Zhen Tao,  A. J. W. Thom,  
 A. Tkatchenko,  T. Tsuchimochi,  N. M. Tubman,  L. Vogt,  M. L. Vidal,  
 O. Vydrov,  M. A. Watson,  J. Wenzel,  M. de Wergifosse,  T. A. Wesolowski,  
 A. White,  J. Witte,  A. Yamada,  Jun Yang,  K. Yao,  S. Yeganeh,  
 S. R. Yost,  Zhi-Qiang You,  A. Zech,  Igor Ying Zhang,  Xing Zhang,  
 Yan Zhao,  Ying Zhu,  B. R. Brooks,  G. K. L. Chan,  C. J. Cramer,  
 M. S. Gordon,  W. J. Hehre,  A. Klamt,  M. W. Schmidt,  C. D. Sherrill,  
 D. G. Truhlar,  A. Aspuru-Guzik,  R. Baer,  A. T. Bell,  N. A. Besley,  
 Jeng-Da Chai,  A. E. DePrince, III,  R. A. DiStasio Jr.,  A. Dreuw,  
 B. D. Dunietz,  T. R. Furlani,  Chao-Ping Hsu,  Yousung Jung,  Jing Kong,  
 D. S. Lambrecht,  WanZhen Liang,  C. Ochsenfeld,  V. A. Rassolov,  
 L. V. Slipchenko,  J. E. Subotnik,  T. Van Voorhis,  J. M. Herbert,  
 A. I. Krylov,  P. M. W. Gill,  M. Head-Gordon

 Contributors to earlier versions of Q-Chem not listed above: 
 R. D. Adamson,  B. Austin,  J. Baker,  G. J. O. Beran,  K. Brandhorst,  
 S. T. Brown,  E. F. C. Byrd,  A. K. Chakraborty,  C.-L. Cheng,  
 Siu Hung Chien,  D. M. Chipman,  D. L. Crittenden,  H. Dachsel,  
 R. J. Doerksen,  A. D. Dutoi,  L. Fusti-Molnar,  W. A. Goddard III,  
 A. Golubeva-Zadorozhnaya,  S. R. Gwaltney,  G. Hawkins,  A. Heyden,  
 S. Hirata,  G. Kedziora,  F. J. Keil,  C. Kelley,  Jihan Kim,  R. A. King,  
 R. Z. Khaliullin,  P. P. Korambath,  W. Kurlancheek,  A. M. Lee,  M. S. Lee,  
 S. V. Levchenko,  Ching Yeh Lin,  D. Liotard,  R. C. Lochan,  I. Lotan,  
 P. E. Maslen,  N. Nair,  D. P. O'Neill,  D. Neuhauser,  E. Neuscamman,  
 C. M. Oana,  R. Olson,  B. Peters,  R. Peverati,  P. A. Pieniazek,  
 Y. M. Rhee,  J. Ritchie,  M. A. Rohrdanz,  E. Rosta,  N. J. Russ,  
 H. F. Schaefer III,  N. E. Schultz,  N. Shenvi,  A. C. Simmonett,  A. Sodt,  
 D. Stuck,  K. S. Thanthiriwatte,  V. Vanovschi,  Tao Wang,  A. Warshel,  
 C. F. Williams,  Q. Wu,  X. Xu,  W. Zhang

 Please cite Q-Chem as follows:
 Y. Shao et al., Mol. Phys. 113, 184-215 (2015)
 DOI: 10.1080/00268976.2014.952696

 Q-Chem 5.3.2 for Intel X86 EM64T Linux

 Parts of Q-Chem use Armadillo 9.800.1 (Horizon Scraper).
 http://arma.sourceforge.net/

 Q-Chem begins on Fri Feb  3 18:21:28 2023  

Host: 
0

     Scratch files written to /scratch/user/peterchao1/peterchao1/6959663_1675470087000000858601861/qchem31640//
 Dec820 |scratch|qcdevops|jenkins|workspace|build_RNUM -1
Processing $rem in /sw/restricted/qchem/sw/5.3.2/config/preferences:
Processing $rem in /home/peterchao1/.qchemrc:

 Q-Chem warning in module libgen/rem_setup.C, line 2945:

 Neither GIA nor STOLL is specified by user. Use STOLL as the default


Checking the input file for inconsistencies... 	...done.

--------------------------------------------------------------
User input:
--------------------------------------------------------------
$molecule
0 1
--
0 1
C        5.717049   -0.188644    0.000046
C        4.233703   -0.547095    0.000048
C        3.339388    0.686809   -0.000030
C        1.862455    0.381340   -0.000026
O        1.108473    1.450323   -0.000004
O        1.422942   -0.759766   -0.000047
H        5.986857    0.405665    0.891309
H        5.986874    0.405578   -0.891271
H        6.344079   -1.096033    0.000096
H        3.993650   -1.167957    0.880073
H        3.993670   -1.168053   -0.879915
H        3.539828    1.328045   -0.878147
H        3.539819    1.328159    0.878004
H        0.130425    1.200975   -0.000012
--
0 1
C       -5.717050    0.188637    0.000046
C       -4.233705    0.547092    0.000000
C       -3.339386   -0.686810    0.000013
C       -1.862454   -0.381337   -0.000014
O       -1.108469   -1.450318   -0.000034
O       -1.422945    0.759770   -0.000013
H       -5.986885   -0.405660   -0.891217
H       -6.344083    1.096024    0.000029
H       -5.986845   -0.405599    0.891363
H       -3.993642    1.168028    0.879970
H       -3.993685    1.167977   -0.880018
H       -3.539834   -1.328124   -0.878044
H       -3.539807   -1.328082    0.878107
H       -0.130421   -1.200968   -0.000043
$end

$rem
JOBTYPE           eda
EDA2              2
METHOD            wB97x-D
BASIS             def2-SV(P)
SCF_CONVERGENCE   8
THRESH            14
SYMMETRY          false
DISP_FREE_X       wB97X-D
DISP_FREE_C       none
EDA_BSSE          true
$end
--------------------------------------------------------------
 ----------------------------------------------------------------
             Standard Nuclear Orientation (Angstroms)
    I     Atom           X                Y                Z
 ----------------------------------------------------------------
    1      C       5.7170489145     0.1886440550    -0.0000458376
    2      C       4.2337029104     0.5470950381    -0.0000478630
    3      C       3.3393879245    -0.6868089722     0.0000300428
    4      C       1.8624549210    -0.3813399891     0.0000260148
    5      O       1.1084729333    -1.4503229977     0.0000039338
    6      O       1.4229419080     0.7597660059     0.0000470635
    7      H       5.9868569483    -0.4056648934    -0.8913088618
    8      H       5.9868738943    -0.4055779903     0.8912711382
    9      H       6.3440789041     1.0960330622    -0.0000957693
   10      H       3.9936499299     1.1679570832    -0.8800728365
   11      H       3.9936698767     1.1680529875     0.8799151635
   12      H       3.5398279053    -1.3280450176     0.8781470140
   13      H       3.5398189584    -1.3281589222    -0.8780039860
   14      H       0.1304249304    -1.2009750089     0.0000119178
   15      C      -5.7170500812    -0.1886370759    -0.0000462040
   16      C      -4.2337050771    -0.5470920589    -0.0000001787
   17      C      -3.3393860912     0.6868099513    -0.0000130845
   18      C      -1.8624540877     0.3813369683     0.0000139436
   19      O      -1.1084690999     1.4503179769     0.0000340245
   20      O      -1.4229450746    -0.7597700267     0.0000128948
   21      H      -5.9868851149     0.4056598726     0.8912168201
   22      H      -6.3440830708    -1.0960240831    -0.0000292723
   23      H      -5.9868450610     0.4055989695    -0.8913631799
   24      H      -3.9936420433    -1.1680280083    -0.8799702052
   25      H      -3.9936850966    -1.1679771040     0.8800177949
   26      H      -3.5398341251     1.3281239013     0.8780439443
   27      H      -3.5398070720     1.3280819968    -0.8781070557
   28      H      -0.1304210971     1.2009679881     0.0000430405
 ----------------------------------------------------------------
 Molecular Point Group                 C1    NOp =  1
 Largest Abelian Subgroup              C1    NOp =  1
 Nuclear Repulsion Energy =         709.38929054 hartrees
 There are       48 alpha and       48 beta electrons
 Requested basis set is def2-SV(P)
 There are 104 shells and 200 basis functions

 Total QAlloc Memory Limit   7500 MB
 Mega-Array Size       188 MB
 MEM_STATIC part       192 MB
 A cutoff of  1.0D-14 yielded   4217 shell pairs
 There are     15477 function pairs (     17238 Cartesian)
 Smallest overlap matrix eigenvalue = 1.41E-03

 Scale SEOQF with 1.000000e-02/1.000000e-01/1.000000e+00

 Standard Electronic Orientation quadrupole field applied
 Nucleus-field energy     =    -0.0000000006 hartrees

 -----------------------------------------------------------------------
  General SCF calculation program by
  Eric Jon Sundstrom, Paul Horn, Yuezhi Mao, Dmitri Zuev, Alec White,
  David Stuck, Shaama M.S., Shane Yost, Joonho Lee, David Small,
  Daniel Levine, Susi Lehtola, Hugh Burton, Evgeny Epifanovsky,
  Bang C. Huynh
 -----------------------------------------------------------------------
================================================================
                 ALMO-EDA with the EDA2 driver                  
================================================================
 The second-generation ALMO-EDA (for DFT):                      
 P. R. Horn, Y. Mao and M. Head-Gordon, PCCP, 18, 23067 (2016)  
 Decomposition of the frozen energy:                            
 P. R. Horn, Y. Mao and M. Head-Gordon, JCP, 144, 114107 (2016) 
Using eda2 option set 2
Option set summary: Frozen orbital wavefunction, initial wavefunction decomposition, and traditional AO-based POL.
--------------------------------
Printing EDA Options
--------------------------------
eda_child_super_basis      0
fragmo_guess_mode          0
child_mp                   0
child_mp_orders            0
cls_elec                   1
cls_disp                   0
scfmi_mode                 1
scfmi_occs                 0
scfmi_virts                0
frz_relax                  0
frz_relax_method           0
dc_pen_start               0
dc_pen_conv                0
dc_pen_increment           0
dc_pen_steps               0
dc_pen_thresh_factor       0
dc_pen_pre_newton_thresh   0
frz_ortho_decomp           1
frz_ortho_decomp_conv      6
plot_mo_ortho_frz          0
frgm_method                2
scfmi_freeze_ss            0
separate_rehyb             0
plot_diff_den              0
eda_nocv                   0
eda_vct_relax              1
disp_free_x                -110
disp_free_c                0
eda_bsse                   1
eda_pct_a                  0
eda_covp                   0
--------------------------------
Attempting to make child job directory: /scratch/user/peterchao1/peterchao1/6959663_1675470087000000858601861/qchem31640//Frg1/
Attempting to make child job directory: /scratch/user/peterchao1/peterchao1/6959663_1675470087000000858601861/qchem31640//Frg2/
Creating input file /scratch/user/peterchao1/peterchao1/6959663_1675470087000000858601861/qchem31640/Frg1.input
using default PutDataFrgm: nothing
calling putenv with: QCSCRATCH=/scratch/user/peterchao1/peterchao1/6959663_1675470087000000858601861/qchem31640/ 
Spawning Job For Fragment 0
Done Job For Fragment 0
calling putenv with: QCSCRATCH=/scratch/user/peterchao1/peterchao1/6959663_1675470087000000858601861 
calling putenv with: QCTHREADS=8 
Creating input file /scratch/user/peterchao1/peterchao1/6959663_1675470087000000858601861/qchem31640/Frg2.input
using default PutDataFrgm: nothing
calling putenv with: QCSCRATCH=/scratch/user/peterchao1/peterchao1/6959663_1675470087000000858601861/qchem31640/ 
Spawning Job For Fragment 1
Done Job For Fragment 1
calling putenv with: QCSCRATCH=/scratch/user/peterchao1/peterchao1/6959663_1675470087000000858601861 
calling putenv with: QCTHREADS=8 
Doing General SCFMI
 Exchange:     0.2220 Hartree-Fock + 1.0000 wB97X-D + LR-HF
 Correlation:  1.0000 wB97X-D
 Using SG-2 standard quadrature grid
 Dispersion:   Grimme D
performing fock build before subrot guess so that all methods have access
Printing subrot_rss_gen Method Specification:
Occupied Subspace Method is 0
Virtual Subspace Method is 0
Energy of the unrelaxed supersystem initial determinant -614.728336827611
write pseudocanon occs and virts to disk
write pseudocanon orbital energies to disk
Tolerance of ortho_decomp_scf: 1.00e-06
GDM subspace size: 20
Beginning the Orthogonal Decomposition of the Initial Supersystem Wavefunction
    1    -614.5864075401      9.53e-02     ortho_decomp Preconditoned Steepest Descent
    2    -614.6026360280      1.50e-03     ortho_decomp BFGS Step
    3    -614.6026561113      9.93e-05     ortho_decomp BFGS Step
    4    -614.6026561648      3.98e-06     ortho_decomp BFGS Step
    5    -614.6026561649      1.34e-07     ortho_decomp 00000 Convergence criterion met
 Exchange:     0.2220 Hartree-Fock + 1.0000 wB97X-D + LR-HF
 Correlation:  1.0000 wB97X-D
 Using SG-2 standard quadrature grid
 Dispersion:   Grimme D
 Long-range K will be added via erf
 Coulomb attenuation parameter = 0.2 bohr**(-1)
 Exchange:     0.2220 Hartree-Fock + 1.0000 wB97X-D + LR-HF
 Correlation:  1.0000 wB97X-D
 Using SG-2 standard quadrature grid
 Dispersion:   Grimme D
 Long-range K will be added via erf
 Coulomb attenuation parameter = 0.2 bohr**(-1)
 Exchange:     0.2220 Hartree-Fock + 1.0000 wB97X-D + LR-HF
 Correlation:  1.0000 wB97X-D
 Using SG-2 standard quadrature grid
 Dispersion:   Grimme D
 Long-range K will be added via erf
 Coulomb attenuation parameter = 0.2 bohr**(-1)
Doing General SCFMI
 Exchange:     0.2220 Hartree-Fock + 1.0000 wB97X-D + LR-HF
 Correlation:  1.0000 wB97X-D
 Using SG-2 standard quadrature grid
 Dispersion:   Grimme D
performing fock build at end of subrot_r(subrot) constructor so that all methods have access
<S^2> of initial wavefunction before polarization iterations 0.0000000000
Beginning iterations for the determination of the polarized wavefunction
Energy prior to optimization (guess energy) = -614.728336827611
Begin Timing: Total SCF Calculation
begin iterations for algorithm: DIIS         
the SCF tolerance is set to 1.00e-08
    1    -614.7283368276      8.03e-04     00000 
    2    -614.7407833326      4.23e-04     00000 
    3    -614.7416310854      3.73e-04     00000 
    4    -614.7428221962      4.96e-05     00000 
    5    -614.7428743070      1.48e-05     00000 
    6    -614.7428797697      7.36e-06     00000 
    7    -614.7428802853      1.82e-06     00000 
    8    -614.7428803162      6.65e-07     00000 
    9    -614.7428803208      8.99e-08     00000 
   10    -614.7428803210      3.15e-08     00000 
   11    -614.7428803210      1.26e-08     00000 
   12    -614.7428803210      2.40e-09     00000 Convergence criterion met
write pseudocanon occs and virts to disk
write pseudocanon orbital energies to disk
Timing for Total SCF: 18.00s (wall), 131.05s (cpu)
<S^2> of polarized wavefunction after polarization iterations 0.0000000000
relaxing scfmi constraint to allow all rotations in the entire AO span
Doing General SCFMI
 Exchange:     0.2220 Hartree-Fock + 1.0000 wB97X-D + LR-HF
 Correlation:  1.0000 wB97X-D
 Using SG-2 standard quadrature grid
 Dispersion:   Grimme D
performing fock build at end of subrot_r(subrot) constructor so that all methods have access
<S^2> of polarized wavefunction before ct-allowed iterations 0.0000000000
Beginning iterations for the determination of the CT-Allowed wavefunction
Energy prior to optimization (guess energy) = -614.742880320995
Begin Timing: Total SCF Calculation
begin iterations for algorithm: DIIS         
the SCF tolerance is set to 1.00e-08
    1    -614.7428803210      9.27e-04     00000 
    2    -614.7707218892      2.06e-04     00000 
    3    -614.7716917092      2.09e-04     00000 
    4    -614.7723123088      3.36e-05     00000 
    5    -614.7723466260      1.26e-05     00000 
    6    -614.7723505174      2.77e-06     00000 
    7    -614.7723507378      1.26e-06     00000 
    8    -614.7723507695      4.20e-07     00000 
    9    -614.7723507732      8.50e-08     00000 
   10    -614.7723507735      3.57e-08     00000 
   11    -614.7723507735      5.98e-09     00000 Convergence criterion met
write pseudocanon occs and virts to disk
write pseudocanon orbital energies to disk
Timing for Total SCF: 16.00s (wall), 118.25s (cpu)
<S^2> of ct_allowed wavefunction after ct-allowed iterations 0.0000000000
Attempting to make child job directory: /scratch/user/peterchao1/peterchao1/6959663_1675470087000000858601861/qchem31640//FrgBSSE1/
Attempting to make child job directory: /scratch/user/peterchao1/peterchao1/6959663_1675470087000000858601861/qchem31640//FrgBSSE2/
Creating input file /scratch/user/peterchao1/peterchao1/6959663_1675470087000000858601861/qchem31640/FrgBSSE1.input
calling putenv with: QCSCRATCH=/scratch/user/peterchao1/peterchao1/6959663_1675470087000000858601861/qchem31640/ 
Spawning Job For Fragment 0
Done Job For Fragment 0
calling putenv with: QCSCRATCH=/scratch/user/peterchao1/peterchao1/6959663_1675470087000000858601861 
calling putenv with: QCTHREADS=8 
Creating input file /scratch/user/peterchao1/peterchao1/6959663_1675470087000000858601861/qchem31640/FrgBSSE2.input
calling putenv with: QCSCRATCH=/scratch/user/peterchao1/peterchao1/6959663_1675470087000000858601861/qchem31640/ 
Spawning Job For Fragment 1
Done Job For Fragment 1
calling putenv with: QCSCRATCH=/scratch/user/peterchao1/peterchao1/6959663_1675470087000000858601861 
calling putenv with: QCTHREADS=8 
====================================================================
   Evaluating the BSSE with fragment SCF in the supersystem basis
   Fragment contributions (kJ/mol) 
   Frgm 1: 10.7355
   Frgm 2: 10.7356
   BSSE (kJ/mol) = 21.4711
====================================================================

================================
        Results of EDA2         
================================
Basic EDA Quantities
--------------------
Fragment Energies (Ha):
1 -307.3650544135
2 -307.3650543946
--------------------
  E_prp (kJ/mol) = -0.0000
  E_frz (kJ/mol) = 4.6524
  E_pol (kJ/mol) = -38.1844
  E_vct (kJ/mol) = -55.9045 (CP-corrected)
  E_int (kJ/mol) = -89.4365 (CP-corrected)
--------------------


Decomposition of frozen interaction energy
--------------------
  --------------------
  Orthogonal Frozen Decomposition:
  --------------------
     E_elec   (ELEC)   (kJ/mol) = -254.0888
     E_pauli  (PAULI)  (kJ/mol) = 265.9002
     E_disp   (DISP)   (kJ/mol) = -7.1589
  --------------------
  Classical Frozen Decomposition:
  --------------------
     E_cls_elec  (CLS ELEC)  (kJ/mol) = -139.9460
     E_mod_pauli (MOD PAULI) (kJ/mol) = 151.7573 (FRZ - CLS ELEC - DISP)
     E_disp      (DISP)      (kJ/mol) = -7.1589
  --------------------
--------------------

Simplified EDA Summary (kJ/mol)
--------------------
 PREPARATION      -0.0000
 FROZEN           4.6524 (ELEC + PAULI + DISP)
[ELEC + PAULI = 11.8113, DISP = -7.1589]
 POLARIZATION    -38.1844
 CHARGE TRANSFER -55.9045     (counterpoise-corrected)
 TOTAL           -89.4365     (PRP + FRZ + POL + CT)
--------------------
 
 --------------------------------------------------------------
 
                    Orbital Energies (a.u.)
 --------------------------------------------------------------
 
 Alpha MOs
 -- Occupied --
-19.2878 -19.2878 -19.2586 -19.2585 -10.4400 -10.4400 -10.3082 -10.3082
-10.2955 -10.2955 -10.2868 -10.2868  -1.2110  -1.1982  -1.1166  -1.1023
 -0.8990  -0.8961  -0.8190  -0.8111  -0.7267  -0.7185  -0.6724  -0.6674
 -0.6194  -0.5890  -0.5834  -0.5807  -0.5779  -0.5679  -0.5335  -0.5295
 -0.5160  -0.5054  -0.4961  -0.4723  -0.4706  -0.4685  -0.4426  -0.4377
 -0.4312  -0.4301  -0.4208  -0.4190  -0.4123  -0.4039  -0.3826  -0.3686
 -- Virtual --
  0.0792   0.0837   0.1349   0.1365   0.1778   0.1788   0.1824   0.1826
  0.1910   0.1953   0.2217   0.2230   0.2390   0.2391   0.2416   0.2467
  0.2474   0.2476   0.2887   0.3001   0.3090   0.3137   0.3389   0.3489
  0.3725   0.3772   0.4413   0.4715   0.5069   0.5069   0.5278   0.5349
  0.5355   0.5430   0.5450   0.5555   0.5555   0.5811   0.6029   0.6211
  0.6266   0.6420   0.6440   0.6511   0.7035   0.7120   0.7193   0.7215
  0.7241   0.7470   0.7530   0.7749   0.7753   0.7767   0.7933   0.7935
  0.7981   0.7990   0.8007   0.8012   0.8025   0.8101   0.8103   0.8133
  0.8134   0.8396   0.8663   0.8833   0.8884   0.8909   0.9087   0.9642
  1.0161   1.0582   1.0751   1.0918   1.1138   1.1178   1.1544   1.1624
  1.1792   1.2338   1.2383   1.2640   1.4343   1.4464   1.4488   1.4510
  1.4552   1.5099   1.5552   1.5595   1.6100   1.6390   1.6494   1.6788
  1.7492   1.7619   1.8068   1.8081   1.8242   1.8284   1.8768   1.8848
  1.9689   1.9736   1.9868   1.9877   1.9974   1.9996   2.0944   2.1032
  2.1298   2.1300   2.1562   2.1728   2.2226   2.2232   2.2777   2.3004
  2.3512   2.3514   2.3788   2.3873   2.3881   2.4204   2.5415   2.5640
  2.6456   2.6478   2.6620   2.6674   2.7087   2.7112   2.7184   2.7399
  2.7756   2.7882   2.9878   3.0174   3.0223   3.0490   3.1688   3.2017
  3.2572   3.2576   3.4042   3.4117   3.6676   3.6812   3.7304   3.7375
 --------------------------------------------------------------
 
          Ground-State Mulliken Net Atomic Charges

     Atom                 Charge (a.u.)
  ----------------------------------------
      1 C                    -0.314216
      2 C                    -0.224096
      3 C                    -0.266573
      4 C                     0.264177
      5 O                    -0.360013
      6 O                    -0.332371
      7 H                     0.115002
      8 H                     0.115001
      9 H                     0.127054
     10 H                     0.120116
     11 H                     0.120118
     12 H                     0.142437
     13 H                     0.142436
     14 H                     0.350928
     15 C                    -0.314216
     16 C                    -0.224096
     17 C                    -0.266573
     18 C                     0.264177
     19 O                    -0.360013
     20 O                    -0.332371
     21 H                     0.115002
     22 H                     0.127054
     23 H                     0.115002
     24 H                     0.120117
     25 H                     0.120116
     26 H                     0.142436
     27 H                     0.142437
     28 H                     0.350927
  ----------------------------------------
  Sum of atomic charges =     0.000000

 -----------------------------------------------------------------
                    Cartesian Multipole Moments
 -----------------------------------------------------------------
    Charge (ESU x 10^10)
                -0.0000
    Dipole Moment (Debye)
         X       0.0000      Y      -0.0000      Z      -0.0000
       Tot       0.0000
    Quadrupole Moments (Debye-Ang)
        XX     -60.9883     XY      -2.7287     YY     -79.5501
        XZ       0.0001     YZ      -0.0001     ZZ     -71.2836
    Octopole Moments (Debye-Ang^2)
       XXX       0.0004    XXY       0.0000    XYY       0.0001
       YYY      -0.0000    XXZ       0.0004    XYZ      -0.0002
       YYZ      -0.0000    XZZ       0.0000    YZZ      -0.0000
       ZZZ       0.0005
    Hexadecapole Moments (Debye-Ang^3)
      XXXX   -5701.2053   XXXY      -2.0465   XXYY   -1018.4338
      XYYY       9.8051   YYYY    -398.9689   XXXZ      -0.0005
      XXYZ      -0.0003   XYYZ      -0.0005   YYYZ       0.0006
      XXZZ    -960.2701   XYZZ      -9.5731   YYZZ     -77.5891
      XZZZ       0.0012   YZZZ      -0.0002   ZZZZ    -104.3289
 -----------------------------------------------------------------
Archival summary:
1\1\c163.cluster\SP\ProcedureUnspecified\BasisUnspecified\4816\petercha\FriFeb318:23:362023FriFeb318:23:362023\0\\#,ProcedureUnspecified,BasisUnspecified,\\0,1\O\C,1,1.22282\O,2,1.30813,1,123.739\H,3,1.00933,2,110.894,1,-0,0\C,2,1.50819,1,122.75,3,-180,0\H,5,1.10564,2,107.158,1,-123.786,0\H,5,1.10564,2,107.157,1,123.776,0\C,5,1.52392,2,114.249,1,-0.00455253,0\H,8,1.10342,5,109.145,2,-57.5867,0\H,8,1.10342,5,109.145,2,57.587,0\C,8,1.52604,5,112.349,2,-180,0\H,11,1.10296,8,111.06,5,-180,0\H,11,1.10469,8,111.332,5,60.016,0\H,11,1.1047,8,111.332,5,-60.0153,0\H,1,1.61481,2,126.921,3,-0,0\O,15,1.00933,1,178.447,2,-0.0122746,0\C,16,1.30813,15,110.894,1,0.0128606,0\O,17,1.22282,16,123.739,15,0,0\C,17,1.50819,16,113.511,15,-180,0\H,19,1.10564,17,107.158,16,-56.217,0\H,19,1.10564,17,107.158,16,56.2204,0\C,19,1.52392,17,114.249,16,-179.998,0\H,22,1.10342,19,109.145,17,-57.5861,0\H,22,1.10342,19,109.145,17,57.5876,0\C,22,1.52604,19,112.349,17,-180,0\H,25,1.10296,22,111.06,19,-180,0\H,25,1.10469,22,111.332,19,-60.0153,0\H,25,1.1047,22,111.332,19,60.016,0\\\@

 Total job time:  128.80s(wall), 489.90s(cpu) 
 Fri Feb  3 18:23:36 2023

        *************************************************************
        *                                                           *
        *  Thank you very much for using Q-Chem.  Have a nice day.  *
        *                                                           *
        *************************************************************


remove work dirs /scratch/user/peterchao1/peterchao1/6959663_1675470087000000858601861/qchem31640.0 -- /scratch/user/peterchao1/peterchao1/6959663_1675470087000000858601861/qchem31640.-1
rm -rf /scratch/user/peterchao1/peterchao1/6959663_1675470087000000858601861/qchem31640
real 129.27
user 772.69
sys 59.07
