 Entering Gaussian System, Link 0=g16
 Input=gaussian_test.inp
 Output=gaussian_test.log
 Initial command:
 /sw/restricted/lms/sw/Gaussian/g16_B01/g16/l1.exe "/scratch/user/peterchao1/peterchao1/9993847_1712002034000000571047181/Gau-125522.inp" -scrdir="/scratch/user/peterchao1/peterchao1/9993847_1712002034000000571047181/"
 Entering Link 1 = /sw/restricted/lms/sw/Gaussian/g16_B01/g16/l1.exe PID=    125523.
  
 Copyright (c) 1988-2017, Gaussian, Inc.  All Rights Reserved.
  
 This is part of the Gaussian(R) 16 program.  It is based on
 the Gaussian(R) 09 system (copyright 2009, Gaussian, Inc.),
 the Gaussian(R) 03 system (copyright 2003, Gaussian, Inc.),
 the Gaussian(R) 98 system (copyright 1998, Gaussian, Inc.),
 the Gaussian(R) 94 system (copyright 1995, Gaussian, Inc.),
 the Gaussian 92(TM) system (copyright 1992, Gaussian, Inc.),
 the Gaussian 90(TM) system (copyright 1990, Gaussian, Inc.),
 the Gaussian 88(TM) system (copyright 1988, Gaussian, Inc.),
 the Gaussian 86(TM) system (copyright 1986, Carnegie Mellon
 University), and the Gaussian 82(TM) system (copyright 1983,
 Carnegie Mellon University). Gaussian is a federally registered
 trademark of Gaussian, Inc.
  
 This software contains proprietary and confidential information,
 including trade secrets, belonging to Gaussian, Inc.
  
 This software is provided under written license and may be
 used, copied, transmitted, or stored only in accord with that
 written license.
  
 The following legend is applicable only to US Government
 contracts under FAR:
  
                    RESTRICTED RIGHTS LEGEND
  
 Use, reproduction and disclosure by the US Government is
 subject to restrictions as set forth in subparagraphs (a)
 and (c) of the Commercial Computer Software - Restricted
 Rights clause in FAR 52.227-19.
  
 Gaussian, Inc.
 340 Quinnipiac St., Bldg. 40, Wallingford CT 06492
  
  
 ---------------------------------------------------------------
 Warning -- This program may not be used in any manner that
 competes with the business of Gaussian, Inc. or will provide
 assistance to any competitor of Gaussian, Inc.  The licensee
 of this program is prohibited from giving any competitor of
 Gaussian, Inc. access to this program.  By using this program,
 the user acknowledges that Gaussian, Inc. is engaged in the
 business of creating and licensing software in the field of
 computational chemistry and represents and warrants to the
 licensee that it is not a competitor of Gaussian, Inc. and that
 it will not use this program in any manner prohibited above.
 ---------------------------------------------------------------
  

 Cite this work as:
 Gaussian 16, Revision B.01,
 M. J. Frisch, G. W. Trucks, H. B. Schlegel, G. E. Scuseria, 
 M. A. Robb, J. R. Cheeseman, G. Scalmani, V. Barone, 
 G. A. Petersson, H. Nakatsuji, X. Li, M. Caricato, A. V. Marenich, 
 J. Bloino, B. G. Janesko, R. Gomperts, B. Mennucci, H. P. Hratchian, 
 J. V. Ortiz, A. F. Izmaylov, J. L. Sonnenberg, D. Williams-Young, 
 F. Ding, F. Lipparini, F. Egidi, J. Goings, B. Peng, A. Petrone, 
 T. Henderson, D. Ranasinghe, V. G. Zakrzewski, J. Gao, N. Rega, 
 G. Zheng, W. Liang, M. Hada, M. Ehara, K. Toyota, R. Fukuda, 
 J. Hasegawa, M. Ishida, T. Nakajima, Y. Honda, O. Kitao, H. Nakai, 
 T. Vreven, K. Throssell, J. A. Montgomery, Jr., J. E. Peralta, 
 F. Ogliaro, M. J. Bearpark, J. J. Heyd, E. N. Brothers, K. N. Kudin, 
 V. N. Staroverov, T. A. Keith, R. Kobayashi, J. Normand, 
 K. Raghavachari, A. P. Rendell, J. C. Burant, S. S. Iyengar, 
 J. Tomasi, M. Cossi, J. M. Millam, M. Klene, C. Adamo, R. Cammi, 
 J. W. Ochterski, R. L. Martin, K. Morokuma, O. Farkas, 
 J. B. Foresman, and D. J. Fox, Gaussian, Inc., Wallingford CT, 2016.
 
 ******************************************
 Gaussian 16:  ES64L-G16RevB.01 20-Dec-2017
                 1-Apr-2024 
 ******************************************
 %nprocshared=4
 Will use up to    4 processors via shared memory.
 %mem=8000mb
 %chk=dimer.chk
 %nprocshared=4
 Will use up to    4 processors via shared memory.
 %mem=8000mb
 ----------------------------------------------------------------------
 #T wB97XD/def2svpp opt=tight freq int(grid=ultrafine) scf=(verytight,q
 c) Volume=tight
 ----------------------------------------------------------------------
 -----
 Dimer
 -----
 Symbolic Z-matrix:
 Charge =  0 Multiplicity = 1
 C                     3.38407  -1.16976   0.34409 
 C                     2.01394  -0.51075   0.19866 
 N                     1.62133   0.04743   1.47968 
 C                     2.04359   0.50707  -0.96152 
 O                     0.77612   1.02916  -1.28394 
 H                     4.14688  -0.41496   0.52324 
 H                     3.64539  -1.72261  -0.55441 
 H                     3.3683   -1.8516    1.18938 
 H                     1.27122  -1.28134  -0.05073 
 H                     2.29654   0.746     1.77362 
 H                     0.71862   0.51037   1.41667 
 H                     2.48676   0.02967  -1.8479 
 H                     2.66365   1.36626  -0.68762 
 H                     0.14295   0.28317  -1.39729 
 C                    -3.27932  -1.34694   0.26417 
 C                    -1.95997  -0.58147   0.13475 
 N                    -1.3441   -0.75006  -1.18421 
 C                    -2.17897   0.91741   0.41088 
 O                    -1.01233   1.60799   0.75328 
 H                    -3.66751  -1.2707    1.27567 
 H                    -3.13146  -2.40071   0.03243 
 H                    -4.02059  -0.94078  -0.42299 
 H                    -1.24364  -0.96205   0.87196 
 H                    -1.16517  -1.73409  -1.35898 
 H                    -1.98437  -0.42303  -1.90283 
 H                    -2.84767   1.02362   1.26913 
 H                    -2.6641    1.37621  -0.46414 
 H                    -0.39682   1.60087  -0.00748 
 
 Add virtual bond connecting atoms N17        and H14        Dist= 3.45D+00.
 Add virtual bond connecting atoms H28        and O5         Dist= 3.45D+00.

 GradGradGradGradGradGradGradGradGradGradGradGradGradGradGradGradGradGrad
 Initialization pass.
                           ----------------------------
                           !    Initial Parameters    !
                           ! (Angstroms and Degrees)  !
 --------------------------                            --------------------------
 ! Name  Definition              Value          Derivative Info.                !
 --------------------------------------------------------------------------------
 ! R1    R(1,2)                  1.5273         estimate D2E/DX2                !
 ! R2    R(1,6)                  1.088          estimate D2E/DX2                !
 ! R3    R(1,7)                  1.0868         estimate D2E/DX2                !
 ! R4    R(1,8)                  1.0861         estimate D2E/DX2                !
 ! R5    R(2,3)                  1.4515         estimate D2E/DX2                !
 ! R6    R(2,4)                  1.5436         estimate D2E/DX2                !
 ! R7    R(2,9)                  1.0989         estimate D2E/DX2                !
 ! R8    R(3,10)                 1.015          estimate D2E/DX2                !
 ! R9    R(3,11)                 1.0165         estimate D2E/DX2                !
 ! R10   R(4,5)                  1.4082         estimate D2E/DX2                !
 ! R11   R(4,12)                 1.1            estimate D2E/DX2                !
 ! R12   R(4,13)                 1.0944         estimate D2E/DX2                !
 ! R13   R(5,14)                 0.985          estimate D2E/DX2                !
 ! R14   R(5,28)                 1.8254         estimate D2E/DX2                !
 ! R15   R(14,17)                1.8233         estimate D2E/DX2                !
 ! R16   R(15,16)                1.5308         estimate D2E/DX2                !
 ! R17   R(15,20)                1.0861         estimate D2E/DX2                !
 ! R18   R(15,21)                1.089          estimate D2E/DX2                !
 ! R19   R(15,22)                1.0893         estimate D2E/DX2                !
 ! R20   R(16,17)                1.4654         estimate D2E/DX2                !
 ! R21   R(16,18)                1.5398         estimate D2E/DX2                !
 ! R22   R(16,23)                1.0961         estimate D2E/DX2                !
 ! R23   R(17,24)                1.0153         estimate D2E/DX2                !
 ! R24   R(17,25)                1.0165         estimate D2E/DX2                !
 ! R25   R(18,19)                1.3983         estimate D2E/DX2                !
 ! R26   R(18,26)                1.0932         estimate D2E/DX2                !
 ! R27   R(18,27)                1.1007         estimate D2E/DX2                !
 ! R28   R(19,28)                0.9786         estimate D2E/DX2                !
 ! A1    A(2,1,6)              110.2001         estimate D2E/DX2                !
 ! A2    A(2,1,7)              110.882          estimate D2E/DX2                !
 ! A3    A(2,1,8)              109.3873         estimate D2E/DX2                !
 ! A4    A(6,1,7)              108.6903         estimate D2E/DX2                !
 ! A5    A(6,1,8)              108.5155         estimate D2E/DX2                !
 ! A6    A(7,1,8)              109.1207         estimate D2E/DX2                !
 ! A7    A(1,2,3)              108.9378         estimate D2E/DX2                !
 ! A8    A(1,2,4)              109.806          estimate D2E/DX2                !
 ! A9    A(1,2,9)              108.9867         estimate D2E/DX2                !
 ! A10   A(3,2,4)              114.5168         estimate D2E/DX2                !
 ! A11   A(3,2,9)              106.6869         estimate D2E/DX2                !
 ! A12   A(4,2,9)              107.7449         estimate D2E/DX2                !
 ! A13   A(2,3,10)             109.8958         estimate D2E/DX2                !
 ! A14   A(2,3,11)             111.1406         estimate D2E/DX2                !
 ! A15   A(10,3,11)            107.1738         estimate D2E/DX2                !
 ! A16   A(2,4,5)              113.5314         estimate D2E/DX2                !
 ! A17   A(2,4,12)             109.0992         estimate D2E/DX2                !
 ! A18   A(2,4,13)             109.9031         estimate D2E/DX2                !
 ! A19   A(5,4,12)             109.8183         estimate D2E/DX2                !
 ! A20   A(5,4,13)             106.033          estimate D2E/DX2                !
 ! A21   A(12,4,13)            108.3083         estimate D2E/DX2                !
 ! A22   A(4,5,14)             108.9127         estimate D2E/DX2                !
 ! A23   A(4,5,28)             122.3013         estimate D2E/DX2                !
 ! A24   A(14,5,28)             84.5271         estimate D2E/DX2                !
 ! A25   A(5,14,17)            160.0514         estimate D2E/DX2                !
 ! A26   A(16,15,20)           110.5893         estimate D2E/DX2                !
 ! A27   A(16,15,21)           110.4165         estimate D2E/DX2                !
 ! A28   A(16,15,22)           110.2863         estimate D2E/DX2                !
 ! A29   A(20,15,21)           108.3381         estimate D2E/DX2                !
 ! A30   A(20,15,22)           108.548          estimate D2E/DX2                !
 ! A31   A(21,15,22)           108.599          estimate D2E/DX2                !
 ! A32   A(15,16,17)           112.3824         estimate D2E/DX2                !
 ! A33   A(15,16,18)           110.4278         estimate D2E/DX2                !
 ! A34   A(15,16,23)           109.4374         estimate D2E/DX2                !
 ! A35   A(17,16,18)           109.4618         estimate D2E/DX2                !
 ! A36   A(17,16,23)           106.903          estimate D2E/DX2                !
 ! A37   A(18,16,23)           108.0788         estimate D2E/DX2                !
 ! A38   A(14,17,16)           112.5055         estimate D2E/DX2                !
 ! A39   A(14,17,24)           112.6673         estimate D2E/DX2                !
 ! A40   A(14,17,25)           104.4056         estimate D2E/DX2                !
 ! A41   A(16,17,24)           109.9072         estimate D2E/DX2                !
 ! A42   A(16,17,25)           109.5464         estimate D2E/DX2                !
 ! A43   A(24,17,25)           107.5244         estimate D2E/DX2                !
 ! A44   A(16,18,19)           113.9547         estimate D2E/DX2                !
 ! A45   A(16,18,26)           108.8066         estimate D2E/DX2                !
 ! A46   A(16,18,27)           109.0198         estimate D2E/DX2                !
 ! A47   A(19,18,26)           105.6723         estimate D2E/DX2                !
 ! A48   A(19,18,27)           110.8879         estimate D2E/DX2                !
 ! A49   A(26,18,27)           108.3015         estimate D2E/DX2                !
 ! A50   A(18,19,28)           109.3187         estimate D2E/DX2                !
 ! A51   A(5,28,19)            161.8158         estimate D2E/DX2                !
 ! D1    D(6,1,2,3)            -67.8605         estimate D2E/DX2                !
 ! D2    D(6,1,2,4)             58.2866         estimate D2E/DX2                !
 ! D3    D(6,1,2,9)            176.0935         estimate D2E/DX2                !
 ! D4    D(7,1,2,3)            171.7534         estimate D2E/DX2                !
 ! D5    D(7,1,2,4)            -62.0996         estimate D2E/DX2                !
 ! D6    D(7,1,2,9)             55.7074         estimate D2E/DX2                !
 ! D7    D(8,1,2,3)             51.3613         estimate D2E/DX2                !
 ! D8    D(8,1,2,4)            177.5084         estimate D2E/DX2                !
 ! D9    D(8,1,2,9)            -64.6847         estimate D2E/DX2                !
 ! D10   D(1,2,3,10)            60.5118         estimate D2E/DX2                !
 ! D11   D(1,2,3,11)           178.9766         estimate D2E/DX2                !
 ! D12   D(4,2,3,10)           -62.8698         estimate D2E/DX2                !
 ! D13   D(4,2,3,11)            55.595          estimate D2E/DX2                !
 ! D14   D(9,2,3,10)           178.0243         estimate D2E/DX2                !
 ! D15   D(9,2,3,11)           -63.511          estimate D2E/DX2                !
 ! D16   D(1,2,4,5)            171.866          estimate D2E/DX2                !
 ! D17   D(1,2,4,12)            49.0381         estimate D2E/DX2                !
 ! D18   D(1,2,4,13)           -69.5764         estimate D2E/DX2                !
 ! D19   D(3,2,4,5)            -65.2198         estimate D2E/DX2                !
 ! D20   D(3,2,4,12)           171.9522         estimate D2E/DX2                !
 ! D21   D(3,2,4,13)            53.3377         estimate D2E/DX2                !
 ! D22   D(9,2,4,5)             53.2899         estimate D2E/DX2                !
 ! D23   D(9,2,4,12)           -69.538          estimate D2E/DX2                !
 ! D24   D(9,2,4,13)           171.8475         estimate D2E/DX2                !
 ! D25   D(2,4,5,14)           -50.2488         estimate D2E/DX2                !
 ! D26   D(2,4,5,28)            45.3368         estimate D2E/DX2                !
 ! D27   D(12,4,5,14)           72.1823         estimate D2E/DX2                !
 ! D28   D(12,4,5,28)          167.7679         estimate D2E/DX2                !
 ! D29   D(13,4,5,14)         -171.0109         estimate D2E/DX2                !
 ! D30   D(13,4,5,28)          -75.4254         estimate D2E/DX2                !
 ! D31   D(4,5,14,17)          126.6259         estimate D2E/DX2                !
 ! D32   D(28,5,14,17)           4.3073         estimate D2E/DX2                !
 ! D33   D(4,5,28,19)          -63.7014         estimate D2E/DX2                !
 ! D34   D(14,5,28,19)          45.2431         estimate D2E/DX2                !
 ! D35   D(5,14,17,16)         -27.194          estimate D2E/DX2                !
 ! D36   D(5,14,17,24)        -152.1157         estimate D2E/DX2                !
 ! D37   D(5,14,17,25)          91.513          estimate D2E/DX2                !
 ! D38   D(20,15,16,17)        175.2441         estimate D2E/DX2                !
 ! D39   D(20,15,16,18)        -62.2162         estimate D2E/DX2                !
 ! D40   D(20,15,16,23)         56.639          estimate D2E/DX2                !
 ! D41   D(21,15,16,17)         55.3467         estimate D2E/DX2                !
 ! D42   D(21,15,16,18)        177.8863         estimate D2E/DX2                !
 ! D43   D(21,15,16,23)        -63.2584         estimate D2E/DX2                !
 ! D44   D(22,15,16,17)        -64.6808         estimate D2E/DX2                !
 ! D45   D(22,15,16,18)         57.8589         estimate D2E/DX2                !
 ! D46   D(22,15,16,23)        176.7141         estimate D2E/DX2                !
 ! D47   D(15,16,17,14)        174.5854         estimate D2E/DX2                !
 ! D48   D(15,16,17,24)        -58.9945         estimate D2E/DX2                !
 ! D49   D(15,16,17,25)         58.9362         estimate D2E/DX2                !
 ! D50   D(18,16,17,14)         51.502          estimate D2E/DX2                !
 ! D51   D(18,16,17,24)        177.9221         estimate D2E/DX2                !
 ! D52   D(18,16,17,25)        -64.1472         estimate D2E/DX2                !
 ! D53   D(23,16,17,14)        -65.3298         estimate D2E/DX2                !
 ! D54   D(23,16,17,24)         61.0903         estimate D2E/DX2                !
 ! D55   D(23,16,17,25)        179.021          estimate D2E/DX2                !
 ! D56   D(15,16,18,19)        159.7835         estimate D2E/DX2                !
 ! D57   D(15,16,18,26)         42.1657         estimate D2E/DX2                !
 ! D58   D(15,16,18,27)        -75.7569         estimate D2E/DX2                !
 ! D59   D(17,16,18,19)        -75.9824         estimate D2E/DX2                !
 ! D60   D(17,16,18,26)        166.3998         estimate D2E/DX2                !
 ! D61   D(17,16,18,27)         48.4772         estimate D2E/DX2                !
 ! D62   D(23,16,18,19)         40.1049         estimate D2E/DX2                !
 ! D63   D(23,16,18,26)        -77.5129         estimate D2E/DX2                !
 ! D64   D(23,16,18,27)        164.5645         estimate D2E/DX2                !
 ! D65   D(16,18,19,28)         64.5747         estimate D2E/DX2                !
 ! D66   D(26,18,19,28)       -176.0168         estimate D2E/DX2                !
 ! D67   D(27,18,19,28)        -58.8776         estimate D2E/DX2                !
 ! D68   D(18,19,28,5)         -69.3004         estimate D2E/DX2                !
 --------------------------------------------------------------------------------
 Number of steps in this run=    157 maximum allowed number of steps=    168.
 GradGradGradGradGradGradGradGradGradGradGradGradGradGradGradGradGradGrad

                    Distance matrix (angstroms):
                    1          2          3          4          5
     1  C    0.000000
     2  C    1.527327   0.000000
     3  N    2.424537   1.451460   0.000000
     4  C    2.512626   1.543648   2.519733   0.000000
     5  O    3.779839   2.470144   3.052181   1.408194   0.000000
     6  H    1.087975   2.159626   2.739889   2.734682   4.088204
     7  H    1.086845   2.167332   3.371551   2.775417   4.041919
     8  H    1.086123   2.147957   2.596630   3.456091   4.597337
     9  H    2.152318   1.098916   2.056781   2.150461   2.665396
    10  H    2.626105   2.034654   1.015048   2.757188   3.426450
    11  H    3.328351   2.050389   1.016452   2.722382   2.750593
    12  H    2.654925   2.168870   3.438324   1.099985   2.059931
    13  H    2.831050   2.175037   2.742802   1.094401   2.007988
    14  H    3.955794   2.584170   3.243171   1.962762   0.985009
    15  C    6.666230   5.359297   5.238140   5.768276   4.948643
    16  C    5.380405   3.975052   3.876865   4.291298   3.477503
    17  N    4.986732   3.639503   4.065228   3.620274   2.769637
    18  C    5.942069   4.434538   4.042458   4.458906   3.408438
    19  O    5.216482   3.735632   3.146295   3.673037   2.771978
    20  H    7.113566   5.832346   5.454433   6.386084   5.620210
    21  H    6.638112   5.484035   5.538673   6.018655   5.363394
    22  H    7.447812   6.081682   6.035559   6.257835   5.256452
    23  H    4.662352   3.356903   3.097808   4.040519   3.562613
    24  H    4.890251   3.745597   4.358484   3.934068   3.377836
    25  H    5.867409   4.517787   4.966268   4.239764   3.179965
    26  H    6.670932   5.209173   4.579223   5.400658   4.432844
    27  H    6.611784   5.087630   4.889688   4.813020   3.553541
    28  H    4.700556   3.211421   2.949202   2.839407   1.825383
                    6          7          8          9         10
     6  H    0.000000
     7  H    1.767134   0.000000
     8  H    1.764614   1.770375   0.000000
     9  H    3.057687   2.466791   2.502161   0.000000
    10  H    2.516951   3.651458   2.870112   2.913699   0.000000
    11  H    3.661617   4.175800   3.556877   2.380933   1.634866
    12  H    2.928476   2.466980   3.679858   2.534974   3.696579
    13  H    2.615127   3.243861   3.791343   3.058473   2.564604
    14  H    4.495248   4.123181   4.653063   2.352428   3.860938
    15  C    7.488936   6.983034   6.730646   4.561899   6.144030
    16  C    6.121463   5.761700   5.578171   3.311322   4.750369
    17  N    5.760081   5.122251   5.390181   2.899474   4.923539
    18  C    6.465615   6.467191   6.248654   4.117207   4.681520
    19  O    5.546411   5.873433   5.599005   3.769515   3.568298
    20  H    7.897029   7.551941   7.060275   5.113756   6.315449
    21  H    7.560310   6.835921   6.624721   4.543513   6.511277
    22  H    8.238895   7.706860   7.617418   5.315810   6.897572
    23  H    5.429421   5.149325   4.707662   2.697746   4.032780
    24  H    5.787981   4.877388   5.201953   2.802234   5.286540
    25  H    6.593794   5.933068   6.344580   3.842639   5.762739
    26  H    7.179810   7.281959   6.849207   4.901042   5.176344
    27  H    7.111449   7.029971   7.038666   4.766581   5.478387
    28  H    4.999049   5.261571   5.246735   3.330377   3.340259
                   11         12         13         14         15
    11  H    0.000000
    12  H    3.743635   0.000000
    13  H    2.990611   1.778762   0.000000
    14  H    2.881213   2.400155   2.833837   0.000000
    15  C    4.556462   6.293138   6.601989   4.138800   0.000000
    16  C    3.163900   4.906919   5.084079   2.741728   1.530805
    17  N    3.550781   3.965346   4.559329   1.823266   2.489807
    18  C    3.094074   5.259200   4.985893   3.010492   2.521819
    19  O    2.154306   4.636899   3.955687   2.777547   3.756337
    20  H    4.736046   7.023009   7.133835   4.907020   1.086115
    21  H    5.021310   6.403654   6.949232   4.468680   1.089038
    22  H    5.286800   6.731845   7.076123   4.447740   1.089328
    23  H    2.512997   4.721970   4.808347   2.936442   2.159062
    24  H    4.036145   4.084913   4.972200   2.404579   2.693347
    25  H    4.381378   4.494328   5.126637   2.297781   2.688194
    26  H    3.606054   6.257798   5.858412   4.074549   2.610718
    27  H    3.966096   5.500852   5.332448   3.153583   2.885219
    28  H    2.112253   3.764425   3.143907   1.989797   4.131850
                   16         17         18         19         20
    16  C    0.000000
    17  N    1.465396   0.000000
    18  C    1.539756   2.453929   0.000000
    19  O    2.464616   3.069905   1.398277   0.000000
    20  H    2.166194   3.423492   2.784137   3.950908   0.000000
    21  H    2.166213   2.720204   3.472807   4.591295   1.763500
    22  H    2.164791   2.789160   2.745865   4.114541   1.766065
    23  H    1.096101   2.069504   2.149366   2.583147   2.476566
    24  H    2.047310   1.015321   3.345241   3.956574   3.663032
    25  H    2.043882   1.016521   2.681029   3.482072   3.695183
    26  H    2.156657   3.380176   1.093184   1.994010   2.436407
    27  H    2.164950   2.604220   1.100687   2.064987   3.322635
    28  H    2.688179   2.794446   1.954018   0.978594   4.537594
                   21         22         23         24         25
    21  H    0.000000
    22  H    1.769003   0.000000
    23  H    2.517622   3.064114   0.000000
    24  H    2.499337   3.107865   2.362051   0.000000
    25  H    2.995375   2.569858   2.922101   1.638824   0.000000
    26  H    3.651856   2.845683   2.583323   4.164468   3.591585
    27  H    3.837992   2.685183   3.044720   3.566728   2.401910
    28  H    4.846907   4.445709   2.838848   3.679527   3.195134
                   26         27         28
    26  H    0.000000
    27  H    1.778271   0.000000
    28  H    2.823051   2.323696   0.000000
 Framework group  C1[X(C6H18N2O2)]
 Deg. of freedom    78
                         Standard orientation:                         
 ---------------------------------------------------------------------
 Center     Atomic      Atomic             Coordinates (Angstroms)
 Number     Number       Type             X           Y           Z
 ---------------------------------------------------------------------
      1          6           0       -3.382043   -1.139742   -0.368936
      2          6           0       -2.014508   -0.478670   -0.209067
      3          7           0       -1.627020    0.114428   -1.475883
      4          6           0       -2.046211    0.508439    0.977297
      5          8           0       -0.780377    1.027575    1.310722
      6          1           0       -4.148523   -0.383924   -0.526851
      7          1           0       -3.639057   -1.716960    0.515368
      8          1           0       -3.365038   -1.799252   -1.231735
      9          1           0       -1.267906   -1.252186    0.018692
     10          1           0       -2.305900    0.817421   -1.750188
     11          1           0       -0.726217    0.579573   -1.402601
     12          1           0       -2.485443    0.006153    1.851798
     13          1           0       -2.670606    1.371714    0.727097
     14          1           0       -0.143711    0.281707    1.403348
     15          6           0        3.282218   -1.289359   -0.306749
     16          6           0        1.959797   -0.533388   -0.154839
     17          7           0        1.347414   -0.739011    1.160490
     18          6           0        2.171640    0.973135   -0.392241
     19          8           0        1.001274    1.667213   -0.714234
     20          1           0        3.667959   -1.185070   -1.316685
     21          1           0        3.139460   -2.349457   -0.102262
     22          1           0        4.023125   -0.897951    0.389306
     23          1           0        1.243608   -0.897803   -0.900300
     24          1           0        1.173167   -1.728046    1.309908
     25          1           0        1.987738   -0.427974    1.886132
     26          1           0        2.838086    1.104641   -1.248749
     27          1           0        2.656576    1.411141    0.493479
     28          1           0        0.387389    1.637553    0.047285
 ---------------------------------------------------------------------
 Rotational constants (GHZ):           1.8133947           0.6266774           0.6049170
   176 basis functions,   322 primitive gaussians,   186 cartesian basis functions
    42 alpha electrons       42 beta electrons
       nuclear repulsion energy       613.3040426016 Hartrees.
 NAtoms=   28 NActive=   28 NUniq=   28 SFac= 1.00D+00 NAtFMM=   60 NAOKFM=F Big=F
 Nuclear repulsion after empirical dispersion term =      613.2832768492 Hartrees.
   1 Symmetry operations used in ECPInt.
 ECPInt:  NShTT=    4656 NPrTT=   18712 LenC2=    4581 LenP2D=   13861.
 LDataN:  DoStor=T MaxTD1= 4 Len=   56
 ExpMin= 1.22D-01 ExpMax= 2.27D+03 ExpMxC= 3.41D+02 IAcc=3 IRadAn=         5 AccDes= 0.00D+00
 Harris functional with IExCor= 4639 and IRadAn=       5 diagonalized for initial guess.
 HarFok:  IExCor= 4639 AccDes= 0.00D+00 IRadAn=         5 IDoV= 1 UseB2=F ITyADJ=14
 ICtDFT=  3500011 ScaDFX=  1.000000  1.000000  1.000000  1.000000
 FoFCou: FMM=F IPFlag=           0 FMFlag=      100000 FMFlg1=           0
         NFxFlg=           0 DoJE=T BraDBF=F KetDBF=T FulRan=T
         wScrn=  0.000000 ICntrl=       500 IOpCl=  0 I1Cent=   200000004 NGrid=           0
         NMat0=    1 NMatS0=      1 NMatT0=    0 NMatD0=    1 NMtDS0=    0 NMtDT0=    0
 Petite list used in FoFCou.
     Minimum is close to point  3 DX=  1.74D-02 DF= -5.37D-05 DXR=  2.81D-02 DFR=  7.84D-04 which will be used.
     Accept linear search using points  2 and  3.
     Accept linear search using points  1 and  2.
     Accept linear search using points  2 and  3.
     Minimum is close to point  2 DX=  3.88D-05 DF=  0.00D+00 DXR=  3.88D-05 DFR=  0.00D+00 which will be used.
 SCF Done:  E(RwB97XD) =  -498.857982728     a.u. after    8 cycles
            Convg  =    0.1986D-09                    36 Fock formations.
              S**2 =  0.0000                  -V/T =  2.0086

 **********************************************************************

            Population analysis using the SCF Density.

 **********************************************************************

 Orbital symmetries:
       Occupied  (A) (A) (A) (A) (A) (A) (A) (A) (A) (A) (A) (A)
                 (A) (A) (A) (A) (A) (A) (A) (A) (A) (A) (A) (A)
                 (A) (A) (A) (A) (A) (A) (A) (A) (A) (A) (A) (A)
                 (A) (A) (A) (A) (A) (A)
       Virtual   (A) (A) (A) (A) (A) (A) (A) (A) (A) (A) (A) (A)
                 (A) (A) (A) (A) (A) (A) (A) (A) (A) (A) (A) (A)
                 (A) (A) (A) (A) (A) (A) (A) (A) (A) (A) (A) (A)
                 (A) (A) (A) (A) (A) (A) (A) (A) (A) (A) (A) (A)
                 (A) (A) (A) (A) (A) (A) (A) (A) (A) (A) (A) (A)
                 (A) (A) (A) (A) (A) (A) (A) (A) (A) (A) (A) (A)
                 (A) (A) (A) (A) (A) (A) (A) (A) (A) (A) (A) (A)
                 (A) (A) (A) (A) (A) (A) (A) (A) (A) (A) (A) (A)
                 (A) (A) (A) (A) (A) (A) (A) (A) (A) (A) (A) (A)
                 (A) (A) (A) (A) (A) (A) (A) (A) (A) (A) (A) (A)
                 (A) (A) (A) (A) (A) (A) (A) (A) (A) (A) (A) (A)
                 (A) (A)
 The electronic state is 1-A.
 Alpha  occ. eigenvalues --  -19.23364 -19.23183 -14.45288 -14.39151 -10.33518
 Alpha  occ. eigenvalues --  -10.33301 -10.32057 -10.30937 -10.29280 -10.27075
 Alpha  occ. eigenvalues --   -1.10699  -1.09189  -1.00844  -0.96234  -0.85459
 Alpha  occ. eigenvalues --   -0.82734  -0.77250  -0.75515  -0.69567  -0.67449
 Alpha  occ. eigenvalues --   -0.63190  -0.58767  -0.57476  -0.57232  -0.56427
 Alpha  occ. eigenvalues --   -0.53612  -0.52812  -0.51632  -0.50785  -0.49631
 Alpha  occ. eigenvalues --   -0.48856  -0.47622  -0.46835  -0.44545  -0.44462
 Alpha  occ. eigenvalues --   -0.42127  -0.41439  -0.39542  -0.35873  -0.35436
 Alpha  occ. eigenvalues --   -0.34092  -0.29419
 Alpha virt. eigenvalues --    0.11174   0.14294   0.15515   0.16521   0.17401
 Alpha virt. eigenvalues --    0.18629   0.19269   0.19815   0.20400   0.22306
 Alpha virt. eigenvalues --    0.22678   0.23335   0.23668   0.24892   0.25516
 Alpha virt. eigenvalues --    0.26414   0.27342   0.29583   0.29885   0.31294
 Alpha virt. eigenvalues --    0.31774   0.33165   0.33459   0.34363   0.36084
 Alpha virt. eigenvalues --    0.36669   0.51337   0.52590   0.53334   0.54272
 Alpha virt. eigenvalues --    0.56149   0.56763   0.57977   0.59426   0.60362
 Alpha virt. eigenvalues --    0.62990   0.65173   0.65932   0.68179   0.68890
 Alpha virt. eigenvalues --    0.71413   0.71678   0.72837   0.74046   0.74605
 Alpha virt. eigenvalues --    0.75914   0.76116   0.78093   0.78290   0.78793
 Alpha virt. eigenvalues --    0.79269   0.80040   0.80544   0.81178   0.81796
 Alpha virt. eigenvalues --    0.82516   0.83388   0.83864   0.84047   0.84807
 Alpha virt. eigenvalues --    0.85737   0.87383   0.87947   0.88892   0.97096
 Alpha virt. eigenvalues --    0.98546   1.02334   1.03286   1.03990   1.08007
 Alpha virt. eigenvalues --    1.12688   1.15877   1.20355   1.21682   1.23955
 Alpha virt. eigenvalues --    1.27437   1.29313   1.32003   1.36930   1.40559
 Alpha virt. eigenvalues --    1.45131   1.47594   1.54620   1.58901   1.59401
 Alpha virt. eigenvalues --    1.63808   1.68904   1.73091   1.80914   1.82232
 Alpha virt. eigenvalues --    1.87518   1.89245   1.92644   1.95630   1.98391
 Alpha virt. eigenvalues --    2.01069   2.03603   2.05021   2.07343   2.09129
 Alpha virt. eigenvalues --    2.16538   2.19677   2.21509   2.22734   2.23079
 Alpha virt. eigenvalues --    2.23865   2.25277   2.28458   2.31644   2.33958
 Alpha virt. eigenvalues --    2.34296   2.40361   2.50485   2.53773   2.58517
 Alpha virt. eigenvalues --    2.59847   2.60636   2.66589   2.72738   2.73515
 Alpha virt. eigenvalues --    2.77362   2.77734   2.78379   2.85148   2.93809
 Alpha virt. eigenvalues --    2.94187   3.03571   3.04952   3.09531   3.11255
 Alpha virt. eigenvalues --    3.14867   3.16658   3.49257   3.52224
          Condensed to atoms (all electrons):
 Mulliken charges:
               1
     1  C   -0.282074
     2  C   -0.140340
     3  N   -0.519995
     4  C    0.069675
     5  O   -0.531931
     6  H    0.102848
     7  H    0.108773
     8  H    0.128308
     9  H    0.075648
    10  H    0.207858
    11  H    0.225864
    12  H    0.078618
    13  H    0.084442
    14  H    0.328164
    15  C   -0.291486
    16  C   -0.144805
    17  N   -0.528129
    18  C    0.059791
    19  O   -0.501716
    20  H    0.127902
    21  H    0.116041
    22  H    0.108241
    23  H    0.131881
    24  H    0.242213
    25  H    0.236588
    26  H    0.104723
    27  H    0.079236
    28  H    0.323661
 Sum of Mulliken charges =   0.00000
 Mulliken charges with hydrogens summed into heavy atoms:
               1
     1  C    0.057855
     2  C   -0.064692
     3  N   -0.086273
     4  C    0.232735
     5  O   -0.203766
    15  C    0.060700
    16  C   -0.012924
    17  N   -0.049328
    18  C    0.243750
    19  O   -0.178055
 Electronic spatial extent (au):  <R**2>=           2167.7438
 Charge=              0.0000 electrons
 Dipole moment (field-independent basis, Debye):
    X=              1.9627    Y=             -2.6412    Z=              2.1186  Tot=              3.9136
 Evaluate density.
 Using the total density.
 Monte-Carlo method of calculating molar volume:
 based on  0.001 e/bohr**3 density envelope.
 Number of points per bohr**3 =  100 CutOff= 1.00D-04
 Using the SCF density.
 There are      1946 points.  Will hold      1946 in memory.
 LenV=  1048173293 MDV=  1048576000.
 Box volume = 7371.830 fraction occupied=0.195
 Integrated density= 9.2924815179719900D+01 error= 8.9248151797199000D+00
 Molar volume = 1435.726 bohr**3/mol (128.123 cm**3/mol)
 Recommended a0 for SCRF calculation =  4.58 angstrom (  8.65 bohr)
   1 Symmetry operations used in ECPInt.
 ECPInt:  NShTT=    4656 NPrTT=   18712 LenC2=    4581 LenP2D=   13861.
 LDataN:  DoStor=T MaxTD1= 5 Len=  102
 Calling FoFJK, ICntrl=      2127 FMM=F ISym2X=0 I1Cent= 0 IOpClX= 0 NMat=1 NMatS=1 NMatT=0.

 GradGradGradGradGradGradGradGradGradGradGradGradGradGradGradGradGradGrad
 FormGI is forming the generalized inverse of G from B-inverse, IUseBI=4.
 Internal  Forces:  Max     0.011879832 RMS     0.003016445
 Step number   1 out of a maximum of  157
 All quantities printed in internal units (Hartrees-Bohrs-Radians)
 Mixed Optimization -- RFO/linear search
 Second derivative matrix not updated -- first step.
 ITU=  0
     Eigenvalues ---    0.00230   0.00358   0.00404   0.00550   0.00596
     Eigenvalues ---    0.00797   0.01011   0.01448   0.01583   0.03503
     Eigenvalues ---    0.03885   0.03921   0.04266   0.04350   0.04640
     Eigenvalues ---    0.04778   0.04833   0.05120   0.05461   0.05473
     Eigenvalues ---    0.05613   0.05626   0.05632   0.05779   0.05781
     Eigenvalues ---    0.05915   0.06086   0.06705   0.07207   0.08789
     Eigenvalues ---    0.09308   0.09819   0.11395   0.11825   0.12669
     Eigenvalues ---    0.13020   0.14450   0.15950   0.16000   0.16000
     Eigenvalues ---    0.16000   0.16000   0.16000   0.16000   0.16000
     Eigenvalues ---    0.16000   0.16530   0.16677   0.17907   0.18470
     Eigenvalues ---    0.20734   0.22025   0.27971   0.28198   0.29349
     Eigenvalues ---    0.29672   0.33606   0.33684   0.33802   0.34117
     Eigenvalues ---    0.34309   0.34447   0.34890   0.34924   0.35048
     Eigenvalues ---    0.35139   0.35180   0.35264   0.35266   0.38054
     Eigenvalues ---    0.44289   0.44420   0.44898   0.44909   0.45093
     Eigenvalues ---    0.45138   0.49353   0.50140
 Linear search not attempted -- first point.
 Iteration  1 RMS(Cart)=  0.08038532 RMS(Int)=  0.00204552
 Iteration  2 RMS(Cart)=  0.00332217 RMS(Int)=  0.00009892
 Iteration  3 RMS(Cart)=  0.00000545 RMS(Int)=  0.00009885
 Iteration  4 RMS(Cart)=  0.00000000 RMS(Int)=  0.00009885
 Variable       Old X    -DE/DX   Delta X   Delta X   Delta X     New X
                                 (Linear)    (Quad)   (Total)
    R1        2.88623   0.00128   0.00000   0.00423   0.00423   2.89046
    R2        2.05597   0.01188   0.00000   0.03338   0.03338   2.08935
    R3        2.05384   0.01135   0.00000   0.03177   0.03177   2.08561
    R4        2.05248   0.01068   0.00000   0.02984   0.02984   2.08231
    R5        2.74286   0.00413   0.00000   0.01071   0.01071   2.75357
    R6        2.91707  -0.00265   0.00000  -0.00922  -0.00922   2.90785
    R7        2.07665   0.00528   0.00000   0.01537   0.01537   2.09202
    R8        1.91816   0.00543   0.00000   0.01188   0.01188   1.93004
    R9        1.92082   0.00585   0.00000   0.01286   0.01286   1.93368
   R10        2.66110   0.00060   0.00000   0.00134   0.00134   2.66244
   R11        2.07867   0.00670   0.00000   0.01956   0.01956   2.09823
   R12        2.06812   0.00667   0.00000   0.01915   0.01915   2.08727
   R13        1.86140   0.00544   0.00000   0.01036   0.01041   1.87181
   R14        3.44947  -0.00250   0.00000  -0.03970  -0.03968   3.40979
   R15        3.44547  -0.00017   0.00000  -0.00482  -0.00478   3.44070
   R16        2.89280   0.00146   0.00000   0.00487   0.00487   2.89767
   R17        2.05246   0.01165   0.00000   0.03254   0.03254   2.08500
   R18        2.05798   0.01010   0.00000   0.02849   0.02849   2.08647
   R19        2.05853   0.01098   0.00000   0.03099   0.03099   2.08953
   R20        2.76920   0.00548   0.00000   0.01506   0.01508   2.78428
   R21        2.90972  -0.00170   0.00000  -0.00551  -0.00560   2.90412
   R22        2.07133   0.00493   0.00000   0.01422   0.01422   2.08555
   R23        1.91868   0.00496   0.00000   0.01087   0.01087   1.92955
   R24        1.92095   0.00555   0.00000   0.01222   0.01222   1.93316
   R25        2.64236   0.00123   0.00000   0.00303   0.00301   2.64537
   R26        2.06582   0.00610   0.00000   0.01742   0.01742   2.08324
   R27        2.08000   0.00734   0.00000   0.02150   0.02150   2.10150
   R28        1.84927   0.00184   0.00000   0.00350   0.00348   1.85275
    A1        1.92336   0.00048   0.00000   0.00099   0.00099   1.92434
    A2        1.93526   0.00244   0.00000   0.01589   0.01584   1.95110
    A3        1.90917   0.00066   0.00000   0.00478   0.00473   1.91390
    A4        1.89700  -0.00169   0.00000  -0.01167  -0.01167   1.88533
    A5        1.89395  -0.00087   0.00000  -0.00754  -0.00754   1.88642
    A6        1.90451  -0.00112   0.00000  -0.00307  -0.00317   1.90135
    A7        1.90132   0.00160   0.00000   0.02205   0.02181   1.92313
    A8        1.91648   0.00064   0.00000   0.01117   0.01080   1.92728
    A9        1.90218  -0.00104   0.00000  -0.01630  -0.01620   1.88597
   A10        1.99870  -0.00045   0.00000   0.00743   0.00699   2.00568
   A11        1.86204  -0.00009   0.00000  -0.00590  -0.00575   1.85629
   A12        1.88050  -0.00078   0.00000  -0.02104  -0.02101   1.85950
   A13        1.91804   0.00123   0.00000   0.00923   0.00919   1.92724
   A14        1.93977   0.00099   0.00000   0.00775   0.00771   1.94748
   A15        1.87054  -0.00076   0.00000  -0.00107  -0.00114   1.86939
   A16        1.98150  -0.00302   0.00000  -0.01112  -0.01112   1.97037
   A17        1.90414   0.00162   0.00000   0.01031   0.01034   1.91449
   A18        1.91817  -0.00102   0.00000  -0.01459  -0.01455   1.90362
   A19        1.91669   0.00117   0.00000   0.01243   0.01242   1.92911
   A20        1.85063   0.00240   0.00000   0.01436   0.01425   1.86488
   A21        1.89034  -0.00114   0.00000  -0.01188  -0.01193   1.87840
   A22        1.90089   0.00012   0.00000   0.00021   0.00021   1.90109
   A23        2.13456  -0.00253   0.00000  -0.02594  -0.02587   2.10869
   A24        1.47528   0.00076   0.00000   0.00488   0.00483   1.48011
   A25        2.79342   0.00044   0.00000   0.00394   0.00382   2.79724
   A26        1.93015   0.00164   0.00000   0.01054   0.01050   1.94065
   A27        1.92713   0.00123   0.00000   0.00727   0.00724   1.93437
   A28        1.92486   0.00089   0.00000   0.00494   0.00492   1.92978
   A29        1.89086  -0.00139   0.00000  -0.00756  -0.00760   1.88325
   A30        1.89452  -0.00127   0.00000  -0.00732  -0.00735   1.88717
   A31        1.89541  -0.00124   0.00000  -0.00867  -0.00868   1.88673
   A32        1.96144  -0.00024   0.00000   0.00534   0.00520   1.96664
   A33        1.92733   0.00092   0.00000   0.01058   0.01058   1.93791
   A34        1.91004   0.00006   0.00000  -0.00415  -0.00413   1.90591
   A35        1.91047   0.00067   0.00000   0.01018   0.00992   1.92038
   A36        1.86581  -0.00007   0.00000  -0.00209  -0.00198   1.86383
   A37        1.88633  -0.00144   0.00000  -0.02153  -0.02151   1.86482
   A38        1.96359  -0.00203   0.00000  -0.00500  -0.00506   1.95854
   A39        1.96641  -0.00042   0.00000  -0.00814  -0.00804   1.95837
   A40        1.82222   0.00060   0.00000   0.00414   0.00409   1.82632
   A41        1.91824   0.00177   0.00000   0.01131   0.01127   1.92952
   A42        1.91195   0.00169   0.00000   0.01118   0.01121   1.92315
   A43        1.87666  -0.00161   0.00000  -0.01388  -0.01394   1.86272
   A44        1.98889   0.00186   0.00000   0.01724   0.01687   2.00575
   A45        1.89903  -0.00079   0.00000  -0.00396  -0.00409   1.89494
   A46        1.90275  -0.00168   0.00000  -0.01742  -0.01751   1.88524
   A47        1.84433   0.00102   0.00000   0.01570   0.01568   1.86001
   A48        1.93536   0.00036   0.00000   0.00798   0.00820   1.94356
   A49        1.89022  -0.00084   0.00000  -0.02077  -0.02104   1.86918
   A50        1.90797   0.00157   0.00000   0.02061   0.02038   1.92835
   A51        2.82422  -0.00182   0.00000  -0.00921  -0.00947   2.81475
    D1       -1.18439  -0.00011   0.00000  -0.00015  -0.00027  -1.18466
    D2        1.01729   0.00087   0.00000   0.03230   0.03239   1.04968
    D3        3.07341  -0.00030   0.00000   0.00370   0.00374   3.07715
    D4        2.99766   0.00011   0.00000   0.00347   0.00337   3.00103
    D5       -1.08384   0.00109   0.00000   0.03592   0.03604  -1.04781
    D6        0.97228  -0.00008   0.00000   0.00732   0.00738   0.97966
    D7        0.89642  -0.00047   0.00000  -0.00585  -0.00600   0.89042
    D8        3.09811   0.00051   0.00000   0.02660   0.02666   3.12477
    D9       -1.12896  -0.00067   0.00000  -0.00200  -0.00199  -1.13095
   D10        1.05613   0.00050   0.00000   0.01090   0.01095   1.06708
   D11        3.12373   0.00096   0.00000   0.02027   0.02036  -3.13910
   D12       -1.09728  -0.00125   0.00000  -0.02603  -0.02613  -1.12341
   D13        0.97032  -0.00080   0.00000  -0.01666  -0.01672   0.95360
   D14        3.10711   0.00005   0.00000  -0.00008  -0.00010   3.10701
   D15       -1.10848   0.00051   0.00000   0.00928   0.00931  -1.09916
   D16        2.99963  -0.00048   0.00000   0.06540   0.06536   3.06498
   D17        0.85588  -0.00110   0.00000   0.04939   0.04939   0.90526
   D18       -1.21434  -0.00010   0.00000   0.06629   0.06633  -1.14801
   D19       -1.13830   0.00179   0.00000   0.10847   0.10843  -1.02987
   D20        3.00113   0.00117   0.00000   0.09247   0.09246   3.09359
   D21        0.93092   0.00218   0.00000   0.10937   0.10940   1.04032
   D22        0.93008   0.00086   0.00000   0.09102   0.09099   1.02107
   D23       -1.21367   0.00024   0.00000   0.07501   0.07502  -1.13865
   D24        2.99931   0.00125   0.00000   0.09191   0.09196   3.09126
   D25       -0.87701  -0.00052   0.00000   0.00374   0.00372  -0.87329
   D26        0.79128  -0.00052   0.00000  -0.00054  -0.00058   0.79070
   D27        1.25982   0.00034   0.00000   0.01856   0.01852   1.27834
   D28        2.92810   0.00034   0.00000   0.01427   0.01423   2.94233
   D29       -2.98470   0.00091   0.00000   0.01873   0.01880  -2.96590
   D30       -1.31642   0.00091   0.00000   0.01444   0.01451  -1.30191
   D31        2.21004  -0.00232   0.00000  -0.03441  -0.03448   2.17556
   D32        0.07518   0.00010   0.00000  -0.00857  -0.00870   0.06648
   D33       -1.11180   0.00016   0.00000   0.02022   0.02021  -1.09159
   D34        0.78964   0.00049   0.00000   0.02057   0.02054   0.81018
   D35       -0.47462  -0.00072   0.00000   0.00138   0.00132  -0.47330
   D36       -2.65492  -0.00115   0.00000  -0.00334  -0.00342  -2.65834
   D37        1.59720   0.00062   0.00000   0.01474   0.01466   1.61186
   D38        3.05859  -0.00051   0.00000  -0.01068  -0.01065   3.04794
   D39       -1.08588   0.00085   0.00000   0.01391   0.01390  -1.07198
   D40        0.98854  -0.00032   0.00000  -0.00867  -0.00868   0.97986
   D41        0.96598  -0.00064   0.00000  -0.01275  -0.01274   0.95324
   D42        3.10470   0.00072   0.00000   0.01184   0.01181   3.11651
   D43       -1.10407  -0.00045   0.00000  -0.01075  -0.01077  -1.11484
   D44       -1.12889  -0.00046   0.00000  -0.00980  -0.00977  -1.13867
   D45        1.00983   0.00090   0.00000   0.01478   0.01478   1.02460
   D46        3.08424  -0.00027   0.00000  -0.00780  -0.00780   3.07644
   D47        3.04709   0.00090   0.00000   0.01024   0.01019   3.05728
   D48       -1.02965   0.00020   0.00000   0.00455   0.00453  -1.02512
   D49        1.02863   0.00030   0.00000   0.00105   0.00107   1.02970
   D50        0.89888  -0.00060   0.00000  -0.01437  -0.01452   0.88436
   D51        3.10533  -0.00130   0.00000  -0.02005  -0.02018   3.08515
   D52       -1.11958  -0.00120   0.00000  -0.02356  -0.02364  -1.14322
   D53       -1.14022   0.00078   0.00000   0.00692   0.00686  -1.13336
   D54        1.06623   0.00008   0.00000   0.00123   0.00120   1.06743
   D55        3.12451   0.00018   0.00000  -0.00227  -0.00225   3.12225
   D56        2.78875   0.00054   0.00000   0.02141   0.02141   2.81016
   D57        0.73593  -0.00135   0.00000  -0.00626  -0.00623   0.72970
   D58       -1.32221   0.00107   0.00000   0.03084   0.03064  -1.29157
   D59       -1.32614   0.00133   0.00000   0.04241   0.04251  -1.28363
   D60        2.90422  -0.00056   0.00000   0.01474   0.01488   2.91910
   D61        0.84609   0.00185   0.00000   0.05184   0.05174   0.89783
   D62        0.69996   0.00081   0.00000   0.03348   0.03350   0.73346
   D63       -1.35286  -0.00108   0.00000   0.00581   0.00586  -1.34699
   D64        2.87219   0.00134   0.00000   0.04291   0.04273   2.91492
   D65        1.12704  -0.00055   0.00000  -0.03217  -0.03241   1.09463
   D66       -3.07207   0.00022   0.00000  -0.01670  -0.01668  -3.08876
   D67       -1.02761  -0.00001   0.00000  -0.02827  -0.02840  -1.05601
   D68       -1.20952   0.00094   0.00000   0.00024   0.00023  -1.20929
         Item               Value     Threshold  Converged?
 Maximum Force            0.011880     0.000015     NO 
 RMS     Force            0.003016     0.000010     NO 
 Maximum Displacement     0.414189     0.000060     NO 
 RMS     Displacement     0.081770     0.000040     NO 
 GradGradGradGradGradGradGradGradGradGradGradGradGradGradGradGradGradGrad

                    Distance matrix (angstroms):
                    1          2          3          4          5
     1  C    0.000000
     2  C    1.529564   0.000000
     3  N    2.449699   1.457126   0.000000
     4  C    2.519947   1.538770   2.525931   0.000000
     5  O    3.783787   2.457565   2.993107   1.408902   0.000000
     6  H    1.105637   2.175554   2.776864   2.768650   4.101453
     7  H    1.103656   2.193371   3.414640   2.790198   4.081989
     8  H    1.101912   2.165128   2.633723   3.476894   4.607473
     9  H    2.148236   1.107049   2.063339   2.136202   2.672348
    10  H    2.670672   2.050596   1.021335   2.787194   3.369686
    11  H    3.357728   2.065717   1.023258   2.734099   2.680841
    12  H    2.698755   2.179930   3.461760   1.110336   2.077278
    13  H    2.799648   2.167574   2.785323   1.104534   2.026610
    14  H    3.972514   2.569890   3.146710   1.967572   0.990518
    15  C    6.611921   5.300830   5.020270   5.755011   4.958189
    16  C    5.326505   3.916149   3.665526   4.273635   3.481053
    17  N    4.989978   3.609581   3.907608   3.616544   2.773340
    18  C    5.847553   4.351143   3.800040   4.430305   3.409591
    19  O    5.107089   3.652060   2.941845   3.625889   2.750983
    20  H    7.038719   5.774236   5.234925   6.380510   5.645730
    21  H    6.610392   5.445439   5.354871   6.017316   5.383018
    22  H    7.429725   6.049603   5.837604   6.271520   5.286240
    23  H    4.574935   3.280997   2.877740   4.007237   3.559853
    24  H    4.912986   3.727051   4.227538   3.929000   3.379161
    25  H    5.888478   4.499461   4.817361   4.249057   3.191984
    26  H    6.548095   5.115773   4.321392   5.370520   4.440731
    27  H    6.579920   5.052632   4.696540   4.836088   3.596863
    28  H    4.625418   3.149147   2.795224   2.801018   1.804384
                    6          7          8          9         10
     6  H    0.000000
     7  H    1.787601   0.000000
     8  H    1.786894   1.794907   0.000000
     9  H    3.074092   2.482974   2.507477   0.000000
    10  H    2.570562   3.712112   2.923206   2.931472   0.000000
    11  H    3.708442   4.221507   3.596088   2.391150   1.644709
    12  H    3.019944   2.505997   3.727464   2.500838   3.762447
    13  H    2.593450   3.199780   3.788290   3.055207   2.627494
    14  H    4.523088   4.195830   4.664646   2.355417   3.775574
    15  C    7.421344   7.025626   6.639204   4.562540   5.901735
    16  C    6.055431   5.794852   5.499090   3.317826   4.521919
    17  N    5.767385   5.207263   5.374034   2.899716   4.772565
    18  C    6.345634   6.458713   6.132035   4.116549   4.389773
    19  O    5.401772   5.830271   5.488178   3.779418   3.288165
    20  H    7.799210   7.574134   6.941748   5.128254   6.052983
    21  H    7.527351   6.902168   6.557687   4.547319   6.315285
    22  H    8.209208   7.789783   7.562245   5.337616   6.673585
    23  H    5.327432   5.143600   4.595005   2.699503   3.798499
    24  H    5.821020   4.980626   5.204471   2.793657   5.171782
    25  H    6.621633   6.037984   6.344549   3.847137   5.617532
    26  H    7.021466   7.249565   6.695623   4.899698   4.848144
    27  H    7.062553   7.086269   6.980679   4.795430   5.244184
    28  H    4.900242   5.241820   5.177992   3.345399   3.132816
                   11         12         13         14         15
    11  H    0.000000
    12  H    3.754859   0.000000
    13  H    3.065740   1.787597   0.000000
    14  H    2.745293   2.426896   2.854764   0.000000
    15  C    4.294168   6.307264   6.596556   4.144235   0.000000
    16  C    2.899868   4.914463   5.075334   2.741262   1.533381
    17  N    3.330417   3.986356   4.569177   1.820738   2.502872
    18  C    2.810054   5.262421   4.963890   3.011173   2.530724
    19  O    1.944261   4.614262   3.910920   2.762358   3.776588
    20  H    4.494205   7.043417   7.132507   4.929783   1.103335
    21  H    4.794349   6.423957   6.956601   4.483133   1.104114
    22  H    5.034274   6.777983   7.099568   4.472744   1.105729
    23  H    2.268392   4.707243   4.779810   2.932901   2.163876
    24  H    3.846957   4.096444   4.979920   2.400618   2.717190
    25  H    4.165033   4.530936   5.152338   2.302850   2.714648
    26  H    3.334110   6.258698   5.831117   4.082175   2.618385
    27  H    3.724725   5.560002   5.367382   3.190040   2.871010
    28  H    1.956516   3.748937   3.112787   1.978183   4.156574
                   16         17         18         19         20
    16  C    0.000000
    17  N    1.473377   0.000000
    18  C    1.536793   2.466505   0.000000
    19  O    2.476766   3.075086   1.399869   0.000000
    20  H    2.189002   3.455827   2.805920   3.991197   0.000000
    21  H    2.185052   2.740264   3.495768   4.625248   1.784758
    22  H    2.182944   2.817966   2.775685   4.147244   1.788610
    23  H    1.103626   2.080437   2.136065   2.592382   2.493521
    24  H    2.066342   1.021073   3.363987   3.969049   3.703885
    25  H    2.063412   1.022985   2.718904   3.501031   3.742796
    26  H    2.157823   3.399157   1.102404   2.013750   2.447199
    27  H    2.157680   2.626730   1.112065   2.080922   3.318215
    28  H    2.706891   2.803432   1.970170   0.980434   4.582594
                   21         22         23         24         25
    21  H    0.000000
    22  H    1.788953   0.000000
    23  H    2.538388   3.087345   0.000000
    24  H    2.525421   3.145660   2.383513   0.000000
    25  H    3.021622   2.608062   2.944263   1.640218   0.000000
    26  H    3.672716   2.875461   2.567467   4.189028   3.638198
    27  H    3.842842   2.677827   3.041968   3.593059   2.443823
    28  H    4.883291   4.484451   2.854687   3.691746   3.214470
                   26         27         28
    26  H    0.000000
    27  H    1.781231   0.000000
    28  H    2.851498   2.365050   0.000000
 Framework group  C1[X(C6H18N2O2)]
 Deg. of freedom    78
                         Standard orientation:                         
 ---------------------------------------------------------------------
 Center     Atomic      Atomic             Coordinates (Angstroms)
 Number     Number       Type             X           Y           Z
 ---------------------------------------------------------------------
      1          6           0       -3.349104   -1.161465   -0.370014
      2          6           0       -1.982781   -0.506792   -0.159938
      3          7           0       -1.444083   -0.047564   -1.433567
      4          6           0       -2.066450    0.571106    0.935026
      5          8           0       -0.814413    1.140356    1.240579
      6          1           0       -4.092799   -0.404279   -0.679889
      7          1           0       -3.717634   -1.645054    0.551064
      8          1           0       -3.278781   -1.918323   -1.167780
      9          1           0       -1.284886   -1.281140    0.212737
     10          1           0       -2.062017    0.650290   -1.851040
     11          1           0       -0.527619    0.392616   -1.317847
     12          1           0       -2.532344    0.142449    1.847190
     13          1           0       -2.714690    1.393310    0.583229
     14          1           0       -0.161860    0.413064    1.402895
     15          6           0        3.259228   -1.293424   -0.196712
     16          6           0        1.932704   -0.531408   -0.092194
     17          7           0        1.337106   -0.609565    1.253167
     18          6           0        2.106749    0.938294   -0.506217
     19          8           0        0.920542    1.600353   -0.844186
     20          1           0        3.635015   -1.299525   -1.234063
     21          1           0        3.136061   -2.342168    0.125828
     22          1           0        4.028104   -0.824681    0.444964
     23          1           0        1.202708   -0.976064   -0.790318
     24          1           0        1.168494   -1.582092    1.514610
     25          1           0        1.982496   -0.225611    1.947826
     26          1           0        2.753791    0.977620   -1.397892
     27          1           0        2.645361    1.464665    0.312025
     28          1           0        0.318323    1.641287   -0.071588
 ---------------------------------------------------------------------
 Rotational constants (GHZ):           1.8120468           0.6425450           0.6221814
   176 basis functions,   322 primitive gaussians,   186 cartesian basis functions
    42 alpha electrons       42 beta electrons
       nuclear repulsion energy       615.9884835314 Hartrees.
 NAtoms=   28 NActive=   28 NUniq=   28 SFac= 1.00D+00 NAtFMM=   60 NAOKFM=F Big=F
 Nuclear repulsion after empirical dispersion term =      615.9673580810 Hartrees.
   1 Symmetry operations used in ECPInt.
 ECPInt:  NShTT=    4656 NPrTT=   18712 LenC2=    4584 LenP2D=   13900.
 LDataN:  DoStor=T MaxTD1= 4 Len=   56
 Initial guess from the checkpoint file:  "dimer.chk"
 B after Tr=     0.000000    0.000000    0.000000
         Rot=    0.999057    0.042914    0.005640   -0.003501 Ang=   4.98 deg.
 ExpMin= 1.22D-01 ExpMax= 2.27D+03 ExpMxC= 3.41D+02 IAcc=3 IRadAn=         5 AccDes= 0.00D+00
 Harris functional with IExCor= 4639 and IRadAn=       5 diagonalized for initial guess.
 HarFok:  IExCor= 4639 AccDes= 0.00D+00 IRadAn=         5 IDoV= 1 UseB2=F ITyADJ=14
 ICtDFT=  3500011 ScaDFX=  1.000000  1.000000  1.000000  1.000000
 FoFCou: FMM=F IPFlag=           0 FMFlag=      100000 FMFlg1=           0
         NFxFlg=           0 DoJE=T BraDBF=F KetDBF=T FulRan=T
         wScrn=  0.000000 ICntrl=       500 IOpCl=  0 I1Cent=   200000004 NGrid=           0
         NMat0=    1 NMatS0=      1 NMatT0=    0 NMatD0=    1 NMtDS0=    0 NMtDT0=    0
 Petite list used in FoFCou.
     Accept linear search using points  1 and  2.
     Minimum is close to point  2 DX= -7.85D-02 DF= -3.63D-06 DXR=  7.69D-02 DFR=  6.93D-03 which will be used.
     Accept linear search using points  1 and  2.
     Accept linear search using points  1 and  2.
     Accept linear search using points  1 and  2.
     Minimum is close to point  2 DX= -1.64D-05 DF=  0.00D+00 DXR=  1.64D-05 DFR=  0.00D+00 which will be used.
 SCF Done:  E(RwB97XD) =  -498.859768106     a.u. after    9 cycles
            Convg  =    0.7689D-09                    38 Fock formations.
              S**2 =  0.0000                  -V/T =  2.0092
   1 Symmetry operations used in ECPInt.
 ECPInt:  NShTT=    4656 NPrTT=   18712 LenC2=    4584 LenP2D=   13900.
 LDataN:  DoStor=T MaxTD1= 5 Len=  102
 Calling FoFJK, ICntrl=      2127 FMM=F ISym2X=0 I1Cent= 0 IOpClX= 0 NMat=1 NMatS=1 NMatT=0.

 GradGradGradGradGradGradGradGradGradGradGradGradGradGradGradGradGradGrad
 Using GEDIIS/GDIIS optimizer.
 FormGI is forming the generalized inverse of G from B-inverse, IUseBI=4.
 Internal  Forces:  Max     0.016914719 RMS     0.002455976
 Step number   2 out of a maximum of  157
 All quantities printed in internal units (Hartrees-Bohrs-Radians)
 Mixed Optimization -- RFO/linear search
 Trust test= 5.92D-01 RLast= 3.25D-01 DXMaxT set to 5.05D-01
 ITU=  1  0
 Use linear search instead of GDIIS.
     Eigenvalues ---    0.00320   0.00359   0.00404   0.00553   0.00613
     Eigenvalues ---    0.00776   0.01010   0.01429   0.01579   0.03191
     Eigenvalues ---    0.03612   0.03852   0.04236   0.04398   0.04585
     Eigenvalues ---    0.04719   0.04847   0.05106   0.05375   0.05499
     Eigenvalues ---    0.05516   0.05533   0.05571   0.05739   0.05819
     Eigenvalues ---    0.05963   0.06210   0.06783   0.07221   0.09108
     Eigenvalues ---    0.09573   0.10119   0.11417   0.11889   0.12427
     Eigenvalues ---    0.12874   0.14570   0.15194   0.16000   0.16000
     Eigenvalues ---    0.16000   0.16000   0.16000   0.16000   0.16016
     Eigenvalues ---    0.16286   0.16704   0.17519   0.18014   0.18796
     Eigenvalues ---    0.19949   0.21954   0.27990   0.28233   0.29309
     Eigenvalues ---    0.29640   0.33595   0.33740   0.33792   0.34125
     Eigenvalues ---    0.34309   0.34484   0.34849   0.34924   0.34981
     Eigenvalues ---    0.35125   0.35219   0.35265   0.37066   0.40344
     Eigenvalues ---    0.44216   0.44398   0.44848   0.45025   0.45117
     Eigenvalues ---    0.47998   0.49336   0.50957
 Quartic linear search produced a step of -0.26271.
 Iteration  1 RMS(Cart)=  0.14079467 RMS(Int)=  0.00416700
 Iteration  2 RMS(Cart)=  0.00828019 RMS(Int)=  0.00023223
 Iteration  3 RMS(Cart)=  0.00004005 RMS(Int)=  0.00023154
 Iteration  4 RMS(Cart)=  0.00000001 RMS(Int)=  0.00023154
 Variable       Old X    -DE/DX   Delta X   Delta X   Delta X     New X
                                 (Linear)    (Quad)   (Total)
    R1        2.89046  -0.00191  -0.00111   0.00036  -0.00075   2.88971
    R2        2.08935   0.00044  -0.00877   0.04132   0.03255   2.12190
    R3        2.08561  -0.00008  -0.00835   0.03828   0.02993   2.11554
    R4        2.08231  -0.00003  -0.00784   0.03605   0.02821   2.11052
    R5        2.75357  -0.00315  -0.00281   0.00684   0.00403   2.75760
    R6        2.90785   0.00273   0.00242  -0.00400  -0.00158   2.90627
    R7        2.09202   0.00094  -0.00404   0.02065   0.01661   2.10863
    R8        1.93004   0.00006  -0.00312   0.01450   0.01138   1.94142
    R9        1.93368  -0.00270  -0.00338   0.01113   0.00775   1.94143
   R10        2.66244   0.00455  -0.00035   0.00924   0.00889   2.67133
   R11        2.09823  -0.00010  -0.00514   0.02345   0.01831   2.11654
   R12        2.08727   0.00050  -0.00503   0.02425   0.01922   2.10648
   R13        1.87181   0.00157  -0.00273   0.01459   0.01199   1.88379
   R14        3.40979  -0.00038   0.01042  -0.05184  -0.04128   3.36851
   R15        3.44070  -0.00025   0.00125  -0.01092  -0.00959   3.43111
   R16        2.89767  -0.00213  -0.00128   0.00054  -0.00074   2.89693
   R17        2.08500  -0.00004  -0.00855   0.03930   0.03075   2.11575
   R18        2.08647  -0.00010  -0.00748   0.03427   0.02678   2.11326
   R19        2.08953   0.00026  -0.00814   0.03806   0.02992   2.11944
   R20        2.78428  -0.00190  -0.00396   0.01487   0.01080   2.79508
   R21        2.90412  -0.00023   0.00147  -0.00747  -0.00620   2.89792
   R22        2.08555   0.00035  -0.00374   0.01797   0.01423   2.09979
   R23        1.92955  -0.00001  -0.00286   0.01315   0.01029   1.93984
   R24        1.93316   0.00029  -0.00321   0.01529   0.01208   1.94524
   R25        2.64537  -0.00288  -0.00079  -0.00042  -0.00130   2.64407
   R26        2.08324  -0.00017  -0.00458   0.02073   0.01615   2.09939
   R27        2.10150   0.00080  -0.00565   0.02779   0.02214   2.12364
   R28        1.85275   0.00313  -0.00091   0.00854   0.00771   1.86046
    A1        1.92434   0.00075  -0.00026   0.00449   0.00422   1.92856
    A2        1.95110  -0.00009  -0.00416   0.01851   0.01430   1.96540
    A3        1.91390   0.00031  -0.00124   0.00723   0.00595   1.91985
    A4        1.88533  -0.00040   0.00307  -0.01618  -0.01312   1.87221
    A5        1.88642  -0.00051   0.00198  -0.01123  -0.00925   1.87717
    A6        1.90135  -0.00009   0.00083  -0.00421  -0.00344   1.89790
    A7        1.92313  -0.00454  -0.00573   0.00101  -0.00478   1.91835
    A8        1.92728  -0.00107  -0.00284   0.00172  -0.00120   1.92608
    A9        1.88597   0.00059   0.00426  -0.02766  -0.02354   1.86244
   A10        2.00568   0.00501  -0.00184   0.02993   0.02819   2.03387
   A11        1.85629   0.00098   0.00151   0.01144   0.01292   1.86920
   A12        1.85950  -0.00091   0.00552  -0.02070  -0.01550   1.84399
   A13        1.92724  -0.00054  -0.00242   0.00785   0.00539   1.93262
   A14        1.94748   0.00318  -0.00203   0.02302   0.02095   1.96843
   A15        1.86939  -0.00152   0.00030  -0.00973  -0.00952   1.85988
   A16        1.97037   0.01691   0.00292   0.04751   0.05008   2.02045
   A17        1.91449  -0.00485  -0.00272  -0.01287  -0.01538   1.89910
   A18        1.90362  -0.00368   0.00382  -0.01559  -0.01309   1.89052
   A19        1.92911  -0.00772  -0.00326  -0.02625  -0.02911   1.90001
   A20        1.86488  -0.00301  -0.00374   0.02984   0.02564   1.89051
   A21        1.87840   0.00184   0.00313  -0.02495  -0.02193   1.85647
   A22        1.90109   0.00148  -0.00005   0.01587   0.01470   1.91579
   A23        2.10869   0.01139   0.00680   0.05538   0.06174   2.17043
   A24        1.48011  -0.00282  -0.00127   0.00598   0.00396   1.48407
   A25        2.79724   0.00151  -0.00100   0.00579   0.00531   2.80255
   A26        1.94065   0.00030  -0.00276   0.01402   0.01122   1.95187
   A27        1.93437   0.00001  -0.00190   0.00850   0.00658   1.94095
   A28        1.92978   0.00052  -0.00129   0.00839   0.00707   1.93685
   A29        1.88325  -0.00019   0.00200  -0.01031  -0.00834   1.87491
   A30        1.88717  -0.00037   0.00193  -0.01016  -0.00827   1.87890
   A31        1.88673  -0.00031   0.00228  -0.01200  -0.00973   1.87700
   A32        1.96664   0.00038  -0.00136   0.00436   0.00301   1.96965
   A33        1.93791   0.00008  -0.00278   0.01273   0.01004   1.94794
   A34        1.90591  -0.00038   0.00109  -0.00591  -0.00486   1.90105
   A35        1.92038  -0.00096  -0.00260   0.01042   0.00752   1.92791
   A36        1.86383   0.00007   0.00052  -0.00374  -0.00316   1.86067
   A37        1.86482   0.00084   0.00565  -0.02015  -0.01444   1.85038
   A38        1.95854   0.00095   0.00133  -0.00232  -0.00102   1.95752
   A39        1.95837  -0.00084   0.00211  -0.01076  -0.00862   1.94975
   A40        1.82632   0.00049  -0.00108   0.00649   0.00538   1.83170
   A41        1.92952   0.00067  -0.00296   0.01353   0.01058   1.94010
   A42        1.92315  -0.00151  -0.00294   0.00945   0.00650   1.92966
   A43        1.86272   0.00013   0.00366  -0.01732  -0.01367   1.84905
   A44        2.00575  -0.00014  -0.00443   0.01823   0.01353   2.01928
   A45        1.89494   0.00017   0.00108  -0.00694  -0.00581   1.88913
   A46        1.88524   0.00069   0.00460  -0.01348  -0.00898   1.87626
   A47        1.86001  -0.00021  -0.00412   0.01450   0.01046   1.87047
   A48        1.94356  -0.00012  -0.00216   0.01216   0.01007   1.95363
   A49        1.86918  -0.00044   0.00553  -0.02798  -0.02256   1.84662
   A50        1.92835   0.00094  -0.00535   0.02680   0.02149   1.94984
   A51        2.81475   0.00064   0.00249  -0.00564  -0.00303   2.81172
    D1       -1.18466  -0.00099   0.00007   0.00707   0.00725  -1.17741
    D2        1.04968   0.00130  -0.00851   0.04831   0.03971   1.08939
    D3        3.07715  -0.00004  -0.00098   0.00852   0.00753   3.08468
    D4        3.00103  -0.00093  -0.00089   0.01225   0.01148   3.01251
    D5       -1.04781   0.00136  -0.00947   0.05349   0.04395  -1.00386
    D6        0.97966   0.00002  -0.00194   0.01370   0.01176   0.99142
    D7        0.89042  -0.00097   0.00158   0.00049   0.00215   0.89258
    D8        3.12477   0.00132  -0.00700   0.04173   0.03462  -3.12380
    D9       -1.13095  -0.00002   0.00052   0.00194   0.00244  -1.12851
   D10        1.06708  -0.00037  -0.00288  -0.00738  -0.01021   1.05686
   D11       -3.13910  -0.00058  -0.00535   0.00043  -0.00483   3.13925
   D12       -1.12341   0.00094   0.00686  -0.03398  -0.02704  -1.15045
   D13        0.95360   0.00073   0.00439  -0.02617  -0.02166   0.93194
   D14        3.10701  -0.00146   0.00003  -0.03318  -0.03334   3.07368
   D15       -1.09916  -0.00167  -0.00245  -0.02537  -0.02796  -1.12712
   D16        3.06498  -0.00247  -0.01717  -0.12830  -0.14546   2.91953
   D17        0.90526  -0.00088  -0.01297  -0.11845  -0.13129   0.77397
   D18       -1.14801   0.00186  -0.01743  -0.07172  -0.08930  -1.23731
   D19       -1.02987  -0.00557  -0.02849  -0.10195  -0.13032  -1.16019
   D20        3.09359  -0.00398  -0.02429  -0.09210  -0.11616   2.97744
   D21        1.04032  -0.00125  -0.02874  -0.04538  -0.07417   0.96615
   D22        1.02107  -0.00209  -0.02390  -0.08450  -0.10849   0.91259
   D23       -1.13865  -0.00049  -0.01971  -0.07465  -0.09432  -1.23297
   D24        3.09126   0.00224  -0.02416  -0.02793  -0.05233   3.03893
   D25       -0.87329   0.00017  -0.00098   0.00549   0.00475  -0.86854
   D26        0.79070   0.00219   0.00015   0.04503   0.04613   0.83683
   D27        1.27834   0.00030  -0.00487   0.00342  -0.00180   1.27654
   D28        2.94233   0.00232  -0.00374   0.04297   0.03958   2.98191
   D29       -2.96590  -0.00331  -0.00494  -0.02310  -0.02899  -2.99489
   D30       -1.30191  -0.00129  -0.00381   0.01644   0.01239  -1.28952
   D31        2.17556   0.00827   0.00906   0.03535   0.04432   2.21988
   D32        0.06648  -0.00300   0.00228  -0.02708  -0.02475   0.04173
   D33       -1.09159  -0.00097  -0.00531  -0.04093  -0.04652  -1.13811
   D34        0.81018   0.00032  -0.00540  -0.01275  -0.01803   0.79215
   D35       -0.47330   0.00225  -0.00035   0.03045   0.03009  -0.44321
   D36       -2.65834   0.00126   0.00090   0.02266   0.02355  -2.63479
   D37        1.61186   0.00123  -0.00385   0.04460   0.04073   1.65259
   D38        3.04794   0.00028   0.00280  -0.01393  -0.01106   3.03687
   D39       -1.07198  -0.00064  -0.00365   0.01273   0.00901  -1.06297
   D40        0.97986   0.00021   0.00228  -0.00803  -0.00576   0.97410
   D41        0.95324   0.00032   0.00335  -0.01590  -0.01249   0.94075
   D42        3.11651  -0.00059  -0.00310   0.01076   0.00758   3.12410
   D43       -1.11484   0.00025   0.00283  -0.01000  -0.00718  -1.12202
   D44       -1.13867   0.00036   0.00257  -0.01190  -0.00925  -1.14792
   D45        1.02460  -0.00056  -0.00388   0.01476   0.01082   1.03543
   D46        3.07644   0.00029   0.00205  -0.00600  -0.00394   3.07250
   D47        3.05728   0.00007  -0.00268   0.00217  -0.00053   3.05675
   D48       -1.02512   0.00021  -0.00119  -0.00328  -0.00447  -1.02958
   D49        1.02970  -0.00015  -0.00028  -0.01048  -0.01076   1.01894
   D50        0.88436   0.00041   0.00381  -0.02553  -0.02179   0.86257
   D51        3.08515   0.00055   0.00530  -0.03098  -0.02573   3.05942
   D52       -1.14322   0.00019   0.00621  -0.03818  -0.03202  -1.17524
   D53       -1.13336  -0.00013  -0.00180  -0.00501  -0.00682  -1.14018
   D54        1.06743   0.00001  -0.00032  -0.01046  -0.01076   1.05667
   D55        3.12225  -0.00036   0.00059  -0.01767  -0.01706   3.10520
   D56        2.81016   0.00002  -0.00562   0.02471   0.01908   2.82923
   D57        0.72970   0.00025   0.00164  -0.00057   0.00108   0.73078
   D58       -1.29157   0.00031  -0.00805   0.04318   0.03504  -1.25653
   D59       -1.28363  -0.00013  -0.01117   0.04714   0.03604  -1.24759
   D60        2.91910   0.00010  -0.00391   0.02186   0.01804   2.93714
   D61        0.89783   0.00016  -0.01359   0.06561   0.05200   0.94983
   D62        0.73346  -0.00007  -0.00880   0.03698   0.02818   0.76164
   D63       -1.34699   0.00016  -0.00154   0.01170   0.01018  -1.33681
   D64        2.91492   0.00022  -0.01122   0.05545   0.04414   2.95905
   D65        1.09463  -0.00033   0.00852  -0.03654  -0.02817   1.06646
   D66       -3.08876  -0.00035   0.00438  -0.02374  -0.01942  -3.10818
   D67       -1.05601  -0.00106   0.00746  -0.04232  -0.03497  -1.09098
   D68       -1.20929   0.00042  -0.00006   0.03733   0.03701  -1.17227
         Item               Value     Threshold  Converged?
 Maximum Force            0.016915     0.000015     NO 
 RMS     Force            0.002456     0.000010     NO 
 Maximum Displacement     0.625390     0.000060     NO 
 RMS     Displacement     0.141629     0.000040     NO 
 GradGradGradGradGradGradGradGradGradGradGradGradGradGradGradGradGradGrad

                    Distance matrix (angstroms):
                    1          2          3          4          5
     1  C    0.000000
     2  C    1.529168   0.000000
     3  N    2.447008   1.459257   0.000000
     4  C    2.517882   1.537933   2.549445   0.000000
     5  O    3.800306   2.500684   3.140379   1.413606   0.000000
     6  H    1.122864   2.191289   2.781339   2.796331   4.169915
     7  H    1.119495   2.215374   3.434739   2.787328   4.050817
     8  H    1.116841   2.180337   2.641256   3.491411   4.651575
     9  H    2.136506   1.115839   2.081336   2.129877   2.668531
    10  H    2.669319   2.060646   1.027356   2.834989   3.564710
    11  H    3.367856   2.084700   1.027358   2.776429   2.876621
    12  H    2.629679   2.174975   3.473745   1.120026   2.067963
    13  H    2.835394   2.164592   2.775949   1.114703   2.057025
    14  H    3.983742   2.640526   3.344258   1.986238   0.996861
    15  C    6.776163   5.476450   5.387294   5.807106   4.963213
    16  C    5.499288   4.099642   4.043477   4.329588   3.485108
    17  N    5.031330   3.720870   4.186576   3.641972   2.775648
    18  C    6.050731   4.536681   4.218405   4.478022   3.407089
    19  O    5.347025   3.840077   3.361449   3.672014   2.732644
    20  H    7.277593   5.987339   5.635599   6.460561   5.669560
    21  H    6.741139   5.604823   5.673898   6.073921   5.398423
    22  H    7.582032   6.234523   6.236572   6.332336   5.308705
    23  H    4.800341   3.480391   3.232818   4.076797   3.565111
    24  H    4.894189   3.796904   4.431695   3.940634   3.376971
    25  H    5.901471   4.604011   5.118983   4.269185   3.206433
    26  H    6.798964   5.317461   4.752542   5.428499   4.444131
    27  H    6.766164   5.249577   5.126799   4.908663   3.635547
    28  H    4.798053   3.299907   3.147048   2.831922   1.782539
                    6          7          8          9         10
     6  H    0.000000
     7  H    1.805670   0.000000
     8  H    1.806824   1.817706   0.000000
     9  H    3.086228   2.490168   2.503029   0.000000
    10  H    2.567174   3.729935   2.928211   2.955027   0.000000
    11  H    3.721773   4.259254   3.612558   2.437668   1.647023
    12  H    2.954614   2.424922   3.681680   2.522698   3.769805
    13  H    2.656701   3.246430   3.835918   3.054438   2.642322
    14  H    4.586079   4.143539   4.705025   2.374210   4.002991
    15  C    7.642797   7.105132   6.868988   4.673979   6.306082
    16  C    6.284541   5.888543   5.732321   3.431618   4.929167
    17  N    5.860591   5.165323   5.454082   2.962527   5.069976
    18  C    6.621736   6.572071   6.407404   4.211442   4.879003
    19  O    5.721524   5.989270   5.798201   3.863948   3.810220
    20  H    8.099833   7.734205   7.257629   5.266952   6.504379
    21  H    7.707462   6.957637   6.739076   4.655869   6.659636
    22  H    8.423874   7.839087   7.781081   5.457643   7.117644
    23  H    5.599185   5.314049   4.880641   2.828987   4.169515
    24  H    5.847148   4.888502   5.209207   2.832891   5.383382
    25  H    6.691442   5.943066   6.400842   3.901449   5.947586
    26  H    7.351232   7.412527   7.030039   5.005247   5.367809
    27  H    7.324531   7.169166   7.234175   4.907012   5.750114
    28  H    5.145453   5.339299   5.405336   3.404299   3.572670
                   11         12         13         14         15
    11  H    0.000000
    12  H    3.817724   0.000000
    13  H    3.045890   1.789047   0.000000
    14  H    3.026000   2.427083   2.894578   0.000000
    15  C    4.710243   6.347308   6.674401   4.143742   0.000000
    16  C    3.341690   4.959756   5.155997   2.740452   1.532992
    17  N    3.713908   3.992343   4.616317   1.815663   2.509769
    18  C    3.287890   5.288055   5.043400   3.006416   2.536379
    19  O    2.392653   4.641160   3.992575   2.747279   3.789027
    20  H    4.901409   7.117136   7.240252   4.949182   1.119607
    21  H    5.164773   6.474858   7.036077   4.492267   1.118287
    22  H    5.506427   6.811561   7.187980   4.488531   1.121561
    23  H    2.621851   4.787134   4.870042   2.936730   2.165529
    24  H    4.152107   4.099938   5.009104   2.393621   2.737989
    25  H    4.592938   4.507799   5.198892   2.306617   2.725962
    26  H    3.772204   6.299989   5.922480   4.083993   2.624267
    27  H    4.232009   5.595007   5.472858   3.221465   2.858301
    28  H    2.355425   3.755816   3.176980   1.965541   4.177179
                   16         17         18         19         20
    16  C    0.000000
    17  N    1.479095   0.000000
    18  C    1.533514   2.474910   0.000000
    19  O    2.483971   3.075897   1.399183   0.000000
    20  H    2.209132   3.482112   2.827125   4.025413   0.000000
    21  H    2.200219   2.753209   3.514740   4.650710   1.803865
    22  H    2.199727   2.842059   2.802131   4.173468   1.809149
    23  H    1.111159   2.088520   2.127622   2.601586   2.508412
    24  H    2.082686   1.026521   3.378445   3.974022   3.740003
    25  H    2.077690   1.029377   2.752218   3.520388   3.776088
    26  H    2.156918   3.413039   1.110950   2.027236   2.458890
    27  H    2.156639   2.654397   1.123779   2.096502   3.314632
    28  H    2.724298   2.811092   1.986561   0.984514   4.625080
                   21         22         23         24         25
    21  H    0.000000
    22  H    1.806826   0.000000
    23  H    2.553641   3.108676   0.000000
    24  H    2.547432   3.183490   2.396782   0.000000
    25  H    3.030072   2.631629   2.961721   1.641297   0.000000
    26  H    3.690852   2.904456   2.553054   4.208455   3.678502
    27  H    3.848869   2.671885   3.047084   3.625778   2.492138
    28  H    4.914302   4.520757   2.872149   3.698560   3.240214
                   26         27         28
    26  H    0.000000
    27  H    1.782444   0.000000
    28  H    2.877137   2.410321   0.000000
 Framework group  C1[X(C6H18N2O2)]
 Deg. of freedom    78
                         Standard orientation:                         
 ---------------------------------------------------------------------
 Center     Atomic      Atomic             Coordinates (Angstroms)
 Number     Number       Type             X           Y           Z
 ---------------------------------------------------------------------
      1          6           0       -3.452477   -1.132152   -0.273387
      2          6           0       -2.085661   -0.448579   -0.219576
      3          7           0       -1.740550    0.076883   -1.536473
      4          6           0       -2.030359    0.545312    0.952755
      5          8           0       -0.745803    1.033341    1.284457
      6          1           0       -4.262974   -0.376794   -0.456010
      7          1           0       -3.704237   -1.666394    0.677651
      8          1           0       -3.479809   -1.865707   -1.115101
      9          1           0       -1.339469   -1.241987    0.022910
     10          1           0       -2.433411    0.770118   -1.844417
     11          1           0       -0.828117    0.548848   -1.549875
     12          1           0       -2.478730    0.061435    1.857899
     13          1           0       -2.682546    1.414946    0.705875
     14          1           0       -0.109204    0.271751    1.376396
     15          6           0        3.321074   -1.313346   -0.323972
     16          6           0        2.012724   -0.531284   -0.160691
     17          7           0        1.360881   -0.768556    1.145649
     18          6           0        2.219921    0.970537   -0.391487
     19          8           0        1.060823    1.710084   -0.650863
     20          1           0        3.743872   -1.206952   -1.355205
     21          1           0        3.166016   -2.404864   -0.136593
     22          1           0        4.097394   -0.952834    0.400775
     23          1           0        1.293895   -0.864906   -0.939572
     24          1           0        1.146359   -1.763729    1.277389
     25          1           0        1.992199   -0.510905    1.916797
     26          1           0        2.893042    1.098319   -1.266009
     27          1           0        2.785967    1.373287    0.491840
[...]
 0003870,0.00001711,-0.00000760,0.00001044,-0.00000462,-0.00001851,0.00
 000214,-0.00001199,0.00023210,0.00019175,0.00002126,0.00842098,-0.0551
 3680,-0.06078880,0.00033581,0.00438373,-0.00129857,-0.00092784,0.00075
 422,0.00073026,0.00110987,0.00000557,-0.00020682,-0.00023308,0.0002483
 2,0.00057485,0.00370451,-0.02901399,-0.00333386,-0.01064931,0.05949144
 ,0.05892476,-0.00001484,-0.00002537,0.00002233,0.00010982,-0.00000618,
 -0.00013265,-0.00018636,-0.00015366,0.00003312,-0.00004986,0.00005008,
 -0.00007563,0.00014975,0.00007193,0.00012466,-0.00001621,0.00000116,-0
 .00000565,-0.00001609,0.00001116,0.00001036,0.00001161,-0.00000515,-0.
 00000018,0.00002641,-0.00004149,-0.00004721,-0.00007739,-0.00000853,0.
 00005431,0.00014925,0.00029124,-0.00000563,-0.00000449,-0.00000400,0.0
 0003123,0.00001031,-0.00001413,0.00000748,-0.00009676,-0.00010969,-0.0
 0011705,-0.18280888,0.06614551,-0.11293326,-0.02113586,0.00999046,-0.0
 1920573,0.00260940,0.00023962,-0.00023921,0.00029932,0.00203757,-0.000
 05648,0.00054162,-0.00041517,0.00046381,0.00916996,-0.00492244,0.00698
 904,-0.00272339,0.00020405,-0.00185452,0.19824045,-0.00000850,-0.00001
 791,0.00000628,0.00001750,0.00000788,-0.00002399,-0.00002272,-0.000044
 25,-0.00000399,-0.00003265,0.00002145,-0.00002206,0.00009006,-0.000034
 98,-0.00002342,-0.00000581,0.00000602,-0.00000172,-0.00000303,0.000000
 33,0.00000077,-0.00000233,-0.00000051,-0.00000343,0.00001003,-0.000025
 46,-0.00001333,-0.00002802,-0.00000171,0.00001773,0.00003765,0.0001269
 1,0.00000478,0.00001181,-0.00000914,0.00000147,0.00000196,-0.00000135,
 0.00000213,-0.00001074,-0.00000644,-0.00003009,0.06603460,-0.08162052,
 0.05586288,-0.01400307,0.00720010,-0.01225428,0.00121389,0.00009187,-0
 .00122428,-0.00116824,0.00104999,-0.00102794,0.00090025,-0.00011982,0.
 00011499,-0.00289201,0.00037772,-0.00218687,0.02106010,-0.00777141,0.0
 1971249,-0.06864796,0.08206885,0.00000314,0.00000072,-0.00000199,0.000
 02386,0.00000660,-0.00001583,-0.00005024,-0.00004744,0.00002412,0.0000
 4679,-0.00001556,0.00000173,-0.00015015,-0.00016467,-0.00003231,-0.000
 00513,-0.00000453,-0.00000200,-0.00000195,0.00000194,0.00000432,0.0000
 0345,-0.00000064,-0.00000097,-0.00000167,-0.00001291,-0.00000612,-0.00
 001090,-0.00000379,0.00000983,0.00000696,0.00007107,-0.00002914,-0.000
 00267,0.00000436,0.00000881,-0.00001636,-0.00000385,-0.00000747,0.0002
 4401,0.00022317,-0.00000414,-0.11323477,0.05506001,-0.14577852,0.00374
 929,-0.00206217,0.00106655,0.00011757,-0.00089205,0.00225479,-0.000180
 91,0.00029911,0.00024935,0.00027130,-0.00020100,0.00001495,-0.02202836
 ,0.01068611,-0.01404495,0.00683983,-0.00264007,0.00494940,0.12398417,-
 0.06060729,0.15050539,0.00001869,0.00004643,-0.00005910,-0.00057903,-0
 .00013628,0.00053079,-0.00019200,-0.00028958,0.00000943,0.00009892,-0.
 00011312,0.00009120,-0.00025928,0.00002368,-0.00015060,0.00000858,0.00
 000486,-0.00000110,0.00004805,-0.00001423,-0.00002124,0.00001472,0.000
 02479,0.00001846,0.00017651,0.00002039,0.00006741,-0.00000165,0.000237
 88,-0.00031510,-0.00067111,-0.00080057,0.00000731,-0.00000651,0.000036
 76,-0.00007435,0.00000869,-0.00000457,-0.00001624,0.00050199,0.0002274
 8,-0.00003021,-0.01963011,0.00868581,-0.01594140,-0.17784923,0.0615269
 1,-0.12048561,0.01107441,-0.00602919,0.01401408,-0.00437025,0.00139096
 ,-0.00444037,0.00147234,-0.00147949,0.00110899,0.00039208,0.00038624,0
 .00025888,0.00118140,-0.00021073,-0.00008846,-0.00382763,-0.00329186,0
 .00093196,0.19148338,0.00001518,-0.00002180,-0.00012637,0.00000581,0.0
 0041581,0.00067883,0.00023156,0.00011081,-0.00026499,-0.00012069,-0.00
 015478,0.00008681,-0.00006595,0.00005906,-0.00032460,-0.00000611,-0.00
 000836,0.00001078,0.00005725,-0.00002516,-0.00002776,-0.00000774,0.000
 01944,0.00002453,-0.00013439,-0.00007253,-0.00014567,0.00036464,0.0000
 5217,-0.00027017,-0.00156608,-0.00142996,0.00018242,0.00001973,0.00002
 197,-0.00008935,-0.00000670,-0.00000624,0.00001543,0.00025392,0.000069
 64,0.00032971,-0.01495466,0.00601695,-0.01179627,0.05896656,-0.0786677
 0,0.05619086,-0.00277527,0.00203696,-0.00522687,0.02381022,-0.01405796
 ,0.02223626,-0.00081147,0.00475409,-0.00055526,0.00074219,0.00060755,0
 .00023853,0.00063437,0.00071584,-0.00053122,-0.00358968,-0.00151539,0.
 00030056,-0.06135434,0.08582071,-0.00006806,-0.00014450,-0.00002843,0.
 00039963,0.00057662,0.00013522,0.00001242,-0.00046544,-0.00027711,-0.0
 0008645,0.00011506,-0.00036941,0.00059491,0.00029898,0.00040124,-0.000
 07912,0.00001763,-0.00001023,-0.00001331,0.00002399,0.00000697,-0.0000
 1316,0.00000976,0.00000435,0.00014189,-0.00024229,-0.00035626,-0.00022
 735,-0.00000705,-0.00008443,-0.00030060,0.00018400,0.00042647,-0.00000
 621,-0.00001540,0.00000402,0.00003338,-0.00008147,0.00007066,-0.001074
 50,-0.00051573,-0.00037537,0.00358053,-0.00175934,0.00433059,-0.112866
 01,0.05275082,-0.15727773,-0.01838952,0.01167609,-0.02843258,0.0036705
 8,-0.00210482,0.00477273,0.00083909,0.00019756,0.00028402,-0.00014367,
 -0.00034135,0.00049112,-0.00032058,-0.00001693,-0.00007993,0.00159832,
 0.00070666,0.00095859,0.12066807,-0.05798005,0.17974230,0.00005308,0.0
 0038512,0.00004713,-0.00069565,-0.00146502,-0.00079138,-0.00002614,0.0
 0032220,0.00047478,0.00037858,-0.00089435,0.00033437,-0.00365963,0.000
 08320,0.00016765,0.00020240,0.00000849,0.00006702,-0.00005773,-0.00001
 687,0.00000177,-0.00001014,-0.00003231,0.00000529,0.00009715,0.0006787
 0,-0.00013145,-0.00004058,0.00019240,0.00003771,0.00027822,-0.00015832
 ,0.00004099,-0.00027592,0.00008849,0.00011757,-0.00012559,0.00026869,-
 0.00007532,0.00467052,-0.00342403,-0.00108966,0.00037373,0.00171327,-0
 .00148452,-0.00550244,0.01389628,0.00418919,-0.04400033,0.06393551,0.0
 0163091,-0.00033777,-0.00017914,0.00193398,-0.00036679,0.00016584,-0.0
 0001198,0.00052775,-0.00033790,-0.00030556,-0.00051626,-0.00098875,0.0
 0062053,-0.00018985,0.00001811,0.00010232,0.00048922,-0.00053743,-0.00
 066038,0.05495189,0.00003473,0.00017806,0.00006000,-0.00022963,-0.0006
 1175,-0.00031874,0.00002191,0.00011780,0.00024908,-0.00018434,-0.00043
 587,0.00008261,-0.00102294,0.00056842,0.00027408,0.00009305,-0.0000195
 8,0.00002690,-0.00000540,0.00000406,-0.00001721,0.00001375,-0.00001674
 ,0.00002706,0.00001112,0.00041453,-0.00006779,0.00000296,0.00008112,0.
 00000982,0.00013755,-0.00012150,-0.00000824,-0.00013090,0.00001517,0.0
 0003737,-0.00003999,0.00010898,0.00001618,0.00102173,-0.00286261,-0.00
 058418,-0.00025842,0.00177981,0.00150146,-0.00374349,-0.00420304,0.002
 05554,0.10787222,-0.39863187,-0.05284323,0.00073975,0.00147435,-0.0019
 3445,-0.00037959,0.00001569,0.00014804,-0.00030575,-0.00006588,0.00009
 056,0.00035680,-0.00002789,0.00000499,-0.00001390,-0.00011117,-0.00007
 899,-0.00015931,0.00052012,-0.00016469,-0.10077056,0.40948994,0.000027
 92,0.00015771,0.00006531,-0.00026225,-0.00048784,-0.00025174,0.0000944
 9,0.00017397,0.00001046,0.00004473,0.00017157,0.00038063,0.00045454,0.
 00008289,-0.00003206,0.00008260,-0.00000651,0.00001116,0.00002332,-0.0
 0002118,-0.00001650,-0.00001890,-0.00000991,-0.00001466,-0.00007426,0.
 00015953,0.00015706,0.00002128,0.00006888,-0.00001363,0.00007307,-0.00
 018647,0.00002603,0.00008072,-0.00002070,-0.00008654,0.00006404,0.0000
 3725,-0.00006306,-0.00130482,0.00033916,0.00024937,-0.00058889,-0.0005
 9982,0.00091495,0.00863750,-0.03767484,-0.00448880,0.00573089,-0.04606
 379,-0.06846331,0.00360221,0.00183055,-0.00716942,-0.00074558,-0.00001
 687,0.00059600,-0.00043462,0.00010398,0.00005968,0.00066259,0.00084616
 ,0.00008590,-0.00009952,0.00021370,-0.00000883,-0.00081894,-0.00027585
 ,0.00030434,-0.01083252,0.05437437,0.07221085,-0.00004930,-0.00025175,
 0.00001504,0.00043589,0.00087422,0.00015285,-0.00008954,-0.00016134,-0
 .00001512,-0.00012278,0.00048757,-0.00026452,0.00025777,-0.00190199,0.
 00157923,-0.00009252,0.00001051,-0.00002507,-0.00001861,0.00002661,0.0
 0001243,0.00002079,-0.00000638,0.00000919,-0.00026684,-0.00049852,-0.0
 0016631,-0.00002109,-0.00006149,-0.00001577,0.00002542,0.00012213,0.00
 002867,-0.00000185,-0.00003278,0.00002100,0.00006338,-0.00010142,0.000
 08052,-0.00265960,0.00236576,-0.00407304,0.00239975,-0.00063282,0.0015
 6351,0.00830220,-0.00574886,0.01425333,-0.21555811,0.09031458,-0.18923
 718,0.00115602,-0.00067470,0.00027702,-0.00053535,-0.00034757,0.000039
 60,-0.00024178,0.00003704,-0.00027081,-0.00010243,-0.00005887,-0.00009
 246,-0.00047976,0.00058324,-0.00035196,0.00007885,0.00005996,0.0026399
 6,-0.00717261,-0.00320793,-0.00505761,0.21478394,-0.00002409,-0.000084
 11,0.00002794,0.00014668,0.00022734,-0.00009169,-0.00005236,-0.0001275
 2,0.00010830,-0.00002067,0.00033405,-0.00011368,-0.00006655,-0.0021433
 1,0.00117779,-0.00002704,0.00000035,-0.00000869,-0.00000686,0.00001014
 ,0.00000001,0.00001285,-0.00001190,0.00000951,-0.00003952,-0.00013178,
 -0.00005680,-0.00003335,0.00000310,-0.00000139,0.00002009,0.00021334,0
 .00001204,0.00005731,-0.00004765,-0.00000223,0.00004901,-0.00004390,0.
 00001664,-0.00145445,0.00256599,-0.00306483,0.00078684,-0.00034991,-0.
 00030946,-0.00534574,0.00175568,-0.00113046,0.06143431,-0.06574474,0.0
 3775068,-0.00265232,0.00203309,-0.00223582,0.00061540,-0.00080368,0.00
 053119,0.00001121,-0.00000462,-0.00046425,0.00001956,-0.00039660,0.000
 29727,-0.00018576,0.00025981,0.00035676,0.00038334,0.00044137,-0.00181
 727,0.02663104,-0.00778232,0.02873005,-0.08108202,0.07044540,0.0000069
 2,0.00007772,0.00004481,-0.00002421,-0.00030350,-0.00015075,-0.0000815
 2,-0.00007521,0.00005927,-0.00027809,-0.00003448,0.00006757,0.00054831
 ,0.00090783,-0.00048846,0.00004629,-0.00000022,0.00001114,-0.00000388,
 -0.00000622,-0.00000363,0.00000725,-0.00001264,0.00000157,0.00008422,0
 .00014403,-0.00001460,-0.00004657,0.00002218,0.00004460,0.00006859,0.0
 0017785,-0.00008519,0.00005337,-0.00004189,-0.00000323,0.00002790,0.00
 003859,-0.00000366,-0.00053936,-0.00152961,0.00122471,-0.00097976,0.00
 027687,0.00216041,-0.02723199,0.00907360,-0.02742416,-0.16213463,0.056
 32415,-0.22316557,-0.00133495,0.00083888,0.00069563,0.00066770,0.00009
 384,0.00029514,-0.00022439,-0.00040678,0.00062657,0.00018780,0.0001059
 6,-0.00006012,0.00123550,0.00033568,-0.00001844,0.00393355,-0.00149975
 ,-0.00547646,0.00529167,-0.00288639,0.00578167,0.18002233,-0.06046907,
 0.24511686,0.00001942,0.00003194,-0.00002757,-0.00003330,-0.00006638,0
 .00003651,-0.00001955,0.00023047,-0.00031274,0.00061836,-0.00013919,0.
 00025727,-0.00125191,0.00091591,0.00117794,-0.00000577,-0.00000751,0.0
 0000247,-0.00000657,-0.00000227,0.00000618,-0.00001853,0.00001750,-0.0
 0001650,0.00000919,-0.00000259,0.00000421,-0.00001386,-0.00003017,0.00
 007388,0.00016342,-0.00032530,0.00045945,-0.00018294,0.00011196,0.0000
 0395,-0.00002851,-0.00001299,-0.00003535,-0.00029508,-0.00028899,-0.00
 028289,0.00042718,-0.00172777,-0.00035083,-0.00350233,0.00059176,0.006
 79737,0.00065577,0.00117519,-0.00041564,-0.12299559,0.01680944,0.11329
 487,-0.03159805,-0.00671190,0.02626420,0.00041466,-0.00040267,-0.00031
 746,-0.00020604,-0.00002165,-0.00032575,0.00002751,0.00028126,-0.00013
 234,0.00002022,-0.00033003,0.00011409,0.00019017,-0.00001950,0.0004023
 5,0.00004108,0.00022966,0.00024874,0.14827107,0.00001080,0.00005226,0.
 00001158,-0.00007523,-0.00019285,-0.00011736,-0.00007802,0.00013912,0.
 00001924,0.00024607,-0.00002037,0.00014538,-0.00043445,0.00090247,0.00
 081461,0.00001619,-0.00000322,0.00000474,-0.00001430,0.00000087,0.0000
 0626,-0.00000327,-0.00000135,-0.00000734,0.00001729,0.00007112,0.00001
 973,0.00000379,0.00000576,0.00002881,0.00021351,-0.00017713,0.00003133
 ,-0.00011120,0.00005140,0.00001943,0.00001738,0.00000219,-0.00001116,-
 0.00078163,-0.00077007,-0.00002660,0.00047967,0.00025012,-0.00117176,0
 .01490305,-0.00111219,-0.02671475,0.00271989,-0.00720032,-0.00104816,0
 .01797071,-0.05279022,-0.02130781,-0.02096794,-0.00090581,0.01734709,-
 0.00049510,-0.00110513,0.00028847,0.00009759,0.00035490,0.00024284,-0.
 00020320,0.00001570,0.00002316,0.00004593,0.00080461,0.00056026,0.0003
 4497,-0.00041157,-0.00208198,-0.00005834,-0.00018981,0.00015081,-0.005
 28178,0.06115321,-0.00000965,0.00000005,0.00000978,-0.00000551,-0.0000
 2349,-0.00001336,0.00003977,-0.00008552,0.00008106,-0.00026021,0.00008
 686,-0.00001859,0.00029957,0.00014146,0.00013877,0.00001150,0.00000555
 ,0.00000248,0.00000353,-0.00000140,-0.00000675,0.00000678,-0.00000932,
 0.00000961,0.00000024,0.00003370,0.00000063,0.00000435,0.00002252,-0.0
 0003061,-0.00013386,0.00011075,-0.00005533,0.00002825,-0.00002943,-0.0
 0001281,0.00003909,0.00000498,0.00001891,-0.00044626,-0.00004642,0.000
 05968,0.00015882,0.00061395,0.00010728,0.00190299,0.00175704,-0.004552
 35,0.00076020,-0.00233900,0.00085223,0.12243893,-0.01993518,-0.2416568
 8,-0.00434310,0.00121982,0.01158953,-0.00024306,-0.00019950,0.00061780
 ,-0.00027540,0.00011045,0.00032497,-0.00001494,-0.00014941,-0.00019062
 ,0.00006860,-0.00032905,0.00040923,0.00013284,-0.00012094,-0.00023727,
 0.00013194,0.00054193,0.00050757,-0.13022516,0.02277549,0.24793519,-0.
 00002212,0.00005429,0.00014953,0.00007570,-0.00028157,-0.00049369,-0.0
 0045983,0.00058089,0.00001561,0.00005492,0.00002372,0.00000081,-0.0001
 2356,0.00038725,0.00107963,0.00000986,-0.00000808,-0.00001039,-0.00006
 410,0.00003250,0.00002667,0.00002000,-0.00001823,-0.00001257,0.0000341
 6,0.00004469,0.00005102,-0.00001727,-0.00001796,0.00007637,0.00091350,
 -0.00097378,0.00028220,-0.00007084,0.00003282,0.00007763,0.00004539,0.
 00000434,-0.00001441,-0.00066252,-0.00021710,-0.00041841,-0.00002653,0
 .00038291,0.00088993,-0.00255889,0.00600412,-0.00687570,0.00072248,-0.
 00119801,-0.00041624,-0.10577472,0.04842344,-0.08164584,-0.03082392,-0
 .00022856,-0.02582311,0.00009243,-0.00014187,0.00001134,0.00028183,0.0
 0021363,-0.00004645,0.00032149,-0.00000528,-0.00013182,0.00022600,0.00
 100025,0.00006825,0.00003594,-0.00031702,0.00013087,-0.00005780,0.0010
 4554,0.00061614,0.01078369,-0.00701044,0.01203284,0.12505822,0.0000041
 8,0.00006917,0.00004708,-0.00013960,-0.00018025,-0.00011176,0.00001315
 ,0.00049649,-0.00008282,0.00023807,-0.00007460,0.00012228,-0.00035374,
 0.00025100,0.00026673,0.00002691,-0.00000383,0.00000128,-0.00001700,0.
 00000244,0.00000363,-0.00001033,0.00000056,-0.00001254,-0.00000348,0.0
 0008683,0.00010217,0.00008469,0.00000477,-0.00001687,0.00037230,-0.000
 80531,0.00022235,-0.00005587,0.00003479,0.00000772,-0.00000027,0.00002
 186,-0.00002912,0.00001583,-0.00027354,-0.00003428,0.00151795,0.000900
 98,0.00007888,0.01788957,-0.01544390,0.02599426,-0.00106324,0.00269732
 ,0.00107260,0.04896020,-0.09255792,0.07588996,-0.01857987,0.00816665,-
 0.01907189,0.00004239,-0.00001300,-0.00008725,-0.00035981,0.00011854,-
 0.00041813,-0.00092301,-0.00009822,-0.00039179,0.00070064,-0.00584444,
 -0.00159060,-0.00026655,0.00040514,0.00015581,-0.00015369,-0.00073501,
 -0.00132305,-0.00161622,0.00254766,-0.00318700,-0.04787234,0.09986378,
 -0.00000393,0.00004432,0.00008363,-0.00000473,-0.00020798,-0.00032089,
 -0.00026318,0.00025723,0.00004124,0.00025763,0.00000092,0.00008169,-0.
 00050030,0.00035628,0.00065885,0.00000499,-0.00000910,-0.00000774,-0.0
 0004226,0.00002003,0.00002421,0.00000804,-0.00000798,-0.00001627,0.000
 01739,0.00003322,0.00004640,-0.00001995,0.00000938,0.00004599,0.000609
 62,-0.00041678,0.00017993,-0.00009213,0.00005191,0.00005874,0.00001193
 ,-0.00000513,-0.00002657,-0.00030901,-0.00010942,-0.00028857,0.0001680
 6,0.00070391,0.00005649,0.00296872,-0.00507458,0.00214387,0.00114928,-
 0.00052479,0.00219268,-0.08378552,0.07600109,-0.19099962,-0.01227111,-
 0.00483924,0.00216884,-0.00012294,-0.00008857,0.00019034,0.00022226,0.
 00016361,0.00016235,0.00034337,0.00050596,0.00005348,0.00066153,-0.001
 31943,0.00061314,0.00003395,0.00003263,0.00034206,-0.00064333,0.000658
 16,0.00028135,-0.01300960,0.01209582,-0.01729682,0.10296979,-0.0770657
 8,0.20002751,-0.00039252,-0.00045368,0.00065906,0.00096849,0.00137575,
 -0.00104422,-0.00119645,-0.00167526,0.00195141,-0.00979320,0.00302441,
 -0.00239157,-0.00029542,-0.00697474,-0.00519395,-0.00000448,0.00007850
 ,-0.00005892,-0.00003783,0.00009357,-0.00005566,0.00027376,-0.00021861
 ,0.00018283,-0.00007842,-0.00025528,-0.00007174,-0.00023701,0.00030129
 ,-0.00057013,0.00261261,0.00146326,-0.00280883,0.00232633,-0.00147620,
 -0.00004694,0.00039885,0.00002434,0.00057264,0.00880353,0.00421383,0.0
 0111207,-0.00066126,0.00119906,0.00069058,0.00312444,-0.00106032,-0.00
 094529,-0.00394417,-0.00066635,0.00122244,-0.03004240,-0.00501139,0.02
 343531,-0.17257142,-0.00799704,0.16229338,-0.00015176,-0.00012263,0.00
 005063,0.00039316,0.00046263,-0.00005415,-0.00003952,-0.00013824,-0.00
 002540,0.00009275,0.00009891,-0.00011218,0.00072879,0.00048308,0.00010
 483,-0.00009515,-0.00045211,-0.00016695,-0.00148371,-0.00157194,-0.002
 10310,0.00198649,0.00154914,0.00164145,0.19931550,0.00009858,0.0000724
 1,-0.00003723,0.00005044,-0.00046248,-0.00031640,-0.00021293,0.0000868
 4,-0.00078953,0.00424763,-0.00121612,0.00139458,-0.00401924,-0.0056898
 6,0.00132076,-0.00009963,-0.00003719,-0.00002430,-0.00007268,0.0000163
 2,0.00005650,-0.00007580,0.00005526,-0.00007150,-0.00001267,-0.0002155
 0,0.00003911,-0.00048762,0.00026532,0.00003243,0.00167007,-0.00091911,
 0.00332767,-0.00110024,0.00062034,0.00014558,-0.00072366,0.00001813,-0
 .00019164,0.00171573,-0.00454332,-0.00741046,0.00016719,-0.00041047,-0
 .00006543,-0.00228674,0.00066530,0.00227062,0.00083652,0.00057995,-0.0
 0022295,-0.01569647,-0.00097943,0.02104398,0.00455566,-0.02742266,-0.0
 3825127,0.00023981,0.00009876,-0.00021779,0.00004289,-0.00011055,-0.00
 010606,0.00022653,0.00015164,0.00009318,0.00014117,-0.00066276,0.00012
 949,0.00033893,0.00012862,0.00000020,0.00009886,0.00030715,0.00002081,
 -0.00340820,-0.00147136,-0.00096889,0.00005985,0.00036204,-0.00126571,
 0.01370602,0.04071271,0.00049934,0.00034052,-0.00120269,-0.00199460,0.
 00055894,0.00290867,0.00158758,-0.00126268,-0.00092661,0.00822640,-0.0
 0005726,0.00707206,-0.00939580,0.00250461,-0.00988674,-0.00003206,-0.0
 0006254,0.00009599,0.00027767,-0.00022388,-0.00003822,-0.00034169,0.00
 027823,-0.00015819,0.00002796,-0.00004391,-0.00013828,0.00006541,-0.00
 014531,-0.00011014,-0.00382306,0.00362020,-0.00260619,-0.00279215,0.00
 167195,-0.00059624,-0.00083814,-0.00019646,-0.00037910,-0.00199898,-0.
 00755159,-0.00323236,0.00067619,-0.00091977,-0.00097993,-0.00271986,-0
 .00057553,0.00225512,0.00258439,0.00189157,-0.00146073,-0.00455933,0.0
 0373489,0.01227834,0.19965711,-0.02090189,-0.28516995,0.00024499,0.000
 24032,-0.00015052,-0.00030422,-0.00046077,0.00000079,-0.00011004,0.000
 08658,0.00004001,0.00007246,0.00046796,-0.00018705,0.00015307,0.000034
 16,-0.00034965,-0.00061344,-0.00045261,-0.00002460,-0.00369164,-0.0020
 9812,0.00140668,-0.00258996,-0.00054187,-0.00049628,-0.17826760,0.0200
 6424,0.28203579\\0.00000030,-0.00000015,0.00000042,0.00000036,-0.00000
 055,-0.00000022,-0.00000088,0.00000179,0.00000048,0.00000120,0.0000002
 9,-0.00000056,-0.00000057,-0.00000097,0.00000076,-0.00000036,0.0000000
 9,0.00000036,0.00000007,0.00000017,0.00000046,-0.00000004,0.00000018,0
 .00000006,0.00000007,0.00000026,0.00000016,-0.00000018,-0.00000074,0.0
 0000036,0.00000002,-0.00000041,0.00000014,0.00000015,0.00000019,0.0000
 0050,-0.00000029,-0.00000001,0.00000038,0.00000086,0.00000050,0.000000
 08,-0.00000086,-0.00000024,-0.00000031,-0.00000007,-0.00000034,0.00000
 006,0.00000092,-0.00000015,-0.00000052,0.00000202,0.00000172,0.0000009
 2,-0.00000129,-0.00000152,-0.00000042,0.,-0.00000020,-0.00000058,0.000
 00009,0.,-0.00000027,0.00000043,-0.00000006,-0.00000034,0.00000003,-0.
 00000013,-0.00000026,-0.00000070,-0.00000030,-0.00000013,0.00000036,0.
 00000019,-0.00000045,-0.00000026,-0.00000058,-0.00000016,-0.00000038,-
 0.00000042,-0.00000048,-0.00000100,0.00000137,-0.00000044\\\@


 WHEN ALL ELSE FAILS, LOOK AT THE SCHRODINGER EQUATION.
     -- RUSSELL T. PACK, APRIL 1978
 File lengths (MBytes):  RWF=    111 Int=      0 D2E=      0 Chk=      4 Scr=      1
 Normal termination of Gaussian 16 at Mon Apr  1 15:40:49 2024.
real 2011.49
user 7458.31
sys 39.30
