 Entering Gaussian System, Link 0=g16
 Input=gaussian_test.inp
 Output=gaussian_test.log
 Initial command:
 /sw/restricted/lms/sw/Gaussian/g16_B01/g16/l1.exe "/scratch/user/peterchao1/peterchao1/8625375_1689034718000000403582534/Gau-9117.inp" -scrdir="/scratch/user/peterchao1/peterchao1/8625375_1689034718000000403582534/"
 Entering Link 1 = /sw/restricted/lms/sw/Gaussian/g16_B01/g16/l1.exe PID=      9118.
  
 Copyright (c) 1988-2017, Gaussian, Inc.  All Rights Reserved.
  
 This is part of the Gaussian(R) 16 program.  It is based on
 the Gaussian(R) 09 system (copyright 2009, Gaussian, Inc.),
 the Gaussian(R) 03 system (copyright 2003, Gaussian, Inc.),
 the Gaussian(R) 98 system (copyright 1998, Gaussian, Inc.),
 the Gaussian(R) 94 system (copyright 1995, Gaussian, Inc.),
 the Gaussian 92(TM) system (copyright 1992, Gaussian, Inc.),
 the Gaussian 90(TM) system (copyright 1990, Gaussian, Inc.),
 the Gaussian 88(TM) system (copyright 1988, Gaussian, Inc.),
 the Gaussian 86(TM) system (copyright 1986, Carnegie Mellon
 University), and the Gaussian 82(TM) system (copyright 1983,
 Carnegie Mellon University). Gaussian is a federally registered
 trademark of Gaussian, Inc.
  
 This software contains proprietary and confidential information,
 including trade secrets, belonging to Gaussian, Inc.
  
 This software is provided under written license and may be
 used, copied, transmitted, or stored only in accord with that
 written license.
  
 The following legend is applicable only to US Government
 contracts under FAR:
  
                    RESTRICTED RIGHTS LEGEND
  
 Use, reproduction and disclosure by the US Government is
 subject to restrictions as set forth in subparagraphs (a)
 and (c) of the Commercial Computer Software - Restricted
 Rights clause in FAR 52.227-19.
  
 Gaussian, Inc.
 340 Quinnipiac St., Bldg. 40, Wallingford CT 06492
  
  
 ---------------------------------------------------------------
 Warning -- This program may not be used in any manner that
 competes with the business of Gaussian, Inc. or will provide
 assistance to any competitor of Gaussian, Inc.  The licensee
 of this program is prohibited from giving any competitor of
 Gaussian, Inc. access to this program.  By using this program,
 the user acknowledges that Gaussian, Inc. is engaged in the
 business of creating and licensing software in the field of
 computational chemistry and represents and warrants to the
 licensee that it is not a competitor of Gaussian, Inc. and that
 it will not use this program in any manner prohibited above.
 ---------------------------------------------------------------
  

 Cite this work as:
 Gaussian 16, Revision B.01,
 M. J. Frisch, G. W. Trucks, H. B. Schlegel, G. E. Scuseria, 
 M. A. Robb, J. R. Cheeseman, G. Scalmani, V. Barone, 
 G. A. Petersson, H. Nakatsuji, X. Li, M. Caricato, A. V. Marenich, 
 J. Bloino, B. G. Janesko, R. Gomperts, B. Mennucci, H. P. Hratchian, 
 J. V. Ortiz, A. F. Izmaylov, J. L. Sonnenberg, D. Williams-Young, 
 F. Ding, F. Lipparini, F. Egidi, J. Goings, B. Peng, A. Petrone, 
 T. Henderson, D. Ranasinghe, V. G. Zakrzewski, J. Gao, N. Rega, 
 G. Zheng, W. Liang, M. Hada, M. Ehara, K. Toyota, R. Fukuda, 
 J. Hasegawa, M. Ishida, T. Nakajima, Y. Honda, O. Kitao, H. Nakai, 
 T. Vreven, K. Throssell, J. A. Montgomery, Jr., J. E. Peralta, 
 F. Ogliaro, M. J. Bearpark, J. J. Heyd, E. N. Brothers, K. N. Kudin, 
 V. N. Staroverov, T. A. Keith, R. Kobayashi, J. Normand, 
 K. Raghavachari, A. P. Rendell, J. C. Burant, S. S. Iyengar, 
 J. Tomasi, M. Cossi, J. M. Millam, M. Klene, C. Adamo, R. Cammi, 
 J. W. Ochterski, R. L. Martin, K. Morokuma, O. Farkas, 
 J. B. Foresman, and D. J. Fox, Gaussian, Inc., Wallingford CT, 2016.
 
 ******************************************
 Gaussian 16:  ES64L-G16RevB.01 20-Dec-2017
                10-Jul-2023 
 ******************************************
 %nprocshared=4
 Will use up to    4 processors via shared memory.
 %mem=8000mb
 %chk=32.chk
 %mem=8000mb
 ----------------------------------------------------------------------
 #T wB97XD/def2svpp opt=tight freq int(grid=ultrafine) scf=(verytight,q
 c)
 ----------------------------------------------------------------------
 -------
 comment
 -------
 Symbolic Z-matrix:
 Charge =  1 Multiplicity = 2
 C                     2.72583  -0.20782   0. 
 C                     1.35156   0.4553   0. 
 C                     0.21518  -0.5602    0. 
 C                    -1.15492   0.07239   0. 
 O                    -2.13025  -0.85242   0. 
 O                    -1.38851   1.25135   0. 
 H                     2.86442  -0.84557  -0.89135 
 H                     2.86442  -0.84557   0.89136 
 H                     3.53006   0.547    0. 
 H                     1.24724   1.11316  -0.87976 
 H                     1.24724   1.11316   0.87975 
 H                     0.27444  -1.22855   0.87881 
 H                     0.27444  -1.22855  -0.87881 
 H                    -2.97807  -0.37455   0. 
 

 GradGradGradGradGradGradGradGradGradGradGradGradGradGradGradGradGradGrad
 Initialization pass.
                           ----------------------------
                           !    Initial Parameters    !
                           ! (Angstroms and Degrees)  !
 --------------------------                            --------------------------
 ! Name  Definition              Value          Derivative Info.                !
 --------------------------------------------------------------------------------
 ! R1    R(1,2)                  1.5259         estimate D2E/DX2                !
 ! R2    R(1,7)                  1.1047         estimate D2E/DX2                !
 ! R3    R(1,8)                  1.1047         estimate D2E/DX2                !
 ! R4    R(1,9)                  1.103          estimate D2E/DX2                !
 ! R5    R(2,3)                  1.524          estimate D2E/DX2                !
 ! R6    R(2,10)                 1.1035         estimate D2E/DX2                !
 ! R7    R(2,11)                 1.1035         estimate D2E/DX2                !
 ! R8    R(3,4)                  1.5091         estimate D2E/DX2                !
 ! R9    R(3,12)                 1.1057         estimate D2E/DX2                !
 ! R10   R(3,13)                 1.1057         estimate D2E/DX2                !
 ! R11   R(4,5)                  1.3441         estimate D2E/DX2                !
 ! R12   R(4,6)                  1.2019         estimate D2E/DX2                !
 ! R13   R(5,14)                 0.9732         estimate D2E/DX2                !
 ! A1    A(2,1,7)              111.3371         estimate D2E/DX2                !
 ! A2    A(2,1,8)              111.3371         estimate D2E/DX2                !
 ! A3    A(2,1,9)              111.0566         estimate D2E/DX2                !
 ! A4    A(7,1,8)              107.5785         estimate D2E/DX2                !
 ! A5    A(7,1,9)              107.674          estimate D2E/DX2                !
 ! A6    A(8,1,9)              107.674          estimate D2E/DX2                !
 ! A7    A(1,2,3)              112.4565         estimate D2E/DX2                !
 ! A8    A(1,2,10)             110.1348         estimate D2E/DX2                !
 ! A9    A(1,2,11)             110.1347         estimate D2E/DX2                !
 ! A10   A(3,2,10)             109.0723         estimate D2E/DX2                !
 ! A11   A(3,2,11)             109.0723         estimate D2E/DX2                !
 ! A12   A(10,2,11)            105.7402         estimate D2E/DX2                !
 ! A13   A(2,3,4)              113.4316         estimate D2E/DX2                !
 ! A14   A(2,3,12)             111.2738         estimate D2E/DX2                !
 ! A15   A(2,3,13)             111.2738         estimate D2E/DX2                !
 ! A16   A(4,3,12)             107.5806         estimate D2E/DX2                !
 ! A17   A(4,3,13)             107.5806         estimate D2E/DX2                !
 ! A18   A(12,3,13)            105.276          estimate D2E/DX2                !
 ! A19   A(3,4,5)              111.7397         estimate D2E/DX2                !
 ! A20   A(3,4,6)              125.9905         estimate D2E/DX2                !
 ! A21   A(5,4,6)              122.2699         estimate D2E/DX2                !
 ! A22   A(4,5,14)             107.1156         estimate D2E/DX2                !
 ! D1    D(7,1,2,3)             60.0228         estimate D2E/DX2                !
 ! D2    D(7,1,2,10)           -61.8563         estimate D2E/DX2                !
 ! D3    D(7,1,2,11)          -178.0982         estimate D2E/DX2                !
 ! D4    D(8,1,2,3)            -60.0228         estimate D2E/DX2                !
 ! D5    D(8,1,2,10)           178.0981         estimate D2E/DX2                !
 ! D6    D(8,1,2,11)            61.8562         estimate D2E/DX2                !
 ! D7    D(9,1,2,3)            180.0            estimate D2E/DX2                !
 ! D8    D(9,1,2,10)            58.1209         estimate D2E/DX2                !
 ! D9    D(9,1,2,11)           -58.121          estimate D2E/DX2                !
 ! D10   D(1,2,3,4)            180.0            estimate D2E/DX2                !
 ! D11   D(1,2,3,12)            58.5327         estimate D2E/DX2                !
 ! D12   D(1,2,3,13)           -58.5328         estimate D2E/DX2                !
 ! D13   D(10,2,3,4)           -57.5196         estimate D2E/DX2                !
 ! D14   D(10,2,3,12)         -178.9868         estimate D2E/DX2                !
 ! D15   D(10,2,3,13)           63.9477         estimate D2E/DX2                !
 ! D16   D(11,2,3,4)            57.5196         estimate D2E/DX2                !
 ! D17   D(11,2,3,12)          -63.9476         estimate D2E/DX2                !
 ! D18   D(11,2,3,13)          178.9869         estimate D2E/DX2                !
 ! D19   D(2,3,4,5)            180.0            estimate D2E/DX2                !
 ! D20   D(2,3,4,6)              0.0            estimate D2E/DX2                !
 ! D21   D(12,3,4,5)           -56.487          estimate D2E/DX2                !
 ! D22   D(12,3,4,6)           123.513          estimate D2E/DX2                !
 ! D23   D(13,3,4,5)            56.4869         estimate D2E/DX2                !
 ! D24   D(13,3,4,6)          -123.5131         estimate D2E/DX2                !
 ! D25   D(3,4,5,14)           180.0            estimate D2E/DX2                !
 ! D26   D(6,4,5,14)             0.0            estimate D2E/DX2                !
 --------------------------------------------------------------------------------
 Number of steps in this run=     71 maximum allowed number of steps=    100.
 GradGradGradGradGradGradGradGradGradGradGradGradGradGradGradGradGradGrad

                    Distance matrix (angstroms):
                    1          2          3          4          5
     1  C    0.000000
     2  C    1.525901   0.000000
     3  C    2.535262   1.524006   0.000000
     4  C    3.890855   2.535552   1.509086   0.000000
     5  O    4.898682   3.719291   2.363567   1.344082   0.000000
     6  O    4.365428   2.853353   2.419401   1.201869   2.230697
     7  H    1.104734   2.185296   2.809697   4.218080   5.073586
     8  H    1.104734   2.185297   2.809697   4.218080   5.073586
     9  H    1.102970   2.180436   3.494902   4.708959   5.830742
    10  H    2.169148   1.103459   2.153888   2.761793   4.005608
    11  H    2.169148   1.103460   2.153888   2.761793   4.005608
    12  H    2.797061   2.183544   1.105673   2.123162   2.587723
    13  H    2.797061   2.183543   1.105672   2.123162   2.587723
    14  H    5.706343   4.408440   3.198645   1.877141   0.973220
                    6          7          8          9         10
     6  O    0.000000
     7  H    4.824821   0.000000
     8  H    4.824821   1.782708   0.000000
     9  H    4.968744   1.782371   1.782371   0.000000
    10  H    2.782123   2.540081   3.096562   2.511134   0.000000
    11  H    2.782122   3.096562   2.540080   2.511134   1.759508
    12  H    3.112487   3.160403   2.618174   3.811038   3.085855
    13  H    3.112487   2.618173   3.160403   3.811037   2.535736
    14  H    2.273820   5.928832   5.928832   6.573058   4.565138
                   11         12         13         14
    11  H    0.000000
    12  H    2.535736   0.000000
    13  H    3.085854   1.757616   0.000000
    14  H    4.565138   3.475693   3.475693   0.000000
 Framework group  C1[X(C4H8O2)]
 Deg. of freedom    36
                         Standard orientation:                         
 ---------------------------------------------------------------------
 Center     Atomic      Atomic             Coordinates (Angstroms)
 Number     Number       Type             X           Y           Z
 ---------------------------------------------------------------------
      1          6           0        2.725834   -0.207821    0.000000
      2          6           0        1.351556    0.455303   -0.000001
      3          6           0        0.215180   -0.560199    0.000000
      4          6           0       -1.154917    0.072394    0.000000
      5          8           0       -2.130253   -0.852418    0.000000
      6          8           0       -1.388506    1.251345    0.000000
      7          1           0        2.864416   -0.845568   -0.891353
      8          1           0        2.864416   -0.845566    0.891355
      9          1           0        3.530063    0.547002   -0.000001
     10          1           0        1.247237    1.113158   -0.879755
     11          1           0        1.247237    1.113159    0.879753
     12          1           0        0.274436   -1.228553    0.878809
     13          1           0        0.274436   -1.228554   -0.878807
     14          1           0       -2.978073   -0.374550    0.000000
 ---------------------------------------------------------------------
 Rotational constants (GHZ):           9.0877987           1.8301629           1.5679752
   100 basis functions,   182 primitive gaussians,   106 cartesian basis functions
    24 alpha electrons       23 beta electrons
       nuclear repulsion energy       238.4749820557 Hartrees.
 NAtoms=   14 NActive=   14 NUniq=   14 SFac= 1.00D+00 NAtFMM=   60 NAOKFM=F Big=F
 Nuclear repulsion after empirical dispersion term =      238.4690530035 Hartrees.
   1 Symmetry operations used in ECPInt.
 ECPInt:  NShTT=    1378 NPrTT=    5562 LenC2=    1368 LenP2D=    4480.
 LDataN:  DoStor=T MaxTD1= 4 Len=   56
 ExpMin= 1.22D-01 ExpMax= 2.27D+03 ExpMxC= 3.41D+02 IAcc=3 IRadAn=         5 AccDes= 0.00D+00
 Harris functional with IExCor= 4639 and IRadAn=       5 diagonalized for initial guess.
 HarFok:  IExCor= 4639 AccDes= 0.00D+00 IRadAn=         5 IDoV= 1 UseB2=F ITyADJ=14
 ICtDFT=  3500011 ScaDFX=  1.000000  1.000000  1.000000  1.000000
 FoFCou: FMM=F IPFlag=           0 FMFlag=      100000 FMFlg1=           0
         NFxFlg=           0 DoJE=T BraDBF=F KetDBF=T FulRan=T
         wScrn=  0.000000 ICntrl=       500 IOpCl=  0 I1Cent=   200000004 NGrid=           0
         NMat0=    1 NMatS0=      1 NMatT0=    0 NMatD0=    1 NMtDS0=    0 NMtDT0=    0
 Petite list used in FoFCou.
 Initial guess <Sx>= 0.0000 <Sy>= 0.0000 <Sz>= 0.5000 <S**2>= 0.7500 S= 0.5000
     Accept linear search using points  3 and  4.
     Minimum is close to point  3 DX=  8.91D-03 DF= -3.69D-06 DXR=  1.46D-02 DFR=  2.12D-04 which will be used.
     Minimum is close to point  2 DX=  5.80D-02 DF= -1.11D-05 DXR=  8.82D-02 DFR=  7.84D-03 which will be used.
     Accept linear search using points  1 and  2.
     Minimum is close to point  3 DX=  4.03D-02 DF= -1.53D-07 DXR=  3.25D-02 DFR=  1.06D-03 which will be used.
     Minimum is close to point  2 DX=  1.15D-02 DF= -1.09D-08 DXR=  1.14D-02 DFR=  1.30D-04 which will be used.
     Minimum is close to point  2 DX=  5.55D-04 DF=  0.00D+00 DXR=  5.55D-04 DFR=  0.00D+00 which will be used.
 SCF Done:  E(UwB97XD) =  -306.983775622     a.u. after   10 cycles
            Convg  =    0.1078D-06                    52 Fock formations.
              S**2 =  0.7560                  -V/T =  2.0082
 <Sx>= 0.0000 <Sy>= 0.0000 <Sz>= 0.5000 <S**2>= 0.7560 S= 0.5030
 <L.S>=  0.00000000000    
 Annihilation of the first spin contaminant:
 S**2 before annihilation     0.7560,   after     0.7500

 **********************************************************************

            Population analysis using the SCF Density.

 **********************************************************************

 Orbital symmetries:
 Alpha Orbitals:
       Occupied  (A) (A) (A) (A) (A) (A) (A) (A) (A) (A) (A) (A)
                 (A) (A) (A) (A) (A) (A) (A) (A) (A) (A) (A) (A)
       Virtual   (A) (A) (A) (A) (A) (A) (A) (A) (A) (A) (A) (A)
                 (A) (A) (A) (A) (A) (A) (A) (A) (A) (A) (A) (A)
                 (A) (A) (A) (A) (A) (A) (A) (A) (A) (A) (A) (A)
                 (A) (A) (A) (A) (A) (A) (A) (A) (A) (A) (A) (A)
                 (A) (A) (A) (A) (A) (A) (A) (A) (A) (A) (A) (A)
                 (A) (A) (A) (A) (A) (A) (A) (A) (A) (A) (A) (A)
                 (A) (A) (A) (A)
 Beta  Orbitals:
       Occupied  (A) (A) (A) (A) (A) (A) (A) (A) (A) (A) (A) (A)
                 (A) (A) (A) (A) (A) (A) (A) (A) (A) (A) (A)
       Virtual   (A) (A) (A) (A) (A) (A) (A) (A) (A) (A) (A) (A)
                 (A) (A) (A) (A) (A) (A) (A) (A) (A) (A) (A) (A)
                 (A) (A) (A) (A) (A) (A) (A) (A) (A) (A) (A) (A)
                 (A) (A) (A) (A) (A) (A) (A) (A) (A) (A) (A) (A)
                 (A) (A) (A) (A) (A) (A) (A) (A) (A) (A) (A) (A)
                 (A) (A) (A) (A) (A) (A) (A) (A) (A) (A) (A) (A)
                 (A) (A) (A) (A) (A)
 The electronic state is 2-A.
 Alpha  occ. eigenvalues --  -19.65705 -19.59164 -10.73571 -10.54565 -10.47691
 Alpha  occ. eigenvalues --  -10.43435  -1.54629  -1.43563  -1.12854  -1.02281
 Alpha  occ. eigenvalues --   -0.95623  -0.91724  -0.88023  -0.86269  -0.85852
 Alpha  occ. eigenvalues --   -0.76912  -0.75042  -0.73705  -0.71786  -0.68744
 Alpha  occ. eigenvalues --   -0.65920  -0.62049  -0.59684  -0.58380
 Alpha virt. eigenvalues --   -0.20546  -0.07227  -0.03420   0.01290   0.01671
 Alpha virt. eigenvalues --    0.04298   0.06233   0.07231   0.07821   0.09092
 Alpha virt. eigenvalues --    0.10084   0.13218   0.14862   0.18951   0.30389
 Alpha virt. eigenvalues --    0.30703   0.34817   0.35143   0.36737   0.38403
 Alpha virt. eigenvalues --    0.42551   0.44272   0.46251   0.51669   0.53415
 Alpha virt. eigenvalues --    0.56088   0.57077   0.61202   0.63043   0.63253
 Alpha virt. eigenvalues --    0.64369   0.65091   0.65507   0.66658   0.69581
 Alpha virt. eigenvalues --    0.70063   0.73212   0.78885   0.83522   0.89801
 Alpha virt. eigenvalues --    0.93719   0.95443   1.06825   1.11525   1.22016
 Alpha virt. eigenvalues --    1.22507   1.32846   1.35032   1.50488   1.55583
 Alpha virt. eigenvalues --    1.61565   1.63165   1.70960   1.78930   1.80347
 Alpha virt. eigenvalues --    1.85680   1.91749   1.91860   2.02218   2.06137
 Alpha virt. eigenvalues --    2.15602   2.17034   2.20805   2.30104   2.33493
 Alpha virt. eigenvalues --    2.36575   2.38110   2.47278   2.54174   2.69249
 Alpha virt. eigenvalues --    2.70234   2.83551   2.94391   3.05152   3.34004
 Alpha virt. eigenvalues --    3.37336
  Beta  occ. eigenvalues --  -19.63772 -19.58875 -10.73668 -10.54384 -10.47697
  Beta  occ. eigenvalues --  -10.43423  -1.51213  -1.41293  -1.11797  -1.01819
  Beta  occ. eigenvalues --   -0.94355  -0.88992  -0.85691  -0.85191  -0.82355
  Beta  occ. eigenvalues --   -0.75414  -0.74476  -0.70713  -0.68740  -0.65796
  Beta  occ. eigenvalues --   -0.61957  -0.59576  -0.58365
  Beta virt. eigenvalues --   -0.41161  -0.20044  -0.06741  -0.03145   0.01382
  Beta virt. eigenvalues --    0.01900   0.04516   0.06784   0.07256   0.08401
  Beta virt. eigenvalues --    0.09637   0.10091   0.13679   0.15529   0.19350
  Beta virt. eigenvalues --    0.30657   0.30660   0.35026   0.35127   0.37645
  Beta virt. eigenvalues --    0.39115   0.43043   0.44327   0.46845   0.51942
  Beta virt. eigenvalues --    0.53844   0.56341   0.57371   0.61399   0.63049
  Beta virt. eigenvalues --    0.63346   0.64866   0.65250   0.65618   0.66747
  Beta virt. eigenvalues --    0.70176   0.70333   0.73891   0.79437   0.84154
  Beta virt. eigenvalues --    0.91920   0.94439   0.96081   1.09045   1.11879
  Beta virt. eigenvalues --    1.22300   1.23759   1.33375   1.35019   1.51162
  Beta virt. eigenvalues --    1.56295   1.61671   1.64134   1.71565   1.79063
  Beta virt. eigenvalues --    1.80656   1.86119   1.92147   1.92321   2.02591
  Beta virt. eigenvalues --    2.06966   2.15722   2.17758   2.20925   2.31400
  Beta virt. eigenvalues --    2.36108   2.40307   2.43404   2.48686   2.54929
  Beta virt. eigenvalues --    2.70108   2.71476   2.84739   2.95458   3.07149
  Beta virt. eigenvalues --    3.36252   3.39732
          Condensed to atoms (all electrons):
          Atomic-Atomic Spin Densities.
 Mulliken charges and spin densities:
               1          2
     1  C   -0.331269   0.005265
     2  C   -0.290747  -0.001321
     3  C   -0.278080   0.126598
     4  C    0.306180  -0.067406
     5  O   -0.242225   0.100263
     6  O    0.139023   0.815397
     7  H    0.152889  -0.000035
     8  H    0.152889  -0.000035
     9  H    0.183179   0.004712
    10  H    0.161600   0.000577
    11  H    0.161600   0.000577
    12  H    0.240199   0.006939
    13  H    0.240199   0.006939
    14  H    0.404564   0.001529
 Sum of Mulliken charges =   1.00000   1.00000
 Mulliken charges and spin densities with hydrogens summed into heavy atoms:
               1          2
     1  C    0.157687   0.009907
     2  C    0.032454  -0.000166
     3  C    0.202318   0.140477
     4  C    0.306180  -0.067406
     5  O    0.162338   0.101791
     6  O    0.139023   0.815397
 Electronic spatial extent (au):  <R**2>=            738.8819
 Charge=              1.0000 electrons
 Dipole moment (field-independent basis, Debye):
    X=             -3.7512    Y=             -0.2584    Z=              0.0000  Tot=              3.7600
                          Isotropic Fermi Contact Couplings
        Atom                 a.u.       MegaHertz       Gauss      10(-4) cm-1
     1  C(13)              0.00263       2.95772       1.05539       0.98659
     2  C(13)             -0.00037      -0.41464      -0.14795      -0.13831
     3  C(13)              0.01878      21.10975       7.53248       7.04145
     4  C(13)             -0.04216     -47.39604     -16.91208     -15.80962
     5  O(17)              0.00711      -4.30990      -1.53788      -1.43763
     6  O(17)              0.27388    -166.02436     -59.24162     -55.37977
     7  H(1)               0.00006       0.26612       0.09496       0.08877
     8  H(1)               0.00006       0.26609       0.09495       0.08876
     9  H(1)               0.00234      10.44789       3.72807       3.48504
    10  H(1)              -0.00000      -0.00044      -0.00016      -0.00015
    11  H(1)              -0.00000      -0.00046      -0.00016      -0.00015
    12  H(1)               0.00382      17.09683       6.10058       5.70289
    13  H(1)               0.00382      17.09664       6.10051       5.70283
    14  H(1)              -0.00169      -7.53932      -2.69022      -2.51485
 --------------------------------------------------------
       Center         ----  Spin Dipole Couplings  ----
                      3XX-RR        3YY-RR        3ZZ-RR
 --------------------------------------------------------
     1   Atom        0.013403     -0.005459     -0.007944
     2   Atom        0.011833     -0.004482     -0.007351
     3   Atom        0.081301      0.020173     -0.101474
     4   Atom        0.015154      0.084446     -0.099600
     5   Atom       -0.105946      0.412122     -0.306176
     6   Atom        2.994802     -1.545703     -1.449099
     7   Atom        0.002545     -0.001381     -0.001164
     8   Atom        0.002545     -0.001381     -0.001164
     9   Atom        0.002554     -0.000368     -0.002185
    10   Atom        0.009936     -0.004796     -0.005140
    11   Atom        0.009936     -0.004796     -0.005140
    12   Atom       -0.006284     -0.001309      0.007594
    13   Atom       -0.006284     -0.001309      0.007594
    14   Atom        0.020905      0.005006     -0.025911
 --------------------------------------------------------
                        XY            XZ            YZ
 --------------------------------------------------------
     1   Atom        0.005273      0.000000      0.000000
     2   Atom       -0.004897      0.000000     -0.000000
     3   Atom       -0.141848      0.000000     -0.000000
     4   Atom       -0.063186     -0.000000      0.000000
     5   Atom        0.312862     -0.000000     -0.000000
     6   Atom        0.730521     -0.000001     -0.000000
     7   Atom       -0.001480     -0.001798      0.001038
     8   Atom       -0.001480      0.001798     -0.001038
     9   Atom        0.001240     -0.000000     -0.000000
    10   Atom        0.000143     -0.006429     -0.000648
    11   Atom        0.000143      0.006429      0.000648
    12   Atom       -0.005150     -0.001558     -0.012174
    13   Atom       -0.005150      0.001558      0.012174
    14   Atom        0.003110     -0.000000     -0.000000
 --------------------------------------------------------


 ---------------------------------------------------------------------------------
              Anisotropic Spin Dipole Couplings in Principal Axis System
 ---------------------------------------------------------------------------------

       Atom             a.u.   MegaHertz   Gauss  10(-4) cm-1        Axes

              Baa    -0.0079    -1.066    -0.380    -0.356  0.0000 -0.0000  1.0000
     1 C(13)  Bbb    -0.0068    -0.917    -0.327    -0.306 -0.2521  0.9677  0.0000
              Bcc     0.0148     1.983     0.708     0.661  0.9677  0.2521  0.0000
 
              Baa    -0.0074    -0.986    -0.352    -0.329 -0.0000 -0.0000  1.0000
     2 C(13)  Bbb    -0.0058    -0.784    -0.280    -0.261  0.2671  0.9637  0.0000
              Bcc     0.0132     1.770     0.632     0.590  0.9637 -0.2671  0.0000
 
              Baa    -0.1015   -13.617    -4.859    -4.542 -0.0000 -0.0000  1.0000
     3 C(13)  Bbb    -0.0944   -12.663    -4.518    -4.224  0.6282  0.7780  0.0000
              Bcc     0.1958    26.280     9.377     8.766  0.7780 -0.6282  0.0000
 
              Baa    -0.0996   -13.365    -4.769    -4.458  0.0000  0.0000  1.0000
     4 C(13)  Bbb    -0.0223    -2.987    -1.066    -0.996  0.8605  0.5095 -0.0000
              Bcc     0.1219    16.353     5.835     5.455 -0.5095  0.8605  0.0000
 
              Baa    -0.3062    22.155     7.905     7.390  0.0000  0.0000  1.0000
     5 O(17)  Bbb    -0.2531    18.313     6.535     6.109  0.9049 -0.4256  0.0000
              Bcc     0.5593   -40.468   -14.440   -13.499  0.4256  0.9049 -0.0000
 
              Baa    -1.6603   120.141    42.869    40.075 -0.1550  0.9879  0.0000
     6 O(17)  Bbb    -1.4491   104.856    37.415    34.976  0.0000 -0.0000  1.0000
              Bcc     3.1094  -224.997   -80.285   -75.051  0.9879  0.1550 -0.0000
 
              Baa    -0.0023    -1.238    -0.442    -0.413 -0.0455  0.7074 -0.7053
     7 H(1)   Bbb    -0.0015    -0.825    -0.295    -0.275  0.4919  0.6304  0.6006
              Bcc     0.0039     2.064     0.736     0.688  0.8695 -0.3196 -0.3766
 
              Baa    -0.0023    -1.238    -0.442    -0.413 -0.0455  0.7074  0.7053
     8 H(1)   Bbb    -0.0015    -0.825    -0.295    -0.275  0.4919  0.6304 -0.6006
              Bcc     0.0039     2.064     0.736     0.688  0.8695 -0.3196  0.3766
 
              Baa    -0.0022    -1.166    -0.416    -0.389  0.0000  0.0000  1.0000
     9 H(1)   Bbb    -0.0008    -0.439    -0.157    -0.147 -0.3446  0.9388 -0.0000
              Bcc     0.0030     1.605     0.573     0.535  0.9388  0.3446 -0.0000
 
              Baa    -0.0076    -4.065    -1.451    -1.356  0.3359  0.1944  0.9216
    10 H(1)   Bbb    -0.0047    -2.504    -0.894    -0.835 -0.0866  0.9807 -0.1753
              Bcc     0.0123     6.570     2.344     2.191  0.9379  0.0210 -0.3463
 
              Baa    -0.0076    -4.065    -1.451    -1.356 -0.3359 -0.1944  0.9216
    11 H(1)   Bbb    -0.0047    -2.504    -0.894    -0.835 -0.0866  0.9807  0.1753
              Bcc     0.0123     6.570     2.344     2.191  0.9379  0.0210  0.3463
 
              Baa    -0.0135    -7.200    -2.569    -2.402  0.5832  0.6841  0.4380
    12 H(1)   Bbb    -0.0027    -1.462    -0.522    -0.488  0.8086 -0.4375 -0.3935
              Bcc     0.0162     8.662     3.091     2.889  0.0775 -0.5836  0.8083
 
              Baa    -0.0135    -7.200    -2.569    -2.402  0.5832  0.6841 -0.4380
    13 H(1)   Bbb    -0.0027    -1.462    -0.522    -0.488  0.8086 -0.4375  0.3935
              Bcc     0.0162     8.662     3.091     2.889 -0.0775  0.5836  0.8083
 
              Baa    -0.0259   -13.825    -4.933    -4.611  0.0000  0.0000  1.0000
    14 H(1)   Bbb     0.0044     2.358     0.841     0.787 -0.1854  0.9827 -0.0000
              Bcc     0.0215    11.467     4.092     3.825  0.9827  0.1854 -0.0000
 

 ---------------------------------------------------------------------------------

   1 Symmetry operations used in ECPInt.
 ECPInt:  NShTT=    1378 NPrTT=    5562 LenC2=    1368 LenP2D=    4480.
 LDataN:  DoStor=T MaxTD1= 5 Len=  102
 Calling FoFJK, ICntrl=      2127 FMM=F ISym2X=0 I1Cent= 0 IOpClX= 1 NMat=1 NMatS=1 NMatT=0.

 GradGradGradGradGradGradGradGradGradGradGradGradGradGradGradGradGradGrad
 FormGI is forming the generalized inverse of G from B-inverse, IUseBI=4.
 Internal  Forces:  Max     0.031409663 RMS     0.007998167
 Step number   1 out of a maximum of   71
 All quantities printed in internal units (Hartrees-Bohrs-Radians)
 Mixed Optimization -- RFO/linear search
 Second derivative matrix not updated -- first step.
 ITU=  0
     Eigenvalues ---    0.00423   0.00448   0.00646   0.01063   0.02431
     Eigenvalues ---    0.03571   0.03988   0.04862   0.05258   0.05504
     Eigenvalues ---    0.05531   0.08375   0.09702   0.12223   0.12976
     Eigenvalues ---    0.16000   0.16000   0.16000   0.16000   0.21869
     Eigenvalues ---    0.21892   0.25000   0.25000   0.29805   0.29984
     Eigenvalues ---    0.31443   0.33062   0.33063   0.33164   0.33164
     Eigenvalues ---    0.33302   0.33302   0.33356   0.52724   0.56300
     Eigenvalues ---    1.03889
 Linear search not attempted -- first point.
 Iteration  1 RMS(Cart)=  0.04996115 RMS(Int)=  0.00220465
 Iteration  2 RMS(Cart)=  0.00264268 RMS(Int)=  0.00083258
 Iteration  3 RMS(Cart)=  0.00000555 RMS(Int)=  0.00083258
 Iteration  4 RMS(Cart)=  0.00000001 RMS(Int)=  0.00083258
 Variable       Old X    -DE/DX   Delta X   Delta X   Delta X     New X
                                 (Linear)    (Quad)   (Total)
    R1        2.88353  -0.00079   0.00000  -0.00253  -0.00253   2.88100
    R2        2.08764  -0.00069   0.00000  -0.00201  -0.00201   2.08564
    R3        2.08764  -0.00069   0.00000  -0.00201  -0.00201   2.08564
    R4        2.08431  -0.00120   0.00000  -0.00345  -0.00345   2.08086
    R5        2.87995   0.00356   0.00000   0.01139   0.01139   2.89134
    R6        2.08524   0.00054   0.00000   0.00157   0.00157   2.08681
    R7        2.08524   0.00054   0.00000   0.00157   0.00157   2.08681
    R8        2.85176   0.00483   0.00000   0.01476   0.01476   2.86652
    R9        2.08942   0.00221   0.00000   0.00644   0.00644   2.09586
   R10        2.08942   0.00221   0.00000   0.00644   0.00644   2.09586
   R11        2.53995  -0.02898   0.00000  -0.05033  -0.05033   2.48962
   R12        2.27120   0.03141   0.00000   0.02986   0.02986   2.30107
   R13        1.83912   0.01160   0.00000   0.02148   0.02148   1.86060
    A1        1.94320   0.00069   0.00000   0.00610   0.00604   1.94923
    A2        1.94320   0.00069   0.00000   0.00610   0.00603   1.94923
    A3        1.93830  -0.00332   0.00000  -0.02334  -0.02336   1.91494
    A4        1.87760   0.00038   0.00000   0.00997   0.00986   1.88746
    A5        1.87927   0.00083   0.00000   0.00092   0.00090   1.88016
    A6        1.87927   0.00083   0.00000   0.00092   0.00090   1.88016
    A7        1.96274  -0.00581   0.00000  -0.03006  -0.03015   1.93259
    A8        1.92221   0.00070   0.00000  -0.00430  -0.00424   1.91797
    A9        1.92221   0.00070   0.00000  -0.00430  -0.00424   1.91797
   A10        1.90367   0.00239   0.00000   0.01228   0.01201   1.91568
   A11        1.90367   0.00239   0.00000   0.01228   0.01201   1.91568
   A12        1.84551   0.00005   0.00000   0.01736   0.01718   1.86270
   A13        1.97975   0.01629   0.00000   0.06357   0.06413   2.04388
   A14        1.94209   0.00032   0.00000   0.02619   0.02701   1.96911
   A15        1.94209   0.00032   0.00000   0.02619   0.02702   1.96911
   A16        1.87764  -0.01118   0.00000  -0.07770  -0.07877   1.79886
   A17        1.87764  -0.01118   0.00000  -0.07770  -0.07877   1.79887
   A18        1.83741   0.00388   0.00000   0.03123   0.02716   1.86458
   A19        1.95023   0.01921   0.00000   0.07308   0.07308   2.02330
   A20        2.19895  -0.01387   0.00000  -0.05278  -0.05278   2.14617
   A21        2.13401  -0.00533   0.00000  -0.02030  -0.02030   2.11372
   A22        1.86952   0.02483   0.00000   0.14365   0.14365   2.01317
    D1        1.04760   0.00071   0.00000   0.01046   0.01048   1.05807
    D2       -1.07960   0.00115   0.00000   0.01849   0.01843  -1.06117
    D3       -3.10840   0.00027   0.00000   0.00243   0.00253  -3.10587
    D4       -1.04760  -0.00071   0.00000  -0.01046  -0.01048  -1.05807
    D5        3.10840  -0.00027   0.00000  -0.00243  -0.00253   3.10587
    D6        1.07959  -0.00115   0.00000  -0.01849  -0.01843   1.06117
    D7        3.14159  -0.00000   0.00000  -0.00000  -0.00000   3.14159
    D8        1.01440   0.00044   0.00000   0.00803   0.00795   1.02235
    D9       -1.01440  -0.00044   0.00000  -0.00803  -0.00795  -1.02235
   D10        3.14159   0.00000   0.00000   0.00000   0.00000   3.14159
   D11        1.02159   0.00262   0.00000   0.03614   0.03602   1.05761
   D12       -1.02159  -0.00262   0.00000  -0.03614  -0.03602  -1.05761
   D13       -1.00391  -0.00133   0.00000  -0.01699  -0.01710  -1.02100
   D14       -3.12391   0.00130   0.00000   0.01915   0.01893  -3.10498
   D15        1.11610  -0.00395   0.00000  -0.05313  -0.05312   1.06298
   D16        1.00391   0.00133   0.00000   0.01699   0.01710   1.02100
   D17       -1.11610   0.00395   0.00000   0.05313   0.05312  -1.06298
   D18        3.12391  -0.00130   0.00000  -0.01915  -0.01893   3.10498
   D19        3.14159   0.00000   0.00000   0.00000   0.00000   3.14159
   D20       -0.00000   0.00000   0.00000  -0.00000  -0.00000  -0.00000
   D21       -0.98588   0.00311   0.00000   0.01917   0.01686  -0.96902
   D22        2.15571   0.00311   0.00000   0.01917   0.01686   2.17257
   D23        0.98588  -0.00311   0.00000  -0.01917  -0.01686   0.96902
   D24       -2.15571  -0.00311   0.00000  -0.01917  -0.01686  -2.17257
   D25        3.14159  -0.00000   0.00000  -0.00000  -0.00000   3.14159
   D26        0.00000   0.00000   0.00000   0.00000   0.00000   0.00000
         Item               Value     Threshold  Converged?
 Maximum Force            0.031410     0.000015     NO 
 RMS     Force            0.007998     0.000010     NO 
 Maximum Displacement     0.192178     0.000060     NO 
 RMS     Displacement     0.050002     0.000040     NO 
 GradGradGradGradGradGradGradGradGradGradGradGradGradGradGradGradGradGrad

                    Distance matrix (angstroms):
                    1          2          3          4          5
     1  C    0.000000
     2  C    1.524561   0.000000
     3  C    2.513277   1.530031   0.000000
     4  C    3.915236   2.599408   1.516895   0.000000
     5  O    4.918040   3.777661   2.405026   1.317449   0.000000
     6  O    4.395079   2.896686   2.407044   1.217673   2.208167
     7  H    1.103671   2.187630   2.789231   4.225193   5.081402
     8  H    1.103671   2.187630   2.789231   4.225193   5.081403
     9  H    1.101142   2.160927   3.468561   4.744768   5.854250
    10  H    2.165498   1.104290   2.168620   2.858046   4.085975
    11  H    2.165498   1.104290   2.168620   2.858046   4.085975
    12  H    2.809981   2.210747   1.109079   2.071661   2.571874
    13  H    2.809981   2.210747   1.109079   2.071661   2.571873
    14  H    5.795368   4.547869   3.294088   1.953370   0.984588
                    6          7          8          9         10
     6  O    0.000000
     7  H    4.839113   0.000000
     8  H    4.839112   1.787402   0.000000
     9  H    5.012160   1.780622   1.780622   0.000000
    10  H    2.864011   2.533406   3.096097   2.488274   0.000000
    11  H    2.864010   3.096097   2.533405   2.488274   1.772220
    12  H    3.060491   3.179443   2.631583   3.817992   3.113502
    13  H    3.060492   2.631583   3.179444   3.817992   2.556815
    14  H    2.372952   5.993217   5.993218   6.678726   4.741217
                   11         12         13         14
    11  H    0.000000
    12  H    2.556815   0.000000
    13  H    3.113502   1.781150   0.000000
    14  H    4.741217   3.491041   3.491041   0.000000
 Framework group  C1[X(C4H8O2)]
 Deg. of freedom    36
                         Standard orientation:                         
 ---------------------------------------------------------------------
 Center     Atomic      Atomic             Coordinates (Angstroms)
 Number     Number       Type             X           Y           Z
 ---------------------------------------------------------------------
      1          6           0        2.732655   -0.242538    0.000000
      2          6           0        1.390831    0.481199   -0.000001
      3          6           0        0.234872   -0.521175    0.000000
      4          6           0       -1.171920    0.046195    0.000000
      5          8           0       -2.149300   -0.837207   -0.000000
      6          8           0       -1.404299    1.241488    0.000000
      7          1           0        2.852721   -0.878913   -0.893700
      8          1           0        2.852721   -0.878911    0.893702
      9          1           0        3.551723    0.493425   -0.000001
     10          1           0        1.317144    1.136054   -0.886111
     11          1           0        1.317144    1.136056    0.886109
     12          1           0        0.238672   -1.182172    0.890576
     13          1           0        0.238672   -1.182173   -0.890574
     14          1           0       -3.058642   -0.459702   -0.000000
 ---------------------------------------------------------------------
 Rotational constants (GHZ):           9.2186895           1.7960769           1.5473089
   100 basis functions,   182 primitive gaussians,   106 cartesian basis functions
    24 alpha electrons       23 beta electrons
       nuclear repulsion energy       237.6460428945 Hartrees.
 NAtoms=   14 NActive=   14 NUniq=   14 SFac= 1.00D+00 NAtFMM=   60 NAOKFM=F Big=F
 Nuclear repulsion after empirical dispersion term =      237.6401189030 Hartrees.
   1 Symmetry operations used in ECPInt.
 ECPInt:  NShTT=    1378 NPrTT=    5562 LenC2=    1368 LenP2D=    4478.
 LDataN:  DoStor=T MaxTD1= 4 Len=   56
 Initial guess from the checkpoint file:  "32.chk"
 B after Tr=     0.000000   -0.000000   -0.000000
         Rot=    0.999999   -0.000000    0.000000    0.001664 Ang=  -0.19 deg.
 Initial guess <Sx>= 0.0000 <Sy>= 0.0000 <Sz>= 0.5000 <S**2>= 0.7559 S= 0.5029
 ExpMin= 1.22D-01 ExpMax= 2.27D+03 ExpMxC= 3.41D+02 IAcc=3 IRadAn=         5 AccDes= 0.00D+00
 Harris functional with IExCor= 4639 and IRadAn=       5 diagonalized for initial guess.
 HarFok:  IExCor= 4639 AccDes= 0.00D+00 IRadAn=         5 IDoV= 1 UseB2=F ITyADJ=14
 ICtDFT=  3500011 ScaDFX=  1.000000  1.000000  1.000000  1.000000
 FoFCou: FMM=F IPFlag=           0 FMFlag=      100000 FMFlg1=           0
         NFxFlg=           0 DoJE=T BraDBF=F KetDBF=T FulRan=T
         wScrn=  0.000000 ICntrl=       500 IOpCl=  0 I1Cent=   200000004 NGrid=           0
         NMat0=    1 NMatS0=      1 NMatT0=    0 NMatD0=    1 NMtDS0=    0 NMtDT0=    0
 Petite list used in FoFCou.
     Accept linear search using points  3 and  4.
     Accept linear search using points  2 and  3.
     Accept linear search using points  1 and  2.
     Accept linear search using points  1 and  2.
     Accept linear search using points  1 and  2.
     Minimum is close to point  2 DX= -2.18D-02 DF= -1.38D-07 DXR=  2.23D-02 DFR=  5.07D-04 which will be used.
     Minimum is close to point  2 DX=  6.01D-04 DF= -3.98D-13 DXR=  6.00D-04 DFR=  3.10D-07 which will be used.
 SCF Done:  E(UwB97XD) =  -306.991682018     a.u. after   10 cycles
            Convg  =    0.7722D-09                    63 Fock formations.
              S**2 =  0.7556                  -V/T =  2.0085
 <Sx>= 0.0000 <Sy>= 0.0000 <Sz>= 0.5000 <S**2>= 0.7556 S= 0.5028
 <L.S>=  0.00000000000    
 Annihilation of the first spin contaminant:
 S**2 before annihilation     0.7556,   after     0.7500
   1 Symmetry operations used in ECPInt.
 ECPInt:  NShTT=    1378 NPrTT=    5562 LenC2=    1368 LenP2D=    4478.
 LDataN:  DoStor=T MaxTD1= 5 Len=  102
 Calling FoFJK, ICntrl=      2127 FMM=F ISym2X=0 I1Cent= 0 IOpClX= 1 NMat=1 NMatS=1 NMatT=0.

 GradGradGradGradGradGradGradGradGradGradGradGradGradGradGradGradGradGrad
 Using GEDIIS/GDIIS optimizer.
 FormGI is forming the generalized inverse of G from B-inverse, IUseBI=4.
 Internal  Forces:  Max     0.023520940 RMS     0.004299497
 Step number   2 out of a maximum of   71
 All quantities printed in internal units (Hartrees-Bohrs-Radians)
 Mixed Optimization -- RFO/linear search
 Trust test= 1.16D+00 RLast= 2.57D-01 DXMaxT set to 5.05D-01
 ITU=  1  0
 Use linear search instead of GDIIS.
     Eigenvalues ---    0.00423   0.00448   0.00646   0.01079   0.02431
     Eigenvalues ---    0.03720   0.03763   0.04879   0.04950   0.05434
     Eigenvalues ---    0.05677   0.08088   0.10346   0.11989   0.13265
     Eigenvalues ---    0.15983   0.16000   0.16000   0.16760   0.19246
     Eigenvalues ---    0.21903   0.23732   0.26161   0.29835   0.30375
     Eigenvalues ---    0.31908   0.33031   0.33062   0.33161   0.33164
     Eigenvalues ---    0.33302   0.33339   0.33372   0.49853   0.54823
     Eigenvalues ---    0.98543
 Quartic linear search produced a step of  0.29458.
 Iteration  1 RMS(Cart)=  0.01620154 RMS(Int)=  0.00045518
 Iteration  2 RMS(Cart)=  0.00049344 RMS(Int)=  0.00037301
 Iteration  3 RMS(Cart)=  0.00000025 RMS(Int)=  0.00037301
 Variable       Old X    -DE/DX   Delta X   Delta X   Delta X     New X
                                 (Linear)    (Quad)   (Total)
    R1        2.88100   0.00197  -0.00075   0.00876   0.00802   2.88902
    R2        2.08564  -0.00035  -0.00059  -0.00114  -0.00173   2.08391
    R3        2.08564  -0.00035  -0.00059  -0.00114  -0.00173   2.08391
    R4        2.08086  -0.00008  -0.00102   0.00009  -0.00093   2.07993
    R5        2.89134  -0.00260   0.00335  -0.01239  -0.00904   2.88230
    R6        2.08681  -0.00064   0.00046  -0.00263  -0.00217   2.08464
    R7        2.08681  -0.00064   0.00046  -0.00263  -0.00217   2.08464
    R8        2.86652  -0.00191   0.00435  -0.00944  -0.00509   2.86143
    R9        2.09586   0.00063   0.00190   0.00175   0.00365   2.09951
   R10        2.09586   0.00063   0.00190   0.00175   0.00365   2.09951
   R11        2.48962  -0.02352  -0.01483  -0.04860  -0.06342   2.42619
   R12        2.30107   0.01999   0.00880   0.02183   0.03063   2.33170
   R13        1.86060  -0.00106   0.00633  -0.00485   0.00148   1.86208
    A1        1.94923  -0.00013   0.00178  -0.00142   0.00033   1.94957
    A2        1.94923  -0.00013   0.00178  -0.00142   0.00033   1.94957
    A3        1.91494   0.00002  -0.00688   0.00226  -0.00463   1.91031
    A4        1.88746   0.00033   0.00291   0.00286   0.00573   1.89319
    A5        1.88016  -0.00004   0.00026  -0.00114  -0.00088   1.87928
    A6        1.88016  -0.00004   0.00026  -0.00114  -0.00088   1.87928
    A7        1.93259  -0.00080  -0.00888  -0.00421  -0.01316   1.91943
    A8        1.91797   0.00029  -0.00125   0.00276   0.00147   1.91944
    A9        1.91797   0.00029  -0.00125   0.00276   0.00147   1.91944
   A10        1.91568  -0.00008   0.00354  -0.00566  -0.00223   1.91345
   A11        1.91568  -0.00008   0.00354  -0.00566  -0.00223   1.91345
   A12        1.86270   0.00042   0.00506   0.01050   0.01550   1.87819
   A13        2.04388   0.00443   0.01889   0.01647   0.03563   2.07951
   A14        1.96911  -0.00080   0.00796  -0.00595   0.00247   1.97157
   A15        1.96911  -0.00080   0.00796  -0.00595   0.00247   1.97157
   A16        1.79886  -0.00227  -0.02320  -0.00875  -0.03234   1.76652
   A17        1.79887  -0.00227  -0.02320  -0.00875  -0.03234   1.76652
   A18        1.86458   0.00142   0.00800   0.01301   0.01927   1.88384
   A19        2.02330   0.00486   0.02153   0.01666   0.03818   2.06148
   A20        2.14617  -0.00882  -0.01555  -0.03923  -0.05478   2.09138
   A21        2.11372   0.00395  -0.00598   0.02258   0.01660   2.13032
   A22        2.01317  -0.00198   0.04231  -0.03340   0.00892   2.02208
    D1        1.05807   0.00012   0.00309   0.00083   0.00393   1.06200
    D2       -1.06117   0.00055   0.00543   0.00886   0.01427  -1.04689
    D3       -3.10587  -0.00031   0.00074  -0.00719  -0.00642  -3.11229
    D4       -1.05807  -0.00012  -0.00309  -0.00083  -0.00393  -1.06200
    D5        3.10587   0.00031  -0.00074   0.00719   0.00642   3.11229
    D6        1.06117  -0.00055  -0.00543  -0.00886  -0.01427   1.04689
    D7        3.14159  -0.00000  -0.00000   0.00000   0.00000   3.14159
    D8        1.02235   0.00043   0.00234   0.00802   0.01035   1.03270
    D9       -1.02235  -0.00043  -0.00234  -0.00802  -0.01035  -1.03270
   D10        3.14159   0.00000   0.00000   0.00000   0.00000   3.14159
   D11        1.05761   0.00034   0.01061   0.00412   0.01466   1.07227
   D12       -1.05761  -0.00034  -0.01061  -0.00412  -0.01466  -1.07227
   D13       -1.02100  -0.00021  -0.00504  -0.00305  -0.00810  -1.02910
   D14       -3.10498   0.00013   0.00557   0.00108   0.00656  -3.09842
   D15        1.06298  -0.00055  -0.01565  -0.00717  -0.02276   1.04022
   D16        1.02100   0.00021   0.00504   0.00305   0.00810   1.02910
   D17       -1.06298   0.00055   0.01565   0.00717   0.02276  -1.04022
   D18        3.10498  -0.00013  -0.00558  -0.00108  -0.00656   3.09842
   D19        3.14159  -0.00000   0.00000  -0.00000  -0.00000   3.14159
   D20       -0.00000  -0.00000  -0.00000  -0.00000  -0.00000  -0.00000
   D21       -0.96902   0.00000   0.00497  -0.00407  -0.00018  -0.96920
   D22        2.17257   0.00000   0.00497  -0.00407  -0.00018   2.17239
   D23        0.96902  -0.00000  -0.00497   0.00407   0.00018   0.96920
   D24       -2.17257  -0.00000  -0.00497   0.00407   0.00018  -2.17240
   D25        3.14159  -0.00000  -0.00000   0.00000   0.00000   3.14159
   D26        0.00000  -0.00000   0.00000  -0.00000  -0.00000  -0.00000
         Item               Value     Threshold  Converged?
 Maximum Force            0.023521     0.000015     NO 
 RMS     Force            0.004299     0.000010     NO 
 Maximum Displacement     0.060969     0.000060     NO 
 RMS     Displacement     0.016378     0.000040     NO 
 GradGradGradGradGradGradGradGradGradGradGradGradGradGradGradGradGradGrad

                    Distance matrix (angstroms):
                    1          2          3          4          5
     1  C    0.000000
     2  C    1.528804   0.000000
     3  C    2.501352   1.525248   0.000000
     4  C    3.920452   2.620863   1.514201   0.000000
     5  O    4.903131   3.776951   2.402787   1.283887   0.000000
     6  O    4.380094   2.882702   2.381986   1.233881   2.202842
     7  H    1.102757   2.190920   2.777346   4.219598   5.059986
     8  H    1.102757   2.190920   2.777346   4.219598   5.059987
     9  H    1.100651   2.160890   3.456350   4.759873   5.844078
    10  H    2.169437   1.103143   2.161934   2.888998   4.088901
    11  H    2.169437   1.103143   2.161934   2.888998   4.088902
    12  H    2.803660   2.209739   1.111011   2.044871   2.554728
    13  H    2.803660   2.209739   1.111012   2.044871   2.554727
    14  H    5.783369   4.547643   3.290837   1.929457   0.985372
                    6          7          8          9         10
     6  O    0.000000
     7  H    4.817755   0.000000
     8  H    4.817755   1.789619   0.000000
     9  H    5.005054   1.778913   1.778913   0.000000
    10  H    2.860605   2.532560   3.098439   2.492397   0.000000
    11  H    2.860604   3.098439   2.532560   2.492397   1.780527
    12  H    3.024599   3.177693   2.623340   3.809726   3.110565
    13  H    3.024600   2.623340   3.177693   3.809726   2.544825
    14  H    2.373880   5.974067   5.974068   6.672576   4.745901
                   11         12         13         14
    11  H    0.000000
    12  H    2.544825   0.000000
    13  H    3.110565   1.796929   0.000000
    14  H    4.745902   3.472208   3.472207   0.000000
 Framework group  C1[X(C4H8O2)]
 Deg. of freedom    36
                         Standard orientation:                         
 ---------------------------------------------------------------------
 Center     Atomic      Atomic             Coordinates (Angstroms)
 Number     Number       Type             X           Y           Z
 ---------------------------------------------------------------------
      1          6           0        2.725211   -0.257516    0.000000
      2          6           0        1.393086    0.492609   -0.000000
      3          6           0        0.235720   -0.500811    0.000000
      4          6           0       -1.185240    0.022334    0.000000
      5          8           0       -2.144229   -0.831308   -0.000000
      6          8           0       -1.391344    1.238879    0.000000
      7          1           0        2.835633   -0.892493   -0.894809
      8          1           0        2.835634   -0.892491    0.894810
      9          1           0        3.553823    0.466938   -0.000001
     10          1           0        1.325421    1.140510   -0.890264
     11          1           0        1.325421    1.140512    0.890262
     12          1           0        0.225389   -1.154264    0.898465
     13          1           0        0.225389   -1.154266   -0.898463
     14          1           0       -3.054795   -0.454707   -0.000000
 ---------------------------------------------------------------------
 Rotational constants (GHZ):           9.2781998           1.8029722           1.5545547
   100 basis functions,   182 primitive gaussians,   106 cartesian basis functions
    24 alpha electrons       23 beta electrons
       nuclear repulsion energy       238.2408345822 Hartrees.
 NAtoms=   14 NActive=   14 NUniq=   14 SFac= 1.00D+00 NAtFMM=   60 NAOKFM=F Big=F
 Nuclear repulsion after empirical dispersion term =      238.2349034804 Hartrees.
   1 Symmetry operations used in ECPInt.
 ECPInt:  NShTT=    1378 NPrTT=    5562 LenC2=    1368 LenP2D=    4478.
 LDataN:  DoStor=T MaxTD1= 4 Len=   56
 Initial guess from the checkpoint file:  "32.chk"
 B after Tr=    -0.000000    0.000000    0.000000
         Rot=    1.000000   -0.000000    0.000000    0.000993 Ang=  -0.11 deg.
 Initial guess <Sx>= 0.0000 <Sy>= 0.0000 <Sz>= 0.5000 <S**2>= 0.7555 S= 0.5027
 ExpMin= 1.22D-01 ExpMax= 2.27D+03 ExpMxC= 3.41D+02 IAcc=3 IRadAn=         5 AccDes= 0.00D+00
 Harris functional with IExCor= 4639 and IRadAn=       5 diagonalized for initial guess.
 HarFok:  IExCor= 4639 AccDes= 0.00D+00 IRadAn=         5 IDoV= 1 UseB2=F ITyADJ=14
 ICtDFT=  3500011 ScaDFX=  1.000000  1.000000  1.000000  1.000000
 FoFCou: FMM=F IPFlag=           0 FMFlag=      100000 FMFlg1=           0
         NFxFlg=           0 DoJE=T BraDBF=F KetDBF=T FulRan=T
         wScrn=  0.000000 ICntrl=       500 IOpCl=  0 I1Cent=   200000004 NGrid=           0
         NMat0=    1 NMatS0=      1 NMatT0=    0 NMatD0=    1 NMtDS0=    0 NMtDT0=    0
 Petite list used in FoFCou.
     Accept linear search using points  3 and  4.
     Accept linear search using points  2 and  3.
     Accept linear search using points  1 and  2.
     Accept linear search using points  1 and  2.
     Minimum is close to point  2 DX= -5.31D-03 DF= -8.54D-09 DXR=  5.34D-03 DFR=  2.86D-05 which will be used.
     Minimum is close to point  2 DX=  1.45D-04 DF=  0.00D+00 DXR=  1.45D-04 DFR=  0.00D+00 which will be used.
 SCF Done:  E(UwB97XD) =  -306.993436591     a.u. after    7 cycles
            Convg  =    0.1288D-06                    43 Fock formations.
              S**2 =  0.7553                  -V/T =  2.0084
 <Sx>= 0.0000 <Sy>= 0.0000 <Sz>= 0.5000 <S**2>= 0.7553 S= 0.5027
 <L.S>=  0.00000000000    
 Annihilation of the first spin contaminant:
 S**2 before annihilation     0.7553,   after     0.7500
   1 Symmetry operations used in ECPInt.
 ECPInt:  NShTT=    1378 NPrTT=    5562 LenC2=    1368 LenP2D=    4478.
 LDataN:  DoStor=T MaxTD1= 5 Len=  102
 Calling FoFJK, ICntrl=      2127 FMM=F ISym2X=0 I1Cent= 0 IOpClX= 1 NMat=1 NMatS=1 NMatT=0.

 GradGradGradGradGradGradGradGradGradGradGradGradGradGradGradGradGradGrad
 Using GEDIIS/GDIIS optimizer.
 FormGI is forming the generalized inverse of G from B-inverse, IUseBI=4.
 Internal  Forces:  Max     0.005823787 RMS     0.001354714
 Step number   3 out of a maximum of   71
 All quantities printed in internal units (Hartrees-Bohrs-Radians)
 Mixed Optimization -- RFO/linear search
 Trust test= 1.05D+00 RLast= 1.29D-01 DXMaxT set to 5.05D-01
 ITU=  1  1  0
 Use linear search instead of GDIIS.
     Eigenvalues ---    0.00423   0.00448   0.00646   0.01108   0.02431
     Eigenvalues ---    0.03585   0.03868   0.04917   0.05049   0.05437
     Eigenvalues ---    0.05716   0.07938   0.11234   0.11871   0.13410
     Eigenvalues ---    0.14463   0.16000   0.16003   0.16080   0.19004
     Eigenvalues ---    0.21922   0.23460   0.28113   0.29832   0.30393
     Eigenvalues ---    0.31917   0.33062   0.33071   0.33164   0.33167
     Eigenvalues ---    0.33302   0.33337   0.33405   0.53323   0.54955
     Eigenvalues ---    0.94568
 Quartic linear search produced a step of  0.02993.
 Iteration  1 RMS(Cart)=  0.00768503 RMS(Int)=  0.00009424
 Iteration  2 RMS(Cart)=  0.00009265 RMS(Int)=  0.00002459
 Iteration  3 RMS(Cart)=  0.00000001 RMS(Int)=  0.00002459
 Variable       Old X    -DE/DX   Delta X   Delta X   Delta X     New X
                                 (Linear)    (Quad)   (Total)
    R1        2.88902   0.00015   0.00024   0.00054   0.00078   2.88980
    R2        2.08391   0.00010  -0.00005   0.00017   0.00011   2.08402
    R3        2.08391   0.00010  -0.00005   0.00017   0.00011   2.08402
    R4        2.07993   0.00025  -0.00003   0.00056   0.00053   2.08046
    R5        2.88230   0.00018  -0.00027   0.00102   0.00075   2.88305
    R6        2.08464  -0.00023  -0.00006  -0.00064  -0.00071   2.08393
    R7        2.08464  -0.00023  -0.00006  -0.00064  -0.00071   2.08393
    R8        2.86143   0.00050  -0.00015   0.00224   0.00209   2.86352
    R9        2.09951  -0.00012   0.00011   0.00005   0.00016   2.09967
   R10        2.09951  -0.00012   0.00011   0.00005   0.00016   2.09967
   R11        2.42619   0.00268  -0.00190   0.00079  -0.00111   2.42509
   R12        2.33170   0.00582   0.00092   0.00776   0.00868   2.34038
   R13        1.86208  -0.00172   0.00004  -0.00212  -0.00207   1.86001
    A1        1.94957  -0.00030   0.00001  -0.00188  -0.00188   1.94769
    A2        1.94957  -0.00030   0.00001  -0.00188  -0.00188   1.94769
    A3        1.91031   0.00055  -0.00014   0.00278   0.00264   1.91295
    A4        1.89319   0.00019   0.00017   0.00060   0.00076   1.89395
    A5        1.87928  -0.00007  -0.00003   0.00026   0.00024   1.87952
    A6        1.87928  -0.00007  -0.00003   0.00026   0.00024   1.87952
    A7        1.91943   0.00065  -0.00039   0.00162   0.00122   1.92065
    A8        1.91944  -0.00023   0.00004  -0.00147  -0.00142   1.91802
    A9        1.91944  -0.00023   0.00004  -0.00147  -0.00142   1.91802
   A10        1.91345  -0.00013  -0.00007   0.00072   0.00065   1.91410
   A11        1.91345  -0.00013  -0.00007   0.00072   0.00065   1.91410
   A12        1.87819   0.00006   0.00046  -0.00015   0.00031   1.87850
   A13        2.07951  -0.00150   0.00107   0.00001   0.00110   2.08061
   A14        1.97157  -0.00088   0.00007  -0.00895  -0.00891   1.96266
   A15        1.97157  -0.00088   0.00007  -0.00895  -0.00891   1.96266
   A16        1.76652   0.00185  -0.00097   0.01159   0.01063   1.77715
   A17        1.76652   0.00185  -0.00097   0.01159   0.01063   1.77715
   A18        1.88384   0.00007   0.00058  -0.00209  -0.00167   1.88218
   A19        2.06148  -0.00004   0.00114   0.00441   0.00555   2.06703
   A20        2.09138  -0.00505  -0.00164  -0.02392  -0.02556   2.06582
   A21        2.13032   0.00509   0.00050   0.01952   0.02001   2.15033
   A22        2.02208  -0.00057   0.00027   0.00428   0.00454   2.02662
    D1        1.06200  -0.00009   0.00012  -0.00096  -0.00084   1.06116
    D2       -1.04689  -0.00019   0.00043  -0.00195  -0.00152  -1.04841
    D3       -3.11229   0.00001  -0.00019   0.00003  -0.00017  -3.11246
    D4       -1.06200   0.00009  -0.00012   0.00096   0.00084  -1.06116
    D5        3.11229  -0.00001   0.00019  -0.00003   0.00017   3.11246
    D6        1.04689   0.00019  -0.00043   0.00195   0.00152   1.04841
    D7        3.14159   0.00000   0.00000   0.00000   0.00000   3.14159
    D8        1.03270  -0.00010   0.00031  -0.00099  -0.00067   1.03202
    D9       -1.03270   0.00010  -0.00031   0.00099   0.00068  -1.03202
   D10       -3.14159  -0.00000   0.00000  -0.00000   0.00000  -3.14159
   D11        1.07227  -0.00064   0.00044  -0.00836  -0.00789   1.06438
   D12       -1.07227   0.00064  -0.00044   0.00836   0.00789  -1.06438
   D13       -1.02910   0.00004  -0.00024  -0.00033  -0.00057  -1.02967
   D14       -3.09842  -0.00060   0.00020  -0.00869  -0.00846  -3.10689
   D15        1.04022   0.00068  -0.00068   0.00803   0.00732   1.04754
   D16        1.02910  -0.00004   0.00024   0.00033   0.00057   1.02967
   D17       -1.04022  -0.00068   0.00068  -0.00803  -0.00732  -1.04754
   D18        3.09842   0.00060  -0.00020   0.00869   0.00846   3.10689
   D19        3.14159  -0.00000  -0.00000   0.00000   0.00000   3.14159
   D20       -0.00000  -0.00000  -0.00000  -0.00000  -0.00000  -0.00000
   D21       -0.96920  -0.00057  -0.00001  -0.00224  -0.00228  -0.97147
   D22        2.17239  -0.00057  -0.00001  -0.00224  -0.00228   2.17012
   D23        0.96920   0.00057   0.00001   0.00224   0.00228   0.97147
   D24       -2.17240   0.00057   0.00001   0.00224   0.00228  -2.17012
   D25        3.14159  -0.00000   0.00000  -0.00000  -0.00000   3.14159
   D26       -0.00000   0.00000  -0.00000   0.00000   0.00000   0.00000
         Item               Value     Threshold  Converged?
 Maximum Force            0.005824     0.000015     NO 
 RMS     Force            0.001355     0.000010     NO 
 Maximum Displacement     0.043548     0.000060     NO 
 RMS     Displacement     0.007698     0.000040     NO 
 GradGradGradGradGradGradGradGradGradGradGradGradGradGradGradGradGradGrad

                    Distance matrix (angstroms):
                    1          2          3          4          5
     1  C    0.000000
     2  C    1.529219   0.000000
     3  C    2.503086   1.525643   0.000000
     4  C    3.923432   2.623006   1.515309   0.000000
     5  O    4.909415   3.780753   2.407227   1.283301   0.000000
     6  O    4.357887   2.858439   2.369181   1.238473   2.218427
     7  H    1.102817   2.189990   2.777319   4.220692   5.065073
     8  H    1.102817   2.189990   2.777319   4.220692   5.065073
     9  H    1.100933   2.163401   3.459248   4.764461   5.851046
    10  H    2.168481   1.102770   2.162476   2.891879   4.092452
    11  H    2.168481   1.102769   2.162476   2.891879   4.092452
    12  H    2.794375   2.203841   1.111098   2.054420   2.571545
    13  H    2.794375   2.203842   1.111098   2.054420   2.571545
    14  H    5.788883   4.551269   3.294864   1.930732   0.984275
                    6          7          8          9         10
     6  O    0.000000
     7  H    4.796581   0.000000
     8  H    4.796580   1.790210   0.000000
     9  H    4.981770   1.779344   1.779344   0.000000
    10  H    2.835870   2.530493   3.096803   2.493541   0.000000
    11  H    2.835870   3.096803   2.530492   2.493541   1.780125
    12  H    3.023651   3.167455   2.611053   3.801612   3.106772
    13  H    3.023652   2.611052   3.167455   3.801611   2.540662
    14  H    2.399663   5.978260   5.978261   6.678998   4.749695
                   11         12         13         14
    11  H    0.000000
    12  H    2.540662   0.000000
    13  H    3.106772   1.795978   0.000000
    14  H    4.749695   3.488668   3.488668   0.000000
 Framework group  C1[X(C4H8O2)]
 Deg. of freedom    36
                         Standard orientation:                         
 ---------------------------------------------------------------------
 Center     Atomic      Atomic             Coordinates (Angstroms)
 Number     Number       Type             X           Y           Z
 ---------------------------------------------------------------------
      1          6           0        2.722081   -0.261592    0.000000
      2          6           0        1.389679    0.488886   -0.000001
      3          6           0        0.230688   -0.503245    0.000000
      4          6           0       -1.191188    0.020614    0.000000
      5          8           0       -2.154657   -0.827082   -0.000000
      6          8           0       -1.366499    1.246616    0.000000
      7          1           0        2.830211   -0.896653   -0.895104
      8          1           0        2.830211   -0.896651    0.895106
      9          1           0        3.552898    0.460763   -0.000001
     10          1           0        1.323826    1.136613   -0.890064
     11          1           0        1.323826    1.136615    0.890061
     12          1           0        0.232230   -1.157578    0.897990
     13          1           0        0.232230   -1.157580   -0.897988
     14          1           0       -3.063743   -0.449775   -0.000000
 ---------------------------------------------------------------------
 Rotational constants (GHZ):           9.2433093           1.8066516           1.5562900
   100 basis functions,   182 primitive gaussians,   106 cartesian basis functions
    24 alpha electrons       23 beta electrons
       nuclear repulsion energy       238.1590727512 Hartrees.
 NAtoms=   14 NActive=   14 NUniq=   14 SFac= 1.00D+00 NAtFMM=   60 NAOKFM=F Big=F
 Nuclear repulsion after empirical dispersion term =      238.1531251132 Hartrees.
   1 Symmetry operations used in ECPInt.
 ECPInt:  NShTT=    1378 NPrTT=    5562 LenC2=    1368 LenP2D=    4477.
 LDataN:  DoStor=T MaxTD1= 4 Len=   56
 Initial guess from the checkpoint file:  "32.chk"
 B after Tr=    -0.000000   -0.000000    0.000000
         Rot=    0.999999   -0.000000   -0.000000    0.001705 Ang=   0.20 deg.
 Initial guess <Sx>= 0.0000 <Sy>= 0.0000 <Sz>= 0.5000 <S**2>= 0.7553 S= 0.5027
 ExpMin= 1.22D-01 ExpMax= 2.27D+03 ExpMxC= 3.41D+02 IAcc=3 IRadAn=         5 AccDes= 0.00D+00
 Harris functional with IExCor= 4639 and IRadAn=       5 diagonalized for initial guess.
 HarFok:  IExCor= 4639 AccDes= 0.00D+00 IRadAn=         5 IDoV= 1 UseB2=F ITyADJ=14
 ICtDFT=  3500011 ScaDFX=  1.000000  1.000000  1.000000  1.000000
 FoFCou: FMM=F IPFlag=           0 FMFlag=      100000 FMFlg1=           0
         NFxFlg=           0 DoJE=T BraDBF=F KetDBF=T FulRan=T
         wScrn=  0.000000 ICntrl=       500 IOpCl=  0 I1Cent=   200000004 NGrid=           0
         NMat0=    1 NMatS0=      1 NMatT0=    0 NMatD0=    1 NMtDS0=    0 NMtDT0=    0
 Petite list used in FoFCou.
     Accept linear search using points  3 and  4.
     Accept linear search using points  2 and  3.
     Minimum is close to point  2 DX=  4.13D-04 DF= -1.92D-11 DXR=  4.13D-04 DFR=  1.71D-07 which will be used.
     Minimum is close to point  2 DX=  5.73D-05 DF=  0.00D+00 DXR=  5.73D-05 DFR=  0.00D+00 which will be used.
 SCF Done:  E(UwB97XD) =  -306.993678096     a.u. after    5 cycles
            Convg  =    0.3664D-07                    37 Fock formations.
              S**2 =  0.7553                  -V/T =  2.0085
 <Sx>= 0.0000 <Sy>= 0.0000 <Sz>= 0.5000 <S**2>= 0.7553 S= 0.5027
 <L.S>=  0.00000000000    
 Annihilation of the first spin contaminant:
 S**2 before annihilation     0.7553,   after     0.7500
   1 Symmetry operations used in ECPInt.
 ECPInt:  NShTT=    1378 NPrTT=    5562 LenC2=    1368 LenP2D=    4477.
 LDataN:  DoStor=T MaxTD1= 5 Len=  102
 Calling FoFJK, ICntrl=      2127 FMM=F ISym2X=0 I1Cent= 0 IOpClX= 1 NMat=1 NMatS=1 NMatT=0.

 GradGradGradGradGradGradGradGradGradGradGradGradGradGradGradGradGradGrad
 Using GEDIIS/GDIIS optimizer.
 FormGI is forming the generalized inverse of G from B-inverse, IUseBI=4.
 Internal  Forces:  Max     0.001816430 RMS     0.000456328
 Step number   4 out of a maximum of   71
 All quantities printed in internal units (Hartrees-Bohrs-Radians)
 Mixed Optimization -- En-DIIS/RFO-DIIS
 Trust test= 1.29D+00 RLast= 4.48D-02 DXMaxT set to 5.05D-01
 ITU=  1  1  1  0
 Use linear search instead of GDIIS.
     Eigenvalues ---    0.00423   0.00448   0.00646   0.01127   0.02431
     Eigenvalues ---    0.03571   0.03863   0.04971   0.05007   0.05448
     Eigenvalues ---    0.05706   0.07927   0.09771   0.11879   0.13429
     Eigenvalues ---    0.14188   0.16000   0.16001   0.16061   0.18682
     Eigenvalues ---    0.21525   0.21971   0.25506   0.29826   0.30806
     Eigenvalues ---    0.32000   0.33062   0.33062   0.33164   0.33164
     Eigenvalues ---    0.33302   0.33338   0.33399   0.52611   0.55677
     Eigenvalues ---    1.01302
 Quartic linear search produced a step of  0.40832.
 Iteration  1 RMS(Cart)=  0.00631806 RMS(Int)=  0.00004113
 Iteration  2 RMS(Cart)=  0.00003766 RMS(Int)=  0.00001740
 Iteration  3 RMS(Cart)=  0.00000000 RMS(Int)=  0.00001740
 Variable       Old X    -DE/DX   Delta X   Delta X   Delta X     New X
                                 (Linear)    (Quad)   (Total)
    R1        2.88980  -0.00015   0.00032  -0.00103  -0.00071   2.88910
    R2        2.08402   0.00010   0.00005   0.00031   0.00036   2.08438
    R3        2.08402   0.00010   0.00005   0.00031   0.00036   2.08438
    R4        2.08046   0.00000   0.00022  -0.00028  -0.00007   2.08040
    R5        2.88305   0.00072   0.00030   0.00339   0.00370   2.88674
    R6        2.08393   0.00001  -0.00029   0.00034   0.00005   2.08398
    R7        2.08393   0.00001  -0.00029   0.00034   0.00005   2.08398
    R8        2.86352  -0.00045   0.00085  -0.00221  -0.00136   2.86216
    R9        2.09967  -0.00019   0.00007  -0.00065  -0.00058   2.09909
   R10        2.09967  -0.00019   0.00007  -0.00065  -0.00058   2.09909
   R11        2.42509  -0.00011  -0.00045  -0.00156  -0.00201   2.42308
   R12        2.34038  -0.00031   0.00354  -0.00234   0.00121   2.34158
   R13        1.86001  -0.00076  -0.00085  -0.00060  -0.00145   1.85856
    A1        1.94769  -0.00001  -0.00077   0.00057  -0.00020   1.94749
    A2        1.94769  -0.00001  -0.00077   0.00057  -0.00020   1.94749
    A3        1.91295   0.00014   0.00108  -0.00016   0.00092   1.91387
    A4        1.89395  -0.00004   0.00031  -0.00082  -0.00051   1.89344
    A5        1.87952  -0.00004   0.00010  -0.00010  -0.00000   1.87952
    A6        1.87952  -0.00004   0.00010  -0.00010  -0.00000   1.87952
    A7        1.92065   0.00018   0.00050   0.00034   0.00084   1.92149
    A8        1.91802  -0.00003  -0.00058   0.00040  -0.00018   1.91784
    A9        1.91802  -0.00003  -0.00058   0.00040  -0.00018   1.91784
   A10        1.91410  -0.00003   0.00026   0.00045   0.00071   1.91482
   A11        1.91410  -0.00003   0.00026   0.00045   0.00071   1.91482
   A12        1.87850  -0.00007   0.00013  -0.00209  -0.00197   1.87653
   A13        2.08061  -0.00102   0.00045  -0.00375  -0.00328   2.07733
   A14        1.96266  -0.00028  -0.00364  -0.00148  -0.00514   1.95752
   A15        1.96266  -0.00028  -0.00364  -0.00148  -0.00514   1.95752
   A16        1.77715   0.00089   0.00434   0.00326   0.00760   1.78475
   A17        1.77715   0.00089   0.00434   0.00326   0.00760   1.78475
   A18        1.88218   0.00002  -0.00068   0.00121   0.00042   1.88259
   A19        2.06703   0.00015   0.00227   0.00141   0.00368   2.07071
   A20        2.06582  -0.00182  -0.01044  -0.00321  -0.01365   2.05217
   A21        2.15033   0.00166   0.00817   0.00180   0.00997   2.16030
   A22        2.02662  -0.00128   0.00186  -0.00763  -0.00577   2.02085
    D1        1.06116  -0.00003  -0.00034  -0.00013  -0.00047   1.06069
    D2       -1.04841  -0.00009  -0.00062  -0.00116  -0.00178  -1.05019
    D3       -3.11246   0.00003  -0.00007   0.00091   0.00084  -3.11162
    D4       -1.06116   0.00003   0.00034   0.00013   0.00047  -1.06069
    D5        3.11246  -0.00003   0.00007  -0.00091  -0.00084   3.11162
    D6        1.04841   0.00009   0.00062   0.00116   0.00178   1.05019
    D7        3.14159   0.00000   0.00000   0.00000   0.00000   3.14159
    D8        1.03202  -0.00006  -0.00028  -0.00104  -0.00131   1.03071
    D9       -1.03202   0.00006   0.00028   0.00104   0.00131  -1.03071
   D10       -3.14159  -0.00000   0.00000  -0.00000  -0.00000   3.14159
   D11        1.06438  -0.00019  -0.00322  -0.00031  -0.00351   1.06087
   D12       -1.06438   0.00019   0.00322   0.00031   0.00351  -1.06087
   D13       -1.02967   0.00006  -0.00023   0.00101   0.00077  -1.02890
   D14       -3.10689  -0.00014  -0.00346   0.00070  -0.00274  -3.10963
   D15        1.04754   0.00025   0.00299   0.00131   0.00428   1.05182
   D16        1.02967  -0.00006   0.00023  -0.00101  -0.00077   1.02890
   D17       -1.04754  -0.00025  -0.00299  -0.00131  -0.00428  -1.05182
   D18        3.10689   0.00014   0.00346  -0.00070   0.00274   3.10963
   D19        3.14159  -0.00000   0.00000  -0.00000  -0.00000   3.14159
   D20       -0.00000   0.00000  -0.00000   0.00000   0.00000  -0.00000
   D21       -0.97147  -0.00028  -0.00093  -0.00165  -0.00260  -0.97408
   D22        2.17012  -0.00028  -0.00093  -0.00164  -0.00260   2.16752
   D23        0.97147   0.00028   0.00093   0.00164   0.00260   0.97407
   D24       -2.17012   0.00028   0.00093   0.00164   0.00260  -2.16752
   D25        3.14159   0.00000  -0.00000   0.00000   0.00000  -3.14159
   D26        0.00000  -0.00000   0.00000  -0.00000  -0.00000  -0.00000
         Item               Value     Threshold  Converged?
 Maximum Force            0.001816     0.000015     NO 
 RMS     Force            0.000456     0.000010     NO 
 Maximum Displacement     0.031091     0.000060     NO 
 RMS     Displacement     0.006318     0.000040     NO 
 GradGradGradGradGradGradGradGradGradGradGradGradGradGradGradGradGradGrad

                    Distance matrix (angstroms):
                    1          2          3          4          5
     1  C    0.000000
     2  C    1.528845   0.000000
     3  C    2.505117   1.527599   0.000000
     4  C    3.922954   2.621545   1.514590   0.000000
     5  O    4.912792   3.780992   2.408314   1.282236   0.000000
     6  O    4.339727   2.839359   2.359501   1.239112   2.223993
     7  H    1.103007   2.189661   2.778811   4.220718   5.069751
     8  H    1.103007   2.189661   2.778811   4.220718   5.069752
     9  H    1.100899   2.163720   3.461690   4.763705   5.853380
    10  H    2.168041   1.102796   2.164736   2.890212   4.091408
    11  H    2.168041   1.102796   2.164736   2.890212   4.091409
    12  H    2.790616   2.201676   1.110790   2.059676   2.581743
    13  H    2.790616   2.201676   1.110790   2.059676   2.581741
    14  H    5.787134   4.545427   3.292412   1.925774   0.983510
                    6          7          8          9         10
     6  O    0.000000
     7  H    4.780576   0.000000
     8  H    4.780576   1.790187   0.000000
     9  H    4.961602   1.779467   1.779467   0.000000
    10  H    2.815592   2.530587   3.096516   2.493355   0.000000
    11  H    2.815592   3.096516   2.530587   2.493355   1.778887
    12  H    3.020923   3.163593   2.606452   3.798164   3.105886
    13  H    3.020923   2.606451   3.163593   3.798164   2.540095
    14  H    2.403300   5.978896   5.978896   6.675142   4.741512
                   11         12         13         14
    11  H    0.000000
    12  H    2.540095   0.000000
    13  H    3.105886   1.795752   0.000000
    14  H    4.741513   3.496933   3.496932   0.000000
 Framework group  C1[X(C4H8O2)]
 Deg. of freedom    36
                         Standard orientation:                         
 ---------------------------------------------------------------------
 Center     Atomic      Atomic             Coordinates (Angstroms)
 Number     Number       Type             X           Y           Z
 ---------------------------------------------------------------------
      1          6           0        2.719382   -0.262444   -0.000000
      2          6           0        1.386230    0.485936   -0.000000
      3          6           0        0.226345   -0.508160    0.000001
      4          6           0       -1.193445    0.019268    0.000000
      5          8           0       -2.161488   -0.821578   -0.000000
      6          8           0       -1.348782    1.248604    0.000000
      7          1           0        2.828039   -0.897760   -0.895093
      8          1           0        2.828039   -0.897758    0.895094
      9          1           0        3.549799    0.460319   -0.000001
     10          1           0        1.320194    1.134540   -0.889445
     11          1           0        1.320195    1.134542    0.889442
     12          1           0        0.235025   -1.162069    0.897877
     13          1           0        0.235025   -1.162070   -0.897875
     14          1           0       -3.065222   -0.433562   -0.000001
 ---------------------------------------------------------------------
 Rotational constants (GHZ):           9.2497066           1.8105573           1.5593436
   100 basis functions,   182 primitive gaussians,   106 cartesian basis functions
    24 alpha electrons       23 beta electrons
       nuclear repulsion energy       238.2606489549 Hartrees.
 NAtoms=   14 NActive=   14 NUniq=   14 SFac= 1.00D+00 NAtFMM=   60 NAOKFM=F Big=F
 Nuclear repulsion after empirical dispersion term =      238.2546942190 Hartrees.
   1 Symmetry operations used in ECPInt.
 ECPInt:  NShTT=    1378 NPrTT=    5562 LenC2=    1368 LenP2D=    4477.
 LDataN:  DoStor=T MaxTD1= 4 Len=   56
 Initial guess from the checkpoint file:  "32.chk"
 B after Tr=    -0.000000   -0.000000   -0.000000
         Rot=    0.999999    0.000000   -0.000000    0.001162 Ang=   0.13 deg.
 Initial guess <Sx>= 0.0000 <Sy>= 0.0000 <Sz>= 0.5000 <S**2>= 0.7553 S= 0.5027
 ExpMin= 1.22D-01 ExpMax= 2.27D+03 ExpMxC= 3.41D+02 IAcc=3 IRadAn=         5 AccDes= 0.00D+00
 Harris functional with IExCor= 4639 and IRadAn=       5 diagonalized for initial guess.
 HarFok:  IExCor= 4639 AccDes= 0.00D+00 IRadAn=         5 IDoV= 1 UseB2=F ITyADJ=14
 ICtDFT=  3500011 ScaDFX=  1.000000  1.000000  1.000000  1.000000
 FoFCou: FMM=F IPFlag=           0 FMFlag=      100000 FMFlg1=           0
         NFxFlg=           0 DoJE=T BraDBF=F KetDBF=T FulRan=T
         wScrn=  0.000000 ICntrl=       500 IOpCl=  0 I1Cent=   200000004 NGrid=           0
         NMat0=    1 NMatS0=      1 NMatT0=    0 NMatD0=    1 NMtDS0=    0 NMtDT0=    0
 Petite list used in FoFCou.
     Accept linear search using points  3 and  4.
     Accept linear search using points  1 and  2.
     Minimum is close to point  2 DX= -5.39D-04 DF= -1.83D-11 DXR=  5.39D-04 DFR=  2.90D-07 which will be used.
 SCF Done:  E(UwB97XD) =  -306.993722978     a.u. after    4 cycles
            Convg  =    0.1081D-07                    33 Fock formations.
              S**2 =  0.7553                  -V/T =  2.0085
 <Sx>= 0.0000 <Sy>= 0.0000 <Sz>= 0.5000 <S**2>= 0.7553 S= 0.5027
 <L.S>=  0.00000000000    
 Annihilation of the first spin contaminant:
 S**2 before annihilation     0.7553,   after     0.7500
   1 Symmetry operations used in ECPInt.
 ECPInt:  NShTT=    1378 NPrTT=    5562 LenC2=    1368 LenP2D=    4477.
 LDataN:  DoStor=T MaxTD1= 5 Len=  102
 Calling FoFJK, ICntrl=      2127 FMM=F ISym2X=0 I1Cent= 0 IOpClX= 1 NMat=1 NMatS=1 NMatT=0.

 GradGradGradGradGradGradGradGradGradGradGradGradGradGradGradGradGradGrad
 Using GEDIIS/GDIIS optimizer.
 FormGI is forming the generalized inverse of G from B-inverse, IUseBI=4.
 Internal  Forces:  Max     0.001011110 RMS     0.000152830
 Step number   5 out of a maximum of   71
 All quantities printed in internal units (Hartrees-Bohrs-Radians)
 Mixed Optimization -- En-DIIS/RFO-DIIS
 Swapping is turned off.
 Trust test= 1.09D+00 RLast= 2.57D-02 DXMaxT set to 5.05D-01
 ITU=  1  1  1  1  0
     Eigenvalues ---    0.00423   0.00448   0.00646   0.01137   0.02431
     Eigenvalues ---    0.03587   0.03854   0.04937   0.05105   0.05447
     Eigenvalues ---    0.05700   0.07983   0.08877   0.11888   0.13417
     Eigenvalues ---    0.14403   0.15996   0.16000   0.16083   0.18041
     Eigenvalues ---    0.20910   0.21972   0.25856   0.29828   0.31148
     Eigenvalues ---    0.31936   0.33021   0.33062   0.33163   0.33164
     Eigenvalues ---    0.33302   0.33340   0.33424   0.52598   0.56723
     Eigenvalues ---    1.02806
 En-DIIS/RFO-DIIS/Sim-DIIS IScMMF=       -3 using points:     5    4
 RFO step:  Lambda=-3.65371627D-06.
 DidBck=F Rises=F RFO-DIIS coefs:    1.12423   -0.12423
 Iteration  1 RMS(Cart)=  0.00135376 RMS(Int)=  0.00000182
 Iteration  2 RMS(Cart)=  0.00000130 RMS(Int)=  0.00000143
 Iteration  3 RMS(Cart)=  0.00000000 RMS(Int)=  0.00000143
 Variable       Old X    -DE/DX   Delta X   Delta X   Delta X     New X
                                 (Linear)    (Quad)   (Total)
    R1        2.88910  -0.00011  -0.00009  -0.00036  -0.00045   2.88865
    R2        2.08438   0.00001   0.00004  -0.00001   0.00004   2.08442
    R3        2.08438   0.00001   0.00004  -0.00001   0.00004   2.08442
    R4        2.08040   0.00000  -0.00001   0.00003   0.00002   2.08042
    R5        2.88674   0.00030   0.00046   0.00076   0.00122   2.88796
    R6        2.08398   0.00000   0.00001   0.00001   0.00002   2.08400
    R7        2.08398   0.00000   0.00001   0.00001   0.00002   2.08400
    R8        2.86216  -0.00016  -0.00017  -0.00038  -0.00055   2.86161
    R9        2.09909  -0.00006  -0.00007  -0.00015  -0.00022   2.09887
   R10        2.09909  -0.00006  -0.00007  -0.00015  -0.00022   2.09887
   R11        2.42308   0.00022  -0.00025   0.00089   0.00064   2.42371
   R12        2.34158  -0.00101   0.00015  -0.00121  -0.00106   2.34052
   R13        1.85856   0.00006  -0.00018   0.00022   0.00004   1.85861
    A1        1.94749   0.00003  -0.00002   0.00016   0.00013   1.94763
    A2        1.94749   0.00003  -0.00002   0.00016   0.00013   1.94763
    A3        1.91387   0.00005   0.00011   0.00037   0.00048   1.91436
    A4        1.89344  -0.00005  -0.00006  -0.00039  -0.00046   1.89298
    A5        1.87952  -0.00003  -0.00000  -0.00016  -0.00016   1.87936
    A6        1.87952  -0.00003  -0.00000  -0.00016  -0.00016   1.87936
    A7        1.92149   0.00007   0.00010   0.00042   0.00052   1.92201
    A8        1.91784   0.00003  -0.00002   0.00061   0.00059   1.91843
[...]
 ! A20   A(3,4,6)              117.5027         -DE/DX =    0.0                 !
 ! A21   A(5,4,6)              123.7975         -DE/DX =    0.0                 !
 ! A22   A(4,5,14)             115.7166         -DE/DX =    0.0                 !
 ! D1    D(7,1,2,3)             60.7627         -DE/DX =    0.0                 !
 ! D2    D(7,1,2,10)           -60.169          -DE/DX =    0.0                 !
 ! D3    D(7,1,2,11)          -178.3056         -DE/DX =    0.0                 !
 ! D4    D(8,1,2,3)            -60.7627         -DE/DX =    0.0                 !
 ! D5    D(8,1,2,10)           178.3056         -DE/DX =    0.0                 !
 ! D6    D(8,1,2,11)            60.1689         -DE/DX =    0.0                 !
 ! D7    D(9,1,2,3)            180.0            -DE/DX =    0.0                 !
 ! D8    D(9,1,2,10)            59.0683         -DE/DX =    0.0                 !
 ! D9    D(9,1,2,11)           -59.0683         -DE/DX =    0.0                 !
 ! D10   D(1,2,3,4)           -180.0            -DE/DX =    0.0                 !
 ! D11   D(1,2,3,12)            60.7997         -DE/DX =    0.0                 !
 ! D12   D(1,2,3,13)           -60.7997         -DE/DX =    0.0                 !
 ! D13   D(10,2,3,4)           -58.909          -DE/DX =    0.0                 !
 ! D14   D(10,2,3,12)         -178.1093         -DE/DX =    0.0                 !
 ! D15   D(10,2,3,13)           60.2913         -DE/DX =    0.0                 !
 ! D16   D(11,2,3,4)            58.909          -DE/DX =    0.0                 !
 ! D17   D(11,2,3,12)          -60.2912         -DE/DX =    0.0                 !
 ! D18   D(11,2,3,13)          178.1094         -DE/DX =    0.0                 !
 ! D19   D(2,3,4,5)            179.9997         -DE/DX =    0.0                 !
 ! D20   D(2,3,4,6)             -0.0004         -DE/DX =    0.0                 !
 ! D21   D(12,3,4,5)           -55.894          -DE/DX =    0.0                 !
 ! D22   D(12,3,4,6)           124.106          -DE/DX =    0.0                 !
 ! D23   D(13,3,4,5)            55.8933         -DE/DX =    0.0                 !
 ! D24   D(13,3,4,6)          -124.1068         -DE/DX =    0.0                 !
 ! D25   D(3,4,5,14)           180.0            -DE/DX =    0.0                 !
 ! D26   D(6,4,5,14)             0.0            -DE/DX =    0.0                 !
 --------------------------------------------------------------------------------
 GradGradGradGradGradGradGradGradGradGradGradGradGradGradGradGradGradGrad


 ----------------------------------------------------------------------

 Electric dipole moment (input orientation):
 (Debye = 10**-18 statcoulomb cm , SI units = C m)
                  (au)            (Debye)         (10**-30 SI)
   Tot        0.167219D+01      0.425030D+01      0.141775D+02
   x         -0.165706D+01     -0.421181D+01     -0.140491D+02
   y         -0.224509D+00     -0.570644D+00     -0.190346D+01
   z          0.000000D+00      0.000000D+00      0.000000D+00

 Dipole polarizability, Alpha (input orientation).
 (esu units = cm**3 , SI units = C**2 m**2 J**-1)
 Alpha(0;0):
               (au)            (10**-24 esu)      (10**-40 SI)
   iso        0.483808D+02      0.716929D+01      0.797691D+01
   aniso      0.253890D+02      0.376226D+01      0.418608D+01
   xx         0.633688D+02      0.939028D+01      0.104481D+02
   yx        -0.340243D+01     -0.504189D+00     -0.560985D+00
   yy         0.467867D+02      0.693308D+01      0.771409D+01
   zx        -0.140428D-03     -0.208092D-04     -0.231534D-04
   zy         0.609468D-04      0.903138D-05      0.100488D-04
   zz         0.349868D+02      0.518450D+01      0.576854D+01

 ----------------------------------------------------------------------

 Dipole orientation:
     6          0.15043306         -1.11033432         -5.04605321
     6         -0.07874957          0.58114411         -2.71618992
     6          0.13620499         -1.00543294         -0.31176628
     6         -0.04040140          0.29796930          2.22950207
     8          0.14129034         -1.04269364          4.24038619
     8         -0.35451913          2.61674640          2.23522018
     1         -1.36203232         -2.54341731         -5.10554983
     1          1.98970281         -2.08929616         -5.10553982
     1         -0.00610619          0.04507351         -6.76903191
     1         -1.90953057          1.57654815         -2.73820350
     1          1.42115864          2.02781760         -2.73819320
     1          1.98339331         -1.99334902         -0.18114040
     1         -1.38151231         -2.44925356         -0.18114987
     1          0.01524139         -0.11207962          5.84440666

 Electric dipole moment (dipole orientation):
 (Debye = 10**-18 statcoulomb cm , SI units = C m)
                  (au)            (Debye)         (10**-30 SI)
   Tot        0.167219D+01      0.425030D+01      0.141775D+02
   x          0.000000D+00      0.000000D+00      0.000000D+00
   y          0.000000D+00      0.000000D+00      0.000000D+00
   z          0.167219D+01      0.425030D+01      0.141775D+02

 Dipole polarizability, Alpha (dipole orientation).
 (esu units = cm**3 , SI units = C**2 m**2 J**-1)
 Alpha(0;0):
               (au)            (10**-24 esu)      (10**-40 SI)
   iso        0.483808D+02      0.716929D+01      0.797691D+01
   aniso      0.253890D+02      0.376226D+01      0.418608D+01
   xx         0.352211D+02      0.521923D+01      0.580718D+01
   yx        -0.173005D+01     -0.256367D+00     -0.285247D+00
   yy         0.477566D+02      0.707680D+01      0.787400D+01
   zx        -0.736356D+00     -0.109117D+00     -0.121409D+00
   zy         0.543627D+01      0.805573D+00      0.896320D+00
   zz         0.621645D+02      0.921183D+01      0.102495D+02

 ----------------------------------------------------------------------
 1\1\GINC-C162\Freq\UwB97XD\def2SVPP\C4H8O2(1+,2)\PETERCHAO1\10-Jul-202
 3\0\\#T Geom=AllCheck Guess=TCheck SCRF=Check GenChk UwB97XD/def2SVPP 
 Freq\\comment\\1,2\C,2.7256872066,-0.229055406,0.0000040361\C,1.382666
 2923,0.5005068386,-0.0000037128\C,0.2355716141,-0.5099008325,-0.000008
 8859\C,-1.1904835641,-0.0007192103,-0.0000183397\O,-2.1488421902,-0.85
 30387404,0.0000058437\O,-1.3597294779,1.2259153516,0.0000053443\H,2.84
 33557862,-0.8630295188,-0.8949283319\H,2.8433466373,-0.8630273628,0.89
 49391259\H,3.5463548465,0.5047727347,0.0000073161\H,1.3066677988,1.148
 2155208,-0.8893191624\H,1.3066585328,1.148217518,0.8893095011\H,0.2542
 446294,-1.1625902294,0.898442221\H,0.2542534395,-1.1625918796,-0.89845
 83643\H,-3.0566895511,-0.4745427838,0.0000234126\\Version=ES64L-G16Rev
 B.01\State=2-A\HF=-306.9937254\S2=0.755307\S2-1=0.\S2A=0.750021\RMSD=2
 .261e-09\RMSF=6.550e-06\ZeroPoint=0.1169209\Thermal=0.1233543\Dipole=-
 1.6570552,-0.2245085,-0.0000033\DipoleDeriv=0.0391752,-0.0619578,-0.00
 00002,-0.1984764,0.0333027,-0.0000005,-0.0000002,0.,0.0472057,0.167363
 5,0.0424066,-0.000001,0.056635,0.0934184,0.0000008,-0.0000005,0.000001
 4,0.0903223,0.4264845,-0.2059777,0.0000029,0.3666928,-0.1394237,-0.000
 0017,0.0000131,-0.0000106,-0.1129493,0.6181817,0.5920672,-0.0000014,1.
 1467534,0.709864,-0.0000069,-0.0000033,-0.0000065,0.5295516,-1.0546094
 ,-0.4283025,0.0000034,-0.6232106,-0.2725782,0.0000031,0.0000177,0.0000
 106,-0.2864602,0.0786225,-0.0809556,-0.0000015,-0.8492612,-0.0159829,0
 .0000067,-0.0000156,0.0000013,-0.0014443,0.0628876,-0.0034053,-0.04211
 19,0.0508038,0.0275612,-0.069464,0.0046515,-0.0819314,-0.0230063,0.062
 8865,-0.0034057,0.0421125,0.0508034,0.0275613,0.0694644,-0.004651,0.08
 19313,-0.0230063,-0.0154212,-0.020637,-0.0000005,-0.0319856,0.019911,-
 0.0000001,-0.0000008,0.,0.1180296,0.0026251,0.0311159,-0.0462839,-0.04
 60026,0.0357909,0.0414243,-0.0402207,0.0646788,-0.0018587,0.0026235,0.
 0311168,0.0462842,-0.0460026,0.0357916,-0.0414239,0.0402205,-0.0646784
 ,-0.0018577,-0.025291,0.0358206,0.0028166,0.0271928,0.088833,0.0071459
 ,0.1903566,-0.0608122,0.1247228,-0.0252888,0.0358237,-0.002816,0.02719
 29,0.0888329,-0.0071476,-0.1903638,0.0608159,0.1247232,0.6597603,0.036
 2908,-0.0000031,0.068865,0.2671179,-0.0000005,-0.0000034,-0.0000003,0.
 4160278\Polar=63.3687755,-3.402433,46.7867224,-0.0001404,0.0000609,34.
 9867543\Quadrupole=10.7934191,-5.7824735,-5.0109456,0.296017,-0.000068
 5,-0.0000097\PG=C01 [X(C4H8O2)]\NImag=1\\0.51452112,0.04359491,0.57391
 242,-0.00000040,0.00000027,0.59374842,-0.17822497,0.05651660,-0.000000
 54,0.44788197,0.05981085,-0.11545816,0.00000027,-0.02084235,0.55336326
 ,-0.00000056,0.00000029,-0.08508557,-0.00000089,-0.00000002,0.62343955
 ,-0.03085974,-0.00963714,-0.00000012,-0.10627808,-0.05863602,-0.000000
 28,0.37200356,0.00511045,0.01260759,0.00000007,-0.06238921,-0.14211960
 ,0.,0.04941370,0.50088752,-0.00000027,-0.00000003,-0.00129297,-0.00000
 019,0.00000008,-0.07655736,-0.00000272,-0.00000052,0.52772881,0.000587
 47,-0.01120206,-0.00000005,-0.03027799,-0.00017044,-0.00000010,-0.0696
 9611,0.03412508,0.00000179,0.48776825,-0.00483308,0.00508730,0.,0.0058
 1224,0.02618414,-0.00000006,-0.09969971,-0.07619201,-0.00000235,0.1717
 1198,0.74306325,-0.00000008,-0.00000005,0.00002508,-0.00000011,0.00000
 022,-0.00748487,0.00000012,-0.00000051,-0.06570742,-0.00000731,0.00000
 538,0.21004763,-0.00138811,-0.00270324,0.,-0.00146509,0.00940964,0.000
 00008,-0.05077110,-0.02529439,-0.00000011,-0.31569753,-0.18489539,0.00
 000561,0.74403033,0.00103150,-0.00222416,0.,-0.00170665,-0.00415204,-0
 .00000004,0.03234682,0.01626020,0.00000126,-0.20381177,-0.20793412,0.0
 0000373,0.07618600,0.42528574,0.00000003,0.00000009,0.00016444,0.00000
 009,-0.00000017,0.00172070,0.00000010,0.00000062,0.00929231,0.00000531
 ,0.00000409,-0.06760320,-0.00001290,-0.00000172,0.04478237,0.00002752,
 0.00074544,0.00000001,-0.00749032,0.00257189,-0.00000002,-0.02769109,0
 .02397520,-0.00000085,-0.01765600,0.05094550,0.00000097,-0.00066776,-0
 .02888175,0.00000041,0.05317967,0.00305802,-0.00546249,-0.00000003,-0.
 00601448,-0.00690787,-0.00000003,0.08632007,-0.02500048,0.00000141,0.0
 0818356,-0.45820150,-0.00000894,-0.04355519,-0.11790165,0.00000011,-0.
 04116424,0.59314863,0.00000009,-0.00000013,0.00001902,-0.00000009,-0.0
 0000020,-0.00106338,0.00000128,-0.00000011,0.01908441,-0.00000035,-0.0
 0000769,-0.06388879,0.00000037,-0.00000048,0.02853136,-0.00000096,0.00
 000819,0.02285047,-0.05115433,0.01388978,0.01943843,-0.00395485,0.0171
 0318,0.02557983,0.00029362,0.00101265,0.00107578,0.00124362,-0.0009332
 4,-0.00019309,0.00002452,0.00034905,0.00001991,-0.00027513,0.00057590,
 -0.00002604,0.05486860,0.01473922,-0.13832727,-0.12569504,0.00050171,-
 0.00906915,-0.01139875,-0.00077652,0.00059161,0.00025819,-0.00007806,-
 0.00019143,0.00017224,0.00017651,0.00006890,-0.00003715,-0.00004126,0.
 00019651,0.00007669,-0.01940565,0.14362102,0.02078525,-0.12708195,-0.2
 3242612,-0.00068941,0.00258586,0.00296774,-0.00017486,-0.00005731,0.00
 030355,0.00036600,-0.00022499,0.00019542,0.00003537,0.00007755,-0.0000
 6251,0.00000104,0.00043591,0.00008697,-0.02264689,0.13735276,0.2420131
 7,-0.05115393,0.01388845,-0.01943664,-0.00395460,0.01710311,-0.0255799
 4,0.00029367,0.00101266,-0.00107581,0.00124357,-0.00093314,0.00019309,
 0.00002453,0.00034902,-0.00001991,-0.00027511,0.00057584,0.00002607,-0
 .00064057,-0.00242282,0.00212549,0.05486814,0.01473789,-0.13832667,0.1
 2569497,0.00050160,-0.00906913,0.01139879,-0.00077652,0.00059161,-0.00
 025822,-0.00007806,-0.00019144,-0.00017224,0.00017652,0.00006890,0.000
 03714,-0.00004127,0.00019651,-0.00007667,-0.00242267,0.01322488,-0.015
 72037,-0.01940420,0.14362036,-0.02078345,0.12708188,-0.23242714,0.0006
 8932,-0.00258565,0.00296747,0.00017486,0.00005730,0.00030355,-0.000365
 97,0.00022498,0.00019544,-0.00003537,-0.00007755,-0.00006251,-0.000001
 03,-0.00043589,0.00008694,-0.00212532,0.01572027,-0.01657993,0.0226450
 4,-0.13735274,0.24201429,-0.19983546,-0.13900261,-0.00000061,-0.020153
 91,-0.01910315,-0.00000008,-0.00350274,0.00432058,-0.00000003,-0.00160
 878,-0.00031131,-0.00000001,-0.00089456,-0.00024489,0.00000002,0.00018
 096,-0.00089366,-0.00000002,0.00417037,0.00417228,-0.00009557,0.004170
 16,0.00417211,0.00009559,0.21556215,-0.14295094,-0.17706459,-0.0000005
 8,0.01564700,0.01257610,0.00000007,0.00165231,-0.00162927,0.00000001,0
 .00197578,-0.00100545,0.00000001,0.00051531,0.00040164,-0.00000002,0.0
 0001193,0.00108815,0.00000002,-0.01171121,-0.00996800,0.00222770,-0.01
 171114,-0.00996796,-0.00222779,0.14704851,0.18421953,-0.00000060,-0.00
 000055,-0.04835435,-0.00000013,-0.00000012,-0.00140265,0.,0.00000002,0
 .00013737,-0.00000003,0.00000004,0.00068511,0.,-0.00000002,-0.00012651
 ,0.00000001,-0.00000003,0.00006137,-0.02043320,-0.01676488,0.00172784,
 0.02043326,0.01676495,0.00172801,0.00000070,0.00000058,0.04540868,-0.0
 0288211,0.01814194,-0.02563457,-0.04832842,0.01034277,-0.01633333,-0.0
 0194148,-0.01633114,0.02317265,0.00061128,-0.00136122,0.00154108,-0.00
 011066,-0.00018852,-0.00043886,-0.00002394,-0.00012134,0.00046388,0.00
 114612,-0.00031930,0.00047430,-0.00523192,0.00296947,0.00084361,0.0008
 6564,-0.00047708,-0.00040047,0.05973857,0.00275836,-0.00858281,0.01208
 499,0.00900106,-0.14147792,0.12489008,0.00093095,-0.01183268,0.0141100
 3,-0.00208084,0.00215171,0.00143144,0.00010767,-0.00078726,-0.00026219
 ,0.00090005,-0.00201927,0.00014490,-0.00061679,-0.00011059,0.00015989,
 0.00260962,-0.00035703,-0.00066933,-0.00053357,0.00084617,-0.00047431,
 -0.00940757,0.14926175,0.00015487,-0.00163311,0.00217323,-0.01419324,0
 .12628571,-0.23155770,0.00051271,-0.00265552,0.00206226,0.00002413,0.0
 0197611,0.00030010,-0.00001327,-0.00039826,-0.00012241,-0.00038027,-0.
 00075417,0.00012158,-0.00020176,-0.00015570,0.00076821,0.00034224,-0.0
 0042951,0.00124546,-0.00039047,0.00009172,0.00006361,0.01589599,-0.136
 95802,0.23992201,-0.00288237,0.01814195,0.02563447,-0.04832879,0.01034
 415,0.01633525,-0.00194125,-0.01633114,-0.02317261,0.00061139,-0.00136
 127,-0.00154107,-0.00011067,-0.00018852,0.00043886,-0.00002401,-0.0001
 2131,-0.00046390,-0.00523190,0.00296946,-0.00084369,0.00114613,-0.0003
 1930,-0.00047430,0.00086562,-0.00047707,0.00040047,-0.00045740,-0.0010
 7142,-0.00162031,0.05973897,0.00275852,-0.00858285,-0.01208496,0.00900
 242,-0.14147850,-0.12489025,0.00093111,-0.01183257,-0.01410982,-0.0020
 8093,0.00215178,-0.00143136,0.00010770,-0.00078730,0.00026217,0.000900
 12,-0.00201936,-0.00014501,0.00260961,-0.00035702,0.00066937,-0.000616
 79,-0.00011058,-0.00015989,-0.00053357,0.00084617,0.00047430,-0.001071
 60,0.01325088,0.01526668,-0.00940909,0.14926231,-0.00015492,0.00163333
 ,0.00217353,0.01419515,-0.12628581,-0.23155686,-0.00051271,0.00265537,
 0.00206206,-0.00002419,-0.00197611,0.00030005,0.00001327,0.00039826,-0
 .00012243,0.00038029,0.00075415,0.00012162,-0.00034232,0.00042954,0.00
 124544,0.00020176,0.00015570,0.00076821,0.00039048,-0.00009172,0.00006
 361,0.00162050,-0.01526676,-0.01705687,-0.01589789,0.13695812,0.239921
 09,0.00176135,-0.00143606,0.00114694,0.00007567,-0.01454070,0.02191036
 ,-0.03732480,0.00348268,-0.01334294,-0.01572134,0.03377906,-0.02592346
 ,0.00014380,-0.00483643,0.00211119,0.00113426,-0.00839259,0.00287287,0
 .00006556,0.00003065,-0.00012271,-0.00046095,0.00049812,-0.00078598,0.
 00004151,0.00025914,-0.00021657,-0.00394664,-0.00375852,-0.00083351,0.
 00053907,0.00097742,-0.00059830,0.05122555,0.00016942,0.00114579,-0.00
 066521,-0.00289875,-0.01163600,0.01586129,0.00147935,-0.13038285,0.126
 19543,0.01881676,-0.01955999,0.01248311,-0.00502442,0.00175333,-0.0006
 3505,-0.00396468,0.00911021,-0.00158719,-0.00001892,-0.00000163,-0.000
 18119,-0.00039918,0.00032685,0.00022864,0.00046367,-0.00015447,-0.0001
 4495,-0.00302711,-0.00103656,-0.00059962,0.00079264,0.00055627,0.00008
 079,-0.00414657,0.13912610,-0.00050694,-0.00010381,0.00064320,-0.00107
 596,-0.00026133,0.00123141,-0.00823741,0.12069302,-0.21108960,0.009196
 58,-0.01034420,-0.00470779,0.00017187,0.00367754,0.00076702,-0.0050580
 6,0.00910229,-0.00027990,-0.00005721,0.00014025,-0.00016839,0.00012118
 ,0.00006956,-0.00005368,0.00012633,-0.00014596,0.00002895,-0.00052724,
 0.00053989,0.00123735,0.00057353,-0.00034156,0.00084902,0.00967868,-0.
 13643423,0.22613828,0.00176136,-0.00143609,-0.00114694,0.00007585,-0.0
 1454088,-0.02191036,-0.03732476,0.00348459,0.01334532,-0.01572215,0.03
 378009,0.02592398,0.00014417,-0.00483687,-0.00211128,0.00113449,-0.008
 39299,-0.00287332,-0.00046093,0.00049812,0.00078597,0.00006556,0.00003
 065,0.00012271,0.00004152,0.00025914,0.00021656,0.00053909,0.00097742,
 0.00059830,-0.00394666,-0.00375854,0.00083346,0.00126483,-0.00215817,-
 0.00331758,0.05122551,0.00016946,0.00114584,0.00066523,-0.00289858,-0.
 01163619,-0.01586136,0.00148097,-0.13038320,-0.12619539,0.01881703,-0.
 01956011,-0.01248373,-0.00502429,0.00175333,0.00063518,-0.00396463,0.0
 0911010,0.00158759,-0.00039918,0.00032685,-0.00022865,-0.00001892,-0.0
 0000164,0.00018119,0.00046368,-0.00015448,0.00014496,0.00079264,0.0005
 5629,-0.00008077,-0.00302712,-0.00103656,0.00059960,-0.00215836,0.0111
 3557,0.01393311,-0.00414868,0.13912682,0.00050698,0.00010376,0.0006431
 7,0.00107601,0.00026123,0.00123117,0.00823917,-0.12069269,-0.21108829,
 -0.00919705,0.01034492,-0.00470717,-0.00017152,-0.00367787,0.00076692,
 0.00505848,-0.00910292,-0.00028044,-0.00012118,-0.00006955,-0.00005366
 ,0.00005722,-0.00014024,-0.00016838,-0.00012634,0.00014597,0.00002896,
 -0.00057354,0.00034156,0.00084903,0.00052719,-0.00053997,0.00123736,0.
 00331785,-0.01393330,-0.01497714,-0.00968113,0.13643452,0.22613730,-0.
 00027779,0.00049813,0.,0.00042354,0.00114793,0.00000005,-0.00525971,-0
 .00559170,0.,-0.02568568,-0.00170050,0.00000028,-0.37326187,0.13443301
 ,0.00000704,-0.00155353,0.00994242,0.00000013,-0.00009470,-0.00004435,
 -0.00000028,-0.00009469,-0.00004435,0.00000028,0.00009754,-0.00004168,
 0.,0.00002187,0.00018359,0.00010458,0.00002188,0.00018360,-0.00010458,
 0.00120212,-0.00008405,-0.00108777,0.00120211,-0.00008402,0.00108785,0
 .40325893,-0.00015459,0.00013007,0.,-0.00023262,0.00088107,0.,-0.00502
 937,-0.00156586,-0.00000009,-0.03412804,0.00419787,0.00000070,0.179817
 57,-0.11180551,-0.00000311,-0.00199230,0.00466250,0.00000009,-0.000032
 50,-0.00000467,-0.00001457,-0.00003250,-0.00000467,0.00001457,-0.00001
 807,-0.00003351,0.,0.00005804,0.00013732,0.00004447,0.00005804,0.00013
 732,-0.00004447,0.00024216,-0.00038262,-0.00052455,0.00024220,-0.00038
 262,0.00052458,-0.13879803,0.10403332,0.00000001,0.00000001,-0.0000039
 2,0.,-0.00000006,0.00115036,-0.00000014,0.00000027,0.00476133,0.000001
 23,-0.00000013,0.00235042,0.00000661,-0.00000240,-0.01792557,-0.000000
 04,-0.00000005,-0.00545122,0.00003306,-0.00002888,-0.00001773,-0.00003
 305,0.00002888,-0.00001773,0.,0.,-0.00004999,-0.00010400,-0.00007217,-
 0.00000585,0.00010399,0.00007217,-0.00000584,0.00078557,-0.00066852,0.
 00038127,-0.00078568,0.00066851,0.00038118,-0.00000758,0.00000238,0.01
 445329\\-0.00001076,-0.00000039,0.00000001,0.00002195,0.00001120,0.000
 00023,-0.00001505,-0.00001039,0.00000184,0.00001777,-0.00001139,-0.000
 00678,-0.00000062,0.00000868,0.00000210,-0.00000660,-0.00000198,0.0000
 0217,0.00000151,0.00000104,0.00000033,0.00000150,0.00000104,-0.0000003
 4,0.00000110,0.00000069,-0.00000001,-0.00000227,-0.00000155,-0.0000006
 4,-0.00000222,-0.00000149,0.00000063,0.,0.00000372,0.00000321,-0.00000
 085,0.00000419,-0.00000295,-0.00000547,-0.00000337,0.00000019\\\@


 HIGGLEDY-PIGGLEDY
 NIC'LAUS COPERNICUS
 LOOKED AT THE UNIVERSE,
 SPOKE TO THE THRONG;
 GIVE UP YOUR PTOLOMY,
 RISE UP AND FOLLOW ME,
 HELIOCENTRICALLY
 PTOLEMY'S WRONG.
   -- NANCY L. STARK
 Job cpu time:       0 days  0 hours  4 minutes  8.4 seconds.
 Elapsed time:       0 days  0 hours  1 minutes  2.9 seconds.
 File lengths (MBytes):  RWF=     39 Int=      0 D2E=      0 Chk=      2 Scr=      1
 Normal termination of Gaussian 16 at Mon Jul 10 19:24:52 2023.
real 373.71
user 1419.01
sys 9.27
