 Entering Gaussian System, Link 0=g16
 Input=gaussian_test.inp
 Output=gaussian_test.log
 Initial command:
 /sw/restricted/lms/sw/Gaussian/g16_B01/g16/l1.exe "/scratch/user/peterchao1/peterchao1/7003925_1675700528000000843396589/Gau-180466.inp" -scrdir="/scratch/user/peterchao1/peterchao1/7003925_1675700528000000843396589/"
 Entering Link 1 = /sw/restricted/lms/sw/Gaussian/g16_B01/g16/l1.exe PID=    180467.
  
 Copyright (c) 1988-2017, Gaussian, Inc.  All Rights Reserved.
  
 This is part of the Gaussian(R) 16 program.  It is based on
 the Gaussian(R) 09 system (copyright 2009, Gaussian, Inc.),
 the Gaussian(R) 03 system (copyright 2003, Gaussian, Inc.),
 the Gaussian(R) 98 system (copyright 1998, Gaussian, Inc.),
 the Gaussian(R) 94 system (copyright 1995, Gaussian, Inc.),
 the Gaussian 92(TM) system (copyright 1992, Gaussian, Inc.),
 the Gaussian 90(TM) system (copyright 1990, Gaussian, Inc.),
 the Gaussian 88(TM) system (copyright 1988, Gaussian, Inc.),
 the Gaussian 86(TM) system (copyright 1986, Carnegie Mellon
 University), and the Gaussian 82(TM) system (copyright 1983,
 Carnegie Mellon University). Gaussian is a federally registered
 trademark of Gaussian, Inc.
  
 This software contains proprietary and confidential information,
 including trade secrets, belonging to Gaussian, Inc.
  
 This software is provided under written license and may be
 used, copied, transmitted, or stored only in accord with that
 written license.
  
 The following legend is applicable only to US Government
 contracts under FAR:
  
                    RESTRICTED RIGHTS LEGEND
  
 Use, reproduction and disclosure by the US Government is
 subject to restrictions as set forth in subparagraphs (a)
 and (c) of the Commercial Computer Software - Restricted
 Rights clause in FAR 52.227-19.
  
 Gaussian, Inc.
 340 Quinnipiac St., Bldg. 40, Wallingford CT 06492
  
  
 ---------------------------------------------------------------
 Warning -- This program may not be used in any manner that
 competes with the business of Gaussian, Inc. or will provide
 assistance to any competitor of Gaussian, Inc.  The licensee
 of this program is prohibited from giving any competitor of
 Gaussian, Inc. access to this program.  By using this program,
 the user acknowledges that Gaussian, Inc. is engaged in the
 business of creating and licensing software in the field of
 computational chemistry and represents and warrants to the
 licensee that it is not a competitor of Gaussian, Inc. and that
 it will not use this program in any manner prohibited above.
 ---------------------------------------------------------------
  

 Cite this work as:
 Gaussian 16, Revision B.01,
 M. J. Frisch, G. W. Trucks, H. B. Schlegel, G. E. Scuseria, 
 M. A. Robb, J. R. Cheeseman, G. Scalmani, V. Barone, 
 G. A. Petersson, H. Nakatsuji, X. Li, M. Caricato, A. V. Marenich, 
 J. Bloino, B. G. Janesko, R. Gomperts, B. Mennucci, H. P. Hratchian, 
 J. V. Ortiz, A. F. Izmaylov, J. L. Sonnenberg, D. Williams-Young, 
 F. Ding, F. Lipparini, F. Egidi, J. Goings, B. Peng, A. Petrone, 
 T. Henderson, D. Ranasinghe, V. G. Zakrzewski, J. Gao, N. Rega, 
 G. Zheng, W. Liang, M. Hada, M. Ehara, K. Toyota, R. Fukuda, 
 J. Hasegawa, M. Ishida, T. Nakajima, Y. Honda, O. Kitao, H. Nakai, 
 T. Vreven, K. Throssell, J. A. Montgomery, Jr., J. E. Peralta, 
 F. Ogliaro, M. J. Bearpark, J. J. Heyd, E. N. Brothers, K. N. Kudin, 
 V. N. Staroverov, T. A. Keith, R. Kobayashi, J. Normand, 
 K. Raghavachari, A. P. Rendell, J. C. Burant, S. S. Iyengar, 
 J. Tomasi, M. Cossi, J. M. Millam, M. Klene, C. Adamo, R. Cammi, 
 J. W. Ochterski, R. L. Martin, K. Morokuma, O. Farkas, 
 J. B. Foresman, and D. J. Fox, Gaussian, Inc., Wallingford CT, 2016.
 
 ******************************************
 Gaussian 16:  ES64L-G16RevB.01 20-Dec-2017
                 6-Feb-2023 
 ******************************************
 %nprocshared=4
 Will use up to    4 processors via shared memory.
 %mem=8000mb
 %chk=7.chk
 %nprocshared=4
 Will use up to    4 processors via shared memory.
 %mem=8000mb
 ----------------------------------------------------------------------
 #T wB97XD/def2svpp opt=tight freq int(grid=ultrafine) scf=(verytight,q
 c) Volume=tight
 ----------------------------------------------------------------------
 -------
 Monomer
 -------
 Symbolic Z-matrix:
 Charge =  0 Multiplicity = 1
 C                    -2.55196  -0.32247   0. 
 C                    -1.2796    0.52097   0. 
 C                     0.       -0.31501   0. 
 C                     1.2796    0.52097   0. 
 C                     2.55196  -0.32247   0. 
 H                    -2.59757  -0.97395   0.89105 
 H                    -2.59757  -0.97395  -0.89106 
 H                    -3.45601   0.31045   0. 
 H                    -1.27797   1.18678   0.88349 
 H                    -1.27797   1.18678  -0.88349 
 H                     0.       -0.98204  -0.88423 
 H                     0.       -0.98204   0.88424 
 H                     1.27797   1.18678   0.88349 
 H                     1.27797   1.18678  -0.88349 
 H                     2.59757  -0.97395  -0.89106 
 H                     2.59757  -0.97395   0.89106 
 H                     3.45601   0.31045  0. 
 

 GradGradGradGradGradGradGradGradGradGradGradGradGradGradGradGradGradGrad
 Initialization pass.
                           ----------------------------
                           !    Initial Parameters    !
                           ! (Angstroms and Degrees)  !
 --------------------------                            --------------------------
 ! Name  Definition              Value          Derivative Info.                !
 --------------------------------------------------------------------------------
 ! R1    R(1,2)                  1.5265         estimate D2E/DX2                !
 ! R2    R(1,6)                  1.1048         estimate D2E/DX2                !
 ! R3    R(1,7)                  1.1048         estimate D2E/DX2                !
 ! R4    R(1,8)                  1.1036         estimate D2E/DX2                !
 ! R5    R(2,3)                  1.5285         estimate D2E/DX2                !
 ! R6    R(2,9)                  1.1063         estimate D2E/DX2                !
 ! R7    R(2,10)                 1.1063         estimate D2E/DX2                !
 ! R8    R(3,4)                  1.5285         estimate D2E/DX2                !
 ! R9    R(3,11)                 1.1076         estimate D2E/DX2                !
 ! R10   R(3,12)                 1.1076         estimate D2E/DX2                !
 ! R11   R(4,5)                  1.5265         estimate D2E/DX2                !
 ! R12   R(4,13)                 1.1063         estimate D2E/DX2                !
 ! R13   R(4,14)                 1.1063         estimate D2E/DX2                !
 ! R14   R(5,15)                 1.1048         estimate D2E/DX2                !
 ! R15   R(5,16)                 1.1048         estimate D2E/DX2                !
 ! R16   R(5,17)                 1.1036         estimate D2E/DX2                !
 ! A1    A(2,1,6)              111.1147         estimate D2E/DX2                !
 ! A2    A(2,1,7)              111.1148         estimate D2E/DX2                !
 ! A3    A(2,1,8)              111.4641         estimate D2E/DX2                !
 ! A4    A(6,1,7)              107.523          estimate D2E/DX2                !
 ! A5    A(6,1,8)              107.721          estimate D2E/DX2                !
 ! A6    A(7,1,8)              107.7209         estimate D2E/DX2                !
 ! A7    A(1,2,3)              113.3028         estimate D2E/DX2                !
 ! A8    A(1,2,9)              109.4976         estimate D2E/DX2                !
 ! A9    A(1,2,10)             109.4975         estimate D2E/DX2                !
 ! A10   A(3,2,9)              109.1436         estimate D2E/DX2                !
 ! A11   A(3,2,10)             109.1436         estimate D2E/DX2                !
 ! A12   A(9,2,10)             105.9947         estimate D2E/DX2                !
 ! A13   A(2,3,4)              113.686          estimate D2E/DX2                !
 ! A14   A(2,3,11)             109.231          estimate D2E/DX2                !
 ! A15   A(2,3,12)             109.231          estimate D2E/DX2                !
 ! A16   A(4,3,11)             109.231          estimate D2E/DX2                !
 ! A17   A(4,3,12)             109.231          estimate D2E/DX2                !
 ! A18   A(11,3,12)            105.9414         estimate D2E/DX2                !
 ! A19   A(3,4,5)              113.3028         estimate D2E/DX2                !
 ! A20   A(3,4,13)             109.1436         estimate D2E/DX2                !
 ! A21   A(3,4,14)             109.1436         estimate D2E/DX2                !
 ! A22   A(5,4,13)             109.4975         estimate D2E/DX2                !
 ! A23   A(5,4,14)             109.4976         estimate D2E/DX2                !
 ! A24   A(13,4,14)            105.9947         estimate D2E/DX2                !
 ! A25   A(4,5,15)             111.1147         estimate D2E/DX2                !
 ! A26   A(4,5,16)             111.1148         estimate D2E/DX2                !
 ! A27   A(4,5,17)             111.4641         estimate D2E/DX2                !
 ! A28   A(15,5,16)            107.5231         estimate D2E/DX2                !
 ! A29   A(15,5,17)            107.7209         estimate D2E/DX2                !
 ! A30   A(16,5,17)            107.721          estimate D2E/DX2                !
 ! D1    D(6,1,2,3)             59.8384         estimate D2E/DX2                !
 ! D2    D(6,1,2,9)            -62.2545         estimate D2E/DX2                !
 ! D3    D(6,1,2,10)          -178.0689         estimate D2E/DX2                !
 ! D4    D(7,1,2,3)            -59.8387         estimate D2E/DX2                !
 ! D5    D(7,1,2,9)            178.0684         estimate D2E/DX2                !
 ! D6    D(7,1,2,10)            62.254          estimate D2E/DX2                !
 ! D7    D(8,1,2,3)            179.9998         estimate D2E/DX2                !
 ! D8    D(8,1,2,9)             57.907          estimate D2E/DX2                !
 ! D9    D(8,1,2,10)           -57.9074         estimate D2E/DX2                !
 ! D10   D(1,2,3,4)            180.0            estimate D2E/DX2                !
 ! D11   D(1,2,3,11)            57.7264         estimate D2E/DX2                !
 ! D12   D(1,2,3,12)           -57.7265         estimate D2E/DX2                !
 ! D13   D(9,2,3,4)            -57.71           estimate D2E/DX2                !
 ! D14   D(9,2,3,11)          -179.9836         estimate D2E/DX2                !
 ! D15   D(9,2,3,12)            64.5635         estimate D2E/DX2                !
 ! D16   D(10,2,3,4)            57.7102         estimate D2E/DX2                !
 ! D17   D(10,2,3,11)          -64.5635         estimate D2E/DX2                !
 ! D18   D(10,2,3,12)          179.9837         estimate D2E/DX2                !
 ! D19   D(2,3,4,5)            180.0            estimate D2E/DX2                !
 ! D20   D(2,3,4,13)            57.7101         estimate D2E/DX2                !
 ! D21   D(2,3,4,14)           -57.71           estimate D2E/DX2                !
 ! D22   D(11,3,4,5)           -57.7264         estimate D2E/DX2                !
 ! D23   D(11,3,4,13)          179.9837         estimate D2E/DX2                !
 ! D24   D(11,3,4,14)           64.5636         estimate D2E/DX2                !
 ! D25   D(12,3,4,5)            57.7265         estimate D2E/DX2                !
 ! D26   D(12,3,4,13)          -64.5634         estimate D2E/DX2                !
 ! D27   D(12,3,4,14)         -179.9835         estimate D2E/DX2                !
 ! D28   D(3,4,5,15)            59.8385         estimate D2E/DX2                !
 ! D29   D(3,4,5,16)           -59.8386         estimate D2E/DX2                !
 ! D30   D(3,4,5,17)           179.9999         estimate D2E/DX2                !
 ! D31   D(13,4,5,15)         -178.0688         estimate D2E/DX2                !
 ! D32   D(13,4,5,16)           62.2541         estimate D2E/DX2                !
 ! D33   D(13,4,5,17)          -57.9074         estimate D2E/DX2                !
 ! D34   D(14,4,5,15)          -62.2543         estimate D2E/DX2                !
 ! D35   D(14,4,5,16)          178.0686         estimate D2E/DX2                !
 ! D36   D(14,4,5,17)           57.9071         estimate D2E/DX2                !
 --------------------------------------------------------------------------------
 Number of steps in this run=     92 maximum allowed number of steps=    102.
 GradGradGradGradGradGradGradGradGradGradGradGradGradGradGradGradGradGrad

                    Distance matrix (angstroms):
                    1          2          3          4          5
     1  C    0.000000
     2  C    1.526524   0.000000
     3  C    2.551968   1.528475   0.000000
     4  C    3.923292   2.559202   1.528475   0.000000
     5  C    5.103914   3.923292   2.551968   1.526524   0.000000
     6  H    1.104754   2.183069   2.824099   4.249846   5.266499
     7  H    1.104754   2.183070   2.824103   4.249849   5.266503
     8  H    1.103585   2.186564   3.512150   4.740286   6.041211
     9  H    2.163665   1.106283   2.160818   2.786577   4.210310
    10  H    2.163665   1.106283   2.160817   2.786578   4.210310
    11  H    2.780177   2.162931   1.107607   2.162931   2.780177
    12  H    2.780177   2.162931   1.107608   2.162931   2.780177
    13  H    4.210310   2.786577   2.160817   1.106283   2.163664
    14  H    4.210309   2.786576   2.160817   1.106282   2.163665
    15  H    5.266500   4.249847   2.824101   2.183070   1.104755
    16  H    5.266502   4.249848   2.824102   2.183069   1.104754
    17  H    6.041211   4.740286   3.512150   2.186564   1.103585
                    6          7          8          9         10
     6  H    0.000000
     7  H    1.782109   0.000000
     8  H    1.783418   1.783418   0.000000
     9  H    2.531833   3.091781   2.508458   0.000000
    10  H    3.091780   2.531830   2.508460   1.766972   0.000000
    11  H    3.146278   2.597594   3.794259   3.076007   2.517337
    12  H    2.597590   3.146284   3.794257   2.517338   3.076007
    13  H    4.437183   4.778865   4.894795   2.555934   3.107248
    14  H    4.778862   4.437184   4.894795   3.107246   2.555933
    15  H    5.492300   5.195141   6.252157   4.778864   4.437184
    16  H    5.195139   5.492306   6.252158   4.437185   4.778865
    17  H    6.252156   6.252159   6.912016   4.894796   4.894795
                   11         12         13         14         15
    11  H    0.000000
    12  H    1.768468   0.000000
    13  H    3.076006   2.517336   0.000000
    14  H    2.517337   3.076006   1.766971   0.000000
    15  H    2.597591   3.146281   3.091781   2.531833   0.000000
    16  H    3.146282   2.597593   2.531831   3.091781   1.782110
    17  H    3.794257   3.794258   2.508459   2.508459   1.783418
                   16         17
    16  H    0.000000
    17  H    1.783418   0.000000
 Framework group  C1[X(C5H12)]
 Deg. of freedom    45
                         Standard orientation:                         
 ---------------------------------------------------------------------
 Center     Atomic      Atomic             Coordinates (Angstroms)
 Number     Number       Type             X           Y           Z
 ---------------------------------------------------------------------
      1          6           0       -2.551957    0.322472   -0.000000
      2          6           0       -1.279601   -0.520965   -0.000000
      3          6           0        0.000000    0.315012   -0.000000
      4          6           0        1.279601   -0.520965   -0.000000
      5          6           0        2.551957    0.322472   -0.000000
      6          1           0       -2.597568    0.973952   -0.891053
      7          1           0       -2.597572    0.973948    0.891056
      8          1           0       -3.456008   -0.310451   -0.000003
      9          1           0       -1.277967   -1.186783   -0.883485
     10          1           0       -1.277967   -1.186781    0.883487
     11          1           0        0.000000    0.982040    0.884233
     12          1           0        0.000000    0.982039   -0.884235
     13          1           0        1.277967   -1.186781   -0.883486
     14          1           0        1.277966   -1.186782    0.883485
     15          1           0        2.597569    0.973951    0.891055
     16          1           0        2.597571    0.973949   -0.891055
     17          1           0        3.456008   -0.310451    0.000002
 ---------------------------------------------------------------------
 Rotational constants (GHZ):          16.9816322           1.9335061           1.8357847
    94 basis functions,   173 primitive gaussians,    99 cartesian basis functions
    21 alpha electrons       21 beta electrons
       nuclear repulsion energy       184.2831071138 Hartrees.
 NAtoms=   17 NActive=   17 NUniq=   17 SFac= 1.00D+00 NAtFMM=   60 NAOKFM=F Big=F
 Nuclear repulsion after empirical dispersion term =      184.2744571818 Hartrees.
   1 Symmetry operations used in ECPInt.
 ECPInt:  NShTT=    1485 NPrTT=    5987 LenC2=    1481 LenP2D=    4970.
 LDataN:  DoStor=T MaxTD1= 4 Len=   56
 ExpMin= 1.22D-01 ExpMax= 1.24D+03 ExpMxC= 1.86D+02 IAcc=3 IRadAn=         5 AccDes= 0.00D+00
 Harris functional with IExCor= 4639 and IRadAn=       5 diagonalized for initial guess.
 HarFok:  IExCor= 4639 AccDes= 0.00D+00 IRadAn=         5 IDoV= 1 UseB2=F ITyADJ=14
 ICtDFT=  3500011 ScaDFX=  1.000000  1.000000  1.000000  1.000000
 FoFCou: FMM=F IPFlag=           0 FMFlag=      100000 FMFlg1=           0
         NFxFlg=           0 DoJE=T BraDBF=F KetDBF=T FulRan=T
         wScrn=  0.000000 ICntrl=       500 IOpCl=  0 I1Cent=   200000004 NGrid=           0
         NMat0=    1 NMatS0=      1 NMatT0=    0 NMatD0=    1 NMtDS0=    0 NMtDT0=    0
 Petite list used in FoFCou.
     Accept linear search using points  2 and  3.
     Minimum is close to point  2 DX=  7.44D-04 DF= -2.38D-11 DXR=  7.43D-04 DFR=  5.52D-07 which will be used.
 SCF Done:  E(RwB97XD) =  -197.545088829     a.u. after    6 cycles
            Convg  =    0.1297D-08                    29 Fock formations.
              S**2 =  0.0000                  -V/T =  2.0121

 **********************************************************************

            Population analysis using the SCF Density.

 **********************************************************************

 Orbital symmetries:
       Occupied  (A) (A) (A) (A) (A) (A) (A) (A) (A) (A) (A) (A)
                 (A) (A) (A) (A) (A) (A) (A) (A) (A)
       Virtual   (A) (A) (A) (A) (A) (A) (A) (A) (A) (A) (A) (A)
                 (A) (A) (A) (A) (A) (A) (A) (A) (A) (A) (A) (A)
                 (A) (A) (A) (A) (A) (A) (A) (A) (A) (A) (A) (A)
                 (A) (A) (A) (A) (A) (A) (A) (A) (A) (A) (A) (A)
                 (A) (A) (A) (A) (A) (A) (A) (A) (A) (A) (A) (A)
                 (A) (A) (A) (A) (A) (A) (A) (A) (A) (A) (A) (A)
                 (A)
 The electronic state is 1-A.
 Alpha  occ. eigenvalues --  -10.28511 -10.28510 -10.28323 -10.27856 -10.27855
 Alpha  occ. eigenvalues --   -0.89298  -0.84037  -0.76264  -0.68269  -0.65996
 Alpha  occ. eigenvalues --   -0.56249  -0.52405  -0.51644  -0.48972  -0.47666
 Alpha  occ. eigenvalues --   -0.45853  -0.43456  -0.41399  -0.40599  -0.39876
 Alpha  occ. eigenvalues --   -0.39728
 Alpha virt. eigenvalues --    0.13932   0.15574   0.16911   0.17354   0.19808
 Alpha virt. eigenvalues --    0.21820   0.21988   0.23502   0.24043   0.24565
 Alpha virt. eigenvalues --    0.25141   0.26324   0.29441   0.31350   0.33281
 Alpha virt. eigenvalues --    0.34630   0.50534   0.50943   0.51100   0.51347
 Alpha virt. eigenvalues --    0.52797   0.56123   0.59486   0.64335   0.69951
 Alpha virt. eigenvalues --    0.72804   0.74620   0.74978   0.75740   0.77400
 Alpha virt. eigenvalues --    0.78562   0.79477   0.80586   0.80586   0.80600
 Alpha virt. eigenvalues --    0.81445   0.81631   0.82293   0.83814   0.83815
 Alpha virt. eigenvalues --    0.83839   0.85092   0.95263   1.05129   1.12022
 Alpha virt. eigenvalues --    1.13452   1.14858   1.19625   1.48222   1.56908
 Alpha virt. eigenvalues --    1.62438   1.79772   1.81410   1.94526   1.96192
 Alpha virt. eigenvalues --    1.96801   2.02384   2.02827   2.03984   2.05685
 Alpha virt. eigenvalues --    2.13016   2.21027   2.22046   2.28393   2.31412
 Alpha virt. eigenvalues --    2.34439   2.40428   2.43196   2.47840   2.60560
 Alpha virt. eigenvalues --    2.62093   2.80408   2.84390
          Condensed to atoms (all electrons):
 Mulliken charges:
               1
     1  C   -0.310551
     2  C   -0.215066
     3  C   -0.233304
     4  C   -0.215065
     5  C   -0.310552
     6  H    0.112686
     7  H    0.112686
     8  H    0.119697
     9  H    0.100572
    10  H    0.100572
    11  H    0.096055
    12  H    0.096055
    13  H    0.100572
    14  H    0.100572
    15  H    0.112686
    16  H    0.112686
    17  H    0.119697
 Sum of Mulliken charges =   0.00000
 Mulliken charges with hydrogens summed into heavy atoms:
               1
     1  C    0.034518
     2  C   -0.013921
     3  C   -0.041194
     4  C   -0.013921
     5  C    0.034518
 Electronic spatial extent (au):  <R**2>=            720.2365
 Charge=              0.0000 electrons
 Dipole moment (field-independent basis, Debye):
    X=             -0.0000    Y=             -0.0557    Z=              0.0000  Tot=              0.0557
 Evaluate density.
 Using the total density.
 Monte-Carlo method of calculating molar volume:
 based on  0.001 e/bohr**3 density envelope.
 Number of points per bohr**3 =  100 CutOff= 1.00D-04
 Using the SCF density.
 There are      1628 points.  Will hold      1628 in memory.
 LenV=  1048398901 MDV=  1048576000.
 Box volume = 4317.023 fraction occupied=0.213
 Integrated density= 3.4532315549031956D+01 error=-7.4676844509680436D+00
 Molar volume =  917.500 bohr**3/mol ( 81.877 cm**3/mol)
 Recommended a0 for SCRF calculation =  4.01 angstrom (  7.58 bohr)
   1 Symmetry operations used in ECPInt.
 ECPInt:  NShTT=    1485 NPrTT=    5987 LenC2=    1481 LenP2D=    4970.
 LDataN:  DoStor=T MaxTD1= 5 Len=  102
 Calling FoFJK, ICntrl=      2127 FMM=F ISym2X=0 I1Cent= 0 IOpClX= 0 NMat=1 NMatS=1 NMatT=0.

 GradGradGradGradGradGradGradGradGradGradGradGradGradGradGradGradGradGrad
 FormGI is forming the generalized inverse of G from B-inverse, IUseBI=4.
 Internal  Forces:  Max     0.000001211 RMS     0.000000290
 Step number   1 out of a maximum of   92
 All quantities printed in internal units (Hartrees-Bohrs-Radians)
 Mixed Optimization -- En-DIIS/RFO-DIIS
 Second derivative matrix not updated -- first step.
 ITU=  0
     Eigenvalues ---    0.00389   0.00389   0.00415   0.00415   0.03436
     Eigenvalues ---    0.03481   0.03481   0.04816   0.04833   0.04833
     Eigenvalues ---    0.05489   0.05489   0.05539   0.05539   0.08482
     Eigenvalues ---    0.08482   0.08540   0.12307   0.12307   0.12350
     Eigenvalues ---    0.16000   0.16000   0.16000   0.16000   0.16000
     Eigenvalues ---    0.16000   0.21900   0.21900   0.21907   0.29565
     Eigenvalues ---    0.29565   0.29747   0.29747   0.32855   0.32855
     Eigenvalues ---    0.32997   0.32997   0.32997   0.32997   0.33162
     Eigenvalues ---    0.33162   0.33162   0.33162   0.33289   0.33289
 Linear search not attempted -- first point.
 Iteration  1 RMS(Cart)=  0.00000715 RMS(Int)=  0.00000000
 Iteration  2 RMS(Cart)=  0.00000000 RMS(Int)=  0.00000000
 Variable       Old X    -DE/DX   Delta X   Delta X   Delta X     New X
                                 (Linear)    (Quad)   (Total)
    R1        2.88471   0.00000   0.00000   0.00000   0.00000   2.88471
    R2        2.08768   0.00000   0.00000   0.00000   0.00000   2.08768
    R3        2.08768   0.00000   0.00000   0.00000   0.00000   2.08768
    R4        2.08547   0.00000   0.00000   0.00000   0.00000   2.08547
    R5        2.88840  -0.00000   0.00000  -0.00000  -0.00000   2.88840
    R6        2.09057  -0.00000   0.00000  -0.00000  -0.00000   2.09057
    R7        2.09057  -0.00000   0.00000  -0.00000  -0.00000   2.09057
    R8        2.88840  -0.00000   0.00000  -0.00000  -0.00000   2.88840
    R9        2.09307   0.00000   0.00000   0.00000   0.00000   2.09307
   R10        2.09308  -0.00000   0.00000  -0.00000  -0.00000   2.09308
   R11        2.88471   0.00000   0.00000   0.00000   0.00000   2.88471
   R12        2.09057   0.00000   0.00000   0.00000   0.00000   2.09057
   R13        2.09057   0.00000   0.00000   0.00000   0.00000   2.09057
   R14        2.08769  -0.00000   0.00000  -0.00000  -0.00000   2.08768
   R15        2.08768   0.00000   0.00000   0.00000   0.00000   2.08768
   R16        2.08547   0.00000   0.00000   0.00000   0.00000   2.08547
    A1        1.93932   0.00000   0.00000   0.00000   0.00000   1.93932
    A2        1.93932   0.00000   0.00000   0.00000   0.00000   1.93932
    A3        1.94542  -0.00000   0.00000  -0.00000  -0.00000   1.94541
    A4        1.87663  -0.00000   0.00000  -0.00000  -0.00000   1.87663
    A5        1.88009   0.00000   0.00000   0.00000   0.00000   1.88009
    A6        1.88008   0.00000   0.00000   0.00000   0.00000   1.88009
    A7        1.97751   0.00000   0.00000   0.00000   0.00000   1.97751
    A8        1.91109  -0.00000   0.00000   0.00000   0.00000   1.91109
    A9        1.91109   0.00000   0.00000   0.00000   0.00000   1.91109
   A10        1.90492  -0.00000   0.00000  -0.00000  -0.00000   1.90491
   A11        1.90491  -0.00000   0.00000  -0.00000  -0.00000   1.90491
   A12        1.84996   0.00000   0.00000   0.00000   0.00000   1.84996
   A13        1.98419  -0.00000   0.00000  -0.00001  -0.00001   1.98419
   A14        1.90644   0.00000   0.00000   0.00000   0.00000   1.90644
   A15        1.90644   0.00000   0.00000   0.00000   0.00000   1.90644
   A16        1.90644   0.00000   0.00000   0.00000   0.00000   1.90644
   A17        1.90644   0.00000   0.00000   0.00000   0.00000   1.90644
   A18        1.84903   0.00000   0.00000   0.00001   0.00001   1.84903
   A19        1.97751   0.00000   0.00000   0.00000   0.00000   1.97751
   A20        1.90491  -0.00000   0.00000  -0.00000  -0.00000   1.90491
   A21        1.90491  -0.00000   0.00000  -0.00000  -0.00000   1.90491
   A22        1.91109   0.00000   0.00000   0.00000   0.00000   1.91109
   A23        1.91109  -0.00000   0.00000   0.00000   0.00000   1.91109
   A24        1.84996   0.00000   0.00000   0.00000   0.00000   1.84996
   A25        1.93932   0.00000   0.00000   0.00000   0.00000   1.93932
   A26        1.93932   0.00000   0.00000   0.00000   0.00000   1.93932
   A27        1.94542  -0.00000   0.00000  -0.00000  -0.00000   1.94541
   A28        1.87663  -0.00000   0.00000  -0.00000  -0.00000   1.87663
   A29        1.88008   0.00000   0.00000   0.00000   0.00000   1.88009
   A30        1.88009   0.00000   0.00000   0.00000   0.00000   1.88009
    D1        1.04438  -0.00000   0.00000   0.00000   0.00000   1.04438
    D2       -1.08655   0.00000   0.00000   0.00001   0.00001  -1.08654
    D3       -3.10789  -0.00000   0.00000   0.00000   0.00000  -3.10789
    D4       -1.04438  -0.00000   0.00000   0.00000   0.00000  -1.04438
    D5        3.10788   0.00000   0.00000   0.00001   0.00001   3.10789
    D6        1.08654  -0.00000   0.00000   0.00000   0.00000   1.08654
    D7        3.14159  -0.00000   0.00000   0.00000   0.00000   3.14159
    D8        1.01067   0.00000   0.00000   0.00001   0.00001   1.01067
    D9       -1.01068  -0.00000   0.00000   0.00000   0.00000  -1.01068
   D10        3.14159   0.00000   0.00000  -0.00000  -0.00000   3.14159
   D11        1.00752   0.00000   0.00000   0.00000   0.00000   1.00752
   D12       -1.00752  -0.00000   0.00000  -0.00000  -0.00000  -1.00752
   D13       -1.00723   0.00000   0.00000  -0.00000  -0.00000  -1.00723
   D14       -3.14131   0.00000   0.00000   0.00000   0.00000  -3.14130
   D15        1.12685  -0.00000   0.00000  -0.00000  -0.00000   1.12684
   D16        1.00723  -0.00000   0.00000  -0.00000  -0.00000   1.00723
   D17       -1.12684   0.00000   0.00000   0.00000   0.00000  -1.12684
   D18        3.14131  -0.00000   0.00000  -0.00000  -0.00000   3.14130
   D19        3.14159   0.00000   0.00000   0.00000   0.00000  -3.14159
   D20        1.00723  -0.00000   0.00000  -0.00000  -0.00000   1.00723
   D21       -1.00723   0.00000   0.00000  -0.00000  -0.00000  -1.00723
   D22       -1.00752  -0.00000   0.00000  -0.00000  -0.00000  -1.00752
   D23        3.14131  -0.00000   0.00000  -0.00001  -0.00001   3.14130
   D24        1.12685  -0.00000   0.00000  -0.00000  -0.00000   1.12684
   D25        1.00752   0.00000   0.00000   0.00000   0.00000   1.00752
   D26       -1.12684   0.00000   0.00000   0.00000   0.00000  -1.12684
   D27       -3.14131   0.00000   0.00000   0.00000   0.00000  -3.14130
   D28        1.04438  -0.00000   0.00000   0.00000   0.00000   1.04438
   D29       -1.04438   0.00000   0.00000   0.00000   0.00000  -1.04438
   D30        3.14159   0.00000   0.00000   0.00000   0.00000   3.14159
   D31       -3.10789  -0.00000   0.00000  -0.00000  -0.00000  -3.10789
   D32        1.08654  -0.00000   0.00000  -0.00000  -0.00000   1.08654
   D33       -1.01067  -0.00000   0.00000  -0.00000  -0.00000  -1.01067
   D34       -1.08654   0.00000   0.00000   0.00000   0.00000  -1.08654
   D35        3.10788   0.00000   0.00000   0.00000   0.00000   3.10789
   D36        1.01067   0.00000   0.00000   0.00000   0.00000   1.01067
         Item               Value     Threshold  Converged?
 Maximum Force            0.000001     0.000015     YES
 RMS     Force            0.000000     0.000010     YES
 Maximum Displacement     0.000021     0.000060     YES
 RMS     Displacement     0.000007     0.000040     YES
 Optimization completed.
    -- Stationary point found.
                           ----------------------------
                           !   Optimized Parameters   !
                           ! (Angstroms and Degrees)  !
 --------------------------                            --------------------------
 ! Name  Definition              Value          Derivative Info.                !
 --------------------------------------------------------------------------------
 ! R1    R(1,2)                  1.5265         -DE/DX =    0.0                 !
 ! R2    R(1,6)                  1.1048         -DE/DX =    0.0                 !
 ! R3    R(1,7)                  1.1048         -DE/DX =    0.0                 !
 ! R4    R(1,8)                  1.1036         -DE/DX =    0.0                 !
 ! R5    R(2,3)                  1.5285         -DE/DX =    0.0                 !
 ! R6    R(2,9)                  1.1063         -DE/DX =    0.0                 !
 ! R7    R(2,10)                 1.1063         -DE/DX =    0.0                 !
 ! R8    R(3,4)                  1.5285         -DE/DX =    0.0                 !
 ! R9    R(3,11)                 1.1076         -DE/DX =    0.0                 !
 ! R10   R(3,12)                 1.1076         -DE/DX =    0.0                 !
 ! R11   R(4,5)                  1.5265         -DE/DX =    0.0                 !
 ! R12   R(4,13)                 1.1063         -DE/DX =    0.0                 !
 ! R13   R(4,14)                 1.1063         -DE/DX =    0.0                 !
 ! R14   R(5,15)                 1.1048         -DE/DX =    0.0                 !
 ! R15   R(5,16)                 1.1048         -DE/DX =    0.0                 !
 ! R16   R(5,17)                 1.1036         -DE/DX =    0.0                 !
 ! A1    A(2,1,6)              111.1147         -DE/DX =    0.0                 !
 ! A2    A(2,1,7)              111.1148         -DE/DX =    0.0                 !
 ! A3    A(2,1,8)              111.4641         -DE/DX =    0.0                 !
 ! A4    A(6,1,7)              107.523          -DE/DX =    0.0                 !
 ! A5    A(6,1,8)              107.721          -DE/DX =    0.0                 !
 ! A6    A(7,1,8)              107.7209         -DE/DX =    0.0                 !
 ! A7    A(1,2,3)              113.3028         -DE/DX =    0.0                 !
 ! A8    A(1,2,9)              109.4976         -DE/DX =    0.0                 !
 ! A9    A(1,2,10)             109.4975         -DE/DX =    0.0                 !
 ! A10   A(3,2,9)              109.1436         -DE/DX =    0.0                 !
 ! A11   A(3,2,10)             109.1436         -DE/DX =    0.0                 !
 ! A12   A(9,2,10)             105.9947         -DE/DX =    0.0                 !
 ! A13   A(2,3,4)              113.686          -DE/DX =    0.0                 !
 ! A14   A(2,3,11)             109.231          -DE/DX =    0.0                 !
 ! A15   A(2,3,12)             109.231          -DE/DX =    0.0                 !
 ! A16   A(4,3,11)             109.231          -DE/DX =    0.0                 !
 ! A17   A(4,3,12)             109.231          -DE/DX =    0.0                 !
 ! A18   A(11,3,12)            105.9414         -DE/DX =    0.0                 !
 ! A19   A(3,4,5)              113.3028         -DE/DX =    0.0                 !
 ! A20   A(3,4,13)             109.1436         -DE/DX =    0.0                 !
 ! A21   A(3,4,14)             109.1436         -DE/DX =    0.0                 !
 ! A22   A(5,4,13)             109.4975         -DE/DX =    0.0                 !
 ! A23   A(5,4,14)             109.4976         -DE/DX =    0.0                 !
 ! A24   A(13,4,14)            105.9947         -DE/DX =    0.0                 !
 ! A25   A(4,5,15)             111.1147         -DE/DX =    0.0                 !
 ! A26   A(4,5,16)             111.1148         -DE/DX =    0.0                 !
 ! A27   A(4,5,17)             111.4641         -DE/DX =    0.0                 !
 ! A28   A(15,5,16)            107.5231         -DE/DX =    0.0                 !
 ! A29   A(15,5,17)            107.7209         -DE/DX =    0.0                 !
 ! A30   A(16,5,17)            107.721          -DE/DX =    0.0                 !
 ! D1    D(6,1,2,3)             59.8384         -DE/DX =    0.0                 !
 ! D2    D(6,1,2,9)            -62.2545         -DE/DX =    0.0                 !
 ! D3    D(6,1,2,10)          -178.0689         -DE/DX =    0.0                 !
 ! D4    D(7,1,2,3)            -59.8387         -DE/DX =    0.0                 !
 ! D5    D(7,1,2,9)            178.0684         -DE/DX =    0.0                 !
 ! D6    D(7,1,2,10)            62.254          -DE/DX =    0.0                 !
 ! D7    D(8,1,2,3)            179.9998         -DE/DX =    0.0                 !
 ! D8    D(8,1,2,9)             57.907          -DE/DX =    0.0                 !
 ! D9    D(8,1,2,10)           -57.9074         -DE/DX =    0.0                 !
 ! D10   D(1,2,3,4)            180.0            -DE/DX =    0.0                 !
 ! D11   D(1,2,3,11)            57.7264         -DE/DX =    0.0                 !
 ! D12   D(1,2,3,12)           -57.7265         -DE/DX =    0.0                 !
 ! D13   D(9,2,3,4)            -57.71           -DE/DX =    0.0                 !
 ! D14   D(9,2,3,11)          -179.9836         -DE/DX =    0.0                 !
 ! D15   D(9,2,3,12)            64.5635         -DE/DX =    0.0                 !
 ! D16   D(10,2,3,4)            57.7102         -DE/DX =    0.0                 !
 ! D17   D(10,2,3,11)          -64.5635         -DE/DX =    0.0                 !
 ! D18   D(10,2,3,12)          179.9837         -DE/DX =    0.0                 !
 ! D19   D(2,3,4,5)           -180.0            -DE/DX =    0.0                 !
 ! D20   D(2,3,4,13)            57.7101         -DE/DX =    0.0                 !
 ! D21   D(2,3,4,14)           -57.71           -DE/DX =    0.0                 !
 ! D22   D(11,3,4,5)           -57.7264         -DE/DX =    0.0                 !
 ! D23   D(11,3,4,13)          179.9837         -DE/DX =    0.0                 !
 ! D24   D(11,3,4,14)           64.5636         -DE/DX =    0.0                 !
 ! D25   D(12,3,4,5)            57.7265         -DE/DX =    0.0                 !
 ! D26   D(12,3,4,13)          -64.5634         -DE/DX =    0.0                 !
 ! D27   D(12,3,4,14)         -179.9835         -DE/DX =    0.0                 !
 ! D28   D(3,4,5,15)            59.8385         -DE/DX =    0.0                 !
 ! D29   D(3,4,5,16)           -59.8386         -DE/DX =    0.0                 !
 ! D30   D(3,4,5,17)           179.9999         -DE/DX =    0.0                 !
 ! D31   D(13,4,5,15)         -178.0688         -DE/DX =    0.0                 !
 ! D32   D(13,4,5,16)           62.2541         -DE/DX =    0.0                 !
 ! D33   D(13,4,5,17)          -57.9074         -DE/DX =    0.0                 !
 ! D34   D(14,4,5,15)          -62.2543         -DE/DX =    0.0                 !
 ! D35   D(14,4,5,16)          178.0686         -DE/DX =    0.0                 !
 ! D36   D(14,4,5,17)           57.9071         -DE/DX =    0.0                 !
 --------------------------------------------------------------------------------
 GradGradGradGradGradGradGradGradGradGradGradGradGradGradGradGradGradGrad

                    Distance matrix (angstroms):
                    1          2          3          4          5
     1  C    0.000000
     2  C    1.526524   0.000000
     3  C    2.551968   1.528475   0.000000
     4  C    3.923292   2.559202   1.528475   0.000000
     5  C    5.103914   3.923292   2.551968   1.526524   0.000000
     6  H    1.104754   2.183069   2.824099   4.249846   5.266499
     7  H    1.104754   2.183070   2.824103   4.249849   5.266503
     8  H    1.103585   2.186564   3.512150   4.740286   6.041211
     9  H    2.163665   1.106283   2.160818   2.786577   4.210310
    10  H    2.163665   1.106283   2.160817   2.786578   4.210310
    11  H    2.780177   2.162931   1.107607   2.162931   2.780177
    12  H    2.780177   2.162931   1.107608   2.162931   2.780177
    13  H    4.210310   2.786577   2.160817   1.106283   2.163664
    14  H    4.210309   2.786576   2.160817   1.106282   2.163665
    15  H    5.266500   4.249847   2.824101   2.183070   1.104755
    16  H    5.266502   4.249848   2.824102   2.183069   1.104754
    17  H    6.041211   4.740286   3.512150   2.186564   1.103585
                    6          7          8          9         10
     6  H    0.000000
     7  H    1.782109   0.000000
     8  H    1.783418   1.783418   0.000000
     9  H    2.531833   3.091781   2.508458   0.000000
    10  H    3.091780   2.531830   2.508460   1.766972   0.000000
    11  H    3.146278   2.597594   3.794259   3.076007   2.517337
    12  H    2.597590   3.146284   3.794257   2.517338   3.076007
    13  H    4.437183   4.778865   4.894795   2.555934   3.107248
    14  H    4.778862   4.437184   4.894795   3.107246   2.555933
    15  H    5.492300   5.195141   6.252157   4.778864   4.437184
    16  H    5.195139   5.492306   6.252158   4.437185   4.778865
    17  H    6.252156   6.252159   6.912016   4.894796   4.894795
                   11         12         13         14         15
    11  H    0.000000
    12  H    1.768468   0.000000
    13  H    3.076006   2.517336   0.000000
    14  H    2.517337   3.076006   1.766971   0.000000
    15  H    2.597591   3.146281   3.091781   2.531833   0.000000
    16  H    3.146282   2.597593   2.531831   3.091781   1.782110
    17  H    3.794257   3.794258   2.508459   2.508459   1.783418
                   16         17
    16  H    0.000000
    17  H    1.783418   0.000000
 Framework group  C1[X(C5H12)]
 Deg. of freedom    45
                         Standard orientation:                         
 ---------------------------------------------------------------------
 Center     Atomic      Atomic             Coordinates (Angstroms)
 Number     Number       Type             X           Y           Z
 ---------------------------------------------------------------------
      1          6           0       -2.551957    0.322472   -0.000000
      2          6           0       -1.279601   -0.520965   -0.000000
      3          6           0        0.000000    0.315012   -0.000000
      4          6           0        1.279601   -0.520965   -0.000000
      5          6           0        2.551957    0.322472   -0.000000
      6          1           0       -2.597568    0.973952   -0.891053
      7          1           0       -2.597572    0.973948    0.891056
      8          1           0       -3.456008   -0.310451   -0.000003
      9          1           0       -1.277967   -1.186783   -0.883485
     10          1           0       -1.277967   -1.186781    0.883487
     11          1           0        0.000000    0.982040    0.884233
     12          1           0        0.000000    0.982039   -0.884235
     13          1           0        1.277967   -1.186781   -0.883486
     14          1           0        1.277966   -1.186782    0.883485
     15          1           0        2.597569    0.973951    0.891055
     16          1           0        2.597571    0.973949   -0.891055
     17          1           0        3.456008   -0.310451    0.000002
 ---------------------------------------------------------------------
 Rotational constants (GHZ):          16.9816322           1.9335061           1.8357847
 1\1\GINC-C385\FOpt\RwB97XD\def2SVPP\C5H12\PETERCHAO1\06-Feb-2023\0\\#T
  wB97XD/def2svpp opt=tight freq int(grid=ultrafine) scf=(verytight,qc)
  Volume=tight\\Monomer\\0,1\C,-2.551957,-0.322472,0.\C,-1.279601,0.520
 965,0.\C,0.,-0.315012,0.\C,1.279601,0.520965,0.\C,2.551957,-0.322472,0
 .\H,-2.597568,-0.973952,0.891053\H,-2.597572,-0.973948,-0.891056\H,-3.
 456008,0.310451,0.000003\H,-1.277967,1.186783,0.883485\H,-1.277967,1.1
 86781,-0.883487\H,0.,-0.98204,-0.884233\H,0.,-0.982039,0.884235\H,1.27
 7967,1.186781,0.883486\H,1.277966,1.186782,-0.883485\H,2.597569,-0.973
 951,-0.891055\H,2.597571,-0.973949,0.891055\H,3.456008,0.310451,-0.000
 002\\Version=ES64L-G16RevB.01\State=1-A\HF=-197.5450888\RMSD=2.342e-11
 \RMSF=3.340e-07\Dipole=0.,0.0218982,0.\Quadrupole=-0.4362561,-0.140638
 3,0.5768944,0.000001,0.0000027,0.0000011\PG=C01 [X(C5H12)]\\@


 REALITY IS FOR PEOPLE WHO CAN'T FACE SCIENCE FICTION.
 File lengths (MBytes):  RWF=      6 Int=      0 D2E=      0 Chk=      2 Scr=      1
 Normal termination of Gaussian 16 at Mon Feb  6 10:22:38 2023.
 Link1:  Proceeding to internal job step number  2.
 ---------------------------------------------------------------------
 #T Geom=AllCheck Guess=TCheck SCRF=Check GenChk RwB97XD/def2SVPP Freq
 ---------------------------------------------------------------------
 Structure from the checkpoint file:  "7.chk"
 -------
 Monomer
 -------
 Charge =  0 Multiplicity = 1
 Redundant internal coordinates found in file.  (old form).
 C,0,-2.551957,-0.322472,0.
 C,0,-1.279601,0.520965,0.
 C,0,0.,-0.315012,0.
 C,0,1.279601,0.520965,0.
 C,0,2.551957,-0.322472,0.
 H,0,-2.597568,-0.973952,0.891053
 H,0,-2.597572,-0.973948,-0.891056
 H,0,-3.456008,0.310451,0.000003
 H,0,-1.277967,1.186783,0.883485
 H,0,-1.277967,1.186781,-0.883487
 H,0,0.,-0.98204,-0.884233
 H,0,0.,-0.982039,0.884235
 H,0,1.277967,1.186781,0.883486
 H,0,1.277966,1.186782,-0.883485
 H,0,2.597569,-0.973951,-0.891055
 H,0,2.597571,-0.973949,0.891055
 H,0,3.456008,0.310451,-0.000002
 Recover connectivity data from disk.

 GradGradGradGradGradGradGradGradGradGradGradGradGradGradGradGradGradGrad
 Initialization pass.
                           ----------------------------
                           !    Initial Parameters    !
                           ! (Angstroms and Degrees)  !
 --------------------------                            --------------------------
 ! Name  Definition              Value          Derivative Info.                !
 --------------------------------------------------------------------------------
 ! R1    R(1,2)                  1.5265         calculate D2E/DX2 analytically  !
 ! R2    R(1,6)                  1.1048         calculate D2E/DX2 analytically  !
 ! R3    R(1,7)                  1.1048         calculate D2E/DX2 analytically  !
 ! R4    R(1,8)                  1.1036         calculate D2E/DX2 analytically  !
 ! R5    R(2,3)                  1.5285         calculate D2E/DX2 analytically  !
 ! R6    R(2,9)                  1.1063         calculate D2E/DX2 analytically  !
 ! R7    R(2,10)                 1.1063         calculate D2E/DX2 analytically  !
 ! R8    R(3,4)                  1.5285         calculate D2E/DX2 analytically  !
 ! R9    R(3,11)                 1.1076         calculate D2E/DX2 analytically  !
 ! R10   R(3,12)                 1.1076         calculate D2E/DX2 analytically  !
 ! R11   R(4,5)                  1.5265         calculate D2E/DX2 analytically  !
 ! R12   R(4,13)                 1.1063         calculate D2E/DX2 analytically  !
 ! R13   R(4,14)                 1.1063         calculate D2E/DX2 analytically  !
 ! R14   R(5,15)                 1.1048         calculate D2E/DX2 analytically  !
 ! R15   R(5,16)                 1.1048         calculate D2E/DX2 analytically  !
 ! R16   R(5,17)                 1.1036         calculate D2E/DX2 analytically  !
 ! A1    A(2,1,6)              111.1147         calculate D2E/DX2 analytically  !
 ! A2    A(2,1,7)              111.1148         calculate D2E/DX2 analytically  !
 ! A3    A(2,1,8)              111.4641         calculate D2E/DX2 analytically  !
 ! A4    A(6,1,7)              107.523          calculate D2E/DX2 analytically  !
 ! A5    A(6,1,8)              107.721          calculate D2E/DX2 analytically  !
 ! A6    A(7,1,8)              107.7209         calculate D2E/DX2 analytically  !
 ! A7    A(1,2,3)              113.3028         calculate D2E/DX2 analytically  !
 ! A8    A(1,2,9)              109.4976         calculate D2E/DX2 analytically  !
 ! A9    A(1,2,10)             109.4975         calculate D2E/DX2 analytically  !
 ! A10   A(3,2,9)              109.1436         calculate D2E/DX2 analytically  !
 ! A11   A(3,2,10)             109.1436         calculate D2E/DX2 analytically  !
 ! A12   A(9,2,10)             105.9947         calculate D2E/DX2 analytically  !
 ! A13   A(2,3,4)              113.686          calculate D2E/DX2 analytically  !
 ! A14   A(2,3,11)             109.231          calculate D2E/DX2 analytically  !
 ! A15   A(2,3,12)             109.231          calculate D2E/DX2 analytically  !
 ! A16   A(4,3,11)             109.231          calculate D2E/DX2 analytically  !
 ! A17   A(4,3,12)             109.231          calculate D2E/DX2 analytically  !
 ! A18   A(11,3,12)            105.9414         calculate D2E/DX2 analytically  !
 ! A19   A(3,4,5)              113.3028         calculate D2E/DX2 analytically  !
 ! A20   A(3,4,13)             109.1436         calculate D2E/DX2 analytically  !
 ! A21   A(3,4,14)             109.1436         calculate D2E/DX2 analytically  !
 ! A22   A(5,4,13)             109.4975         calculate D2E/DX2 analytically  !
 ! A23   A(5,4,14)             109.4976         calculate D2E/DX2 analytically  !
 ! A24   A(13,4,14)            105.9947         calculate D2E/DX2 analytically  !
 ! A25   A(4,5,15)             111.1147         calculate D2E/DX2 analytically  !
 ! A26   A(4,5,16)             111.1148         calculate D2E/DX2 analytically  !
 ! A27   A(4,5,17)             111.4641         calculate D2E/DX2 analytically  !
 ! A28   A(15,5,16)            107.5231         calculate D2E/DX2 analytically  !
 ! A29   A(15,5,17)            107.7209         calculate D2E/DX2 analytically  !
 ! A30   A(16,5,17)            107.721          calculate D2E/DX2 analytically  !
 ! D1    D(6,1,2,3)             59.8384         calculate D2E/DX2 analytically  !
 ! D2    D(6,1,2,9)            -62.2545         calculate D2E/DX2 analytically  !
 ! D3    D(6,1,2,10)          -178.0689         calculate D2E/DX2 analytically  !
 ! D4    D(7,1,2,3)            -59.8387         calculate D2E/DX2 analytically  !
 ! D5    D(7,1,2,9)            178.0684         calculate D2E/DX2 analytically  !
 ! D6    D(7,1,2,10)            62.254          calculate D2E/DX2 analytically  !
 ! D7    D(8,1,2,3)            179.9998         calculate D2E/DX2 analytically  !
 ! D8    D(8,1,2,9)             57.907          calculate D2E/DX2 analytically  !
 ! D9    D(8,1,2,10)           -57.9074         calculate D2E/DX2 analytically  !
 ! D10   D(1,2,3,4)            180.0            calculate D2E/DX2 analytically  !
 ! D11   D(1,2,3,11)            57.7264         calculate D2E/DX2 analytically  !
 ! D12   D(1,2,3,12)           -57.7265         calculate D2E/DX2 analytically  !
 ! D13   D(9,2,3,4)            -57.71           calculate D2E/DX2 analytically  !
 ! D14   D(9,2,3,11)          -179.9836         calculate D2E/DX2 analytically  !
 ! D15   D(9,2,3,12)            64.5635         calculate D2E/DX2 analytically  !
 ! D16   D(10,2,3,4)            57.7102         calculate D2E/DX2 analytically  !
 ! D17   D(10,2,3,11)          -64.5635         calculate D2E/DX2 analytically  !
 ! D18   D(10,2,3,12)          179.9837         calculate D2E/DX2 analytically  !
 ! D19   D(2,3,4,5)            180.0            calculate D2E/DX2 analytically  !
 ! D20   D(2,3,4,13)            57.7101         calculate D2E/DX2 analytically  !
 ! D21   D(2,3,4,14)           -57.71           calculate D2E/DX2 analytically  !
 ! D22   D(11,3,4,5)           -57.7264         calculate D2E/DX2 analytically  !
 ! D23   D(11,3,4,13)          179.9837         calculate D2E/DX2 analytically  !
 ! D24   D(11,3,4,14)           64.5636         calculate D2E/DX2 analytically  !
 ! D25   D(12,3,4,5)            57.7265         calculate D2E/DX2 analytically  !
 ! D26   D(12,3,4,13)          -64.5634         calculate D2E/DX2 analytically  !
 ! D27   D(12,3,4,14)         -179.9835         calculate D2E/DX2 analytically  !
 ! D28   D(3,4,5,15)            59.8385         calculate D2E/DX2 analytically  !
 ! D29   D(3,4,5,16)           -59.8386         calculate D2E/DX2 analytically  !
 ! D30   D(3,4,5,17)           179.9999         calculate D2E/DX2 analytically  !
 ! D31   D(13,4,5,15)         -178.0688         calculate D2E/DX2 analytically  !
 ! D32   D(13,4,5,16)           62.2541         calculate D2E/DX2 analytically  !
 ! D33   D(13,4,5,17)          -57.9074         calculate D2E/DX2 analytically  !
 ! D34   D(14,4,5,15)          -62.2543         calculate D2E/DX2 analytically  !
 ! D35   D(14,4,5,16)          178.0686         calculate D2E/DX2 analytically  !
 ! D36   D(14,4,5,17)           57.9071         calculate D2E/DX2 analytically  !
 --------------------------------------------------------------------------------
 Number of steps in this run=      2 maximum allowed number of steps=      2.
 GradGradGradGradGradGradGradGradGradGradGradGradGradGradGradGradGradGrad

                    Distance matrix (angstroms):
                    1          2          3          4          5
     1  C    0.000000
     2  C    1.526524   0.000000
     3  C    2.551968   1.528475   0.000000
     4  C    3.923292   2.559202   1.528475   0.000000
     5  C    5.103914   3.923292   2.551968   1.526524   0.000000
     6  H    1.104754   2.183069   2.824099   4.249846   5.266499
     7  H    1.104754   2.183070   2.824103   4.249849   5.266503
     8  H    1.103585   2.186564   3.512150   4.740286   6.041211
     9  H    2.163665   1.106283   2.160818   2.786577   4.210310
    10  H    2.163665   1.106283   2.160817   2.786578   4.210310
    11  H    2.780177   2.162931   1.107607   2.162931   2.780177
    12  H    2.780177   2.162931   1.107608   2.162931   2.780177
    13  H    4.210310   2.786577   2.160817   1.106283   2.163664
    14  H    4.210309   2.786576   2.160817   1.106282   2.163665
    15  H    5.266500   4.249847   2.824101   2.183070   1.104755
    16  H    5.266502   4.249848   2.824102   2.183069   1.104754
    17  H    6.041211   4.740286   3.512150   2.186564   1.103585
                    6          7          8          9         10
     6  H    0.000000
     7  H    1.782109   0.000000
     8  H    1.783418   1.783418   0.000000
     9  H    2.531833   3.091781   2.508458   0.000000
    10  H    3.091780   2.531830   2.508460   1.766972   0.000000
    11  H    3.146278   2.597594   3.794259   3.076007   2.517337
    12  H    2.597590   3.146284   3.794257   2.517338   3.076007
    13  H    4.437183   4.778865   4.894795   2.555934   3.107248
    14  H    4.778862   4.437184   4.894795   3.107246   2.555933
    15  H    5.492300   5.195141   6.252157   4.778864   4.437184
    16  H    5.195139   5.492306   6.252158   4.437185   4.778865
    17  H    6.252156   6.252159   6.912016   4.894796   4.894795
                   11         12         13         14         15
    11  H    0.000000
    12  H    1.768468   0.000000
    13  H    3.076006   2.517336   0.000000
    14  H    2.517337   3.076006   1.766971   0.000000
    15  H    2.597591   3.146281   3.091781   2.531833   0.000000
    16  H    3.146282   2.597593   2.531831   3.091781   1.782110
    17  H    3.794257   3.794258   2.508459   2.508459   1.783418
                   16         17
    16  H    0.000000
    17  H    1.783418   0.000000
 Framework group  C1[X(C5H12)]
 Deg. of freedom    45
                         Standard orientation:                         
 ---------------------------------------------------------------------
 Center     Atomic      Atomic             Coordinates (Angstroms)
 Number     Number       Type             X           Y           Z
 ---------------------------------------------------------------------
      1          6           0       -2.551957    0.322472   -0.000000
      2          6           0       -1.279601   -0.520965   -0.000000
      3          6           0        0.000000    0.315012   -0.000000
      4          6           0        1.279601   -0.520965   -0.000000
      5          6           0        2.551957    0.322472   -0.000000
      6          1           0       -2.597568    0.973952   -0.891053
      7          1           0       -2.597572    0.973948    0.891056
      8          1           0       -3.456008   -0.310451   -0.000003
      9          1           0       -1.277967   -1.186783   -0.883485
     10          1           0       -1.277967   -1.186781    0.883487
     11          1           0        0.000000    0.982040    0.884233
     12          1           0        0.000000    0.982039   -0.884235
     13          1           0        1.277967   -1.186781   -0.883486
     14          1           0        1.277966   -1.186782    0.883485
     15          1           0        2.597569    0.973951    0.891055
     16          1           0        2.597571    0.973949   -0.891055
     17          1           0        3.456008   -0.310451    0.000002
 ---------------------------------------------------------------------
 Rotational constants (GHZ):          16.9816322           1.9335061           1.8357847
    94 basis functions,   173 primitive gaussians,    99 cartesian basis functions
    21 alpha electrons       21 beta electrons
       nuclear repulsion energy       184.2831071138 Hartrees.
 NAtoms=   17 NActive=   17 NUniq=   17 SFac= 1.00D+00 NAtFMM=   60 NAOKFM=F Big=F
 Nuclear repulsion after empirical dispersion term =      184.2744571818 Hartrees.
   1 Symmetry operations used in ECPInt.
 ECPInt:  NShTT=    1485 NPrTT=    5987 LenC2=    1481 LenP2D=    4970.
 LDataN:  DoStor=T MaxTD1= 4 Len=   56
 Initial guess from the checkpoint file:  "7.chk"
 B after Tr=    -0.000000   -0.000000   -0.000000
         Rot=    1.000000    0.000000    0.000000   -0.000000 Ang=   0.00 deg.
 SCF Done:  E(RwB97XD) =  -197.545088829     a.u. after    1 cycles
            Convg  =    0.1296D-08                     1 Fock formations.
              S**2 =  0.0000                  -V/T =  2.0121
 DoSCS=F DFT=T ScalE2(SS,OS)=  1.000000  1.000000
 NROrb=     94 NOA=    21 NOB=    21 NVA=    73 NVB=    73

 **** Warning!!: The largest alpha MO coefficient is  0.10436905D+02

   1 Symmetry operations used in ECPInt.
 ECPInt:  NShTT=    1485 NPrTT=    5987 LenC2=    1481 LenP2D=    4970.
 LDataN:  DoStor=T MaxTD1= 5 Len=  102
 Symmetrizing basis deriv contribution to polar:
 IMax=3 JMax=2 DiffMx= 0.00D+00
 Calling FoFCou, ICntrl=  3107 FMM=F I1Cent=   0 AccDes= 0.00D+00.
 End of G2Drv F.D. properties file   721 does not exist.
 End of G2Drv F.D. properties file   722 does not exist.
 End of G2Drv F.D. properties file   788 does not exist.
          IDoAtm=11111111111111111
 End of Minotr F.D. properties file   721 does not exist.
 End of Minotr F.D. properties file   722 does not exist.
 End of Minotr F.D. properties file   788 does not exist.

 **********************************************************************

            Population analysis using the SCF Density.

 **********************************************************************

 Orbital symmetries:
       Occupied  (A) (A) (A) (A) (A) (A) (A) (A) (A) (A) (A) (A)
                 (A) (A) (A) (A) (A) (A) (A) (A) (A)
       Virtual   (A) (A) (A) (A) (A) (A) (A) (A) (A) (A) (A) (A)
                 (A) (A) (A) (A) (A) (A) (A) (A) (A) (A) (A) (A)
                 (A) (A) (A) (A) (A) (A) (A) (A) (A) (A) (A) (A)
                 (A) (A) (A) (A) (A) (A) (A) (A) (A) (A) (A) (A)
                 (A) (A) (A) (A) (A) (A) (A) (A) (A) (A) (A) (A)
                 (A) (A) (A) (A) (A) (A) (A) (A) (A) (A) (A) (A)
                 (A)
 The electronic state is 1-A.
 Alpha  occ. eigenvalues --  -10.28511 -10.28510 -10.28323 -10.27856 -10.27855
 Alpha  occ. eigenvalues --   -0.89298  -0.84037  -0.76264  -0.68269  -0.65996
 Alpha  occ. eigenvalues --   -0.56249  -0.52405  -0.51644  -0.48972  -0.47666
 Alpha  occ. eigenvalues --   -0.45853  -0.43456  -0.41399  -0.40599  -0.39876
 Alpha  occ. eigenvalues --   -0.39728
 Alpha virt. eigenvalues --    0.13932   0.15574   0.16911   0.17354   0.19808
 Alpha virt. eigenvalues --    0.21820   0.21988   0.23502   0.24043   0.24565
 Alpha virt. eigenvalues --    0.25141   0.26324   0.29441   0.31350   0.33281
 Alpha virt. eigenvalues --    0.34630   0.50534   0.50943   0.51100   0.51347
 Alpha virt. eigenvalues --    0.52797   0.56123   0.59486   0.64335   0.69951
 Alpha virt. eigenvalues --    0.72804   0.74620   0.74978   0.75740   0.77400
 Alpha virt. eigenvalues --    0.78562   0.79477   0.80586   0.80586   0.80600
 Alpha virt. eigenvalues --    0.81445   0.81631   0.82293   0.83814   0.83815
 Alpha virt. eigenvalues --    0.83839   0.85092   0.95263   1.05129   1.12022
 Alpha virt. eigenvalues --    1.13452   1.14858   1.19625   1.48222   1.56908
 Alpha virt. eigenvalues --    1.62438   1.79772   1.81410   1.94526   1.96192
 Alpha virt. eigenvalues --    1.96801   2.02384   2.02827   2.03984   2.05685
 Alpha virt. eigenvalues --    2.13016   2.21027   2.22046   2.28393   2.31412
 Alpha virt. eigenvalues --    2.34439   2.40428   2.43196   2.47840   2.60560
 Alpha virt. eigenvalues --    2.62093   2.80408   2.84390
          Condensed to atoms (all electrons):
 Mulliken charges:
               1
     1  C   -0.310551
     2  C   -0.215066
     3  C   -0.233304
     4  C   -0.215065
     5  C   -0.310552
     6  H    0.112686
     7  H    0.112686
     8  H    0.119697
     9  H    0.100572
    10  H    0.100572
    11  H    0.096055
    12  H    0.096055
    13  H    0.100572
    14  H    0.100572
    15  H    0.112686
    16  H    0.112686
    17  H    0.119697
 Sum of Mulliken charges =  -0.00000
 Mulliken charges with hydrogens summed into heavy atoms:
               1
     1  C    0.034518
     2  C   -0.013921
     3  C   -0.041194
     4  C   -0.013921
     5  C    0.034518
 APT charges:
               1
     1  C    0.046326
     2  C    0.112484
     3  C    0.081762
     4  C    0.112483
     5  C    0.046326
     6  H   -0.017538
     7  H   -0.017538
     8  H   -0.024490
     9  H   -0.047066
    10  H   -0.047066
    11  H   -0.045993
    12  H   -0.045993
    13  H   -0.047066
    14  H   -0.047066
    15  H   -0.017538
    16  H   -0.017537
    17  H   -0.024490
 Sum of APT charges =   0.00000
 APT charges with hydrogens summed into heavy atoms:
               1
     1  C   -0.013240
     2  C    0.018352
     3  C   -0.010224
     4  C    0.018351
     5  C   -0.013240
 Electronic spatial extent (au):  <R**2>=            720.2365
 Charge=              0.0000 electrons
 Dipole moment (field-independent basis, Debye):
    X=             -0.0000    Y=             -0.0557    Z=              0.0000  Tot=              0.0557
  Exact polarizability:  63.584   0.000  52.067  -0.000  -0.000  50.114
 Approx polarizability:  54.329   0.000  54.745  -0.000  -0.000  54.987
   1 Symmetry operations used in ECPInt.
 ECPInt:  NShTT=    1485 NPrTT=    5987 LenC2=    1481 LenP2D=    4970.
 LDataN:  DoStor=T MaxTD1= 6 Len=  172
 Calling FoFJK, ICntrl=    100127 FMM=F ISym2X=0 I1Cent= 0 IOpClX= 0 NMat=1 NMatS=1 NMatT=0.
 Full mass-weighted force constant matrix:
 Low frequencies ---  -24.5732   -7.7253   -3.4626   -0.0003    0.0005    0.0008
 Low frequencies ---  106.8166  118.0511  183.0275
 Diagonal vibrational polarizability:
        0.4647784       0.7149154       0.9120937
 Harmonic frequencies (cm**-1), IR intensities (KM/Mole), Raman scattering
 activities (A**4/AMU), depolarization ratios for plane and unpolarized
 incident light, reduced masses (AMU), force constants (mDyne/A),
 and normal coordinates:
                      1                      2                      3
                      A                      A                      A
 Frequencies --    106.8155               118.0506               183.0275
 Red. masses --      1.5111                 2.3076                 2.5208
 Frc consts  --      0.0102                 0.0189                 0.0498
 IR Inten    --      0.0000                 0.0000                 0.0246
  Atom  AN      X      Y      Z        X      Y      Z        X      Y      Z
     1   6    -0.00  -0.00  -0.07     0.00   0.00  -0.16    -0.11  -0.16  -0.00
     2   6     0.00   0.00   0.14    -0.00  -0.00   0.04     0.06   0.09  -0.00
     3   6     0.00   0.00   0.00     0.00  -0.00   0.26     0.00   0.20   0.00
     4   6    -0.00   0.00  -0.14     0.00  -0.00   0.04    -0.06   0.09   0.00
     5   6     0.00  -0.00   0.07    -0.00   0.00  -0.16     0.11  -0.16  -0.00
     6   1    -0.02  -0.25  -0.25     0.15   0.01  -0.16    -0.26  -0.17  -0.00
     7   1     0.02   0.25  -0.25    -0.15  -0.01  -0.16    -0.26  -0.17   0.00
     8   1     0.00  -0.00   0.13     0.00   0.00  -0.32     0.04  -0.37   0.00
     9   1     0.02  -0.18   0.27     0.14   0.03   0.02     0.16   0.09   0.00
    10   1    -0.02   0.18   0.27    -0.14  -0.03   0.02     0.16   0.09  -0.00
    11   1     0.09  -0.00   0.00    -0.00  -0.19   0.40    -0.00   0.19   0.01
    12   1    -0.09   0.00   0.00     0.00   0.19   0.40     0.00   0.19  -0.01
    13   1     0.02   0.18  -0.27    -0.14   0.03   0.02    -0.16   0.09   0.00
    14   1    -0.02  -0.18  -0.27     0.14  -0.03   0.02    -0.16   0.09  -0.00
    15   1     0.02  -0.25   0.25     0.15  -0.01  -0.16     0.26  -0.17   0.00
    16   1    -0.02   0.25   0.25    -0.15   0.01  -0.16     0.26  -0.17  -0.00
    17   1     0.00  -0.00  -0.13     0.00   0.00  -0.32    -0.04  -0.37   0.00
                      4                      5                      6
                      A                      A                      A
 Frequencies --    251.1363               261.5571               406.8155
 Red. masses --      1.0751                 1.1605                 2.3370
 Frc consts  --      0.0399                 0.0468                 0.2279
 IR Inten    --      0.0013                 0.0000                 0.0016
  Atom  AN      X      Y      Z        X      Y      Z        X      Y      Z
     1   6     0.00   0.00   0.01     0.00   0.00  -0.02    -0.11  -0.03   0.00
     2   6    -0.00  -0.00  -0.04    -0.00  -0.00   0.08     0.05   0.18  -0.00
     3   6    -0.00  -0.00   0.06    -0.00  -0.00   0.00     0.15  -0.00  -0.00
     4   6     0.00  -0.00  -0.04     0.00   0.00  -0.08     0.05  -0.18  -0.00
     5   6    -0.00   0.00   0.01     0.00   0.00   0.02    -0.11   0.03   0.00
     6   1    -0.21  -0.26  -0.17     0.24   0.23   0.14    -0.31  -0.05  -0.01
     7   1     0.21   0.26  -0.17    -0.24  -0.23   0.14    -0.31  -0.05   0.01
     8   1    -0.00   0.00   0.40     0.00   0.00  -0.42     0.07  -0.30  -0.00
     9   1     0.01   0.06  -0.08     0.01  -0.07   0.14     0.06   0.16   0.01
    10   1    -0.01  -0.06  -0.08    -0.01   0.07   0.14     0.06   0.16  -0.01
    11   1    -0.00  -0.13   0.15     0.06  -0.00   0.00     0.30  -0.00   0.00
    12   1     0.00   0.13   0.15    -0.06   0.00   0.00     0.30  -0.00   0.00
    13   1    -0.01   0.06  -0.08     0.01   0.07  -0.14     0.06  -0.16  -0.01
    14   1     0.01  -0.06  -0.08    -0.01  -0.07  -0.14     0.06  -0.16   0.01
    15   1    -0.21   0.26  -0.17    -0.24   0.23  -0.14    -0.31   0.05  -0.01
    16   1     0.21  -0.26  -0.17     0.24  -0.23  -0.14    -0.31   0.05   0.01
    17   1    -0.00   0.00   0.40    -0.00   0.00   0.42     0.07   0.30   0.00
                      7                      8                      9
                      A                      A                      A
 Frequencies --    407.8609               743.7883               776.7454
 Red. masses --      3.3493                 1.0648                 1.1144
 Frc consts  --      0.3283                 0.3471                 0.3961
 IR Inten    --      0.0017                 4.5330                 0.0000
  Atom  AN      X      Y      Z        X      Y      Z        X      Y      Z
     1   6    -0.25   0.05  -0.00     0.00  -0.00   0.01     0.00  -0.00   0.02
     2   6    -0.19   0.02  -0.00    -0.00   0.00   0.04    -0.00   0.00   0.07
     3   6    -0.00  -0.12   0.00    -0.00  -0.00   0.05     0.00  -0.00   0.00
     4   6     0.19   0.02   0.00    -0.00  -0.00   0.04    -0.00   0.00  -0.07
     5   6     0.25   0.05  -0.00     0.00   0.00   0.01    -0.00   0.00  -0.02
     6   1    -0.31   0.04  -0.00     0.09  -0.09  -0.07     0.19  -0.16  -0.11
     7   1    -0.31   0.04   0.00    -0.09   0.09  -0.07    -0.19   0.16  -0.11
     8   1    -0.20  -0.03   0.00     0.00  -0.00  -0.04     0.00  -0.00  -0.11
     9   1    -0.28   0.01   0.00     0.05   0.30  -0.19    -0.04   0.34  -0.19
    10   1    -0.28   0.01  -0.00    -0.05  -0.30  -0.19     0.04  -0.34  -0.19
    11   1    -0.00  -0.11  -0.01    -0.00   0.38  -0.24     0.16   0.00  -0.00
    12   1    -0.00  -0.11   0.01     0.00  -0.38  -0.24    -0.16  -0.00  -0.00
    13   1     0.28   0.01   0.00    -0.05   0.30  -0.19    -0.04  -0.34   0.19
    14   1     0.28   0.01  -0.00     0.05  -0.30  -0.19     0.04   0.34   0.19
    15   1     0.31   0.04   0.00     0.09   0.09  -0.07    -0.19  -0.16   0.11
    16   1     0.31   0.04  -0.00    -0.09  -0.09  -0.07     0.19   0.16   0.11
    17   1     0.20  -0.03  -0.00     0.00   0.00  -0.04    -0.00  -0.00   0.11
                     10                     11                     12
                      A                      A                      A
 Frequencies --    879.7985               893.2968               950.1996
 Red. masses --      1.1606                 1.6839                 1.8935
 Frc consts  --      0.5293                 0.7917                 1.0073
 IR Inten    --      1.9450                 1.5125                 2.7481
  Atom  AN      X      Y      Z        X      Y      Z        X      Y      Z
     1   6     0.00   0.00  -0.05    -0.08  -0.03  -0.00    -0.14   0.01   0.00
     2   6     0.00   0.00  -0.03    -0.03  -0.09  -0.00     0.03  -0.09  -0.00
     3   6     0.00  -0.00   0.09     0.00   0.17   0.00     0.15  -0.00  -0.00
     4   6    -0.00   0.00  -0.03     0.03  -0.09  -0.00     0.03   0.09   0.00
     5   6    -0.00   0.00  -0.05     0.08  -0.03  -0.00    -0.14  -0.01   0.00
     6   1    -0.25   0.19   0.11     0.23   0.04   0.03     0.11   0.07   0.03
     7   1     0.25  -0.19   0.11     0.23   0.04  -0.03     0.11   0.07  -0.03
     8   1     0.00  -0.00   0.16    -0.38   0.39   0.00    -0.39   0.37  -0.00
     9   1     0.24  -0.10   0.05     0.12  -0.08  -0.00     0.15  -0.10   0.00
    10   1    -0.24   0.10   0.05     0.12  -0.08   0.00     0.15  -0.10  -0.00
    11   1     0.00   0.29  -0.13     0.00   0.16   0.01     0.27  -0.00  -0.00
    12   1     0.00  -0.29  -0.13    -0.00   0.16  -0.01     0.27   0.00   0.00
    13   1    -0.24  -0.10   0.05    -0.12  -0.08  -0.00     0.15   0.10  -0.00
    14   1     0.24   0.10   0.05    -0.12  -0.08   0.00     0.15   0.10   0.00
    15   1    -0.25  -0.19   0.11    -0.23   0.04  -0.03     0.11  -0.07   0.03
    16   1     0.25   0.19   0.11    -0.23   0.04   0.03     0.11  -0.07  -0.03
    17   1    -0.00  -0.00   0.16     0.38   0.39   0.00    -0.39  -0.37  -0.00
                     13                     14                     15
                      A                      A                      A
 Frequencies --   1005.1662              1061.4576              1080.2573
 Red. masses --      1.1261                 1.9581                 2.6134
 Frc consts  --      0.6703                 1.2998                 1.7968
 IR Inten    --      0.0000                 1.7208                 0.6065
  Atom  AN      X      Y      Z        X      Y      Z        X      Y      Z
     1   6     0.00  -0.00  -0.05    -0.04   0.13  -0.00     0.12  -0.11   0.00
     2   6    -0.00   0.00   0.05     0.09  -0.12   0.00    -0.20   0.06  -0.00
     3   6    -0.00  -0.00   0.00     0.05  -0.00   0.00    -0.00   0.11   0.00
     4   6    -0.00   0.00  -0.05     0.09   0.12  -0.00     0.20   0.06  -0.00
     5   6     0.00   0.00   0.05    -0.04  -0.13   0.00    -0.12  -0.11   0.00
     6   1    -0.20   0.16   0.08    -0.38   0.07  -0.03     0.22  -0.12  -0.01
     7   1     0.20  -0.16   0.08    -0.38   0.07   0.03     0.22  -0.12   0.01
     8   1    -0.00   0.00   0.13     0.19  -0.20   0.00     0.10  -0.07  -0.00
     9   1     0.29   0.13  -0.05    -0.06  -0.12  -0.00    -0.36   0.07  -0.00
    10   1    -0.29  -0.13  -0.05    -0.06  -0.12   0.00    -0.36   0.07   0.00
    11   1     0.36   0.00  -0.00    -0.23   0.00  -0.00    -0.00   0.14  -0.02
    12   1    -0.36  -0.00  -0.00    -0.23  -0.00  -0.00    -0.00   0.14   0.02
    13   1     0.29  -0.13   0.05    -0.06   0.12   0.00     0.36   0.07  -0.00
    14   1    -0.29   0.13   0.05    -0.06   0.12  -0.00     0.36   0.07   0.00
    15   1     0.20   0.16  -0.08    -0.38  -0.07  -0.03    -0.22  -0.12   0.01
    16   1    -0.20  -0.16  -0.08    -0.38  -0.07   0.03    -0.22  -0.12  -0.01
    17   1    -0.00  -0.00  -0.13     0.19   0.20   0.00    -0.10  -0.07   0.00
                     16                     17                     18
                      A                      A                      A
 Frequencies --   1105.0418              1178.3721              1216.2595
 Red. masses --      1.8513                 2.3305                 1.8178
 Frc consts  --      1.3319                 1.9067                 1.5844
 IR Inten    --      0.5106                 1.4286                 0.2660
  Atom  AN      X      Y      Z        X      Y      Z        X      Y      Z
     1   6     0.05  -0.02   0.00     0.04   0.10   0.00    -0.00   0.00  -0.09
     2   6    -0.12  -0.06  -0.00    -0.02  -0.17   0.00     0.00  -0.00   0.14
     3   6     0.19   0.00   0.00    -0.00   0.20  -0.00     0.00   0.00  -0.14
     4   6    -0.12   0.06   0.00     0.02  -0.17   0.00     0.00   0.00   0.14
     5   6     0.05   0.02  -0.00    -0.04   0.10  -0.00    -0.00  -0.00  -0.09
     6   1    -0.01  -0.06  -0.02    -0.31  -0.00  -0.06    -0.20   0.21   0.07
     7   1    -0.01  -0.06   0.02    -0.31  -0.00   0.06     0.20  -0.21   0.07
     8   1     0.12  -0.12   0.00     0.26  -0.22   0.00    -0.00  -0.00   0.18
     9   1    -0.39  -0.07   0.00    -0.14  -0.16  -0.01     0.00   0.28  -0.08
    10   1    -0.39  -0.07  -0.00    -0.14  -0.16   0.01    -0.00  -0.28  -0.08
    11   1     0.33   0.00  -0.00     0.00   0.19   0.01     0.00  -0.28   0.08
    12   1     0.33  -0.00  -0.00     0.00   0.19  -0.01    -0.00   0.28   0.08
    13   1    -0.39   0.07  -0.00     0.14  -0.16  -0.01    -0.00   0.28  -0.08
    14   1    -0.39   0.07   0.00     0.14  -0.16   0.01     0.00  -0.28  -0.08
    15   1    -0.01   0.06  -0.02     0.31  -0.00   0.06    -0.20  -0.21   0.07
    16   1    -0.01   0.06   0.02     0.31  -0.00  -0.06     0.20   0.21   0.07
    17   1     0.12   0.12   0.00    -0.26  -0.22  -0.00     0.00   0.00   0.18
                     19                     20                     21
                      A                      A                      A
 Frequencies --   1276.0948              1301.2194              1337.4716
 Red. masses --      1.3180                 1.3185                 1.1521
 Frc consts  --      1.2645                 1.3154                 1.2143
 IR Inten    --      0.0000                 2.9180                 0.3906
  Atom  AN      X      Y      Z        X      Y      Z        X      Y      Z
     1   6     0.00   0.00   0.08     0.02   0.05  -0.00     0.00   0.00  -0.05
     2   6    -0.00  -0.00  -0.08    -0.07  -0.05   0.00     0.00  -0.00  -0.01
     3   6    -0.00  -0.00   0.00    -0.09   0.00  -0.00    -0.00  -0.00   0.09
     4   6    -0.00   0.00   0.08    -0.07   0.05  -0.00    -0.00   0.00  -0.01
     5   6     0.00  -0.00  -0.08     0.02  -0.05   0.00    -0.00  -0.00  -0.05
     6   1     0.14  -0.18  -0.06    -0.07  -0.04  -0.06    -0.07   0.10   0.02
     7   1    -0.14   0.18  -0.06    -0.07  -0.04   0.06     0.07  -0.10   0.02
     8   1     0.00  -0.00  -0.16     0.15  -0.13   0.00    -0.00  -0.00   0.08
     9   1     0.31  -0.16   0.04     0.30  -0.03  -0.01    -0.46  -0.01   0.01
    10   1    -0.31   0.16   0.04     0.30  -0.03   0.01     0.46   0.01   0.01
    11   1     0.32   0.00  -0.00     0.49  -0.00   0.00    -0.00   0.16  -0.03
    12   1    -0.32  -0.00  -0.00     0.49   0.00   0.00     0.00  -0.16  -0.03
    13   1     0.31   0.16  -0.04     0.30   0.03   0.01     0.46  -0.01   0.01
    14   1    -0.31  -0.16  -0.04     0.30   0.03  -0.01    -0.46   0.01   0.01
    15   1    -0.14  -0.18   0.06    -0.07   0.04  -0.06    -0.07  -0.10   0.02
    16   1     0.14   0.18   0.06    -0.07   0.04   0.06     0.07   0.10   0.02
    17   1     0.00   0.00   0.16     0.15   0.13  -0.00     0.00   0.00   0.08
                     22                     23                     24
                      A                      A                      A
 Frequencies --   1341.2347              1383.0391              1418.9721
 Red. masses --      1.0494                 1.3749                 1.2513
 Frc consts  --      1.1122                 1.5495                 1.4844
 IR Inten    --      0.0000                 0.2016                 1.3575
  Atom  AN      X      Y      Z        X      Y      Z        X      Y      Z
     1   6     0.00   0.00   0.02    -0.01   0.05  -0.00    -0.08   0.05  -0.00
     2   6    -0.00  -0.00   0.04    -0.12  -0.00  -0.00    -0.01   0.00  -0.00
     3   6    -0.00  -0.00  -0.00    -0.00  -0.02   0.00     0.05   0.00   0.00
     4   6    -0.00   0.00  -0.04     0.12  -0.00   0.00    -0.01  -0.00   0.00
     5   6     0.00  -0.00  -0.02     0.01   0.05  -0.00    -0.08  -0.05   0.00
     6   1     0.04  -0.02  -0.00     0.10  -0.12  -0.12     0.34  -0.12  -0.14
     7   1    -0.04   0.02  -0.00     0.10  -0.12   0.12     0.34  -0.12   0.14
     8   1     0.00  -0.00   0.02     0.18  -0.21   0.00     0.20  -0.34   0.00
     9   1     0.32   0.07  -0.01     0.40  -0.01   0.00     0.05  -0.04   0.03
    10   1    -0.32  -0.07  -0.01     0.40  -0.01  -0.00     0.05  -0.04  -0.03
    11   1    -0.53  -0.00   0.00     0.00   0.04  -0.04    -0.16   0.00   0.00
    12   1     0.53   0.00   0.00     0.00   0.04   0.04    -0.16   0.00  -0.00
    13   1     0.32  -0.07   0.01    -0.40  -0.01   0.00     0.05   0.04  -0.03
    14   1    -0.32   0.07   0.01    -0.40  -0.01  -0.00     0.05   0.04   0.03
    15   1    -0.04  -0.02   0.00    -0.10  -0.12   0.12     0.34   0.12  -0.14
    16   1     0.04   0.02   0.00    -0.10  -0.12  -0.12     0.34   0.12   0.14
    17   1     0.00   0.00  -0.02    -0.18  -0.21   0.00     0.20   0.34  -0.00
                     25                     26                     27
                      A                      A                      A
 Frequencies --   1429.6934              1441.2911              1485.8352
 Red. masses --      1.3598                 1.7575                 1.0625
 Frc consts  --      1.6376                 2.1511                 1.3820
 IR Inten    --      2.7155                 3.5869                 1.1727
  Atom  AN      X      Y      Z        X      Y      Z        X      Y      Z
     1   6     0.10  -0.04   0.00     0.06  -0.00   0.00    -0.00  -0.02  -0.00
     2   6    -0.07   0.01  -0.00    -0.13   0.01  -0.00    -0.01   0.04   0.00
     3   6    -0.00  -0.02   0.00     0.17  -0.00   0.00    -0.00   0.00  -0.00
     4   6     0.07   0.01  -0.00    -0.13  -0.01   0.00    -0.01  -0.04   0.00
     5   6    -0.10  -0.04   0.00     0.06   0.00  -0.00    -0.00   0.02   0.00
     6   1    -0.35   0.07   0.10    -0.15  -0.07  -0.04     0.02   0.20   0.15
     7   1    -0.35   0.07  -0.10    -0.15  -0.07   0.04     0.02   0.20  -0.15
     8   1    -0.17   0.32  -0.00    -0.04   0.13  -0.00     0.07  -0.10   0.00
     9   1     0.19   0.04  -0.02     0.31  -0.01   0.02     0.03  -0.32   0.27
    10   1     0.19   0.04   0.02     0.31  -0.01  -0.02     0.03  -0.32  -0.27
    11   1     0.00  -0.01  -0.01    -0.44   0.00  -0.00     0.00  -0.00   0.00
    12   1     0.00  -0.01   0.01    -0.44   0.00   0.00     0.00  -0.00  -0.00
    13   1    -0.19   0.04  -0.02     0.31   0.01  -0.02     0.03   0.32  -0.27
    14   1    -0.19   0.04   0.02     0.31   0.01   0.02     0.03   0.32   0.27
    15   1     0.35   0.07  -0.10    -0.15   0.07  -0.04     0.02  -0.20   0.15
    16   1     0.35   0.07   0.10    -0.15   0.07   0.04     0.02  -0.20  -0.15
    17   1     0.17   0.32  -0.00    -0.04  -0.13   0.00     0.07   0.10  -0.00
                     28                     29                     30
                      A                      A                      A
 Frequencies --   1486.1792              1493.1955              1493.9801
 Red. masses --      1.0768                 1.0606                 1.0363
 Frc consts  --      1.4013                 1.3932                 1.3628
 IR Inten    --      0.0518                 0.4289                18.8653
  Atom  AN      X      Y      Z        X      Y      Z        X      Y      Z
     1   6     0.00  -0.01  -0.00    -0.01  -0.03  -0.00     0.00   0.00  -0.03
     2   6     0.01   0.03   0.00    -0.03   0.01  -0.00     0.00  -0.00  -0.01
     3   6    -0.00  -0.06  -0.00     0.00   0.04   0.00    -0.00  -0.00   0.00
     4   6    -0.01   0.03   0.00     0.03   0.01  -0.00    -0.00  -0.00  -0.01
     5   6    -0.00  -0.01  -0.00     0.01  -0.03  -0.00    -0.00   0.00  -0.03
     6   1    -0.01   0.05   0.04     0.05   0.30   0.23     0.34   0.10   0.03
     7   1    -0.01   0.05  -0.04     0.05   0.30  -0.23    -0.34  -0.10   0.03
     8   1    -0.00   0.00  -0.00     0.12  -0.19   0.00    -0.00   0.00   0.50
     9   1    -0.01  -0.22   0.19     0.06  -0.16   0.13     0.03  -0.02  -0.00
    10   1    -0.01  -0.22  -0.19     0.06  -0.16  -0.13    -0.03   0.02  -0.00
    11   1     0.00   0.43  -0.36    -0.00  -0.20   0.18     0.00   0.00  -0.00
    12   1     0.00   0.43   0.36     0.00  -0.20  -0.18    -0.00  -0.00  -0.00
[...]
     1          2.41501237         -1.66954513          2.24268703
     1          2.41500643          1.66954613          2.24269112
     1          4.90868972          1.68385708         -1.84050549
     1          4.90869759         -1.68384274         -1.84050394
     1          6.53090932          0.00001132          0.58665944

 Electric dipole moment (dipole orientation):
 (Debye = 10**-18 statcoulomb cm , SI units = C m)
                  (au)            (Debye)         (10**-30 SI)
   Tot        0.218982D-01      0.556597D-01      0.185661D+00
   x          0.000000D+00      0.000000D+00      0.000000D+00
   y          0.000000D+00      0.000000D+00      0.000000D+00
   z          0.218982D-01      0.556597D-01      0.185661D+00

 Dipole polarizability, Alpha (dipole orientation).
 (esu units = cm**3 , SI units = C**2 m**2 J**-1)
 Alpha(0;0):
               (au)            (10**-24 esu)      (10**-40 SI)
   iso        0.552548D+02      0.818792D+01      0.911029D+01
   aniso      0.126073D+02      0.186821D+01      0.207866D+01
   xx         0.635837D+02      0.942214D+01      0.104835D+02
   yx         0.118064D-04      0.174953D-05      0.194661D-05
   yy         0.501141D+02      0.742614D+01      0.826269D+01
   zx        -0.174991D-04     -0.259309D-05     -0.288520D-05
   zy         0.000000D+00      0.000000D+00      0.000000D+00
   zz         0.520666D+02      0.771548D+01      0.858463D+01

 ----------------------------------------------------------------------
 1\1\GINC-C385\Freq\RwB97XD\def2SVPP\C5H12\PETERCHAO1\06-Feb-2023\0\\#T
  Geom=AllCheck Guess=TCheck SCRF=Check GenChk RwB97XD/def2SVPP Freq\\M
 onomer\\0,1\C,-2.551957,-0.322472,0.\C,-1.279601,0.520965,0.\C,0.,-0.3
 15012,0.\C,1.279601,0.520965,0.\C,2.551957,-0.322472,0.\H,-2.597568,-0
 .973952,0.891053\H,-2.597572,-0.973948,-0.891056\H,-3.456008,0.310451,
 0.000003\H,-1.277967,1.186783,0.883485\H,-1.277967,1.186781,-0.883487\
 H,0.,-0.98204,-0.884233\H,0.,-0.982039,0.884235\H,1.277967,1.186781,0.
 883486\H,1.277966,1.186782,-0.883485\H,2.597569,-0.973951,-0.891055\H,
 2.597571,-0.973949,0.891055\H,3.456008,0.310451,-0.000002\\Version=ES6
 4L-G16RevB.01\State=1-A\HF=-197.5450888\RMSD=2.341e-11\RMSF=3.340e-07\
 ZeroPoint=0.1613714\Thermal=0.1683699\Dipole=0.,0.0218982,0.\DipoleDer
 iv=-0.0089445,-0.0098372,0.,0.0317622,0.0653477,0.0000002,0.,0.,0.0825
 735,0.0849214,0.0017076,0.0000002,-0.0307989,0.1070542,-0.0000001,0.,0
 .,0.1454763,0.0098412,0.,0.0000002,0.,0.0765349,-0.0000005,-0.0000001,
 -0.0000004,0.1589099,0.0849213,-0.0017078,0.,0.0307988,0.1070534,0.,0.
 ,-0.0000001,0.1454754,-0.0089444,0.0098372,-0.0000001,-0.0317624,0.065
 348,0.0000005,-0.0000002,0.0000006,0.0825741,0.0405781,-0.0051702,-0.0
 243062,-0.0517464,-0.0213381,0.0909972,0.0211542,0.1092859,-0.0718526,
 0.0405779,-0.0051709,0.0243057,-0.0517467,-0.0213372,-0.0909968,-0.021
 1547,-0.1092858,-0.0718533,-0.1454481,0.0592176,0.0000004,0.0955381,-0
 .0085402,-0.0000004,0.0000006,-0.0000003,0.0805177,-0.0086815,-0.01912
 11,-0.0196749,0.0009016,-0.0526363,-0.0943689,-0.0026248,-0.1253128,-0
 .0798803,-0.0086815,-0.0191211,0.0196748,0.0009017,-0.0526363,0.094368
 9,0.0026249,0.125313,-0.0798811,0.0007577,0.,0.,0.,-0.0541811,-0.09155
 04,0.,-0.1220031,-0.0845546,0.0007575,0.,0.,0.,-0.0541813,0.0915507,0.
 ,0.1220035,-0.0845554,-0.0086814,0.0191212,0.019675,-0.0009016,-0.0526
 361,-0.0943688,0.0026248,-0.1253128,-0.0798806,-0.0086814,0.0191213,-0
 .019675,-0.0009016,-0.0526361,0.0943688,-0.0026249,0.1253127,-0.079880
 3,0.040578,0.0051704,-0.0243061,0.0517465,-0.0213381,-0.0909973,0.0211
 544,-0.1092862,-0.0718532,0.040578,0.0051707,0.0243059,0.0517466,-0.02
 13373,0.0909966,-0.0211546,0.1092856,-0.071853,-0.1454481,-0.0592177,0
 .0000002,-0.0955381,-0.0085403,0.0000002,0.0000003,0.0000001,0.0805176
 \Polar=63.5837323,-0.0000035,52.0666262,0.0000045,-0.0000002,50.114074
 1\Quadrupole=-0.4362561,-0.1406383,0.5768944,0.000001,0.0000027,0.0000
 011\PG=C01 [X(C5H12)]\NImag=0\\0.52876862,-0.04351121,0.55631490,0.000
 00010,-0.00000021,0.57977341,-0.17261439,-0.06390970,0.00000005,0.4863
 4672,-0.06217390,-0.12701104,-0.00000004,0.00591502,0.55251402,0.,0.,-
 0.08351738,-0.00000002,0.00000066,0.60275904,-0.02968565,0.01516808,0.
 00000001,-0.16360321,0.05964473,-0.00000004,0.48893084,-0.01608578,0.0
 1362957,0.00000002,0.06041768,-0.12659369,-0.00000005,0.00000002,0.550
 80130,0.00000002,0.,-0.00088623,-0.00000004,-0.00000006,-0.08386758,0.
 00000001,0.00000125,0.59852216,-0.00302005,0.00311124,0.,-0.02828580,-
 0.01512897,0.,-0.16360318,-0.06041767,0.,0.48634640,0.00363742,-0.0036
 7753,0.,0.01512897,0.01421882,0.,-0.05964474,-0.12659371,0.,-0.0059151
 7,0.55251484,0.,0.,-0.00027118,0.,0.,-0.00151960,0.00000002,-0.0000000
 1,-0.08386760,0.00000012,-0.00000033,0.60276082,-0.00068883,0.00115574
 ,0.,-0.00302005,-0.00363742,0.,-0.02968566,0.01608578,0.00000002,-0.17
 261439,0.06217391,0.00000004,0.52876878,-0.00115574,0.00122315,0.,-0.0
 0311124,-0.00367753,0.,-0.01516808,0.01362958,0.,0.06390969,-0.1270110
 4,0.00000003,0.04351126,0.55631432,0.,0.,0.00057985,0.,0.,-0.00027118,
 0.00000002,-0.00000001,-0.00088623,0.00000003,0.00000006,-0.08351741,0
 .00000004,-0.00000141,0.57977252,-0.04893363,-0.00320347,0.00573724,-0
 .00089525,-0.01632635,0.02424279,0.00173949,-0.00083752,0.00126976,-0.
 00006347,-0.00010059,-0.00011602,0.00004998,0.00008900,-0.00006471,0.0
 5068490,-0.00392450,-0.13933328,0.12499414,-0.00017436,-0.01129674,0.0
 1548850,0.00108579,0.00049605,-0.00043448,0.00006733,0.00012702,-0.000
 17953,-0.00001324,-0.00000717,-0.00005243,0.00838711,0.14708621,0.0068
 3606,0.12557754,-0.22511857,-0.00035982,-0.00118677,0.00150036,-0.0002
 3509,-0.00019592,0.00030242,0.00007863,-0.00030397,0.00022187,0.000046
 87,0.00005942,-0.00002719,-0.00727139,-0.13731000,0.23650073,-0.048933
 75,-0.00320399,-0.00573801,-0.00089528,-0.01632622,-0.02424283,0.00173
 948,-0.00083751,-0.00126974,-0.00006347,-0.00010059,0.00011603,0.00004
 998,0.00008900,0.00006471,-0.00102000,0.00044257,0.00036037,0.05068497
 ,-0.00392499,-0.13933199,-0.12499351,-0.00017439,-0.01129670,-0.015488
 51,0.00108578,0.00049603,0.00043448,0.00006733,0.00012702,0.00017952,-
 0.00001324,-0.00000717,0.00005243,0.00044263,0.01317081,0.01595277,0.0
 0838763,0.14708483,-0.00683682,-0.12557693,-0.22511944,0.00035985,0.00
 118682,0.00150041,0.00023508,0.00019592,0.00030241,-0.00007863,0.00030
 397,0.00022187,-0.00004687,-0.00005942,-0.00002719,-0.00036043,-0.0159
 5264,-0.01759673,0.00727218,0.13730932,0.23650170,-0.22549834,0.127432
 80,0.00000061,-0.01989413,0.01759786,0.00000006,-0.00347288,-0.0055150
 8,0.,-0.00077932,0.00161399,0.,-0.00041567,-0.00056071,0.,0.00244221,-
 0.00232717,-0.00011166,0.00244229,-0.00232721,0.00011165,0.24316520,0.
 12936500,-0.14132868,-0.00000043,-0.01782582,0.01315269,0.00000006,-0.
 00255813,-0.00245479,0.,-0.00083914,0.00086055,0.,-0.00024749,-0.00025
 422,0.,0.01344632,-0.00952420,-0.00218724,0.01344623,-0.00952416,0.002
 18711,-0.13597825,0.14724664,0.00000063,-0.00000043,-0.04962330,-0.000
 00002,0.,-0.00143545,0.,0.,0.00037993,0.,0.,0.00053840,0.,0.,-0.000015
 37,-0.02213586,0.01428016,0.00189299,0.02213592,-0.01428022,0.00189283
 ,-0.00000066,0.00000049,0.04588531,-0.00103202,-0.01738742,-0.02410486
 ,-0.04807477,0.00012769,0.00001880,-0.00153802,0.01675004,0.02387622,0
 .00151891,0.00090813,0.00116040,-0.00003631,0.00002608,-0.00012786,0.0
 0109458,0.00055497,0.00049316,-0.00472387,-0.00369876,0.00029916,0.000
 80344,0.00067023,-0.00035327,0.05667943,-0.00021172,-0.01083713,-0.014
 78786,-0.00006168,-0.13920139,-0.12029644,0.00067725,-0.01183968,-0.01
 599573,-0.00108199,0.00036834,0.00025378,-0.00002350,0.00013036,0.0002
 6381,0.00066239,0.00004347,-0.00003902,-0.00333826,-0.00138585,0.00022
 483,0.00010276,0.00084312,0.00035216,0.00005873,0.15003612,0.00038095,
 0.00160679,0.00152687,-0.00014516,-0.12185881,-0.21884818,-0.00041441,
 0.00072568,0.00055980,-0.00027363,0.00008783,0.00024079,0.00012292,0.0
 0031972,0.00026690,-0.00034458,-0.00008500,0.00084149,0.00014496,0.000
 46411,0.00149330,-0.00055216,-0.00005641,0.00005084,0.00022133,0.13399
 199,0.22992609,-0.00103201,-0.01738743,0.02410486,-0.04807483,0.000127
 70,-0.00001879,-0.00153805,0.01675001,-0.02387625,0.00151891,0.0009081
 4,-0.00116040,-0.00003631,0.00002608,0.00012787,-0.00472388,-0.0036987
 5,-0.00029915,0.00109459,0.00055497,-0.00049316,0.00080344,0.00067023,
 0.00035326,-0.00055360,0.00006635,0.00004592,0.05667952,-0.00021174,-0
 .01083717,0.01478790,-0.00006167,-0.13920050,0.12029575,0.00067728,-0.
 01183967,0.01599578,-0.00108199,0.00036834,-0.00025378,-0.00002350,0.0
 0013036,-0.00026381,-0.00333828,-0.00138586,-0.00022481,0.00066239,0.0
 0004347,0.00003903,0.00010275,0.00084311,-0.00035216,0.00006636,0.0126
 9470,-0.01547801,0.00005874,0.15003530,-0.00038096,-0.00160676,0.00152
 684,0.00014518,0.12185816,-0.21884830,0.00041440,-0.00072563,0.0005597
 6,0.00027363,-0.00008783,0.00024079,-0.00012292,-0.00031972,0.00026691
 ,-0.00014496,-0.00046412,0.00149331,0.00034457,0.00008499,0.00084150,0
 .00055215,0.00005641,0.00005083,-0.00004592,0.01547794,-0.01863610,-0.
 00022132,-0.13399135,0.22992626,0.00152918,0.00070240,0.00107417,-0.00
 156027,0.01670449,0.02377364,-0.04810649,0.,0.,-0.00156029,-0.01670448
 ,-0.02377364,0.00152918,-0.00070242,-0.00107418,-0.00003302,-0.0000431
 5,-0.00000869,-0.00044878,-0.00047640,-0.00060575,0.00029343,-0.000099
 94,-0.00028659,-0.00472366,0.00338067,-0.00011377,0.00101126,-0.000586
 42,-0.00044348,0.05647902,-0.00106191,0.00059852,0.00041737,0.00049435
 ,-0.01172961,-0.01585314,0.,-0.13729497,-0.11860715,-0.00049436,-0.011
 72961,-0.01585315,0.00106192,0.00059852,0.00041738,0.00008644,0.000019
 16,0.00008222,0.00046588,0.00057658,0.00012896,-0.00010293,0.00001442,
 0.00029468,0.00327539,-0.00166836,0.00014421,-0.00059237,0.00013303,-0
 .00000467,0.,0.14893477,-0.00016767,0.00024667,0.00033254,-0.00062088,
 0.00075089,0.00054209,0.,-0.12007342,-0.21661197,0.00062087,0.00075088
 ,0.00054209,0.00016767,0.00024667,0.00033254,-0.00003635,-0.00009063,-
 0.00008663,0.00061260,0.00012998,0.00009409,0.00009489,0.00024796,0.00
 021082,-0.00016164,0.00015067,0.00157403,0.00044734,-0.00002817,0.0009
 1366,0.,0.13272333,0.22815218,0.00152918,0.00070242,-0.00107418,-0.001
 56030,0.01670445,-0.02377364,-0.04810667,0.,0.,-0.00156029,-0.01670446
 ,0.02377364,0.00152918,-0.00070241,0.00107418,-0.00044878,-0.00047640,
 0.00060575,-0.00003302,-0.00004315,0.00000869,0.00029343,-0.00009994,0
 .00028659,0.00101126,-0.00058642,0.00044348,-0.00472366,0.00338067,0.0
 0011376,-0.00050881,0.,0.,0.05647923,-0.00106192,0.00059852,-0.0004173
 8,0.00049438,-0.01172961,0.01585318,0.,-0.13729394,0.11860591,-0.00049
 437,-0.01172961,0.01585317,0.00106191,0.00059852,-0.00041738,0.0004658
 8,0.00057658,-0.00012896,0.00008644,0.00001916,-0.00008222,-0.00010293
 ,0.00001442,-0.00029468,-0.00059237,0.00013304,0.00000467,0.00327539,-
 0.00166837,-0.00014421,0.,0.01247269,-0.01546460,0.,0.14893376,0.00016
 767,-0.00024667,0.00033254,0.00062086,-0.00075084,0.00054204,0.,0.1200
 7217,-0.21661121,-0.00062087,-0.00075085,0.00054205,-0.00016767,-0.000
 24667,0.00033254,-0.00061261,-0.00012998,0.00009409,0.00003635,0.00009
 063,-0.00008663,-0.00009489,-0.00024796,0.00021082,-0.00044734,0.00002
 817,0.00091366,0.00016163,-0.00015066,0.00157404,0.,0.01546458,-0.0187
 0140,0.,-0.13272214,0.22815149,-0.00003630,-0.00002608,0.00012787,0.00
 151891,-0.00090813,-0.00116040,-0.00153804,-0.01675004,-0.02387626,-0.
 04807466,-0.00012768,-0.00001879,-0.00103202,0.01738744,0.02410488,0.0
 0003383,-0.00000778,-0.00002596,0.00010689,0.00018361,0.00015691,-0.00
 000117,0.00007020,0.00006360,-0.00055253,0.00044991,0.00061482,-0.0000
 1240,0.00006312,0.00001882,-0.00472367,-0.00327539,0.00016164,0.001011
 27,0.00059237,0.00044733,0.05667936,0.00002350,0.00013036,0.00026381,0
 .00108199,0.00036834,0.00025378,-0.00067727,-0.01183969,-0.01599577,0.
 00006168,-0.13920112,-0.12029665,0.00021174,-0.01083716,-0.01478789,0.
 00000114,-0.00005910,-0.00001341,0.00020591,0.00005821,0.00006150,-0.0
 0004943,0.00003078,0.00003771,-0.00044991,0.00062584,0.00019352,-0.000
 06312,0.00002753,0.00009637,-0.00338067,-0.00166836,0.00015066,0.00058
 642,0.00013303,0.00002817,-0.00005875,0.15003588,-0.00012292,0.0003197
 2,0.00026691,0.00027363,0.00008783,0.00024079,0.00041442,0.00072568,0.
 00055979,0.00014517,-0.12185904,-0.21884913,-0.00038096,0.00160677,0.0
 0152685,0.00003154,0.00000044,-0.00002087,0.00017445,0.00006790,-0.000
 00992,-0.00009412,-0.00003227,-0.00001934,-0.00061483,0.00019352,0.000
 20425,0.00001882,-0.00009637,-0.00006362,0.00011376,0.00014421,0.00157
 403,-0.00044348,0.00000467,0.00091366,-0.00022133,0.13399221,0.2299270
 6,-0.00003631,-0.00002608,-0.00012787,0.00151891,-0.00090814,0.0011604
 1,-0.00153804,-0.01675006,0.02387626,-0.04807463,-0.00012754,0.0000186
 3,-0.00103201,0.01738742,-0.02410487,0.00010689,0.00018362,-0.00015691
 ,0.00003383,-0.00000778,0.00002596,-0.00000117,0.00007020,-0.00006360,
 -0.00001240,0.00006312,-0.00001882,-0.00055253,0.00044991,-0.00061483,
 0.00101126,0.00059237,-0.00044734,-0.00472366,-0.00327540,-0.00016164,
 -0.00055360,-0.00006636,-0.00004592,0.05667932,0.00002350,0.00013036,-
 0.00026381,0.00108199,0.00036834,-0.00025378,-0.00067728,-0.01183969,0
 .01599578,0.00006181,-0.13920156,0.12029699,0.00021171,-0.01083713,0.0
 1478785,0.00020591,0.00005821,-0.00006150,0.00000114,-0.00005910,0.000
 01341,-0.00004943,0.00003078,-0.00003772,-0.00006312,0.00002753,-0.000
 09638,-0.00044991,0.00062584,-0.00019352,0.00058642,0.00013304,-0.0000
 2817,-0.00338067,-0.00166836,-0.00015066,-0.00006636,0.01269473,-0.015
 47799,-0.00005884,0.15003629,0.00012292,-0.00031972,0.00026691,-0.0002
 7363,-0.00008783,0.00024079,-0.00041441,-0.00072566,0.00055978,-0.0001
 4533,0.12185934,-0.21884906,0.00038096,-0.00160682,0.00152689,-0.00017
 445,-0.00006790,-0.00000991,-0.00003154,-0.00000044,-0.00002087,0.0000
 9412,0.00003227,-0.00001933,-0.00001882,0.00009637,-0.00006362,0.00061
 483,-0.00019352,0.00020425,0.00044348,-0.00000467,0.00091365,-0.000113
 76,-0.00014421,0.00157404,0.00004591,0.01547802,-0.01863610,0.00022148
 ,-0.13399253,0.22992697,0.00004998,-0.00008900,-0.00006471,-0.00006347
 ,0.00010059,-0.00011602,0.00173949,0.00083752,0.00126975,-0.00089526,0
 .01632630,0.02424279,-0.04893385,0.00320353,0.00573735,-0.00000890,0.0
 0000217,0.00000322,-0.00005380,-0.00003033,-0.00001878,0.00002883,0.00
 000877,-0.00000441,0.00010689,-0.00020591,-0.00017445,0.00003383,-0.00
 000114,0.00003154,-0.00044878,-0.00046588,-0.00061260,-0.00003302,-0.0
 0008644,-0.00003635,-0.00472388,0.00333827,-0.00014496,0.00109458,-0.0
 0066239,-0.00034458,0.05068512,0.00001324,-0.00000717,0.00005243,-0.00
 006733,0.00012702,0.00017952,-0.00108579,0.00049604,0.00043448,0.00017
 437,-0.01129673,-0.01548851,0.00392456,-0.13933224,-0.12499283,-0.0000
 0217,0.00000664,-0.00000173,0.00003033,0.00002538,0.00000361,0.0000278
 7,-0.00000317,-0.00000533,-0.00018361,0.00005821,0.00006790,0.00000778
 ,-0.00005910,-0.00000044,0.00047640,0.00057658,0.00012998,0.00004315,0
 .00001916,0.00009063,0.00369876,-0.00138586,0.00046412,-0.00055497,0.0
 0004347,0.00008499,-0.00838717,0.14708516,0.00004687,-0.00005942,-0.00
 002719,0.00007863,0.00030397,0.00022187,-0.00023509,0.00019592,0.00030
 242,-0.00035982,0.00118676,0.00150035,0.00683617,-0.12557624,-0.225117
 69,0.00000322,0.00000173,-0.00001076,0.00001878,0.00000361,0.00002135,
 0.00002583,0.00001501,0.00000206,-0.00015691,0.00006150,-0.00000991,-0
 .00002596,0.00001341,-0.00002087,0.00060575,0.00012896,0.00009409,-0.0
 0000869,-0.00008222,-0.00008663,-0.00029915,0.00022481,0.00149331,0.00
 049316,0.00003902,0.00084149,-0.00727151,0.13730873,0.23649990,0.00004
 998,-0.00008900,0.00006471,-0.00006347,0.00010059,0.00011602,0.0017394
 9,0.00083752,-0.00126975,-0.00089528,0.01632626,-0.02424282,-0.0489336
 8,0.00320388,-0.00573784,-0.00005380,-0.00003033,0.00001878,-0.0000089
 0,0.00000217,-0.00000322,0.00002883,0.00000877,0.00000441,0.00003383,-
 0.00000114,-0.00003154,0.00010689,-0.00020591,0.00017445,-0.00003302,-
 0.00008644,0.00003635,-0.00044878,-0.00046588,0.00061261,0.00109459,-0
 .00066239,0.00034457,-0.00472388,0.00333826,0.00014497,-0.00102000,-0.
 00044258,0.00036038,0.05068491,0.00001324,-0.00000717,-0.00005243,-0.0
 0006733,0.00012702,-0.00017952,-0.00108578,0.00049604,-0.00043448,0.00
 017438,-0.01129670,0.01548851,0.00392489,-0.13933247,0.12499392,0.0000
 3033,0.00002538,-0.00000361,-0.00000217,0.00000664,0.00000173,0.000027
 87,-0.00000317,0.00000533,0.00000778,-0.00005910,0.00000044,-0.0001836
 1,0.00005821,-0.00006790,0.00004315,0.00001916,-0.00009063,0.00047640,
 0.00057658,-0.00012998,-0.00055497,0.00004347,-0.00008499,0.00369876,-
 0.00138585,-0.00046412,-0.00044262,0.01317080,-0.01595273,-0.00838752,
 0.14708534,-0.00004687,0.00005942,-0.00002719,-0.00007863,-0.00030397,
 0.00022187,0.00023508,-0.00019592,0.00030242,0.00035985,-0.00118681,0.
 00150041,-0.00683666,0.12557737,-0.22511945,-0.00001878,-0.00000361,0.
 00002135,-0.00000322,-0.00000173,-0.00001076,-0.00002583,-0.00001501,0
 .00000206,0.00002596,-0.00001341,-0.00002087,0.00015691,-0.00006150,-0
 .00000991,0.00000869,0.00008222,-0.00008663,-0.00060574,-0.00012896,0.
 00009409,-0.00049316,-0.00003902,0.00084150,0.00029916,-0.00022482,0.0
 0149330,-0.00036042,0.01595264,-0.01759670,0.00727201,-0.13730975,0.23
 650165,-0.00041567,0.00056071,0.,-0.00077932,-0.00161399,0.,-0.0034728
 8,0.00551508,0.,-0.01989413,-0.01759786,0.00000003,-0.22549835,-0.1274
 3280,0.00000040,0.00002884,-0.00002787,0.00002583,0.00002883,-0.000027
 87,-0.00002583,-0.00023842,-0.00010725,0.,-0.00000117,0.00004943,0.000
 09412,-0.00000117,0.00004943,-0.00009412,0.00029343,0.00010293,-0.0000
 9489,0.00029343,0.00010293,0.00009489,0.00080344,-0.00010276,0.0005521
 5,0.00080344,-0.00010276,-0.00055216,0.00244222,0.00232717,-0.00011166
 ,0.00244228,0.00232721,0.00011165,0.24316521,0.00024749,-0.00025422,0.
 ,0.00083914,0.00086055,0.,0.00255813,-0.00245479,0.,0.01782582,0.01315
 269,-0.00000003,-0.12936502,-0.14132867,0.00000031,-0.00000877,-0.0000
 0317,-0.00001501,-0.00000877,-0.00000317,0.00001501,0.00010725,0.00005
 587,0.,-0.00007020,0.00003078,-0.00003227,-0.00007020,0.00003078,0.000
 03227,0.00009994,0.00001442,0.00024796,0.00009994,0.00001442,-0.000247
 96,-0.00067023,0.00084311,-0.00005641,-0.00067023,0.00084312,0.0000564
 1,-0.01344629,-0.00952420,0.00218718,-0.01344626,-0.00952417,-0.002187
 14,0.13597826,0.14724663,0.,0.,-0.00001537,0.,0.,0.00053840,0.,0.,0.00
 037993,0.,0.,-0.00143545,0.00000039,0.00000031,-0.04962328,-0.00000441
 ,0.00000533,0.00000206,0.00000441,-0.00000533,0.00000206,0.,0.,-0.0000
 0409,-0.00006360,0.00003772,-0.00001934,0.00006360,-0.00003772,-0.0000
 1934,0.00028659,0.00029468,0.00021082,-0.00028659,-0.00029468,0.000210
 82,0.00035326,0.00035216,0.00005084,-0.00035326,-0.00035216,0.00005084
 ,-0.02213586,-0.01428019,0.00189293,0.02213590,0.01428020,0.00189287,-
 0.00000042,-0.00000032,0.04588531\\-0.00000009,-0.00000037,0.00000003,
 0.00000005,-0.00000078,0.00000045,0.,0.00000081,-0.00000067,0.00000003
 ,-0.00000029,-0.00000018,0.00000008,-0.00000014,0.00000072,0.00000011,
 0.00000041,-0.00000045,-0.00000003,0.00000033,0.00000033,0.00000018,-0
 .00000030,-0.00000002,-0.00000037,0.00000039,-0.00000014,-0.00000036,0
 .00000040,-0.00000009,0.00000001,-0.00000032,0.00000031,0.,-0.00000062
 ,0.00000020,0.00000037,0.00000014,-0.00000031,0.00000025,0.00000012,0.
 00000043,-0.00000005,0.00000008,-0.00000013,-0.00000003,0.00000043,-0.
 00000043,-0.00000018,-0.00000030,-0.00000004\\\@


 ...THOSE SCIENCES ARE VAIN AND FULL OF ERRORS WHICH 
 ARE NOT BORN FROM EXPERIMENT, THE MOTHER OF CERTAINTY...

                          -- LEONARDO DA VINCI, 1452-1519
 File lengths (MBytes):  RWF=     23 Int=      0 D2E=      0 Chk=      2 Scr=      1
 Normal termination of Gaussian 16 at Mon Feb  6 10:23:29 2023.
real 76.49
user 293.03
sys 2.62
