 Entering Gaussian System, Link 0=g16
 Input=gaussian_test.inp
 Output=gaussian_test.log
 Initial command:
 /sw/restricted/lms/sw/Gaussian/g16_B01/g16/l1.exe "/scratch/user/peterchao1/peterchao1/6097794_1659647567000000408741127/Gau-201322.inp" -scrdir="/scratch/user/peterchao1/peterchao1/6097794_1659647567000000408741127/"
 Entering Link 1 = /sw/restricted/lms/sw/Gaussian/g16_B01/g16/l1.exe PID=    201323.
  
 Copyright (c) 1988-2017, Gaussian, Inc.  All Rights Reserved.
  
 This is part of the Gaussian(R) 16 program.  It is based on
 the Gaussian(R) 09 system (copyright 2009, Gaussian, Inc.),
 the Gaussian(R) 03 system (copyright 2003, Gaussian, Inc.),
 the Gaussian(R) 98 system (copyright 1998, Gaussian, Inc.),
 the Gaussian(R) 94 system (copyright 1995, Gaussian, Inc.),
 the Gaussian 92(TM) system (copyright 1992, Gaussian, Inc.),
 the Gaussian 90(TM) system (copyright 1990, Gaussian, Inc.),
 the Gaussian 88(TM) system (copyright 1988, Gaussian, Inc.),
 the Gaussian 86(TM) system (copyright 1986, Carnegie Mellon
 University), and the Gaussian 82(TM) system (copyright 1983,
 Carnegie Mellon University). Gaussian is a federally registered
 trademark of Gaussian, Inc.
  
 This software contains proprietary and confidential information,
 including trade secrets, belonging to Gaussian, Inc.
  
 This software is provided under written license and may be
 used, copied, transmitted, or stored only in accord with that
 written license.
  
 The following legend is applicable only to US Government
 contracts under FAR:
  
                    RESTRICTED RIGHTS LEGEND
  
 Use, reproduction and disclosure by the US Government is
 subject to restrictions as set forth in subparagraphs (a)
 and (c) of the Commercial Computer Software - Restricted
 Rights clause in FAR 52.227-19.
  
 Gaussian, Inc.
 340 Quinnipiac St., Bldg. 40, Wallingford CT 06492
  
  
 ---------------------------------------------------------------
 Warning -- This program may not be used in any manner that
 competes with the business of Gaussian, Inc. or will provide
 assistance to any competitor of Gaussian, Inc.  The licensee
 of this program is prohibited from giving any competitor of
 Gaussian, Inc. access to this program.  By using this program,
 the user acknowledges that Gaussian, Inc. is engaged in the
 business of creating and licensing software in the field of
 computational chemistry and represents and warrants to the
 licensee that it is not a competitor of Gaussian, Inc. and that
 it will not use this program in any manner prohibited above.
 ---------------------------------------------------------------
  

 Cite this work as:
 Gaussian 16, Revision B.01,
 M. J. Frisch, G. W. Trucks, H. B. Schlegel, G. E. Scuseria, 
 M. A. Robb, J. R. Cheeseman, G. Scalmani, V. Barone, 
 G. A. Petersson, H. Nakatsuji, X. Li, M. Caricato, A. V. Marenich, 
 J. Bloino, B. G. Janesko, R. Gomperts, B. Mennucci, H. P. Hratchian, 
 J. V. Ortiz, A. F. Izmaylov, J. L. Sonnenberg, D. Williams-Young, 
 F. Ding, F. Lipparini, F. Egidi, J. Goings, B. Peng, A. Petrone, 
 T. Henderson, D. Ranasinghe, V. G. Zakrzewski, J. Gao, N. Rega, 
 G. Zheng, W. Liang, M. Hada, M. Ehara, K. Toyota, R. Fukuda, 
 J. Hasegawa, M. Ishida, T. Nakajima, Y. Honda, O. Kitao, H. Nakai, 
 T. Vreven, K. Throssell, J. A. Montgomery, Jr., J. E. Peralta, 
 F. Ogliaro, M. J. Bearpark, J. J. Heyd, E. N. Brothers, K. N. Kudin, 
 V. N. Staroverov, T. A. Keith, R. Kobayashi, J. Normand, 
 K. Raghavachari, A. P. Rendell, J. C. Burant, S. S. Iyengar, 
 J. Tomasi, M. Cossi, J. M. Millam, M. Klene, C. Adamo, R. Cammi, 
 J. W. Ochterski, R. L. Martin, K. Morokuma, O. Farkas, 
 J. B. Foresman, and D. J. Fox, Gaussian, Inc., Wallingford CT, 2016.
 
 ******************************************
 Gaussian 16:  ES64L-G16RevB.01 20-Dec-2017
                 4-Aug-2022 
 ******************************************
 %nprocshared=4
 Will use up to    4 processors via shared memory.
 %mem=8000mb
 ----------------------------------------------------------------------
 #T wB97XD/def2svpp opt=tight freq int(grid=ultrafine) scf=(verytight,q
 c)
 ----------------------------------------------------------------------
 --------------
 Comment gs min
 --------------
 Symbolic Z-matrix:
 Charge =  0 Multiplicity = 1
 C                     0.91493  -0.03333  -0.05416 
 C                     2.44282  -0.03333  -0.05416 
 C                     2.95213  -1.47352  -0.08441 
 C                     2.95213   0.71297  -1.28628 
 C                     2.95212   0.66058   1.20821 
 H                     0.52206  -0.52624  -0.95088 
 H                     0.52206   0.9897   -0.03268 
 H                     0.52206  -0.56345   0.82106 
 H                     2.60072  -1.99574  -0.98175 
 H                     2.60071  -2.03296   0.7902 
 H                     4.04782  -1.50283  -0.08503 
 H                     2.60072   0.23525  -2.20808 
 H                     4.04782   0.72816  -1.31136 
 H                     2.60071   1.75119  -1.28987 
 H                     2.60071   0.14457   2.10913 
 H                     2.60071   1.69773   1.25539 
 H                     4.04781   0.6747    1.23391 
 

 GradGradGradGradGradGradGradGradGradGradGradGradGradGradGradGradGradGrad
 Initialization pass.
                           ----------------------------
                           !    Initial Parameters    !
                           ! (Angstroms and Degrees)  !
 --------------------------                            --------------------------
 ! Name  Definition              Value          Derivative Info.                !
 --------------------------------------------------------------------------------
 ! R1    R(1,2)                  1.5279         estimate D2E/DX2                !
 ! R2    R(1,6)                  1.0961         estimate D2E/DX2                !
 ! R3    R(1,7)                  1.0961         estimate D2E/DX2                !
 ! R4    R(1,8)                  1.0961         estimate D2E/DX2                !
 ! R5    R(2,3)                  1.5279         estimate D2E/DX2                !
 ! R6    R(2,4)                  1.5279         estimate D2E/DX2                !
 ! R7    R(2,5)                  1.5279         estimate D2E/DX2                !
 ! R8    R(3,9)                  1.0961         estimate D2E/DX2                !
 ! R9    R(3,10)                 1.0961         estimate D2E/DX2                !
 ! R10   R(3,11)                 1.0961         estimate D2E/DX2                !
 ! R11   R(4,12)                 1.0961         estimate D2E/DX2                !
 ! R12   R(4,13)                 1.0961         estimate D2E/DX2                !
 ! R13   R(4,14)                 1.0961         estimate D2E/DX2                !
 ! R14   R(5,15)                 1.0961         estimate D2E/DX2                !
 ! R15   R(5,16)                 1.0961         estimate D2E/DX2                !
 ! R16   R(5,17)                 1.0961         estimate D2E/DX2                !
 ! A1    A(2,1,6)              111.0037         estimate D2E/DX2                !
 ! A2    A(2,1,7)              111.0039         estimate D2E/DX2                !
 ! A3    A(2,1,8)              111.004          estimate D2E/DX2                !
 ! A4    A(6,1,7)              107.8958         estimate D2E/DX2                !
 ! A5    A(6,1,8)              107.896          estimate D2E/DX2                !
 ! A6    A(7,1,8)              107.8963         estimate D2E/DX2                !
 ! A7    A(1,2,3)              109.4717         estimate D2E/DX2                !
 ! A8    A(1,2,4)              109.4716         estimate D2E/DX2                !
 ! A9    A(1,2,5)              109.4712         estimate D2E/DX2                !
 ! A10   A(3,2,4)              109.4709         estimate D2E/DX2                !
 ! A11   A(3,2,5)              109.4713         estimate D2E/DX2                !
 ! A12   A(4,2,5)              109.4706         estimate D2E/DX2                !
 ! A13   A(2,3,9)              111.0037         estimate D2E/DX2                !
 ! A14   A(2,3,10)             111.0036         estimate D2E/DX2                !
 ! A15   A(2,3,11)             111.0044         estimate D2E/DX2                !
 ! A16   A(9,3,10)             107.8958         estimate D2E/DX2                !
 ! A17   A(9,3,11)             107.8956         estimate D2E/DX2                !
 ! A18   A(10,3,11)            107.8966         estimate D2E/DX2                !
 ! A19   A(2,4,12)             111.0038         estimate D2E/DX2                !
 ! A20   A(2,4,13)             111.0045         estimate D2E/DX2                !
 ! A21   A(2,4,14)             111.0037         estimate D2E/DX2                !
 ! A22   A(12,4,13)            107.8957         estimate D2E/DX2                !
 ! A23   A(12,4,14)            107.8957         estimate D2E/DX2                !
 ! A24   A(13,4,14)            107.8964         estimate D2E/DX2                !
 ! A25   A(2,5,15)             111.0034         estimate D2E/DX2                !
 ! A26   A(2,5,16)             111.0042         estimate D2E/DX2                !
 ! A27   A(2,5,17)             111.0042         estimate D2E/DX2                !
 ! A28   A(15,5,16)            107.8963         estimate D2E/DX2                !
 ! A29   A(15,5,17)            107.8955         estimate D2E/DX2                !
 ! A30   A(16,5,17)            107.8961         estimate D2E/DX2                !
 ! D1    D(6,1,2,3)            -60.0            estimate D2E/DX2                !
 ! D2    D(6,1,2,4)             60.0002         estimate D2E/DX2                !
 ! D3    D(6,1,2,5)            179.9997         estimate D2E/DX2                !
 ! D4    D(7,1,2,3)           -179.9996         estimate D2E/DX2                !
 ! D5    D(7,1,2,4)            -59.9994         estimate D2E/DX2                !
 ! D6    D(7,1,2,5)             60.0001         estimate D2E/DX2                !
 ! D7    D(8,1,2,3)             60.0            estimate D2E/DX2                !
 ! D8    D(8,1,2,4)           -179.9998         estimate D2E/DX2                !
 ! D9    D(8,1,2,5)            -60.0003         estimate D2E/DX2                !
 ! D10   D(1,2,3,9)             60.0001         estimate D2E/DX2                !
 ! D11   D(1,2,3,10)           -59.9993         estimate D2E/DX2                !
 ! D12   D(1,2,3,11)           179.9998         estimate D2E/DX2                !
 ! D13   D(4,2,3,9)            -60.0005         estimate D2E/DX2                !
 ! D14   D(4,2,3,10)          -179.9999         estimate D2E/DX2                !
 ! D15   D(4,2,3,11)            59.9992         estimate D2E/DX2                !
 ! D16   D(5,2,3,9)           -179.9996         estimate D2E/DX2                !
 ! D17   D(5,2,3,10)            60.001          estimate D2E/DX2                !
 ! D18   D(5,2,3,11)           -59.9999         estimate D2E/DX2                !
 ! D19   D(1,2,4,12)           -60.0001         estimate D2E/DX2                !
 ! D20   D(1,2,4,13)          -179.9999         estimate D2E/DX2                !
 ! D21   D(1,2,4,14)            59.9993         estimate D2E/DX2                !
 ! D22   D(3,2,4,12)            60.0006         estimate D2E/DX2                !
 ! D23   D(3,2,4,13)           -59.9993         estimate D2E/DX2                !
 ! D24   D(3,2,4,14)           180.0            estimate D2E/DX2                !
 ! D25   D(5,2,4,12)          -179.9999         estimate D2E/DX2                !
 ! D26   D(5,2,4,13)            60.0002         estimate D2E/DX2                !
 ! D27   D(5,2,4,14)           -60.0006         estimate D2E/DX2                !
 ! D28   D(1,2,5,15)            60.0005         estimate D2E/DX2                !
 ! D29   D(1,2,5,16)           -59.9998         estimate D2E/DX2                !
 ! D30   D(1,2,5,17)           179.9997         estimate D2E/DX2                !
 ! D31   D(3,2,5,15)           -60.0002         estimate D2E/DX2                !
 ! D32   D(3,2,5,16)           179.9996         estimate D2E/DX2                !
 ! D33   D(3,2,5,17)            59.999          estimate D2E/DX2                !
 ! D34   D(4,2,5,15)          -179.9995         estimate D2E/DX2                !
 ! D35   D(4,2,5,16)            60.0003         estimate D2E/DX2                !
 ! D36   D(4,2,5,17)           -60.0002         estimate D2E/DX2                !
 --------------------------------------------------------------------------------
 Number of steps in this run=     92 maximum allowed number of steps=    102.
 GradGradGradGradGradGradGradGradGradGradGradGradGradGradGradGradGradGrad

                    Distance matrix (angstroms):
                    1          2          3          4          5
     1  C    0.000000
     2  C    1.527890   0.000000
     3  C    2.495044   1.527894   0.000000
     4  C    2.495049   1.527901   2.495041   0.000000
     5  C    2.495042   1.527899   2.495045   2.495040   0.000000
     6  H    1.096090   2.176324   2.748336   2.748340   3.460550
     7  H    1.096083   2.176320   3.460545   2.748333   2.748330
     8  H    1.096077   2.176317   2.748335   3.460545   2.748332
     9  H    2.748338   2.176329   1.096094   2.748334   3.460555
    10  H    2.748330   2.176326   1.096089   3.460549   2.748341
    11  H    3.460547   2.176329   1.096082   2.748328   2.748340
    12  H    2.748344   2.176336   2.748337   1.096093   3.460553
    13  H    3.460552   2.176337   2.748334   1.096082   2.748337
    14  H    2.748335   2.176332   3.460547   1.096088   2.748331
    15  H    2.748332   2.176327   2.748332   3.460547   1.096089
    16  H    2.748335   2.176332   3.460547   2.748333   1.096082
    17  H    3.460544   2.176333   2.748332   2.748333   1.096082
                    6          7          8          9         10
     6  H    0.000000
     7  H    1.772333   0.000000
     8  H    1.772331   1.772328   0.000000
     9  H    2.545822   3.759576   3.102000   0.000000
    10  H    3.101991   3.759573   2.545820   1.772341   0.000000
    11  H    3.759575   4.318151   3.759577   1.772333   1.772341
    12  H    2.545829   3.101997   3.759580   2.545820   3.759582
    13  H    3.759581   3.759576   4.318154   3.101995   3.759583
    14  H    3.101997   2.545816   3.759570   3.759577   4.318157
    15  H    3.759579   3.101996   2.545821   3.759583   2.545823
    16  H    3.759582   2.545823   3.101993   4.318161   3.759581
    17  H    4.318157   3.759573   3.759571   3.759584   3.101999
                   11         12         13         14         15
    11  H    0.000000
    12  H    3.101993   0.000000
    13  H    2.545820   1.772333   0.000000
    14  H    3.759576   1.772338   1.772337   0.000000
    15  H    3.101998   4.318162   3.759582   3.759578   0.000000
    16  H    3.759579   3.759584   3.101999   2.545821   1.772337
    17  H    2.545828   3.759585   2.545831   3.101998   1.772328
                   16         17
    16  H    0.000000
    17  H    1.772329   0.000000
 This structure is nearly, but not quite of a higher symmetry.
 Consider Symm=Loose if the higher symmetry is desired.
 Framework group  C1[X(C5H12)]
 Deg. of freedom    45
                         Standard orientation:                         
 ---------------------------------------------------------------------
 Center     Atomic      Atomic             Coordinates (Angstroms)
 Number     Number       Type             X           Y           Z
 ---------------------------------------------------------------------
      1          6           0       -0.086339    0.987769   -1.162465
      2          6           0        0.000001    0.000007   -0.000002
      3          6           0        0.190419    0.767447    1.307375
      4          6           0       -1.289673   -0.816129    0.071719
      5          6           0        1.185597   -0.939094   -0.216628
      6          1           0       -0.930281    1.674951   -1.032244
      7          1           0       -0.223366    0.462719   -2.114801
      8          1           0        0.828006    1.587595   -1.237066
      9          1           0       -0.647895    1.450145    1.487861
     10          1           0        1.110403    1.362803    1.283037
     11          1           0        0.255621    0.081416    2.159729
     12          1           0       -2.158109   -0.165660    0.227056
     13          1           0       -1.254593   -1.534389    0.898924
     14          1           0       -1.451184   -1.377886   -0.855510
     15          1           0        2.125839   -0.378474   -0.271974
     16          1           0        1.074466   -1.503358   -1.149715
     17          1           0        1.271066   -1.659855    0.604710
 ---------------------------------------------------------------------
 Rotational constants (GHZ):           4.4767194           4.4767151           4.4767040
    94 basis functions,   173 primitive gaussians,    99 cartesian basis functions
    21 alpha electrons       21 beta electrons
       nuclear repulsion energy       198.9270907431 Hartrees.
 NAtoms=   17 NActive=   17 NUniq=   17 SFac= 1.00D+00 NAtFMM=   60 NAOKFM=F Big=F
 Nuclear repulsion after empirical dispersion term =      198.9167435710 Hartrees.
   1 Symmetry operations used in ECPInt.
 ECPInt:  NShTT=    1485 NPrTT=    5987 LenC2=    1486 LenP2D=    5117.
 LDataN:  DoStor=T MaxTD1= 4 Len=   56
 ExpMin= 1.22D-01 ExpMax= 1.24D+03 ExpMxC= 1.86D+02 IAcc=3 IRadAn=         5 AccDes= 0.00D+00
 Harris functional with IExCor= 4639 and IRadAn=       5 diagonalized for initial guess.
 HarFok:  IExCor= 4639 AccDes= 0.00D+00 IRadAn=         5 IDoV= 1 UseB2=F ITyADJ=14
 ICtDFT=  3500011 ScaDFX=  1.000000  1.000000  1.000000  1.000000
 FoFCou: FMM=F IPFlag=           0 FMFlag=      100000 FMFlg1=           0
         NFxFlg=           0 DoJE=T BraDBF=F KetDBF=T FulRan=T
         wScrn=  0.000000 ICntrl=       500 IOpCl=  0 I1Cent=   200000004 NGrid=           0
         NMat0=    1 NMatS0=      1 NMatT0=    0 NMatD0=    1 NMtDS0=    0 NMtDT0=    0
 Petite list used in FoFCou.
     Accept linear search using points  2 and  3.
     Accept linear search using points  1 and  2.
     Accept linear search using points  1 and  2.
     Minimum is close to point  2 DX= -1.31D-04 DF= -1.14D-13 DXR=  1.31D-04 DFR=  1.68D-08 which will be used.
 SCF Done:  E(RwB97XD) =  -197.546942662     a.u. after    7 cycles
            Convg  =    0.3325D-10                    28 Fock formations.
              S**2 =  0.0000                  -V/T =  2.0114

 **********************************************************************

            Population analysis using the SCF Density.

 **********************************************************************

 Orbital symmetries:
       Occupied  (A) (A) (A) (A) (A) (A) (A) (A) (A) (A) (A) (A)
                 (A) (A) (A) (A) (A) (A) (A) (A) (A)
       Virtual   (A) (A) (A) (A) (A) (A) (A) (A) (A) (A) (A) (A)
                 (A) (A) (A) (A) (A) (A) (A) (A) (A) (A) (A) (A)
                 (A) (A) (A) (A) (A) (A) (A) (A) (A) (A) (A) (A)
                 (A) (A) (A) (A) (A) (A) (A) (A) (A) (A) (A) (A)
                 (A) (A) (A) (A) (A) (A) (A) (A) (A) (A) (A) (A)
                 (A) (A) (A) (A) (A) (A) (A) (A) (A) (A) (A) (A)
                 (A)
 The electronic state is 1-A.
 Alpha  occ. eigenvalues --  -10.30107 -10.27340 -10.27340 -10.27340 -10.27337
 Alpha  occ. eigenvalues --   -0.91582  -0.77191  -0.77191  -0.77191  -0.61802
 Alpha  occ. eigenvalues --   -0.53571  -0.53571  -0.53571  -0.48382  -0.48382
 Alpha  occ. eigenvalues --   -0.44366  -0.44365  -0.44365  -0.39996  -0.39996
 Alpha  occ. eigenvalues --   -0.39996
 Alpha virt. eigenvalues --    0.12608   0.18686   0.18686   0.18686   0.20496
 Alpha virt. eigenvalues --    0.20496   0.20496   0.23785   0.23785   0.27565
 Alpha virt. eigenvalues --    0.27565   0.27565   0.27863   0.31428   0.31428
 Alpha virt. eigenvalues --    0.31428   0.46749   0.46749   0.51456   0.51456
 Alpha virt. eigenvalues --    0.51456   0.65122   0.65122   0.65123   0.68917
 Alpha virt. eigenvalues --    0.72976   0.77025   0.77025   0.77026   0.78732
 Alpha virt. eigenvalues --    0.78732   0.78732   0.81656   0.81656   0.81656
 Alpha virt. eigenvalues --    0.85543   0.85544   0.85544   0.85867   0.86067
 Alpha virt. eigenvalues --    0.86067   0.90220   0.90220   0.90221   1.09028
 Alpha virt. eigenvalues --    1.24573   1.24573   1.24573   1.46295   1.46297
 Alpha virt. eigenvalues --    1.80988   1.80989   1.80989   1.91871   1.91872
 Alpha virt. eigenvalues --    1.91873   2.11744   2.11745   2.13703   2.13703
 Alpha virt. eigenvalues --    2.13704   2.25708   2.25709   2.25709   2.27835
 Alpha virt. eigenvalues --    2.27836   2.27837   2.31020   2.64392   2.64393
 Alpha virt. eigenvalues --    2.77672   2.77673   2.77673
          Condensed to atoms (all electrons):
 Mulliken charges:
               1
     1  C   -0.258927
     2  C   -0.274125
     3  C   -0.258938
     4  C   -0.258949
     5  C   -0.258939
     6  H    0.109157
     7  H    0.109155
     8  H    0.109154
     9  H    0.109157
    10  H    0.109155
    11  H    0.109157
    12  H    0.109159
    13  H    0.109158
    14  H    0.109159
    15  H    0.109155
    16  H    0.109157
    17  H    0.109156
 Sum of Mulliken charges =   0.00000
 Mulliken charges with hydrogens summed into heavy atoms:
               1
     1  C    0.068539
     2  C   -0.274125
     3  C    0.068531
     4  C    0.068526
     5  C    0.068529
 Electronic spatial extent (au):  <R**2>=            481.5613
 Charge=              0.0000 electrons
 Dipole moment (field-independent basis, Debye):
    X=             -0.0000    Y=             -0.0000    Z=             -0.0000  Tot=              0.0000
   1 Symmetry operations used in ECPInt.
 ECPInt:  NShTT=    1485 NPrTT=    5987 LenC2=    1486 LenP2D=    5117.
 LDataN:  DoStor=T MaxTD1= 5 Len=  102
 Calling FoFJK, ICntrl=      2127 FMM=F ISym2X=0 I1Cent= 0 IOpClX= 0 NMat=1 NMatS=1 NMatT=0.

 GradGradGradGradGradGradGradGradGradGradGradGradGradGradGradGradGradGrad
 FormGI is forming the generalized inverse of G from B-inverse, IUseBI=4.
 Internal  Forces:  Max     0.005952344 RMS     0.002530259
 Step number   1 out of a maximum of   92
 All quantities printed in internal units (Hartrees-Bohrs-Radians)
 Mixed Optimization -- RFO/linear search
 Second derivative matrix not updated -- first step.
 ITU=  0
     Eigenvalues ---    0.00397   0.00397   0.00397   0.00397   0.04870
     Eigenvalues ---    0.04870   0.04870   0.05543   0.05543   0.05543
     Eigenvalues ---    0.05543   0.05543   0.05543   0.05543   0.05543
     Eigenvalues ---    0.14456   0.14456   0.16000   0.16000   0.16000
     Eigenvalues ---    0.16000   0.16000   0.16000   0.16000   0.16000
     Eigenvalues ---    0.16000   0.16000   0.16000   0.16000   0.29618
     Eigenvalues ---    0.29618   0.29619   0.29619   0.34118   0.34118
     Eigenvalues ---    0.34118   0.34118   0.34118   0.34118   0.34119
     Eigenvalues ---    0.34119   0.34119   0.34119   0.34119   0.34120
 Linear search not attempted -- first point.
 Iteration  1 RMS(Cart)=  0.01225309 RMS(Int)=  0.00000861
 Iteration  2 RMS(Cart)=  0.00001229 RMS(Int)=  0.00000110
 Iteration  3 RMS(Cart)=  0.00000000 RMS(Int)=  0.00000110
 Variable       Old X    -DE/DX   Delta X   Delta X   Delta X     New X
                                 (Linear)    (Quad)   (Total)
    R1        2.88729   0.00495   0.00000   0.01661   0.01661   2.90390
    R2        2.07131   0.00594   0.00000   0.01733   0.01733   2.08864
    R3        2.07130   0.00595   0.00000   0.01735   0.01735   2.08865
    R4        2.07128   0.00595   0.00000   0.01736   0.01736   2.08865
    R5        2.88730   0.00495   0.00000   0.01662   0.01662   2.90392
    R6        2.88731   0.00494   0.00000   0.01660   0.01660   2.90391
    R7        2.88731   0.00495   0.00000   0.01662   0.01662   2.90393
    R8        2.07132   0.00594   0.00000   0.01734   0.01734   2.08865
    R9        2.07131   0.00594   0.00000   0.01734   0.01734   2.08865
   R10        2.07130   0.00595   0.00000   0.01735   0.01735   2.08865
   R11        2.07132   0.00594   0.00000   0.01733   0.01733   2.08865
   R12        2.07130   0.00595   0.00000   0.01736   0.01736   2.08866
   R13        2.07131   0.00594   0.00000   0.01734   0.01734   2.08865
   R14        2.07131   0.00594   0.00000   0.01734   0.01734   2.08865
   R15        2.07129   0.00595   0.00000   0.01736   0.01736   2.08865
   R16        2.07130   0.00595   0.00000   0.01736   0.01736   2.08866
    A1        1.93738   0.00033   0.00000   0.00207   0.00207   1.93945
    A2        1.93738   0.00033   0.00000   0.00208   0.00208   1.93946
    A3        1.93739   0.00033   0.00000   0.00201   0.00200   1.93939
    A4        1.88314  -0.00035   0.00000  -0.00217  -0.00217   1.88097
    A5        1.88314  -0.00035   0.00000  -0.00218  -0.00218   1.88096
    A6        1.88315  -0.00035   0.00000  -0.00215  -0.00215   1.88099
    A7        1.91064  -0.00000   0.00000  -0.00003  -0.00003   1.91061
    A8        1.91064   0.00001   0.00000   0.00005   0.00005   1.91069
    A9        1.91063  -0.00001   0.00000  -0.00005  -0.00005   1.91059
   A10        1.91063  -0.00001   0.00000  -0.00003  -0.00003   1.91060
   A11        1.91063   0.00001   0.00000   0.00004   0.00004   1.91067
   A12        1.91062   0.00000   0.00000   0.00003   0.00003   1.91065
   A13        1.93738   0.00033   0.00000   0.00205   0.00205   1.93943
   A14        1.93738   0.00034   0.00000   0.00209   0.00209   1.93947
   A15        1.93739   0.00033   0.00000   0.00206   0.00206   1.93945
   A16        1.88314  -0.00035   0.00000  -0.00219  -0.00220   1.88094
   A17        1.88313  -0.00035   0.00000  -0.00218  -0.00218   1.88096
   A18        1.88315  -0.00035   0.00000  -0.00217  -0.00217   1.88098
   A19        1.93738   0.00033   0.00000   0.00206   0.00206   1.93944
   A20        1.93739   0.00033   0.00000   0.00201   0.00201   1.93940
   A21        1.93738   0.00034   0.00000   0.00209   0.00209   1.93947
   A22        1.88313  -0.00035   0.00000  -0.00217  -0.00218   1.88096
   A23        1.88313  -0.00035   0.00000  -0.00217  -0.00217   1.88096
   A24        1.88315  -0.00035   0.00000  -0.00216  -0.00216   1.88099
   A25        1.93737   0.00033   0.00000   0.00205   0.00205   1.93942
   A26        1.93739   0.00033   0.00000   0.00204   0.00204   1.93943
   A27        1.93739   0.00034   0.00000   0.00210   0.00209   1.93948
   A28        1.88315  -0.00035   0.00000  -0.00218  -0.00218   1.88096
   A29        1.88313  -0.00035   0.00000  -0.00218  -0.00218   1.88095
   A30        1.88314  -0.00035   0.00000  -0.00217  -0.00217   1.88097
    D1       -1.04720   0.00000   0.00000   0.00007   0.00007  -1.04713
    D2        1.04720  -0.00000   0.00000   0.00004   0.00004   1.04724
    D3        3.14159   0.00000   0.00000   0.00007   0.00007  -3.14152
    D4       -3.14158   0.00000   0.00000   0.00004   0.00004  -3.14155
    D5       -1.04719  -0.00000   0.00000   0.00001   0.00001  -1.04718
    D6        1.04720  -0.00000   0.00000   0.00004   0.00004   1.04724
    D7        1.04720   0.00000   0.00000   0.00004   0.00004   1.04723
    D8       -3.14159  -0.00000   0.00000   0.00001   0.00001  -3.14158
    D9       -1.04720  -0.00000   0.00000   0.00004   0.00004  -1.04716
   D10        1.04720   0.00000   0.00000   0.00005   0.00005   1.04725
   D11       -1.04719   0.00000   0.00000   0.00007   0.00007  -1.04712
   D12        3.14159   0.00000   0.00000   0.00004   0.00004  -3.14156
   D13       -1.04721  -0.00000   0.00000   0.00003   0.00003  -1.04717
   D14       -3.14159   0.00000   0.00000   0.00005   0.00005  -3.14154
   D15        1.04718  -0.00000   0.00000   0.00002   0.00002   1.04721
   D16       -3.14159  -0.00000   0.00000  -0.00000  -0.00000  -3.14159
   D17        1.04722  -0.00000   0.00000   0.00001   0.00001   1.04723
   D18       -1.04720  -0.00000   0.00000  -0.00001  -0.00001  -1.04721
   D19       -1.04720  -0.00000   0.00000  -0.00009  -0.00009  -1.04729
   D20       -3.14159   0.00000   0.00000  -0.00006  -0.00006   3.14153
   D21        1.04719  -0.00000   0.00000  -0.00007  -0.00007   1.04712
   D22        1.04721  -0.00000   0.00000  -0.00012  -0.00012   1.04708
   D23       -1.04719  -0.00000   0.00000  -0.00009  -0.00009  -1.04728
   D24        3.14159  -0.00000   0.00000  -0.00010  -0.00010   3.14149
   D25       -3.14159   0.00000   0.00000  -0.00008  -0.00008   3.14151
   D26        1.04720   0.00000   0.00000  -0.00005  -0.00005   1.04715
   D27       -1.04721   0.00000   0.00000  -0.00006  -0.00006  -1.04727
   D28        1.04721  -0.00000   0.00000   0.00010   0.00010   1.04730
   D29       -1.04719  -0.00000   0.00000   0.00013   0.00013  -1.04707
   D30        3.14159  -0.00000   0.00000   0.00011   0.00011  -3.14149
   D31       -1.04720   0.00000   0.00000   0.00015   0.00015  -1.04705
   D32        3.14159   0.00000   0.00000   0.00017   0.00017  -3.14143
   D33        1.04718   0.00000   0.00000   0.00015   0.00015   1.04733
   D34       -3.14158   0.00000   0.00000   0.00015   0.00015  -3.14144
   D35        1.04720   0.00000   0.00000   0.00017   0.00017   1.04738
   D36       -1.04720   0.00000   0.00000   0.00015   0.00015  -1.04705
         Item               Value     Threshold  Converged?
 Maximum Force            0.005952     0.000015     NO 
 RMS     Force            0.002530     0.000010     NO 
 Maximum Displacement     0.030400     0.000060     NO 
 RMS     Displacement     0.012260     0.000040     NO 
 GradGradGradGradGradGradGradGradGradGradGradGradGradGradGradGradGradGrad

                    Distance matrix (angstroms):
                    1          2          3          4          5
     1  C    0.000000
     2  C    1.536680   0.000000
     3  C    2.509372   1.536689   0.000000
     4  C    2.509440   1.536684   2.509366   0.000000
     5  C    2.509358   1.536694   2.509439   2.509417   0.000000
     6  H    1.105263   2.192507   2.767080   2.767221   3.483973
     7  H    1.105266   2.192516   3.483988   2.767200   2.767125
     8  H    1.105266   2.192465   2.767078   3.484006   2.767027
     9  H    2.767122   2.192501   1.105267   2.767076   3.484027
    10  H    2.767096   2.192530   1.105267   3.483988   2.767225
    11  H    3.483980   2.192515   1.105263   2.767110   2.767200
    12  H    2.767238   2.192505   2.767044   1.105265   3.484014
    13  H    3.484015   2.192483   2.767105   1.105269   2.767108
    14  H    2.767181   2.192526   3.483987   1.105265   2.767215
    15  H    2.767126   2.192502   2.767107   3.484005   1.105265
    16  H    2.767020   2.192506   3.484026   2.767236   1.105266
    17  H    3.483992   2.192549   2.767293   2.767132   1.105270
                    6          7          8          9         10
     6  H    0.000000
     7  H    1.785762   0.000000
     8  H    1.785757   1.785780   0.000000
     9  H    2.564482   3.787513   3.125020   0.000000
    10  H    3.124908   3.787529   2.564450   1.785748   0.000000
    11  H    3.787502   4.350305   3.787466   1.785755   1.785770
    12  H    2.564695   3.125156   3.787610   2.564396   3.787459
    13  H    3.787618   3.787577   4.350259   3.124995   3.787519
    14  H    3.125086   2.564609   3.787572   3.787466   4.350325
    15  H    3.787503   3.125081   2.564441   3.787518   2.564556
    16  H    3.787459   2.564432   3.124817   4.350305   3.787576
    17  H    4.350323   3.787518   3.787474   3.787673   3.125247
                   11         12         13         14         15
    11  H    0.000000
    12  H    3.124910   0.000000
    13  H    2.564501   1.785760   0.000000
    14  H    3.787547   1.785759   1.785779   0.000000
    15  H    3.124983   4.350298   3.787467   3.787641   0.000000
    16  H    3.787633   3.787632   3.125121   2.564710   1.785760
    17  H    2.564732   3.787532   2.564473   3.125037   1.785754
                   16         17
    16  H    0.000000
    17  H    1.785770   0.000000
 Framework group  C1[X(C5H12)]
 Deg. of freedom    45
                         Standard orientation:                         
 ---------------------------------------------------------------------
 Center     Atomic      Atomic             Coordinates (Angstroms)
 Number     Number       Type             X           Y           Z
 ---------------------------------------------------------------------
      1          6           0        0.724039    0.857810   -1.049429
      2          6           0       -0.000003   -0.000014   -0.000008
      3          6           0       -0.777259    0.913578    0.960531
      4          6           0       -0.978115   -0.953450   -0.704035
      5          6           0        1.031339   -0.817945    0.792931
      6          1           0        0.006072    1.458796   -1.636750
      7          1           0        1.293043    0.226559   -1.756089
      8          1           0        1.435979    1.555106   -0.571378
      9          1           0       -1.528255    1.515687    0.417312
     10          1           0       -0.098343    1.612210    1.482643
     11          1           0       -1.309572    0.323232    1.728477
     12          1           0       -1.733579   -0.392322   -1.283708
     13          1           0       -1.514767   -1.584854    0.027370
     14          1           0       -0.446564   -1.624500   -1.403146
     15          1           0        1.749942   -0.157391    1.311476
     16          1           0        1.607207   -1.485913    0.126742
     17          1           0        0.538825   -1.446489    1.557120
 ---------------------------------------------------------------------
 Rotational constants (GHZ):           4.4207594           4.4206526           4.4204999
    94 basis functions,   173 primitive gaussians,    99 cartesian basis functions
    21 alpha electrons       21 beta electrons
       nuclear repulsion energy       197.6086560517 Hartrees.
 NAtoms=   17 NActive=   17 NUniq=   17 SFac= 1.00D+00 NAtFMM=   60 NAOKFM=F Big=F
 Nuclear repulsion after empirical dispersion term =      197.5983233018 Hartrees.
   1 Symmetry operations used in ECPInt.
 ECPInt:  NShTT=    1485 NPrTT=    5987 LenC2=    1486 LenP2D=    5105.
 LDataN:  DoStor=T MaxTD1= 4 Len=   56
 Initial guess from the checkpoint file:  "/scratch/user/peterchao1/peterchao1/6097794_1659647567000000408741127/Gau-201323.chk"
 B after Tr=     0.000000    0.000000   -0.000000
         Rot=    0.926644    0.066832    0.368249   -0.035453 Ang=  44.16 deg.
 ExpMin= 1.22D-01 ExpMax= 1.24D+03 ExpMxC= 1.86D+02 IAcc=3 IRadAn=         5 AccDes= 0.00D+00
 Harris functional with IExCor= 4639 and IRadAn=       5 diagonalized for initial guess.
 HarFok:  IExCor= 4639 AccDes= 0.00D+00 IRadAn=         5 IDoV= 1 UseB2=F ITyADJ=14
 ICtDFT=  3500011 ScaDFX=  1.000000  1.000000  1.000000  1.000000
 FoFCou: FMM=F IPFlag=           0 FMFlag=      100000 FMFlg1=           0
         NFxFlg=           0 DoJE=T BraDBF=F KetDBF=T FulRan=T
         wScrn=  0.000000 ICntrl=       500 IOpCl=  0 I1Cent=   200000004 NGrid=           0
         NMat0=    1 NMatS0=      1 NMatT0=    0 NMatD0=    1 NMtDS0=    0 NMtDT0=    0
 Petite list used in FoFCou.
     Minimum is close to point  2 DX=  2.64D-05 DF= -2.84D-14 DXR=  2.64D-05 DFR=  1.32D-09 which will be used.
 SCF Done:  E(RwB97XD) =  -197.547681618     a.u. after    4 cycles
            Convg  =    0.1989D-09                    20 Fock formations.
              S**2 =  0.0000                  -V/T =  2.0125
   1 Symmetry operations used in ECPInt.
 ECPInt:  NShTT=    1485 NPrTT=    5987 LenC2=    1486 LenP2D=    5105.
 LDataN:  DoStor=T MaxTD1= 5 Len=  102
 Calling FoFJK, ICntrl=      2127 FMM=F ISym2X=0 I1Cent= 0 IOpClX= 0 NMat=1 NMatS=1 NMatT=0.

 GradGradGradGradGradGradGradGradGradGradGradGradGradGradGradGradGradGrad
 Using GEDIIS/GDIIS optimizer.
 FormGI is forming the generalized inverse of G from B-inverse, IUseBI=4.
 Internal  Forces:  Max     0.000923332 RMS     0.000214224
 Step number   2 out of a maximum of   92
 All quantities printed in internal units (Hartrees-Bohrs-Radians)
 Mixed Optimization -- En-DIIS/RFO-DIIS
 Trust test= 9.29D-01 RLast= 6.94D-02 DXMaxT set to 3.00D-01
 ITU=  1  0
 Use linear search instead of GDIIS.
     Eigenvalues ---    0.00397   0.00397   0.00397   0.00397   0.04870
     Eigenvalues ---    0.04870   0.04871   0.05521   0.05522   0.05522
     Eigenvalues ---    0.05522   0.05522   0.05522   0.05522   0.05522
     Eigenvalues ---    0.14455   0.14456   0.16000   0.16000   0.16000
     Eigenvalues ---    0.16000   0.16000   0.16000   0.16000   0.16000
     Eigenvalues ---    0.16000   0.16000   0.16000   0.16074   0.29618
     Eigenvalues ---    0.29619   0.29619   0.30562   0.34118   0.34118
     Eigenvalues ---    0.34118   0.34118   0.34118   0.34119   0.34119
     Eigenvalues ---    0.34119   0.34119   0.34119   0.34120   0.34968
 Quartic linear search produced a step of -0.05560.
 Iteration  1 RMS(Cart)=  0.00167744 RMS(Int)=  0.00000014
 Iteration  2 RMS(Cart)=  0.00000015 RMS(Int)=  0.00000002
 Variable       Old X    -DE/DX   Delta X   Delta X   Delta X     New X
                                 (Linear)    (Quad)   (Total)
    R1        2.90390  -0.00091  -0.00092  -0.00193  -0.00285   2.90105
    R2        2.08864  -0.00012  -0.00096   0.00070  -0.00027   2.08838
    R3        2.08865  -0.00012  -0.00096   0.00068  -0.00029   2.08836
    R4        2.08865  -0.00011  -0.00097   0.00071  -0.00026   2.08839
    R5        2.90392  -0.00092  -0.00092  -0.00195  -0.00287   2.90105
    R6        2.90391  -0.00092  -0.00092  -0.00195  -0.00287   2.90104
    R7        2.90393  -0.00092  -0.00092  -0.00197  -0.00289   2.90104
    R8        2.08865  -0.00012  -0.00096   0.00069  -0.00027   2.08838
    R9        2.08865  -0.00012  -0.00096   0.00069  -0.00027   2.08838
   R10        2.08865  -0.00012  -0.00096   0.00070  -0.00026   2.08838
   R11        2.08865  -0.00011  -0.00096   0.00071  -0.00025   2.08839
   R12        2.08866  -0.00013  -0.00097   0.00068  -0.00029   2.08837
   R13        2.08865  -0.00012  -0.00096   0.00070  -0.00027   2.08838
   R14        2.08865  -0.00012  -0.00096   0.00069  -0.00027   2.08837
   R15        2.08865  -0.00012  -0.00096   0.00069  -0.00028   2.08837
   R16        2.08866  -0.00012  -0.00097   0.00068  -0.00028   2.08838
    A1        1.93945  -0.00010  -0.00012  -0.00044  -0.00056   1.93889
    A2        1.93946  -0.00009  -0.00012  -0.00045  -0.00056   1.93890
    A3        1.93939  -0.00008  -0.00011  -0.00036  -0.00047   1.93892
    A4        1.88097   0.00010   0.00012   0.00042   0.00055   1.88151
    A5        1.88096   0.00010   0.00012   0.00048   0.00060   1.88156
    A6        1.88099   0.00009   0.00012   0.00043   0.00055   1.88154
    A7        1.91061   0.00000   0.00000   0.00002   0.00002   1.91063
    A8        1.91069  -0.00001  -0.00000  -0.00003  -0.00003   1.91066
    A9        1.91059   0.00001   0.00000   0.00005   0.00005   1.91064
   A10        1.91060   0.00000   0.00000   0.00001   0.00001   1.91061
   A11        1.91067  -0.00001  -0.00000  -0.00005  -0.00005   1.91062
   A12        1.91065   0.00000  -0.00000  -0.00001  -0.00001   1.91064
   A13        1.93943  -0.00010  -0.00011  -0.00045  -0.00056   1.93886
   A14        1.93947  -0.00009  -0.00012  -0.00044  -0.00056   1.93891
   A15        1.93945  -0.00009  -0.00011  -0.00040  -0.00051   1.93894
   A16        1.88094   0.00010   0.00012   0.00047   0.00060   1.88154
   A17        1.88096   0.00010   0.00012   0.00046   0.00058   1.88154
   A18        1.88098   0.00010   0.00012   0.00043   0.00055   1.88153
   A19        1.93944  -0.00009  -0.00011  -0.00043  -0.00055   1.93889
   A20        1.93940  -0.00010  -0.00011  -0.00046  -0.00057   1.93884
   A21        1.93947  -0.00010  -0.00012  -0.00045  -0.00056   1.93891
   A22        1.88096   0.00010   0.00012   0.00049   0.00061   1.88157
   A23        1.88096   0.00010   0.00012   0.00047   0.00059   1.88156
   A24        1.88099   0.00010   0.00012   0.00046   0.00058   1.88156
   A25        1.93942  -0.00010  -0.00011  -0.00046  -0.00058   1.93885
   A26        1.93943  -0.00009  -0.00011  -0.00039  -0.00051   1.93892
   A27        1.93948  -0.00010  -0.00012  -0.00048  -0.00059   1.93889
   A28        1.88096   0.00010   0.00012   0.00047   0.00059   1.88155
   A29        1.88095   0.00010   0.00012   0.00049   0.00061   1.88156
   A30        1.88097   0.00010   0.00012   0.00045   0.00058   1.88155
    D1       -1.04713  -0.00001  -0.00000  -0.00032  -0.00032  -1.04745
    D2        1.04724  -0.00000  -0.00000  -0.00031  -0.00031   1.04693
    D3       -3.14152  -0.00000  -0.00000  -0.00031  -0.00031   3.14135
    D4       -3.14155  -0.00000  -0.00000  -0.00026  -0.00026   3.14138
    D5       -1.04718   0.00000  -0.00000  -0.00025  -0.00025  -1.04743
    D6        1.04724   0.00000  -0.00000  -0.00024  -0.00025   1.04700
    D7        1.04723  -0.00000  -0.00000  -0.00026  -0.00026   1.04698
    D8       -3.14158   0.00000  -0.00000  -0.00024  -0.00024   3.14136
    D9       -1.04716   0.00000  -0.00000  -0.00024  -0.00024  -1.04741
   D10        1.04725  -0.00000  -0.00000   0.00022   0.00022   1.04747
   D11       -1.04712  -0.00000  -0.00000   0.00022   0.00021  -1.04691
   D12       -3.14156  -0.00000  -0.00000   0.00023   0.00023  -3.14132
   D13       -1.04717   0.00000  -0.00000   0.00023   0.00023  -1.04694
   D14       -3.14154   0.00000  -0.00000   0.00023   0.00023  -3.14132
   D15        1.04721   0.00000  -0.00000   0.00025   0.00025   1.04745
   D16       -3.14159   0.00000   0.00000   0.00026   0.00026  -3.14133
   D17        1.04723   0.00000  -0.00000   0.00026   0.00026   1.04748
   D18       -1.04721   0.00000   0.00000   0.00028   0.00028  -1.04693
   D19       -1.04729   0.00000   0.00001   0.00003   0.00003  -1.04726
   D20        3.14153  -0.00000   0.00000   0.00001   0.00001   3.14155
   D21        1.04712   0.00000   0.00000   0.00004   0.00004   1.04716
   D22        1.04708   0.00000   0.00001   0.00005   0.00005   1.04714
   D23       -1.04728   0.00000   0.00001   0.00003   0.00003  -1.04725
   D24        3.14149   0.00000   0.00001   0.00005   0.00006   3.14155
   D25        3.14151  -0.00000   0.00000  -0.00001  -0.00000   3.14151
   D26        1.04715  -0.00000   0.00000  -0.00003  -0.00002   1.04713
   D27       -1.04727  -0.00000   0.00000   0.00000   0.00000  -1.04726
   D28        1.04730   0.00000  -0.00001  -0.00004  -0.00005   1.04725
   D29       -1.04707   0.00000  -0.00001  -0.00006  -0.00007  -1.04714
   D30       -3.14149   0.00000  -0.00001  -0.00006  -0.00006  -3.14156
   D31       -1.04705   0.00000  -0.00001  -0.00007  -0.00008  -1.04713
   D32       -3.14143  -0.00000  -0.00001  -0.00009  -0.00010  -3.14153
   D33        1.04733  -0.00000  -0.00001  -0.00009  -0.00009   1.04724
   D34       -3.14144  -0.00000  -0.00001  -0.00006  -0.00006  -3.14150
   D35        1.04738  -0.00000  -0.00001  -0.00008  -0.00009   1.04729
   D36       -1.04705  -0.00000  -0.00001  -0.00007  -0.00008  -1.04713
         Item               Value     Threshold  Converged?
 Maximum Force            0.000923     0.000015     NO 
 RMS     Force            0.000214     0.000010     NO 
 Maximum Displacement     0.004033     0.000060     NO 
 RMS     Displacement     0.001678     0.000040     NO 
 GradGradGradGradGradGradGradGradGradGradGradGradGradGradGradGradGradGrad

                    Distance matrix (angstroms):
                    1          2          3          4          5
     1  C    0.000000
     2  C    1.535170   0.000000
     3  C    2.506919   1.535167   0.000000
     4  C    2.506938   1.535164   2.506895   0.000000
     5  C    2.506920   1.535164   2.506906   2.506919   0.000000
     6  H    1.105122   2.190664   2.764447   2.764228   3.481184
     7  H    1.105115   2.190662   3.481179   2.764461   2.764238
     8  H    1.105131   2.190690   2.764252   3.481217   2.764457
     9  H    2.764429   2.190640   1.105122   2.764156   3.481161
    10  H    2.764212   2.190678   1.105124   3.481177   2.764468
    11  H    3.481209   2.190699   1.105125   2.764464   2.764234
    12  H    2.764383   2.190665   2.764275   1.105131   3.481191
    13  H    3.481169   2.190614   2.764272   1.105116   2.764248
    14  H    2.764347   2.190670   3.481173   1.105122   2.764374
    15  H    2.764318   2.190626   2.764246   3.481162   1.105120
    16  H    2.764330   2.190680   3.481186   2.764402   1.105119
    17  H    3.481185   2.190658   2.764333   2.764297   1.105122
                    6          7          8          9         10
     6  H    0.000000
     7  H    1.785881   0.000000
     8  H    1.785924   1.785904   0.000000
     9  H    2.561240   3.784541   3.122246   0.000000
    10  H    3.122196   3.784290   2.560781   1.785904   0.000000
    11  H    3.784598   4.346939   3.784331   1.785905   1.785900
    12  H    2.560926   3.122447   3.784431   2.560770   3.784325
    13  H    3.784349   3.784501   4.346899   3.121976   3.784440
    14  H    3.122025   2.561150   3.784522   3.784282   4.346924
    15  H    3.784467   3.122081   2.561125   3.784410   2.561075
    16  H    3.784379   2.560904   3.122359   4.346902   3.784527
    17  H    4.346907   3.784353   3.784543   3.784358   3.122443
                   11         12         13         14         15
    11  H    0.000000
    12  H    3.122352   0.000000
    13  H    2.561112   1.785924   0.000000
    14  H    3.784555   1.785922   1.785915   0.000000
    15  H    3.121961   4.346884   3.784317   3.784477   0.000000
    16  H    3.784392   3.784521   3.122213   2.561131   1.785909
    17  H    2.560912   3.784394   2.560879   3.122216   1.785912
                   16         17
    16  H    0.000000
    17  H    1.785907   0.000000
 Framework group  C1[X(C5H12)]
 Deg. of freedom    45
                         Standard orientation:                         
 ---------------------------------------------------------------------
 Center     Atomic      Atomic             Coordinates (Angstroms)
 Number     Number       Type             X           Y           Z
 ---------------------------------------------------------------------
      1          6           0        1.417600    0.585526   -0.065858
      2          6           0        0.000006   -0.000000   -0.000013
      3          6           0       -0.596888    0.259800    1.390296
      4          6           0       -0.879254    0.666985   -1.067139
      5          6           0        0.058538   -1.512317   -0.257306
      6          1           0        1.406451    1.675563    0.115772
      7          1           0        1.873488    0.412891   -1.057644
      8          1           0        2.074505    0.123172    0.693101
      9          1           0       -0.651705    1.342784    1.603455
     10          1           0        0.016741   -0.209499    2.180561
     11          1           0       -1.619547   -0.151944    1.467339
     12          1           0       -0.939983    1.758737   -0.906808
     13          1           0       -1.908062    0.264166   -1.043220
     14          1           0       -0.473007    0.496352   -2.080620
     15          1           0        0.686113   -2.020061    0.497436
     16          1           0        0.485078   -1.730069   -1.253266
     17          1           0       -0.950085   -1.962056   -0.215987
 ---------------------------------------------------------------------
 Rotational constants (GHZ):           4.4289958           4.4289511           4.4289174
    94 basis functions,   173 primitive gaussians,    99 cartesian basis functions
    21 alpha electrons       21 beta electrons
       nuclear repulsion energy       197.7671592611 Hartrees.
 NAtoms=   17 NActive=   17 NUniq=   17 SFac= 1.00D+00 NAtFMM=   60 NAOKFM=F Big=F
 Nuclear repulsion after empirical dispersion term =      197.7568191009 Hartrees.
   1 Symmetry operations used in ECPInt.
 ECPInt:  NShTT=    1485 NPrTT=    5987 LenC2=    1486 LenP2D=    5105.
 LDataN:  DoStor=T MaxTD1= 4 Len=   56
 Initial guess from the checkpoint file:  "/scratch/user/peterchao1/peterchao1/6097794_1659647567000000408741127/Gau-201323.chk"
 B after Tr=    -0.000000    0.000000    0.000000
         Rot=    0.838631   -0.424140    0.099106    0.327080 Ang= -66.01 deg.
     Accept linear search using points  2 and  3.
     Minimum is close to point  2 DX=  4.42D-05 DF=  0.00D+00 DXR=  4.42D-05 DFR=  0.00D+00 which will be used.
 SCF Done:  E(RwB97XD) =  -197.547688100     a.u. after    2 cycles
            Convg  =    0.1556D-06                    10 Fock formations.
              S**2 =  0.0000                  -V/T =  2.0124
   1 Symmetry operations used in ECPInt.
 ECPInt:  NShTT=    1485 NPrTT=    5987 LenC2=    1486 LenP2D=    5105.
 LDataN:  DoStor=T MaxTD1= 5 Len=  102
 Calling FoFJK, ICntrl=      2127 FMM=F ISym2X=0 I1Cent= 0 IOpClX= 0 NMat=1 NMatS=1 NMatT=0.

 GradGradGradGradGradGradGradGradGradGradGradGradGradGradGradGradGradGrad
 Using GEDIIS/GDIIS optimizer.
 FormGI is forming the generalized inverse of G from B-inverse, IUseBI=4.
 Internal  Forces:  Max     0.000063670 RMS     0.000021351
 Step number   3 out of a maximum of   92
 All quantities printed in internal units (Hartrees-Bohrs-Radians)
 Mixed Optimization -- En-DIIS/RFO-DIIS
 Swapping is turned off.
 Trust test= 1.07D+00 RLast= 6.55D-03 DXMaxT set to 3.00D-01
 ITU=  1  1  0
     Eigenvalues ---    0.00397   0.00397   0.00397   0.00397   0.04870
     Eigenvalues ---    0.04870   0.04871   0.05527   0.05527   0.05527
     Eigenvalues ---    0.05527   0.05528   0.05528   0.05528   0.05528
     Eigenvalues ---    0.14456   0.14456   0.15997   0.16000   0.16000
     Eigenvalues ---    0.16000   0.16000   0.16000   0.16000   0.16000
     Eigenvalues ---    0.16000   0.16000   0.16000   0.16669   0.29618
     Eigenvalues ---    0.29619   0.29619   0.33060   0.33547   0.34118
     Eigenvalues ---    0.34118   0.34118   0.34118   0.34118   0.34119
     Eigenvalues ---    0.34119   0.34119   0.34119   0.34120   0.34177
 En-DIIS/RFO-DIIS/Sim-DIIS IScMMF=       -3 using points:     3    2
 RFO step:  Lambda=-1.52563787D-07.
 DidBck=F Rises=F RFO-DIIS coefs:    0.89076    0.10924
 Iteration  1 RMS(Cart)=  0.00021592 RMS(Int)=  0.00000002
 Iteration  2 RMS(Cart)=  0.00000002 RMS(Int)=  0.00000000
 Variable       Old X    -DE/DX   Delta X   Delta X   Delta X     New X
                                 (Linear)    (Quad)   (Total)
    R1        2.90105   0.00006   0.00031  -0.00015   0.00016   2.90121
    R2        2.08838  -0.00002   0.00003  -0.00010  -0.00007   2.08830
    R3        2.08836  -0.00002   0.00003  -0.00009  -0.00005   2.08831
    R4        2.08839  -0.00003   0.00003  -0.00011  -0.00008   2.08831
    R5        2.90105   0.00006   0.00031  -0.00015   0.00016   2.90121
    R6        2.90104   0.00006   0.00031  -0.00014   0.00017   2.90121
    R7        2.90104   0.00006   0.00032  -0.00015   0.00017   2.90121
    R8        2.08838  -0.00002   0.00003  -0.00010  -0.00007   2.08831
    R9        2.08838  -0.00003   0.00003  -0.00011  -0.00008   2.08830
   R10        2.08838  -0.00003   0.00003  -0.00011  -0.00008   2.08830
   R11        2.08839  -0.00003   0.00003  -0.00011  -0.00009   2.08831
   R12        2.08837  -0.00002   0.00003  -0.00009  -0.00006   2.08831
   R13        2.08838  -0.00002   0.00003  -0.00009  -0.00007   2.08831
   R14        2.08837  -0.00002   0.00003  -0.00010  -0.00007   2.08830
   R15        2.08837  -0.00002   0.00003  -0.00009  -0.00006   2.08831
   R16        2.08838  -0.00002   0.00003  -0.00010  -0.00007   2.08830
    A1        1.93889   0.00003   0.00006   0.00010   0.00016   1.93905
    A2        1.93890   0.00002   0.00006   0.00007   0.00013   1.93903
    A3        1.93892   0.00002   0.00005   0.00007   0.00013   1.93904
    A4        1.88151  -0.00003  -0.00006  -0.00008  -0.00014   1.88137
    A5        1.88156  -0.00003  -0.00007  -0.00010  -0.00016   1.88140
    A6        1.88154  -0.00003  -0.00006  -0.00009  -0.00015   1.88139
    A7        1.91063  -0.00000  -0.00000  -0.00001  -0.00001   1.91062
    A8        1.91066  -0.00000   0.00000  -0.00002  -0.00002   1.91064
    A9        1.91064  -0.00000  -0.00001  -0.00002  -0.00002   1.91061
   A10        1.91061   0.00000  -0.00000   0.00002   0.00002   1.91063
   A11        1.91062   0.00000   0.00001   0.00003   0.00003   1.91066
   A12        1.91064  -0.00000   0.00000   0.00000   0.00001   1.91065
   A13        1.93886   0.00003   0.00006   0.00008   0.00014   1.93900
   A14        1.93891   0.00002   0.00006   0.00005   0.00011   1.93902
   A15        1.93894   0.00002   0.00006   0.00006   0.00011   1.93905
   A16        1.88154  -0.00002  -0.00007  -0.00007  -0.00013   1.88140
   A17        1.88154  -0.00002  -0.00006  -0.00006  -0.00013   1.88141
   A18        1.88153  -0.00002  -0.00006  -0.00007  -0.00013   1.88140
   A19        1.93889   0.00002   0.00006   0.00006   0.00012   1.93901
   A20        1.93884   0.00003   0.00006   0.00013   0.00019   1.93902
   A21        1.93891   0.00002   0.00006   0.00006   0.00012   1.93903
   A22        1.88157  -0.00003  -0.00007  -0.00009  -0.00016   1.88141
   A23        1.88156  -0.00003  -0.00006  -0.00010  -0.00016   1.88140
   A24        1.88156  -0.00003  -0.00006  -0.00007  -0.00014   1.88143
   A25        1.93885   0.00003   0.00006   0.00010   0.00016   1.93901
   A26        1.93892   0.00002   0.00006   0.00005   0.00010   1.93903
   A27        1.93889   0.00002   0.00006   0.00007   0.00013   1.93902
   A28        1.88155  -0.00003  -0.00006  -0.00008  -0.00014   1.88141
   A29        1.88156  -0.00003  -0.00007  -0.00009  -0.00016   1.88140
   A30        1.88155  -0.00002  -0.00006  -0.00006  -0.00012   1.88143
    D1       -1.04745   0.00000   0.00004   0.00026   0.00030  -1.04715
    D2        1.04693   0.00000   0.00003   0.00027   0.00030   1.04723
    D3        3.14135   0.00000   0.00003   0.00025   0.00028  -3.14155
    D4        3.14138   0.00000   0.00003   0.00025   0.00028  -3.14153
    D5       -1.04743   0.00000   0.00003   0.00025   0.00028  -1.04715
    D6        1.04700  -0.00000   0.00003   0.00023   0.00026   1.04725
    D7        1.04698   0.00000   0.00003   0.00026   0.00029   1.04726
    D8        3.14136   0.00000   0.00003   0.00026   0.00029  -3.14154
    D9       -1.04741   0.00000   0.00003   0.00025   0.00027  -1.04714
   D10        1.04747  -0.00000  -0.00002  -0.00020  -0.00023   1.04724
   D11       -1.04691  -0.00000  -0.00002  -0.00020  -0.00023  -1.04714
   D12       -3.14132  -0.00000  -0.00003  -0.00019  -0.00021  -3.14154
   D13       -1.04694  -0.00000  -0.00003  -0.00018  -0.00021  -1.04715
   D14       -3.14132  -0.00000  -0.00002  -0.00018  -0.00021  -3.14152
   D15        1.04745   0.00000  -0.00003  -0.00017  -0.00019   1.04726
   D16       -3.14133  -0.00000  -0.00003  -0.00022  -0.00024  -3.14157
   D17        1.04748  -0.00000  -0.00003  -0.00022  -0.00025   1.04724
   D18       -1.04693  -0.00000  -0.00003  -0.00020  -0.00023  -1.04716
   D19       -1.04726   0.00000  -0.00000   0.00008   0.00007  -1.04718
   D20        3.14155   0.00000  -0.00000   0.00007   0.00007  -3.14157
   D21        1.04716  -0.00000  -0.00000   0.00004   0.00003   1.04719
   D22        1.04714  -0.00000  -0.00001   0.00006   0.00006   1.04719
   D23       -1.04725  -0.00000  -0.00000   0.00006   0.00005  -1.04719
   D24        3.14155  -0.00000  -0.00001   0.00002   0.00002   3.14157
   D25        3.14151   0.00000   0.00000   0.00011   0.00011  -3.14156
   D26        1.04713   0.00000   0.00000   0.00011   0.00011   1.04724
   D27       -1.04726   0.00000  -0.00000   0.00007   0.00007  -1.04719
   D28        1.04725  -0.00000   0.00001  -0.00006  -0.00005   1.04720
   D29       -1.04714  -0.00000   0.00001  -0.00006  -0.00005  -1.04719
   D30       -3.14156  -0.00000   0.00001  -0.00006  -0.00006   3.14157
   D31       -1.04713   0.00000   0.00001  -0.00005  -0.00004  -1.04718
   D32       -3.14153   0.00000   0.00001  -0.00005  -0.00004  -3.14157
   D33        1.04724   0.00000   0.00001  -0.00005  -0.00004   1.04720
   D34       -3.14150  -0.00000   0.00001  -0.00010  -0.00009  -3.14159
   D35        1.04729  -0.00000   0.00001  -0.00010  -0.00009   1.04720
   D36       -1.04713  -0.00000   0.00001  -0.00010  -0.00009  -1.04721
         Item               Value     Threshold  Converged?
 Maximum Force            0.000064     0.000015     NO 
 RMS     Force            0.000021     0.000010     NO 
 Maximum Displacement     0.000581     0.000060     NO 
 RMS     Displacement     0.000216     0.000040     NO 
 GradGradGradGradGradGradGradGradGradGradGradGradGradGradGradGradGradGrad

                    Distance matrix (angstroms):
                    1          2          3          4          5
     1  C    0.000000
     2  C    1.535254   0.000000
     3  C    2.507045   1.535254   0.000000
     4  C    2.507063   1.535254   2.507057   0.000000
     5  C    2.507040   1.535252   2.507077   2.507069   0.000000
     6  H    1.105083   2.190827   2.764545   2.764603   3.481344
     7  H    1.105086   2.190809   3.481339   2.764542   2.764564
     8  H    1.105087   2.190822   2.764588   3.481361   2.764523
     9  H    2.764542   2.190792   1.105085   2.764514   3.481351
    10  H    2.764508   2.190803   1.105080   3.481341   2.764598
    11  H    3.481347   2.190826   1.105082   2.764609   2.764589
    12  H    2.764544   2.190797   2.764541   1.105086   3.481349
    13  H    3.481351   2.190807   2.764552   1.105086   2.764589
    14  H    2.764565   2.190812   3.481350   1.105088   2.764573
    15  H    2.764523   2.190794   2.764558   3.481347   1.105083
    16  H    2.764533   2.190806   3.481362   2.764575   1.105086
    17  H    3.481330   2.190801   2.764578   2.764576   1.105083
                    6          7          8          9         10
     6  H    0.000000
     7  H    1.785736   0.000000
     8  H    1.785753   1.785750   0.000000
     9  H    2.561379   3.784633   3.122504   0.000000
    10  H    3.122364   3.784643   2.561389   1.785750   0.000000
    11  H    3.784681   4.347166   3.784683   1.785758   1.785744
    12  H    2.561425   3.122398   3.784673   2.561330   3.784628
    13  H    3.784704   3.784663   4.347167   3.122392   3.784674
    14  H    3.122491   2.561379   3.784667   3.784625   4.347152
    15  H    3.784629   3.122456   2.561336   3.784665   2.561423
    16  H    3.784660   2.561393   3.122385   4.347145   3.784694
    17  H    4.347159   3.784671   3.784635   3.784672   3.122497
                   11         12         13         14         15
    11  H    0.000000
    12  H    3.122494   0.000000
    13  H    2.561448   1.785759   0.000000
    14  H    3.784722   1.785753   1.785774   0.000000
    15  H    3.122439   4.347136   3.784686   3.784676   0.000000
    16  H    3.784708   3.784671   3.122494   2.561417   1.785759
    17  H    2.561435   3.784685   2.561439   3.122470   1.785749
                   16         17
    16  H    0.000000
    17  H    1.785768   0.000000
 Framework group  C1[X(C5H12)]
 Deg. of freedom    45
                         Standard orientation:                         
 ---------------------------------------------------------------------
 Center     Atomic      Atomic             Coordinates (Angstroms)
 Number     Number       Type             X           Y           Z
 ---------------------------------------------------------------------
      1          6           0        0.587374    0.575693   -1.296353
      2          6           0       -0.000003   -0.000009    0.000011
      3          6           0       -0.853291    1.070558    0.694844
      4          6           0       -0.875571   -1.216884   -0.331044
      5          6           0        1.141487   -0.429371    0.932560
      6          1           0       -0.212931    0.894054   -1.988716
      7          1           0        1.207848   -0.174392   -1.819421
      8          1           0        1.223814    1.454910   -1.088651
      9          1           0       -1.684857    1.399546    0.045632
     10          1           0       -0.248145    1.960556    0.945648
     11          1           0       -1.290142    0.683757    1.633328
     12          1           0       -1.707596   -0.937403   -1.002490
     13          1           0       -1.312949   -1.653307    0.585172
     14          1           0       -0.286768   -2.005809   -0.833167
     15          1           0        1.789867    0.428111    1.188564
     16          1           0        1.774018   -1.201214    0.457820
     17          1           0        0.747862   -0.848729    1.876173
 ---------------------------------------------------------------------
 Rotational constants (GHZ):           4.4284583           4.4284251           4.4283829
    94 basis functions,   173 primitive gaussians,    99 cartesian basis functions
    21 alpha electrons       21 beta electrons
       nuclear repulsion energy       197.7584549056 Hartrees.
 NAtoms=   17 NActive=   17 NUniq=   17 SFac= 1.00D+00 NAtFMM=   60 NAOKFM=F Big=F
 Nuclear repulsion after empirical dispersion term =      197.7481158946 Hartrees.
   1 Symmetry operations used in ECPInt.
 ECPInt:  NShTT=    1485 NPrTT=    5987 LenC2=    1486 LenP2D=    5105.
 LDataN:  DoStor=T MaxTD1= 4 Len=   56
 Initial guess from the checkpoint file:  "/scratch/user/peterchao1/peterchao1/6097794_1659647567000000408741127/Gau-201323.chk"
 B after Tr=    -0.000000   -0.000000    0.000000
         Rot=    0.742982    0.542790   -0.141602   -0.365112 Ang=  84.03 deg.
     Accept linear search using points  1 and  2.
     Minimum is close to point  2 DX= -1.49D-06 DF=  0.00D+00 DXR=  1.49D-06 DFR=  0.00D+00 which will be used.
 SCF Done:  E(RwB97XD) =  -197.547689531     a.u. after    2 cycles
            Convg  =    0.8497D-08                     9 Fock formations.
              S**2 =  0.0000                  -V/T =  2.0124
   1 Symmetry operations used in ECPInt.
 ECPInt:  NShTT=    1485 NPrTT=    5987 LenC2=    1486 LenP2D=    5105.
 LDataN:  DoStor=T MaxTD1= 5 Len=  102
 Calling FoFJK, ICntrl=      2127 FMM=F ISym2X=0 I1Cent= 0 IOpClX= 0 NMat=1 NMatS=1 NMatT=0.

 GradGradGradGradGradGradGradGradGradGradGradGradGradGradGradGradGradGrad
 Using GEDIIS/GDIIS optimizer.
 FormGI is forming the generalized inverse of G from B-inverse, IUseBI=4.
 Internal  Forces:  Max     0.000007939 RMS     0.000002772
 Step number   4 out of a maximum of   92
 All quantities printed in internal units (Hartrees-Bohrs-Radians)
 Mixed Optimization -- En-DIIS/RFO-DIIS
 Swapping is turned off.
 Trust test= 1.88D+01 RLast= 1.38D-03 DXMaxT set to 3.00D-01
 ITU=  1  1  1  0
     Eigenvalues ---    0.00389   0.00397   0.00397   0.00405   0.04863
     Eigenvalues ---    0.04870   0.04918   0.05499   0.05526   0.05526
     Eigenvalues ---    0.05526   0.05526   0.05526   0.05526   0.05549
     Eigenvalues ---    0.14201   0.14456   0.14749   0.15999   0.16000
     Eigenvalues ---    0.16000   0.16000   0.16000   0.16000   0.16000
     Eigenvalues ---    0.16000   0.16000   0.16000   0.16722   0.29587
     Eigenvalues ---    0.29618   0.29619   0.33723   0.34043   0.34118
     Eigenvalues ---    0.34118   0.34118   0.34118   0.34118   0.34119
     Eigenvalues ---    0.34119   0.34119   0.34120   0.34341   0.35414
 En-DIIS/RFO-DIIS/Sim-DIIS IScMMF=       -3 using points:     4    3    2
 RFO step:  Lambda=-3.65220966D-09.
 DidBck=F Rises=F RFO-DIIS coefs:    0.87812    0.05904    0.06284
 Iteration  1 RMS(Cart)=  0.00005617 RMS(Int)=  0.00000000
 Iteration  2 RMS(Cart)=  0.00000000 RMS(Int)=  0.00000000
 Variable       Old X    -DE/DX   Delta X   Delta X   Delta X     New X
                                 (Linear)    (Quad)   (Total)
    R1        2.90121  -0.00000   0.00016  -0.00016   0.00000   2.90121
    R2        2.08830   0.00000   0.00003  -0.00002   0.00000   2.08831
    R3        2.08831   0.00000   0.00002  -0.00002   0.00001   2.08831
    R4        2.08831   0.00000   0.00003  -0.00002   0.00000   2.08832
    R5        2.90121  -0.00001   0.00016  -0.00017  -0.00001   2.90120
    R6        2.90121  -0.00000   0.00016  -0.00016  -0.00000   2.90121
    R7        2.90121   0.00000   0.00016  -0.00016   0.00001   2.90121
    R8        2.08831  -0.00000   0.00003  -0.00003  -0.00001   2.08830
    R9        2.08830   0.00000   0.00003  -0.00003   0.00000   2.08830
   R10        2.08830   0.00000   0.00003  -0.00002   0.00000   2.08831
   R11        2.08831  -0.00000   0.00003  -0.00003  -0.00001   2.08830
   R12        2.08831   0.00000   0.00003  -0.00002   0.00000   2.08831
   R13        2.08831   0.00000   0.00002  -0.00003  -0.00000   2.08831
   R14        2.08830   0.00000   0.00003  -0.00002   0.00000   2.08831
   R15        2.08831  -0.00000   0.00003  -0.00003  -0.00000   2.08831
   R16        2.08830   0.00000   0.00003  -0.00002   0.00001   2.08831
    A1        1.93905  -0.00000   0.00002  -0.00002  -0.00000   1.93905
    A2        1.93903   0.00000   0.00002  -0.00000   0.00002   1.93904
    A3        1.93904  -0.00000   0.00001  -0.00002  -0.00000   1.93904
    A4        1.88137   0.00000  -0.00002   0.00003   0.00001   1.88139
    A5        1.88140  -0.00000  -0.00002  -0.00000  -0.00002   1.88138
    A6        1.88139   0.00000  -0.00002   0.00001  -0.00000   1.88139
    A7        1.91062   0.00000   0.00000   0.00002   0.00002   1.91064
    A8        1.91064  -0.00000   0.00000   0.00001   0.00002   1.91065
    A9        1.91061   0.00000  -0.00000   0.00000   0.00000   1.91062
   A10        1.91063   0.00000  -0.00000   0.00000   0.00000   1.91063
   A11        1.91066  -0.00000  -0.00000  -0.00003  -0.00004   1.91062
   A12        1.91065   0.00000  -0.00000  -0.00001  -0.00001   1.91064
   A13        1.93900   0.00001   0.00002   0.00002   0.00004   1.93904
   A14        1.93902   0.00000   0.00002  -0.00001   0.00001   1.93903
   A15        1.93905  -0.00001   0.00002  -0.00005  -0.00003   1.93902
   A16        1.88140  -0.00000  -0.00002   0.00003   0.00001   1.88141
   A17        1.88141  -0.00000  -0.00002   0.00001  -0.00001   1.88140
   A18        1.88140   0.00000  -0.00002   0.00000  -0.00002   1.88138
   A19        1.93901   0.00000   0.00002   0.00001   0.00003   1.93904
   A20        1.93902   0.00000   0.00001  -0.00001   0.00001   1.93903
   A21        1.93903   0.00000   0.00002   0.00000   0.00002   1.93905
   A22        1.88141  -0.00000  -0.00002  -0.00000  -0.00002   1.88139
   A23        1.88140  -0.00000  -0.00002   0.00001  -0.00001   1.88139
   A24        1.88143  -0.00000  -0.00002  -0.00001  -0.00003   1.88140
   A25        1.93901   0.00001   0.00002   0.00002   0.00003   1.93905
   A26        1.93903   0.00000   0.00002  -0.00000   0.00001   1.93904
   A27        1.93902   0.00001   0.00002   0.00000   0.00003   1.93905
   A28        1.88141  -0.00000  -0.00002   0.00000  -0.00002   1.88139
   A29        1.88140  -0.00001  -0.00002  -0.00003  -0.00005   1.88135
   A30        1.88143  -0.00000  -0.00002   0.00001  -0.00001   1.88141
    D1       -1.04715  -0.00000  -0.00002   0.00007   0.00006  -1.04710
    D2        1.04723   0.00000  -0.00002   0.00010   0.00008   1.04731
    D3       -3.14155   0.00000  -0.00001   0.00010   0.00008  -3.14147
    D4       -3.14153  -0.00000  -0.00002   0.00005   0.00003  -3.14150
    D5       -1.04715   0.00000  -0.00002   0.00008   0.00006  -1.04709
    D6        1.04725   0.00000  -0.00002   0.00008   0.00006   1.04732
    D7        1.04726  -0.00000  -0.00002   0.00005   0.00003   1.04730
    D8       -3.14154  -0.00000  -0.00002   0.00008   0.00006  -3.14148
    D9       -1.04714   0.00000  -0.00002   0.00008   0.00006  -1.04708
   D10        1.04724   0.00000   0.00001   0.00005   0.00006   1.04730
   D11       -1.04714  -0.00000   0.00001   0.00001   0.00002  -1.04711
   D12       -3.14154   0.00000   0.00001   0.00004   0.00006  -3.14148
   D13       -1.04715   0.00000   0.00001   0.00002   0.00003  -1.04712
   D14       -3.14152  -0.00000   0.00001  -0.00002  -0.00001  -3.14154
   D15        1.04726  -0.00000   0.00001   0.00001   0.00002   1.04728
   D16       -3.14157   0.00000   0.00001   0.00005   0.00006  -3.14151
   D17        1.04724  -0.00000   0.00001   0.00001   0.00002   1.04726
   D18       -1.04716   0.00000   0.00001   0.00004   0.00005  -1.04711
   D19       -1.04718  -0.00000  -0.00001  -0.00013  -0.00014  -1.04732
   D20       -3.14157  -0.00000  -0.00001  -0.00012  -0.00013   3.14148
   D21        1.04719  -0.00000  -0.00001  -0.00011  -0.00012   1.04708
   D22        1.04719   0.00000  -0.00001  -0.00009  -0.00010   1.04710
   D23       -1.04719   0.00000  -0.00001  -0.00009  -0.00009  -1.04729
   D24        3.14157   0.00000  -0.00001  -0.00007  -0.00008   3.14149
   D25       -3.14156  -0.00000  -0.00001  -0.00013  -0.00015   3.14147
   D26        1.04724  -0.00000  -0.00001  -0.00013  -0.00014   1.04709
   D27       -1.04719  -0.00000  -0.00001  -0.00012  -0.00013  -1.04732
   D28        1.04720   0.00000   0.00001  -0.00003  -0.00002   1.04718
   D29       -1.04719   0.00000   0.00001  -0.00004  -0.00003  -1.04723
   D30        3.14157  -0.00000   0.00001  -0.00005  -0.00004   3.14153
   D31       -1.04718  -0.00000   0.00001  -0.00004  -0.00003  -1.04721
   D32       -3.14157  -0.00000   0.00001  -0.00005  -0.00004   3.14157
   D33        1.04720  -0.00000   0.00001  -0.00006  -0.00005   1.04715
   D34       -3.14159   0.00000   0.00001  -0.00002  -0.00001   3.14159
   D35        1.04720   0.00000   0.00002  -0.00003  -0.00002   1.04719
   D36       -1.04721  -0.00000   0.00002  -0.00004  -0.00002  -1.04724
         Item               Value     Threshold  Converged?
 Maximum Force            0.000008     0.000015     YES
 RMS     Force            0.000003     0.000010     YES
 Maximum Displacement     0.000205     0.000060     NO 
 RMS     Displacement     0.000056     0.000040     NO 
 GradGradGradGradGradGradGradGradGradGradGradGradGradGradGradGradGradGrad

                    Distance matrix (angstroms):
                    1          2          3          4          5
     1  C    0.000000
     2  C    1.535255   0.000000
     3  C    2.507063   1.535250   0.000000
     4  C    2.507077   1.535252   2.507052   0.000000
     5  C    2.507047   1.535255   2.507045   2.507061   0.000000
     6  H    1.105084   2.190828   2.764542   2.764661   3.481351
     7  H    1.105088   2.190823   3.481360   2.764546   2.764615
     8  H    1.105089   2.190820   2.764623   3.481369   2.764499
     9  H    2.764626   2.190813   1.105082   2.764528   3.481342
    10  H    2.764530   2.190807   1.105081   3.481341   2.764575
    11  H    3.481349   2.190802   1.105084   2.764589   2.764498
    12  H    2.764648   2.190813   2.764514   1.105083   3.481353
    13  H    3.481365   2.190811   2.764600   1.105086   2.764518
    14  H    2.764548   2.190826   3.481355   1.105088   2.764640
    15  H    2.764550   2.190823   2.764565   3.481357   1.105085
    16  H    2.764568   2.190819   3.481342   2.764570   1.105085
    17  H    3.481350   2.190826   2.764539   2.764601   1.105087
                    6          7          8          9         10
     6  H    0.000000
     7  H    1.785745   0.000000
     8  H    1.785743   1.785752   0.000000
     9  H    2.561450   3.784706   3.122618   0.000000
    10  H    3.122340   3.784679   2.561432   1.785754   0.000000
    11  H    3.784690   4.347164   3.784692   1.785751   1.785735
    12  H    2.561590   3.122499   3.784774   2.561323   3.784621
    13  H    3.784785   3.784643   4.347174   3.122462   3.784710
    14  H    3.122503   2.561349   3.784649   3.784632   4.347167
    15  H    3.784641   3.122522   2.561332   3.784698   2.561438
    16  H    3.784713   2.561480   3.122380   4.347163   3.784686
    17  H    4.347182   3.784734   3.784618   3.784638   3.122453
                   11         12         13         14         15
    11  H    0.000000
    12  H    3.122432   0.000000
    13  H    2.561482   1.785743   0.000000
    14  H    3.784721   1.785744   1.785755   0.000000
    15  H    3.122384   4.347171   3.784644   3.784739   0.000000
    16  H    3.784617   3.784710   3.122381   2.561495   1.785747
    17  H    2.561322   3.784679   2.561395   3.122595   1.785724
                   16         17
    16  H    0.000000
    17  H    1.785761   0.000000
 Framework group  C1[X(C5H12)]
 Deg. of freedom    45
                         Standard orientation:                         
 ---------------------------------------------------------------------
 Center     Atomic      Atomic             Coordinates (Angstroms)
 Number     Number       Type             X           Y           Z
 ---------------------------------------------------------------------
      1          6           0        1.188839   -0.875403   -0.421131
      2          6           0       -0.000004   -0.000011   -0.000004
      3          6           0       -0.416066    0.897328   -1.174171
      4          6           0       -1.179384   -0.897215    0.401352
      5          6           0        0.406610    0.875288    1.193949
      6          1           0        0.925063   -1.517770   -1.280779
      7          1           0        1.510910   -1.533621    0.406057
      8          1           0        2.054705   -0.255295   -0.716030
      9          1           0       -0.714797    0.293337   -2.050048
     10          1           0        0.414987    1.555811   -1.485545
     11          1           0       -1.271812    1.540387   -0.899610
     12          1           0       -1.494657   -1.540045   -0.440420
     13          1           0       -2.051703   -0.293115    0.710120
     14          1           0       -0.908583   -1.555917    1.246336
     15          1           0        1.255487    1.533335    0.933962
     16          1           0        0.711768    0.255116    2.056200
     17          1           0       -0.431339    1.517854    1.519784
 ---------------------------------------------------------------------
 Rotational constants (GHZ):           4.4284496           4.4284069           4.4283794
    94 basis functions,   173 primitive gaussians,    99 cartesian basis functions
    21 alpha electrons       21 beta electrons
       nuclear repulsion energy       197.7582516081 Hartrees.
 NAtoms=   17 NActive=   17 NUniq=   17 SFac= 1.00D+00 NAtFMM=   60 NAOKFM=F Big=F
 Nuclear repulsion after empirical dispersion term =      197.7479126728 Hartrees.
   1 Symmetry operations used in ECPInt.
 ECPInt:  NShTT=    1485 NPrTT=    5987 LenC2=    1486 LenP2D=    5105.
 LDataN:  DoStor=T MaxTD1= 4 Len=   56
 Initial guess from the checkpoint file:  "/scratch/user/peterchao1/peterchao1/6097794_1659647567000000408741127/Gau-201323.chk"
 B after Tr=     0.000000   -0.000000   -0.000000
         Rot=    0.776323    0.550488    0.289647    0.101932 Ang=  78.15 deg.
 SCF Done:  E(RwB97XD) =  -197.547689347     a.u. after    2 cycles
            Convg  =    0.1203D-07                     8 Fock formations.
              S**2 =  0.0000                  -V/T =  2.0124
   1 Symmetry operations used in ECPInt.
 ECPInt:  NShTT=    1485 NPrTT=    5987 LenC2=    1486 LenP2D=    5105.
 LDataN:  DoStor=T MaxTD1= 5 Len=  102
 Calling FoFJK, ICntrl=      2127 FMM=F ISym2X=0 I1Cent= 0 IOpClX= 0 NMat=1 NMatS=1 NMatT=0.

 GradGradGradGradGradGradGradGradGradGradGradGradGradGradGradGradGradGrad
 Using GEDIIS/GDIIS optimizer.
 FormGI is forming the generalized inverse of G from B-inverse, IUseBI=4.
 Internal  Forces:  Max     0.000007689 RMS     0.000002453
 Step number   5 out of a maximum of   92
 All quantities printed in internal units (Hartrees-Bohrs-Radians)
 Mixed Optimization -- En-DIIS/RFO-DIIS
 Swapping is turned off.
 Trust test=-5.96D+01 RLast= 4.54D-04 DXMaxT set to 1.50D-01
 ITU= -1  1  1  1  0
     Eigenvalues ---    0.00330   0.00397   0.00398   0.00621   0.04838
     Eigenvalues ---    0.04871   0.04991   0.05277   0.05526   0.05526
     Eigenvalues ---    0.05526   0.05526   0.05526   0.05530   0.07041
     Eigenvalues ---    0.12549   0.14458   0.14813   0.15999   0.16000
     Eigenvalues ---    0.16000   0.16000   0.16000   0.16000   0.16000
     Eigenvalues ---    0.16000   0.16000   0.16718   0.21214   0.29578
     Eigenvalues ---    0.29618   0.29988   0.33325   0.33871   0.34117
     Eigenvalues ---    0.34118   0.34118   0.34118   0.34119   0.34119
     Eigenvalues ---    0.34119   0.34119   0.34121   0.34601   0.39854
 En-DIIS/RFO-DIIS/Sim-DIIS IScMMF=       -3 using points:     5    4    3    2
 RFO step:  Lambda=-1.67540446D-09.
 DIIS inversion failure, remove point   4.
 DIIS inversion failure, remove point   3.
 RFO-DIIS uses    2 points instead of    4
 DidBck=F Rises=F RFO-DIIS coefs:    0.80809    0.19191    0.00000    0.00000
 Iteration  1 RMS(Cart)=  0.00008103 RMS(Int)=  0.00000000
 Iteration  2 RMS(Cart)=  0.00000000 RMS(Int)=  0.00000000
 Variable       Old X    -DE/DX   Delta X   Delta X   Delta X     New X
                                 (Linear)    (Quad)   (Total)
    R1        2.90121  -0.00001  -0.00000  -0.00002  -0.00002   2.90120
    R2        2.08831  -0.00000  -0.00000  -0.00000  -0.00000   2.08830
    R3        2.08831  -0.00000  -0.00000  -0.00000  -0.00000   2.08831
    R4        2.08832  -0.00001  -0.00000  -0.00001  -0.00001   2.08831
    R5        2.90120  -0.00000   0.00000  -0.00002  -0.00001   2.90119
    R6        2.90121  -0.00001   0.00000  -0.00002  -0.00002   2.90119
    R7        2.90121  -0.00001  -0.00000  -0.00001  -0.00001   2.90120
    R8        2.08830   0.00000   0.00000  -0.00001  -0.00000   2.08830
    R9        2.08830  -0.00000  -0.00000   0.00000  -0.00000   2.08830
   R10        2.08831  -0.00000  -0.00000  -0.00000  -0.00000   2.08830
   R11        2.08830  -0.00000   0.00000  -0.00001  -0.00001   2.08830
   R12        2.08831  -0.00000  -0.00000  -0.00000  -0.00000   2.08831
   R13        2.08831  -0.00000   0.00000  -0.00001  -0.00001   2.08830
   R14        2.08831  -0.00000  -0.00000   0.00000   0.00000   2.08831
   R15        2.08831  -0.00000   0.00000  -0.00001  -0.00001   2.08830
   R16        2.08831  -0.00000  -0.00000   0.00000   0.00000   2.08831
    A1        1.93905  -0.00000   0.00000  -0.00001  -0.00001   1.93905
    A2        1.93904  -0.00000  -0.00000   0.00001   0.00001   1.93905
    A3        1.93904   0.00000   0.00000   0.00000   0.00000   1.93904
    A4        1.88139   0.00000  -0.00000   0.00003   0.00003   1.88141
    A5        1.88138   0.00000   0.00000  -0.00002  -0.00001   1.88137
    A6        1.88139  -0.00000   0.00000  -0.00002  -0.00001   1.88137
    A7        1.91064  -0.00000  -0.00000   0.00001   0.00000   1.91064
    A8        1.91065   0.00000  -0.00000   0.00002   0.00001   1.91067
    A9        1.91062  -0.00000  -0.00000   0.00001   0.00001   1.91062
   A10        1.91063  -0.00000  -0.00000  -0.00001  -0.00001   1.91063
   A11        1.91062   0.00000   0.00001  -0.00001  -0.00001   1.91061
   A12        1.91064  -0.00000   0.00000  -0.00001  -0.00001   1.91062
   A13        1.93904   0.00000  -0.00001   0.00004   0.00003   1.93907
   A14        1.93903  -0.00000  -0.00000   0.00000  -0.00000   1.93903
   A15        1.93902   0.00000   0.00001  -0.00002  -0.00001   1.93901
   A16        1.88141  -0.00000  -0.00000  -0.00001  -0.00001   1.88140
   A17        1.88140  -0.00000   0.00000  -0.00002  -0.00002   1.88138
   A18        1.88138   0.00000   0.00000   0.00001   0.00001   1.88139
   A19        1.93904  -0.00000  -0.00001   0.00001   0.00001   1.93904
   A20        1.93903   0.00000  -0.00000   0.00001   0.00001   1.93904
[...]
   iso        0.550153D+02      0.815243D+01      0.907080D+01
   aniso      0.125870D-01      0.186521D-02      0.207532D-02
   xx         0.550184D+02      0.815289D+01      0.907131D+01
   yx         0.386451D-02      0.572661D-03      0.637172D-03
   yy         0.550175D+02      0.815276D+01      0.907117D+01
   zx        -0.221033D-03     -0.327537D-04     -0.364434D-04
   zy        -0.406503D-02     -0.602376D-03     -0.670234D-03
   zz         0.550100D+02      0.815164D+01      0.906993D+01

 ----------------------------------------------------------------------
 1\1\GINC-C241\Freq\RwB97XD\def2SVPP\C5H12\PETERCHAO1\04-Aug-2022\0\\#T
  Geom=AllCheck Guess=TCheck SCRF=Check GenChk RwB97XD/def2SVPP Freq\\C
 omment gs min\\0,1\C,0.9075579793,-0.0333414212,-0.0541552994\C,2.4428
 044648,-0.0333262656,-0.0541825213\C,2.9545823431,-1.4804360773,-0.084
 5999335\C,2.9545719722,0.7165884252,-1.292202503\C,2.9545562752,0.6638
 81941,1.2142837899\H,0.5097347836,-0.5301601957,-0.9575464862\H,0.5097
 315971,0.9974297361,-0.0326652711\H,0.509774154,-0.5673268165,0.827797
 0726\H,2.6011777562,-2.0084841064,-0.9887414127\H,2.6012173694,-2.0459
 521644,0.796608458\H,4.0592202117,-1.5117639653,-0.0852870389\H,2.6012
 040812,0.2362204305,-2.2225659265\H,4.0592114726,0.7328584501,-1.31903
 16391\H,2.6011741874,1.7636275571,-1.2974128002\H,2.6010361864,0.14495
 37466,2.1236515874\H,2.6012880701,1.7098232013,1.2634045444\H,4.059197
 0958,0.6788575243,1.2418853794\\Version=ES64L-G16RevB.01\State=1-A\HF=
 -197.5476878\RMSD=2.347e-10\RMSF=3.361e-06\ZeroPoint=0.1599907\Thermal
 =0.1667674\Dipole=0.0000037,-0.0000009,0.0000012\DipoleDeriv=-0.003808
 3,-0.0000051,-0.0000127,0.0003252,0.0346091,-0.0001449,-0.0000969,-0.0
 002007,0.0345835,0.1252663,0.0000105,-0.0000557,-0.0000754,0.1252325,-
 0.0000762,0.0000908,0.0001341,0.1252669,0.0303239,0.0117517,0.000262,0
 .0121699,0.0005451,-0.0008271,0.0001377,-0.0008017,0.0347706,0.0305134
 ,-0.0059382,0.010064,-0.0062624,0.0257655,0.0149607,0.0103771,0.015259
 9,0.0097481,0.0307962,-0.0057997,-0.0105229,-0.005946,0.0270169,-0.014
 3552,-0.0105548,-0.014557,0.0085496,0.002448,-0.0199241,-0.036107,-0.0
 500833,0.0260843,-0.0846382,-0.0911497,-0.0847733,-0.0814104,0.0019506
 ,0.0410223,0.0009755,0.103945,-0.1280156,-0.0041179,0.002194,-0.004184
 1,0.0727405,0.0021776,-0.0210746,0.0351222,-0.053966,0.0188535,0.08897
 87,0.0889152,0.0890393,-0.0742589,0.0431303,-0.0360942,-0.0707987,-0.0
 052602,-0.0146803,-0.0611721,-0.0521169,-0.1125384,-0.081568,0.0430441
 ,-0.0389693,0.0692206,-0.0073482,-0.0222557,0.0637992,0.0518092,0.1151
 509,-0.0743127,-0.1594087,0.0469857,0.0010571,-0.0156984,0.0332996,-0.
 0008975,-0.0002662,-0.0008838,0.0727924,0.0429719,-0.0404719,-0.068338
 5,-0.0413093,0.016243,-0.0927377,-0.0321099,-0.0416352,-0.1126653,-0.1
 592764,-0.0242758,0.0402471,0.0083239,0.0622044,0.0174066,-0.0136795,0
 .0173647,0.0439188,0.0430893,0.0792903,0.0042455,0.0476446,-0.1403134,
 0.0402589,0.0216903,-0.010998,0.0439141,0.0430027,-0.0432828,0.066632,
 -0.0426099,0.0105251,0.0980558,0.0305178,0.0470007,-0.1068236,0.043050
 8,0.0793975,-0.0008522,0.0484262,-0.1386857,-0.0477877,-0.0198226,0.00
 33952,0.042294,-0.1592717,-0.0226226,-0.0411384,0.0077243,0.0635719,-0
 .0167053,0.0140644,-0.0167726,0.0424604\Polar=55.0101846,-0.0004438,55
 .0202358,-0.0035118,-0.0038718,55.0155294\Quadrupole=-0.0000645,0.0000
 174,0.0000472,0.0000326,-0.0000345,0.0000472\PG=C01 [X(C5H12)]\NImag=0
 \\0.48235552,0.00000430,0.58843888,-0.00000169,0.00001193,0.58866045,-
 0.19379389,-0.00003647,-0.00002188,0.51822928,-0.00005178,-0.07931758,
 -0.00000910,0.00000441,0.51816991,-0.00003838,-0.00000272,-0.07935233,
 0.00003202,0.00000169,0.51821168,-0.01878046,0.03563753,0.00073497,-0.
 09205014,0.03594303,0.00074446,0.57684091,0.00663069,-0.00383044,-0.00
 008073,0.03595392,-0.18104009,-0.00213861,0.03339186,0.49414790,0.0001
 3730,-0.00008582,-0.00019065,0.00074565,-0.00212074,-0.07940249,0.0007
 0316,-0.00209475,0.58853965,-0.01877874,-0.01847002,0.03048870,-0.0920
 5848,-0.01859527,0.03076064,0.00357151,0.00477364,-0.00869970,0.576951
 38,-0.00343895,-0.00115809,0.00161630,-0.01860962,-0.10662988,0.045069
 94,-0.00989869,-0.02419083,0.02918327,-0.01732583,0.56339790,0.0056716
 1,0.00161677,-0.00285351,0.03076745,0.04508674,-0.15375595,-0.00063148
 ,0.00549953,-0.00217710,0.02858289,0.04184851,0.51958202,-0.01877487,-
 0.01716322,-0.03121598,-0.09210986,-0.01732205,-0.03151502,0.00357793,
 0.00440954,0.00889306,0.00357354,0.00515793,0.00849093,0.57701081,-0.0
 0319443,-0.00102911,-0.00153051,-0.01731385,-0.10295315,-0.04292757,-0
 .00991116,-0.02270179,-0.03005251,0.00550792,0.00731560,0.01270320,-0.
 01607560,0.56687748,-0.00580793,-0.00153274,-0.00298893,-0.03150084,-0
 .04292620,-0.15747513,0.00021834,-0.00636284,-0.00366783,-0.00825989,-
 0.01097716,-0.03370889,-0.02928643,-0.03986971,0.51616177,-0.07966726,
 -0.04090641,-0.07437731,-0.01012603,-0.01508624,-0.02744413,0.00121253
 ,-0.00125138,-0.00079510,0.00120955,0.00000334,-0.00148254,-0.00692091
 ,0.00070076,0.00127386,0.08718733,-0.04185927,-0.10336128,-0.09838423,
 0.00062501,-0.00133156,0.00053346,0.00064145,0.00055471,0.00096875,-0.
 00001577,-0.00015842,-0.00044742,-0.00037033,0.00034825,0.00049192,0.0
 4547542,0.10508034,-0.07612196,-0.09837467,-0.22811463,0.00113260,0.00
 054087,-0.00063026,0.00038919,0.00000525,0.00017258,0.00075061,0.00051
 663,0.00088572,-0.00067301,0.00049130,0.00097245,0.08270836,0.10740531
 ,0.24123740,-0.07963607,0.08488427,0.00175986,-0.01012685,0.03133437,0
 .00065666,-0.00692189,-0.00145596,-0.00002863,0.00120741,0.00131573,-0
 .00068995,0.00121677,0.00128558,0.00074527,0.00379008,-0.01121702,0.00
 099413,0.08716786,0.08687830,-0.28208123,-0.00485837,-0.00131093,-0.00
 031288,0.00002450,0.00076619,0.00124256,0.00002491,-0.00065489,0.00069
 002,0.00007329,-0.00064301,0.00065345,-0.00004909,0.00431428,-0.010388
 04,0.00152426,-0.09439229,0.30013775,0.00182523,-0.00486193,-0.0493952
 4,-0.00002940,0.00002776,-0.00160222,0.00002025,0.00002441,0.00007824,
 0.00036289,-0.00089131,0.00003812,-0.00039401,0.00091762,0.00007205,0.
 01038884,-0.02413021,0.00144617,-0.00197111,0.00528713,0.04609431,-0.0
 7963207,-0.04395032,0.07263627,-0.01013114,-0.01622850,0.02679127,0.00
 120531,-0.00128815,0.00074038,-0.00691718,0.00075363,-0.00124448,0.001
 20793,-0.00006186,0.00148613,0.00378424,0.00685071,-0.00893615,0.00378
 764,0.00475345,-0.01020869,0.08716926,-0.04496142,-0.11171765,0.103233
 92,0.00066463,-0.00125794,-0.00057607,0.00065665,0.00059524,-0.0009514
 0,-0.00039462,0.00039071,-0.00051712,0.00001311,-0.00015461,0.00040493
 ,0.00646737,0.00827060,-0.01229624,-0.01116971,-0.01131328,0.02360948,
 0.04886922,0.11416600,0.07434452,0.10322318,-0.21982403,-0.00112688,-0
 .00057556,-0.00067393,-0.00035453,0.00001285,0.00013110,0.00065807,-0.
 00051591,0.00093016,-0.00075244,-0.00055970,0.00087908,0.00920873,0.01
 336876,-0.01722076,-0.00145529,-0.00204970,0.00237377,-0.08076541,-0.1
 1269881,0.23216021,0.00084621,0.00048856,0.00117112,0.00245041,0.00491
 187,0.00967749,-0.07740396,-0.04113050,-0.07143823,0.00000411,-0.00043
 050,0.00008184,-0.00054922,0.00186789,0.00009562,-0.00019728,0.0002504
 8,-0.00029436,0.00010803,-0.00021941,-0.00004779,-0.00004423,-0.000033
 80,0.00005367,0.07737147,-0.00140539,0.00095578,-0.00038624,-0.0112098
 2,-0.01334694,-0.02565448,-0.04014197,-0.10538262,-0.10040516,-0.00045
 930,0.00105530,-0.00153674,0.00296487,-0.00602354,0.00120950,0.0008177
 9,0.00014604,0.00037006,-0.00017964,0.00018482,0.00032851,0.00008438,-
 0.00002775,0.00010624,0.04208203,0.11456337,-0.00015939,0.00036654,0.0
 0015029,-0.00007714,0.00098586,-0.00114744,-0.07083383,-0.10202452,-0.
 22818970,0.00024774,0.00089047,0.00087025,0.00075913,-0.00060299,0.000
 96684,0.00048314,-0.00016740,0.00024012,0.00018354,0.00012808,0.000195
 79,-0.00007683,-0.00008665,-0.00011061,0.07742232,0.11117503,0.2413429
 8,0.00084260,0.00054059,-0.00114935,0.00244579,0.00530001,-0.00946047,
 -0.07742963,-0.04411653,0.06967727,-0.00054908,0.00187294,-0.00001581,
 0.00000407,-0.00042740,-0.00010186,-0.00004479,-0.00003149,-0.00005839
 ,0.00010787,-0.00022124,0.00003863,-0.00020729,0.00023220,0.00031364,0
 .00359913,0.00678433,-0.00892966,0.07742608,-0.00140781,0.00095476,0.0
 0041932,-0.01120701,-0.01435980,0.02510722,-0.04311089,-0.11412445,0.1
 0530991,0.00299609,-0.00598980,-0.00150342,-0.00044819,0.00102977,0.00
 154557,0.00008232,-0.00002690,-0.00010096,-0.00017159,0.00020398,-0.00
 032822,0.00083386,0.00017041,-0.00038233,0.00640005,0.00846305,-0.0122
 9741,0.04533812,0.12413040,0.00009869,-0.00033031,0.00015246,-0.000386
 45,-0.00154405,-0.00013400,0.06912871,0.10692854,-0.21969690,-0.000634
 05,0.00031141,0.00092971,-0.00026483,-0.00088092,0.00089499,0.00008109
 ,0.00008925,-0.00011258,-0.00019159,-0.00012765,0.00017683,-0.00044393
 ,0.00016121,0.00023560,0.00920733,0.01338064,-0.01722642,-0.07563739,-
 0.11621328,0.23200434,0.00054942,0.00341751,0.00007102,-0.01085039,-0.
 00155760,-0.00003319,-0.31378321,0.00405314,0.00005767,0.00052555,-0.0
 0089965,0.00027597,0.00052748,-0.00088277,-0.00031241,0.00030893,-0.00
 015069,0.00005502,-0.00080793,0.00024839,0.00000566,0.00030770,-0.0001
 4854,-0.00006107,-0.00712813,0.00064297,0.00127823,-0.00713902,0.00069
 347,-0.00125495,0.33604096,0.00119382,-0.00625026,-0.00013026,0.031073
 14,0.00040102,0.00003564,0.00207019,-0.04816905,0.00002752,0.00107827,
 0.00137927,-0.00062793,0.00103305,0.00135335,0.00068482,-0.00011241,-0
 .00001208,0.00021485,0.00206986,0.00001217,-0.00001307,-0.00009674,0.0
 0000030,-0.00022344,-0.01450652,0.00000079,0.00170599,-0.01560421,0.00
 015214,-0.00178411,-0.00635467,0.05149860,0.00002365,-0.00013134,0.000
 07573,0.00065336,0.00003254,-0.00161276,0.00000662,0.00003152,-0.04927
 284,-0.00095651,0.00008191,0.00004198,0.00099892,-0.00002555,0.0000678
 5,0.00032169,0.00006463,0.00019199,0.00004306,-0.00001208,0.00058769,-
 0.00032610,-0.00007263,0.00018017,-0.02625260,0.00171193,0.00197995,0.
 02562964,-0.00179141,0.00183242,-0.00009802,0.00011709,0.04599605,0.00
 084094,0.00072127,0.00104875,0.00244188,0.00554532,0.00932114,0.000008
 18,0.00030557,-0.00032496,-0.07741088,-0.03828672,-0.07305813,-0.00054
 927,-0.00092291,0.00163016,-0.00020787,-0.00038568,0.00004048,-0.00004
 454,0.00006553,0.00000261,0.00010576,0.00007693,-0.00021049,0.00021436
 ,0.00014131,-0.00019060,-0.00009798,0.00017660,0.00008438,-0.00007658,
 -0.00011937,-0.00012336,0.07740572,0.00061884,0.00038866,0.00001478,0.
 00594479,0.00650306,0.01360206,0.00045769,0.00121909,0.00098549,-0.038
 31278,-0.10140059,-0.09954319,-0.00095089,-0.00131409,0.00238541,-0.00
 003411,0.00012297,-0.00019118,-0.00010898,-0.00009574,-0.00012991,0.00
 024911,-0.00001412,0.00000192,-0.00023594,-0.00031024,-0.00002809,-0.0
 0000497,0.00020074,-0.00020075,0.00005310,-0.00006648,-0.00004255,0.04
 282853,0.10440750,-0.00126395,-0.00073704,0.00070370,-0.00951841,-0.01
 305889,-0.02101053,-0.00025895,-0.00144359,0.00072424,-0.07190871,-0.0
 9790313,-0.23242971,0.00291322,0.00419847,-0.00374308,0.00094575,0.000
 35497,0.00028739,0.00002882,0.00006183,-0.00004354,-0.00005033,0.00020
 320,0.00039382,0.00001765,0.00100015,0.00030399,0.00021945,0.00001012,
 0.00038616,0.00004954,0.00005277,-0.00004171,0.07709058,0.10476048,0.2
 5175108,0.00055306,-0.00176663,0.00291574,-0.01084073,0.00080323,-0.00
 133273,0.00052470,0.00071512,-0.00060838,-0.31387420,-0.00216841,0.003
 49015,0.00052864,0.00020721,-0.00091472,0.00030705,0.00012671,-0.00009
 776,0.00030783,0.00002723,-0.00015819,-0.00080475,-0.00012864,0.000212
 41,-0.00007674,0.00001410,0.00007168,0.00033243,0.00000381,0.00004064,
 0.00046997,-0.00058168,0.00010142,-0.00713464,0.00073558,0.00122972,0.
 33612463,-0.00061760,-0.00161964,0.00279891,-0.01611059,-0.00105310,-0
 .00089221,-0.00138588,0.00067374,-0.00036551,-0.00114871,-0.04899536,-
 0.00049824,0.00028750,0.00013715,-0.00078998,0.00033035,0.00000709,0.0
 0007712,-0.00022425,0.00026223,0.00009389,-0.00106951,0.00043375,0.000
 25538,-0.00004021,-0.00005201,-0.00003363,0.00022883,0.00017301,-0.000
 16132,0.00039731,-0.00037310,0.00041175,-0.01439413,-0.00014588,0.0016
 2781,0.00337215,0.04747957,0.00101627,0.00279801,-0.00453777,0.0265765
 2,-0.00089483,-0.00014242,0.00039826,-0.00107493,0.00074461,0.00178712
 ,-0.00050370,-0.04847199,0.00141499,-0.00008052,0.00126447,0.00008065,
 0.00022692,0.00017202,-0.00025597,-0.00005600,-0.00008230,0.00176418,0
 .00025505,0.00016652,-0.00016572,0.00005940,-0.00005470,-0.00011858,-0
 .00030103,-0.00001559,-0.00043360,0.00035060,0.00010730,-0.02631018,0.
 00162390,0.00210847,-0.00546550,-0.00243264,0.05004257,0.00084497,-0.0
 0125834,-0.00016357,0.00246097,-0.01084375,-0.00059598,-0.00055273,-0.
 00102149,0.00157983,-0.07743996,0.08251532,0.00008772,0.00000718,0.000
 14444,-0.00041860,-0.00004517,-0.00003236,-0.00005618,-0.00020540,0.00
 013819,0.00036308,0.00010821,0.00015135,-0.00016608,-0.00009779,0.0001
 8753,0.00011324,0.00066975,-0.00051729,0.00015292,0.00033243,-0.000222
 30,0.00012963,0.00360195,-0.01116847,0.00093629,-0.00713936,0.03000759
 ,0.00056132,0.07741788,0.00083878,0.00034382,-0.00072109,0.00568674,-0
 .01489262,-0.00187118,-0.00214405,-0.00052187,0.00379153,0.08150576,-0
 .28541674,-0.00173995,0.00001655,0.00064100,-0.00114310,0.00002527,-0.
 00008239,0.00005532,-0.00082863,0.00031518,0.00025532,-0.00006996,0.00
 039120,-0.00000860,-0.00002268,0.00041766,-0.00006245,0.00040590,-0.00
 107690,0.00026029,0.00003183,0.00024878,-0.00011383,0.00434317,-0.0103
 3177,0.00143932,-0.00143050,0.00296624,0.00000360,-0.08819372,0.306207
 29,-0.00113444,0.00003319,0.00076065,-0.00967046,0.02476362,0.00039518
 ,0.00219312,0.00197663,-0.00455293,0.00064261,-0.00335589,-0.04846913,
 -0.00053038,0.00128986,0.00130730,0.00010983,-0.00013687,-0.00005708,0
 .00046633,-0.00028955,0.00008752,-0.00024594,-0.00020992,-0.00001058,0
 .00019297,0.00014936,0.00016771,-0.00035424,0.00174899,0.00019864,0.00
 002558,-0.00025483,-0.00009048,0.01032743,-0.02423013,0.00158200,-0.00
 008053,-0.00000898,-0.00098529,-0.00223911,-0.00069399,0.05000132,0.00
 084120,0.00076882,-0.00101479,0.00245304,0.00593579,-0.00908255,0.0000
 0575,0.00029065,0.00033730,-0.00055070,-0.00085615,-0.00167296,-0.0774
 9248,-0.04136829,0.07143241,0.00010808,0.00006828,0.00021342,-0.000046
 33,0.00006512,-0.00000027,-0.00020194,-0.00038279,-0.00005593,-0.00009
 780,0.00017922,-0.00007685,0.00021540,0.00012832,0.00019608,-0.0000768
 0,-0.00012251,0.00011879,0.00066959,0.00012608,-0.00052400,0.00033196,
 -0.00000054,-0.00025854,-0.00009844,-0.00019224,0.00010699,0.07747394,
 0.00056490,0.00035988,-0.00002636,0.00553488,0.00647592,-0.01243080,0.
 00044686,0.00119826,-0.00096332,-0.00082779,-0.00104398,-0.00227557,-0
 .04133496,-0.10991356,0.10468310,0.00024821,-0.00000470,-0.00001859,-0
 .00010855,-0.00009834,0.00012741,0.00000768,0.00013131,0.00018687,0.00
 000444,0.00019308,0.00019244,-0.00023427,-0.00027175,0.00000376,0.0000
 5445,-0.00006593,0.00004123,0.00010350,0.00074915,-0.00069324,-0.00003
 739,-0.00016475,0.00001402,-0.00015607,0.00026742,-0.00023468,0.046080
 11,0.11343910,0.00129151,0.00073077,0.00073986,0.00976084,0.01421318,-
 0.02098253,0.00027837,0.00146288,0.00074016,-0.00295259,-0.00409131,-0
 .00402376,0.07028083,0.10305709,-0.22392634,0.00006404,-0.00022054,0.0
 0038512,-0.00003572,-0.00006526,-0.00004096,-0.00094377,-0.00035995,0.
 00028350,-0.00021986,-0.00001877,0.00039427,-0.00002386,-0.00102634,0.
 00026431,-0.00004880,-0.00005294,-0.00004243,0.00052831,0.00079376,-0.
 00162654,0.00001579,-0.00012350,0.00031974,-0.00011718,-0.00002567,0.0
 0032122,-0.07527894,-0.11058442,0.24270642,0.00083744,-0.00126793,0.00
 010422,0.00244288,-0.01084127,0.00015285,-0.00054996,-0.00095157,-0.00
 161642,0.00000920,0.00012645,0.00042454,-0.07740679,0.08240678,0.00338
 524,0.00010647,0.00014388,0.00017180,-0.00021258,0.00016445,-0.0003562
 1,-0.00004560,-0.00003496,0.00005479,0.00066909,-0.00050798,-0.0001744
 1,-0.00009768,0.00019246,-0.00010567,0.00033205,-0.00021756,-0.0001390
 3,-0.00009850,-0.00016094,0.00011081,-0.00007778,0.00016698,-0.0000398
 0,0.00021267,0.00009571,0.00021373,0.00361012,-0.01113017,-0.00140288,
 0.07740360,0.00078078,0.00031196,0.00069542,0.00527670,-0.01390153,0.0
 0127800,-0.00204753,-0.00028575,-0.00360740,-0.00000518,0.00064930,0.0
 0111457,0.08142645,-0.28520671,-0.00820504,-0.00008056,0.00038066,0.00
 002431,-0.00079909,0.00032451,-0.00023732,0.00002958,-0.00008416,-0.00
 005674,0.00038995,-0.00098753,-0.00030991,-0.00001452,0.00042119,0.000
 07282,0.00003338,0.00023087,0.00012665,-0.00018735,0.00025668,0.000022
 89,-0.00006884,-0.00004421,-0.00003999,0.00010503,0.00056665,-0.000491
 43,0.00477768,-0.01126942,-0.00197387,-0.08818495,0.30567983,0.0011626
 4,-0.00005717,0.00078202,0.00990306,-0.02536562,-0.00061102,-0.0022778
 9,-0.00179060,-0.00477837,0.00052873,-0.00131670,0.00129848,0.00279849
 ,-0.00658309,-0.04864385,0.00024121,0.00022591,-0.00000122,-0.00049641
 ,0.00031388,0.00009795,-0.00011036,0.00013462,-0.00005328,0.00036942,-
 0.00179504,0.00011272,-0.00019352,-0.00013953,0.00016539,-0.00002378,0
 .00026588,-0.00007536,-0.00011389,0.00023281,0.00032996,0.00002062,0.0
 0005567,-0.00006406,-0.00021518,0.00053342,-0.00058940,-0.01014417,0.0
 2369374,0.00251012,-0.00146767,0.01143504,0.05049830,0.00055200,-0.001
 64353,-0.00298610,-0.01083672,0.00074841,0.00136590,0.00052517,0.00069
 147,0.00063978,0.00052697,0.00016918,0.00092226,-0.31385096,-0.0019623
 3,-0.00366433,-0.00080493,-0.00011931,-0.00021779,0.00030811,0.0000206
 4,0.00015848,0.00030814,0.00012302,0.00010230,0.00033235,0.00000557,-0
 .00004032,-0.00007767,0.00001767,-0.00007099,0.00046757,-0.00058035,-0
 .00013118,0.00033188,-0.00003663,-0.00001747,0.00046793,0.00020070,-0.
 00055142,-0.00007717,-0.00006794,-0.00002348,-0.00714458,0.00078418,-0
 .00119610,-0.00713465,-0.00143154,0.00001871,0.33610655,-0.00057378,-0
 .00138847,-0.00266369,-0.01496594,-0.00115285,0.00084113,-0.00137128,0
 .00061538,0.00035523,0.00034849,0.00010557,0.00074698,-0.00100074,-0.0
 4905949,0.00045062,-0.00099399,0.00045471,-0.00024361,-0.00023411,0.00
 026281,-0.00007956,0.00033342,0.00001998,-0.00008440,0.00022428,0.0001
 5073,0.00016865,-0.00004828,-0.00004986,0.00003447,0.00036838,-0.00034
 039,-0.00042987,-0.00001159,-0.00016896,0.00010388,0.00017696,0.000315
 25,0.00005215,0.00016432,-0.00004297,-0.00005538,-0.01549755,0.0000182
 9,-0.00171511,0.03000062,0.00295765,0.00015676,0.00308079,0.04730263,-
 0.00104369,-0.00266664,-0.00476805,-0.02724004,0.00084276,-0.00007386,
 -0.00045876,0.00106896,0.00079826,-0.00139855,0.00003667,0.00131362,-0
 .00191748,0.00045552,-0.04843274,-0.00180811,-0.00024322,0.00014558,0.
 00024700,0.00006981,-0.00008418,-0.00006624,-0.00023363,0.00015929,0.0
 0012913,0.00030562,0.00000395,0.00016451,-0.00005718,-0.00005536,0.000
 44710,-0.00036856,0.00007445,0.00025779,-0.00003480,0.00032430,0.00055
 963,-0.00001451,-0.00057157,0.00004786,0.00004107,-0.00006664,0.025704
 00,-0.00171560,0.00197784,0.00068410,0.00015200,-0.00097840,0.00569175
 ,0.00236173,0.05023352\\-0.00000707,0.00000137,-0.00000328,0.00000384,
 0.00000088,-0.00000391,-0.00000402,-0.00000401,-0.00000437,-0.00000434
 ,0.00000220,-0.00000564,-0.00000719,0.00000051,-0.00000191,0.00000350,
 -0.00000214,0.00000628,0.00000097,-0.00000169,0.00000271,-0.00000243,-
 0.00000087,-0.00000219,0.00000457,0.00000136,0.00000446,0.00000135,0.0
 0000399,-0.00000241,-0.00000439,0.00000285,-0.00000032,0.00000461,0.00
 000078,0.00000560,-0.00000128,0.00000094,-0.00000069,0.00000432,-0.000
 00321,-0.00000002,0.00000185,0.00000026,0.00000007,0.00000189,-0.00000
 397,0.00000069,0.00000382,0.00000073,0.00000493\\\@


 SUCCESS IS NEVER CERTAIN,
 FAILURE IS NEVER FINAL.
 File lengths (MBytes):  RWF=     23 Int=      0 D2E=      0 Chk=      2 Scr=      1
 Normal termination of Gaussian 16 at Thu Aug  4 16:15:10 2022.
real 142.39
user 511.69
sys 5.92
