 Entering Gaussian System, Link 0=g16
 Input=gaussian_test.inp
 Output=gaussian_test.log
 Initial command:
 /sw/restricted/lms/sw/Gaussian/g16_B01/g16/l1.exe "/scratch/user/peterchao1/peterchao1/8625347_1689034674000000561484709/Gau-130362.inp" -scrdir="/scratch/user/peterchao1/peterchao1/8625347_1689034674000000561484709/"
 Entering Link 1 = /sw/restricted/lms/sw/Gaussian/g16_B01/g16/l1.exe PID=    130364.
  
 Copyright (c) 1988-2017, Gaussian, Inc.  All Rights Reserved.
  
 This is part of the Gaussian(R) 16 program.  It is based on
 the Gaussian(R) 09 system (copyright 2009, Gaussian, Inc.),
 the Gaussian(R) 03 system (copyright 2003, Gaussian, Inc.),
 the Gaussian(R) 98 system (copyright 1998, Gaussian, Inc.),
 the Gaussian(R) 94 system (copyright 1995, Gaussian, Inc.),
 the Gaussian 92(TM) system (copyright 1992, Gaussian, Inc.),
 the Gaussian 90(TM) system (copyright 1990, Gaussian, Inc.),
 the Gaussian 88(TM) system (copyright 1988, Gaussian, Inc.),
 the Gaussian 86(TM) system (copyright 1986, Carnegie Mellon
 University), and the Gaussian 82(TM) system (copyright 1983,
 Carnegie Mellon University). Gaussian is a federally registered
 trademark of Gaussian, Inc.
  
 This software contains proprietary and confidential information,
 including trade secrets, belonging to Gaussian, Inc.
  
 This software is provided under written license and may be
 used, copied, transmitted, or stored only in accord with that
 written license.
  
 The following legend is applicable only to US Government
 contracts under FAR:
  
                    RESTRICTED RIGHTS LEGEND
  
 Use, reproduction and disclosure by the US Government is
 subject to restrictions as set forth in subparagraphs (a)
 and (c) of the Commercial Computer Software - Restricted
 Rights clause in FAR 52.227-19.
  
 Gaussian, Inc.
 340 Quinnipiac St., Bldg. 40, Wallingford CT 06492
  
  
 ---------------------------------------------------------------
 Warning -- This program may not be used in any manner that
 competes with the business of Gaussian, Inc. or will provide
 assistance to any competitor of Gaussian, Inc.  The licensee
 of this program is prohibited from giving any competitor of
 Gaussian, Inc. access to this program.  By using this program,
 the user acknowledges that Gaussian, Inc. is engaged in the
 business of creating and licensing software in the field of
 computational chemistry and represents and warrants to the
 licensee that it is not a competitor of Gaussian, Inc. and that
 it will not use this program in any manner prohibited above.
 ---------------------------------------------------------------
  

 Cite this work as:
 Gaussian 16, Revision B.01,
 M. J. Frisch, G. W. Trucks, H. B. Schlegel, G. E. Scuseria, 
 M. A. Robb, J. R. Cheeseman, G. Scalmani, V. Barone, 
 G. A. Petersson, H. Nakatsuji, X. Li, M. Caricato, A. V. Marenich, 
 J. Bloino, B. G. Janesko, R. Gomperts, B. Mennucci, H. P. Hratchian, 
 J. V. Ortiz, A. F. Izmaylov, J. L. Sonnenberg, D. Williams-Young, 
 F. Ding, F. Lipparini, F. Egidi, J. Goings, B. Peng, A. Petrone, 
 T. Henderson, D. Ranasinghe, V. G. Zakrzewski, J. Gao, N. Rega, 
 G. Zheng, W. Liang, M. Hada, M. Ehara, K. Toyota, R. Fukuda, 
 J. Hasegawa, M. Ishida, T. Nakajima, Y. Honda, O. Kitao, H. Nakai, 
 T. Vreven, K. Throssell, J. A. Montgomery, Jr., J. E. Peralta, 
 F. Ogliaro, M. J. Bearpark, J. J. Heyd, E. N. Brothers, K. N. Kudin, 
 V. N. Staroverov, T. A. Keith, R. Kobayashi, J. Normand, 
 K. Raghavachari, A. P. Rendell, J. C. Burant, S. S. Iyengar, 
 J. Tomasi, M. Cossi, J. M. Millam, M. Klene, C. Adamo, R. Cammi, 
 J. W. Ochterski, R. L. Martin, K. Morokuma, O. Farkas, 
 J. B. Foresman, and D. J. Fox, Gaussian, Inc., Wallingford CT, 2016.
 
 ******************************************
 Gaussian 16:  ES64L-G16RevB.01 20-Dec-2017
                10-Jul-2023 
 ******************************************
 %nprocshared=4
 Will use up to    4 processors via shared memory.
 %mem=8000mb
 %chk=6.chk
 %mem=8000mb
 ----------------------------------------------------------------------
 #T wB97XD/def2svpp opt=tight freq int(grid=ultrafine) scf=(verytight,q
 c)
 ----------------------------------------------------------------------
 -------
 comment
 -------
 Symbolic Z-matrix:
 Charge =  1 Multiplicity = 2
 F                    -1.59835  -0.06086   1.5293 
 C                    -0.24055   0.05435   1.38881 
 C                     0.16312   0.00191  -0.08681 
 C                    -0.41568   1.2026   -0.8374 
 F                     0.13859   2.36866  -0.35801 
 C                     1.68939   0.04732  -0.17557 
 F                     2.23257  -1.09986   0.35702 
 C                    -0.32385  -1.28528  -0.76528 
 F                    -1.66551  -1.23024  -1.03905 
 H                     0.241    -0.77055   1.94182 
 H                     0.07411   1.01696   1.82898 
 H                    -1.50625   1.24809  -0.69852 
 H                    -0.19112   1.13369  -1.91755 
 H                     2.09134   0.91251   0.37688 
 H                     2.01006   0.12264  -1.2306 
 H                    -0.12939  -2.16023  -0.12312 
 H                     0.20997  -1.42775  -1.72369 
 

 GradGradGradGradGradGradGradGradGradGradGradGradGradGradGradGradGradGrad
 Initialization pass.
                           ----------------------------
                           !    Initial Parameters    !
                           ! (Angstroms and Degrees)  !
 --------------------------                            --------------------------
 ! Name  Definition              Value          Derivative Info.                !
 --------------------------------------------------------------------------------
 ! R1    R(1,2)                  1.3699         estimate D2E/DX2                !
 ! R2    R(2,3)                  1.5307         estimate D2E/DX2                !
 ! R3    R(2,10)                 1.1037         estimate D2E/DX2                !
 ! R4    R(2,11)                 1.1043         estimate D2E/DX2                !
 ! R5    R(3,4)                  1.5297         estimate D2E/DX2                !
 ! R6    R(3,6)                  1.5295         estimate D2E/DX2                !
 ! R7    R(3,8)                  1.5344         estimate D2E/DX2                !
 ! R8    R(4,5)                  1.3772         estimate D2E/DX2                !
 ! R9    R(4,12)                 1.1003         estimate D2E/DX2                !
 ! R10   R(4,13)                 1.1054         estimate D2E/DX2                !
 ! R11   R(6,7)                  1.3765         estimate D2E/DX2                !
 ! R12   R(6,14)                 1.1024         estimate D2E/DX2                !
 ! R13   R(6,15)                 1.1053         estimate D2E/DX2                !
 ! R14   R(8,9)                  1.3704         estimate D2E/DX2                !
 ! R15   R(8,16)                 1.1026         estimate D2E/DX2                !
 ! R16   R(8,17)                 1.1063         estimate D2E/DX2                !
 ! A1    A(1,2,3)              110.9379         estimate D2E/DX2                !
 ! A2    A(1,2,10)             108.5544         estimate D2E/DX2                !
 ! A3    A(1,2,11)             108.3535         estimate D2E/DX2                !
 ! A4    A(3,2,10)             110.0194         estimate D2E/DX2                !
 ! A5    A(3,2,11)             109.8146         estimate D2E/DX2                !
 ! A6    A(10,2,11)            109.1157         estimate D2E/DX2                !
 ! A7    A(2,3,4)              110.2631         estimate D2E/DX2                !
 ! A8    A(2,3,6)              108.5467         estimate D2E/DX2                !
 ! A9    A(2,3,8)              111.7962         estimate D2E/DX2                !
 ! A10   A(4,3,6)              109.0131         estimate D2E/DX2                !
 ! A11   A(4,3,8)              108.7484         estimate D2E/DX2                !
 ! A12   A(6,3,8)              108.4175         estimate D2E/DX2                !
 ! A13   A(3,4,5)              109.9682         estimate D2E/DX2                !
 ! A14   A(3,4,12)             110.2145         estimate D2E/DX2                !
 ! A15   A(3,4,13)             110.712          estimate D2E/DX2                !
 ! A16   A(5,4,12)             108.6602         estimate D2E/DX2                !
 ! A17   A(5,4,13)             108.1287         estimate D2E/DX2                !
 ! A18   A(12,4,13)            109.1023         estimate D2E/DX2                !
 ! A19   A(3,6,7)              110.278          estimate D2E/DX2                !
 ! A20   A(3,6,14)             110.9801         estimate D2E/DX2                !
 ! A21   A(3,6,15)             110.3            estimate D2E/DX2                !
 ! A22   A(7,6,14)             108.4391         estimate D2E/DX2                !
 ! A23   A(7,6,15)             108.1587         estimate D2E/DX2                !
 ! A24   A(14,6,15)            108.6077         estimate D2E/DX2                !
 ! A25   A(3,8,9)              111.4291         estimate D2E/DX2                !
 ! A26   A(3,8,16)             110.6215         estimate D2E/DX2                !
 ! A27   A(3,8,17)             109.7531         estimate D2E/DX2                !
 ! A28   A(9,8,16)             108.7164         estimate D2E/DX2                !
 ! A29   A(9,8,17)             107.7298         estimate D2E/DX2                !
 ! A30   A(16,8,17)            108.4983         estimate D2E/DX2                !
 ! D1    D(1,2,3,4)             64.1186         estimate D2E/DX2                !
 ! D2    D(1,2,3,6)           -176.5302         estimate D2E/DX2                !
 ! D3    D(1,2,3,8)            -56.9877         estimate D2E/DX2                !
 ! D4    D(10,2,3,4)          -175.7475         estimate D2E/DX2                !
 ! D5    D(10,2,3,6)           -56.3963         estimate D2E/DX2                !
 ! D6    D(10,2,3,8)            63.1461         estimate D2E/DX2                !
 ! D7    D(11,2,3,4)           -55.6316         estimate D2E/DX2                !
 ! D8    D(11,2,3,6)            63.7196         estimate D2E/DX2                !
 ! D9    D(11,2,3,8)          -176.7379         estimate D2E/DX2                !
 ! D10   D(2,3,4,5)             64.7081         estimate D2E/DX2                !
 ! D11   D(2,3,4,12)           -55.0641         estimate D2E/DX2                !
 ! D12   D(2,3,4,13)          -175.8651         estimate D2E/DX2                !
 ! D13   D(6,3,4,5)            -54.3594         estimate D2E/DX2                !
 ! D14   D(6,3,4,12)          -174.1316         estimate D2E/DX2                !
 ! D15   D(6,3,4,13)            65.0674         estimate D2E/DX2                !
 ! D16   D(8,3,4,5)           -172.3842         estimate D2E/DX2                !
 ! D17   D(8,3,4,12)            67.8436         estimate D2E/DX2                !
 ! D18   D(8,3,4,13)           -52.9574         estimate D2E/DX2                !
 ! D19   D(2,3,6,7)             66.7804         estimate D2E/DX2                !
 ! D20   D(2,3,6,14)           -53.4062         estimate D2E/DX2                !
 ! D21   D(2,3,6,15)          -173.8187         estimate D2E/DX2                !
 ! D22   D(4,3,6,7)           -173.0877         estimate D2E/DX2                !
 ! D23   D(4,3,6,14)            66.7257         estimate D2E/DX2                !
 ! D24   D(4,3,6,15)           -53.6869         estimate D2E/DX2                !
 ! D25   D(8,3,6,7)            -54.8548         estimate D2E/DX2                !
 ! D26   D(8,3,6,14)          -175.0414         estimate D2E/DX2                !
 ! D27   D(8,3,6,15)            64.5461         estimate D2E/DX2                !
 ! D28   D(2,3,8,9)             76.4411         estimate D2E/DX2                !
 ! D29   D(2,3,8,16)           -44.6236         estimate D2E/DX2                !
 ! D30   D(2,3,8,17)          -164.3145         estimate D2E/DX2                !
 ! D31   D(4,3,8,9)            -45.5394         estimate D2E/DX2                !
 ! D32   D(4,3,8,16)          -166.604          estimate D2E/DX2                !
 ! D33   D(4,3,8,17)            73.705          estimate D2E/DX2                !
 ! D34   D(6,3,8,9)           -163.9403         estimate D2E/DX2                !
 ! D35   D(6,3,8,16)            74.995          estimate D2E/DX2                !
 ! D36   D(6,3,8,17)           -44.6959         estimate D2E/DX2                !
 --------------------------------------------------------------------------------
 Number of steps in this run=     92 maximum allowed number of steps=    102.
 GradGradGradGradGradGradGradGradGradGradGradGradGradGradGradGradGradGrad

                    Distance matrix (angstroms):
                    1          2          3          4          5
     1  F    0.000000
     2  C    1.369898   0.000000
     3  C    2.391340   1.530740   0.000000
     4  C    2.931941   2.511005   1.529718   0.000000
     5  F    3.532912   2.924237   2.382361   1.377210   0.000000
     6  C    3.705068   2.484361   1.529526   2.490782   2.797658
     7  F    4.138801   2.917728   2.386106   3.706905   4.114197
     8  C    2.896317   2.538051   1.534384   2.490622   3.705537
     9  F    2.822824   3.094381   2.401841   2.742528   4.082970
    10  H    2.014206   1.103709   2.172117   3.471105   3.892859
    11  H    2.012124   1.104255   2.169911   2.717337   2.571807
    12  H    2.585536   2.717342   2.171160   1.100319   2.019186
    13  H    3.909992   3.478431   2.181293   1.105403   2.016433
    14  H    3.986142   2.682941   2.182257   2.800669   2.544338
    15  H    4.546575   3.454168   2.175784   2.684236   3.050967
    16  H    3.048880   2.683783   2.182139   3.449749   4.542885
    17  H    3.964885   3.476676   2.173820   2.845289   4.035200
                    6          7          8          9         10
     6  C    0.000000
     7  F    1.376485   0.000000
     8  C    2.485302   2.798075   0.000000
     9  F    3.692304   4.142588   1.370414   0.000000
    10  H    2.692603   2.566396   2.812899   3.568143   0.000000
    11  H    2.750927   3.362522   3.491265   4.037549   1.798832
    12  H    3.453612   4.539358   2.796515   2.506677   3.754884
    13  H    2.784064   4.004584   2.682685   2.921265   4.325231
    14  H    1.102423   2.017420   3.459480   4.550844   2.950510
    15  H    1.105254   2.016076   2.765125   3.921329   3.740540
    16  H    2.860767   2.633207   1.102594   2.015804   2.516421
    17  H    2.600221   2.920233   1.106258   2.006287   3.724086
                   11         12         13         14         15
    11  H    0.000000
    12  H    2.989853   0.000000
    13  H    3.757726   1.796858   0.000000
    14  H    2.487714   3.769845   3.243911   0.000000
    15  H    3.729448   3.730171   2.517799   1.792906   0.000000
    16  H    3.734527   3.720679   3.751496   3.824056   3.318926
    17  H    4.314690   3.340131   2.599889   3.664527   2.426346
                   16         17
    16  H    0.000000
    17  H    1.792629   0.000000
 Framework group  C1[X(C5H8F4)]
 Deg. of freedom    45
                         Standard orientation:                         
 ---------------------------------------------------------------------
 Center     Atomic      Atomic             Coordinates (Angstroms)
 Number     Number       Type             X           Y           Z
 ---------------------------------------------------------------------
      1          9           0       -1.598350   -0.060863    1.529295
      2          6           0       -0.240554    0.054353    1.388814
      3          6           0        0.163119    0.001910   -0.086809
      4          6           0       -0.415675    1.202600   -0.837395
      5          9           0        0.138593    2.368657   -0.358014
      6          6           0        1.689392    0.047315   -0.175574
      7          9           0        2.232568   -1.099861    0.357021
      8          6           0       -0.323850   -1.285284   -0.765284
      9          9           0       -1.665512   -1.230238   -1.039048
     10          1           0        0.240995   -0.770553    1.941818
     11          1           0        0.074110    1.016963    1.828983
     12          1           0       -1.506247    1.248089   -0.698520
     13          1           0       -0.191115    1.133694   -1.917553
     14          1           0        2.091340    0.912512    0.376883
     15          1           0        2.010062    0.122640   -1.230602
     16          1           0       -0.129393   -2.160230   -0.123124
     17          1           0        0.209973   -1.427745   -1.723691
 ---------------------------------------------------------------------
 Rotational constants (GHZ):           1.5193684           1.3637044           1.1144404
   142 basis functions,   257 primitive gaussians,   151 cartesian basis functions
    37 alpha electrons       36 beta electrons
       nuclear repulsion energy       524.1300754966 Hartrees.
 NAtoms=   17 NActive=   17 NUniq=   17 SFac= 1.00D+00 NAtFMM=   60 NAOKFM=F Big=F
 Nuclear repulsion after empirical dispersion term =      524.1185882705 Hartrees.
   1 Symmetry operations used in ECPInt.
 ECPInt:  NShTT=    2485 NPrTT=   10011 LenC2=    2446 LenP2D=    7686.
 LDataN:  DoStor=T MaxTD1= 4 Len=   56
 ExpMin= 1.22D-01 ExpMax= 2.89D+03 ExpMxC= 4.35D+02 IAcc=3 IRadAn=         5 AccDes= 0.00D+00
 Harris functional with IExCor= 4639 and IRadAn=       5 diagonalized for initial guess.
 HarFok:  IExCor= 4639 AccDes= 0.00D+00 IRadAn=         5 IDoV= 1 UseB2=F ITyADJ=14
 ICtDFT=  3500011 ScaDFX=  1.000000  1.000000  1.000000  1.000000
 FoFCou: FMM=F IPFlag=           0 FMFlag=      100000 FMFlg1=           0
         NFxFlg=           0 DoJE=T BraDBF=F KetDBF=T FulRan=T
         wScrn=  0.000000 ICntrl=       500 IOpCl=  0 I1Cent=   200000004 NGrid=           0
         NMat0=    1 NMatS0=      1 NMatT0=    0 NMatD0=    1 NMtDS0=    0 NMtDT0=    0
 Petite list used in FoFCou.
 Initial guess <Sx>= 0.0000 <Sy>= 0.0000 <Sz>= 0.5000 <S**2>= 0.7500 S= 0.5000
     Accept linear search using points  2 and  3.
     Accept linear search using points  2 and  3.
     Accept linear search using points  1 and  2.
     Accept linear search using points  2 and  3.
     Accept linear search using points  1 and  2.
     Accept linear search using points  1 and  2.
     Minimum is close to point  2 DX=  4.94D-03 DF= -7.09D-10 DXR=  4.91D-03 DFR=  2.41D-05 which will be used.
     Accept linear search using points  1 and  2.
     Minimum is close to point  2 DX= -5.44D-04 DF=  0.00D+00 DXR=  5.44D-04 DFR=  0.00D+00 which will be used.
 SCF Done:  E(UwB97XD) =  -593.645012144     a.u. after   11 cycles
            Convg  =    0.5274D-07                    94 Fock formations.
              S**2 =  0.7526                  -V/T =  2.0068
 <Sx>= 0.0000 <Sy>= 0.0000 <Sz>= 0.5000 <S**2>= 0.7526 S= 0.5013
 <L.S>=  0.00000000000    
 Annihilation of the first spin contaminant:
 S**2 before annihilation     0.7526,   after     0.7500

 **********************************************************************

            Population analysis using the SCF Density.

 **********************************************************************

 Orbital symmetries:
 Alpha Orbitals:
       Occupied  (A) (A) (A) (A) (A) (A) (A) (A) (A) (A) (A) (A)
                 (A) (A) (A) (A) (A) (A) (A) (A) (A) (A) (A) (A)
                 (A) (A) (A) (A) (A) (A) (A) (A) (A) (A) (A) (A)
                 (A)
       Virtual   (A) (A) (A) (A) (A) (A) (A) (A) (A) (A) (A) (A)
                 (A) (A) (A) (A) (A) (A) (A) (A) (A) (A) (A) (A)
                 (A) (A) (A) (A) (A) (A) (A) (A) (A) (A) (A) (A)
                 (A) (A) (A) (A) (A) (A) (A) (A) (A) (A) (A) (A)
                 (A) (A) (A) (A) (A) (A) (A) (A) (A) (A) (A) (A)
                 (A) (A) (A) (A) (A) (A) (A) (A) (A) (A) (A) (A)
                 (A) (A) (A) (A) (A) (A) (A) (A) (A) (A) (A) (A)
                 (A) (A) (A) (A) (A) (A) (A) (A) (A) (A) (A) (A)
                 (A) (A) (A) (A) (A) (A) (A) (A) (A)
 Beta  Orbitals:
       Occupied  (A) (A) (A) (A) (A) (A) (A) (A) (A) (A) (A) (A)
                 (A) (A) (A) (A) (A) (A) (A) (A) (A) (A) (A) (A)
                 (A) (A) (A) (A) (A) (A) (A) (A) (A) (A) (A) (A)
       Virtual   (A) (A) (A) (A) (A) (A) (A) (A) (A) (A) (A) (A)
                 (A) (A) (A) (A) (A) (A) (A) (A) (A) (A) (A) (A)
                 (A) (A) (A) (A) (A) (A) (A) (A) (A) (A) (A) (A)
                 (A) (A) (A) (A) (A) (A) (A) (A) (A) (A) (A) (A)
                 (A) (A) (A) (A) (A) (A) (A) (A) (A) (A) (A) (A)
                 (A) (A) (A) (A) (A) (A) (A) (A) (A) (A) (A) (A)
                 (A) (A) (A) (A) (A) (A) (A) (A) (A) (A) (A) (A)
                 (A) (A) (A) (A) (A) (A) (A) (A) (A) (A) (A) (A)
                 (A) (A) (A) (A) (A) (A) (A) (A) (A) (A)
 The electronic state is 2-A.
 Alpha  occ. eigenvalues --  -25.06847 -25.03252 -25.01112 -25.00904 -10.63063
 Alpha  occ. eigenvalues --  -10.60293 -10.59307 -10.58864 -10.58833  -1.54184
 Alpha  occ. eigenvalues --   -1.51004  -1.49141  -1.48794  -1.18277  -1.03693
 Alpha  occ. eigenvalues --   -1.01026  -1.00298  -0.90307  -0.85194  -0.85045
 Alpha  occ. eigenvalues --   -0.84631  -0.81500  -0.81278  -0.79174  -0.78265
 Alpha  occ. eigenvalues --   -0.78006  -0.77150  -0.75411  -0.75252  -0.71790
 Alpha  occ. eigenvalues --   -0.68455  -0.68099  -0.65280  -0.64977  -0.63635
 Alpha  occ. eigenvalues --   -0.62978  -0.62414
 Alpha virt. eigenvalues --   -0.06313  -0.04750  -0.04260  -0.02644  -0.01082
 Alpha virt. eigenvalues --   -0.00544   0.01825   0.03406   0.04107   0.05595
 Alpha virt. eigenvalues --    0.05822   0.06557   0.09330   0.10253   0.10603
 Alpha virt. eigenvalues --    0.13102   0.29378   0.30646   0.34319   0.35263
 Alpha virt. eigenvalues --    0.36024   0.38979   0.41059   0.41386   0.43241
 Alpha virt. eigenvalues --    0.44036   0.49262   0.50443   0.51561   0.52302
 Alpha virt. eigenvalues --    0.52990   0.54463   0.56569   0.57017   0.58113
 Alpha virt. eigenvalues --    0.59464   0.60099   0.62033   0.65649   0.71588
 Alpha virt. eigenvalues --    0.79546   0.86743   0.89880   0.92265   1.03497
 Alpha virt. eigenvalues --    1.06707   1.08934   1.10594   1.10965   1.12840
 Alpha virt. eigenvalues --    1.19719   1.21200   1.25676   1.26253   1.28513
 Alpha virt. eigenvalues --    1.32089   1.35602   1.38179   1.50343   1.51754
 Alpha virt. eigenvalues --    1.55073   1.60465   1.61917   1.62802   1.70071
 Alpha virt. eigenvalues --    1.73495   1.77333   1.77936   1.79918   1.80850
 Alpha virt. eigenvalues --    1.83369   1.84831   1.85703   1.92892   1.94075
 Alpha virt. eigenvalues --    1.95751   1.98917   2.03403   2.04035   2.04913
 Alpha virt. eigenvalues --    2.29211   2.31589   2.46924   2.47153   2.50862
 Alpha virt. eigenvalues --    2.93696   2.94327   2.97139   2.98455   2.99295
 Alpha virt. eigenvalues --    2.99644   3.00419   3.00687   3.13950   3.16298
 Alpha virt. eigenvalues --    3.16819   3.17558   3.18045   3.18754   3.23815
 Alpha virt. eigenvalues --    3.24465   3.62356   3.63939   3.67078   3.67719
  Beta  occ. eigenvalues --  -25.06282 -25.02926 -25.00985 -25.00771 -10.62760
  Beta  occ. eigenvalues --  -10.60230 -10.59265 -10.58836 -10.58547  -1.52832
  Beta  occ. eigenvalues --   -1.50233  -1.48831  -1.48476  -1.17020  -1.02102
  Beta  occ. eigenvalues --   -1.00454  -0.99822  -0.88734  -0.84481  -0.84227
  Beta  occ. eigenvalues --   -0.83615  -0.81054  -0.80768  -0.77812  -0.77437
  Beta  occ. eigenvalues --   -0.77275  -0.75081  -0.74833  -0.74763  -0.69205
  Beta  occ. eigenvalues --   -0.67247  -0.66219  -0.63422  -0.62749  -0.62524
  Beta  occ. eigenvalues --   -0.61973
  Beta virt. eigenvalues --   -0.43239  -0.05943  -0.04494  -0.04084  -0.02242
  Beta virt. eigenvalues --   -0.00699   0.00041   0.02320   0.03675   0.04266
  Beta virt. eigenvalues --    0.05860   0.06134   0.06873   0.09783   0.10664
  Beta virt. eigenvalues --    0.10988   0.14203   0.29854   0.31372   0.34831
  Beta virt. eigenvalues --    0.35519   0.36246   0.39294   0.41327   0.42034
  Beta virt. eigenvalues --    0.43576   0.44309   0.50228   0.51118   0.52180
  Beta virt. eigenvalues --    0.52711   0.53458   0.55074   0.57016   0.57403
  Beta virt. eigenvalues --    0.58528   0.59813   0.60384   0.62552   0.66070
  Beta virt. eigenvalues --    0.71841   0.79849   0.87156   0.90193   0.92569
  Beta virt. eigenvalues --    1.04038   1.07073   1.09216   1.10976   1.11545
  Beta virt. eigenvalues --    1.13061   1.20752   1.21780   1.26061   1.26514
  Beta virt. eigenvalues --    1.28913   1.32336   1.36305   1.38608   1.50788
  Beta virt. eigenvalues --    1.52336   1.55345   1.61661   1.62303   1.63479
  Beta virt. eigenvalues --    1.70483   1.73848   1.77727   1.78264   1.80298
  Beta virt. eigenvalues --    1.81365   1.83810   1.85188   1.86005   1.93353
  Beta virt. eigenvalues --    1.94712   1.96048   1.99581   2.03887   2.04411
  Beta virt. eigenvalues --    2.05366   2.29797   2.32307   2.47683   2.47792
  Beta virt. eigenvalues --    2.52129   2.95116   2.95746   2.97965   2.99022
  Beta virt. eigenvalues --    2.99751   3.00323   3.00812   3.01068   3.14334
  Beta virt. eigenvalues --    3.16793   3.17349   3.17810   3.18881   3.19307
  Beta virt. eigenvalues --    3.24204   3.24764   3.63079   3.64190   3.67369
  Beta virt. eigenvalues --    3.67941
          Condensed to atoms (all electrons):
          Atomic-Atomic Spin Densities.
 Mulliken charges and spin densities:
               1          2
     1  F   -0.122259   0.174078
     2  C    0.169817   0.174867
     3  C   -0.546289   0.137984
     4  C    0.137974   0.019332
     5  F   -0.217570   0.041872
     6  C    0.125936   0.024948
     7  F   -0.217614   0.039653
     8  C    0.141955   0.037514
     9  F   -0.173120   0.099508
    10  H    0.215705   0.003303
    11  H    0.229842   0.034506
    12  H    0.208712   0.015689
    13  H    0.209539   0.055986
    14  H    0.196377   0.002753
    15  H    0.207963   0.048100
    16  H    0.205067   0.009969
    17  H    0.227964   0.079939
 Sum of Mulliken charges =   1.00000   1.00000
 Mulliken charges and spin densities with hydrogens summed into heavy atoms:
               1          2
     1  F   -0.122259   0.174078
     2  C    0.615364   0.212676
     3  C   -0.546289   0.137984
     4  C    0.556224   0.091007
     5  F   -0.217570   0.041872
     6  C    0.530277   0.075801
     7  F   -0.217614   0.039653
     8  C    0.574986   0.127421
     9  F   -0.173120   0.099508
 Electronic spatial extent (au):  <R**2>=           1157.9629
 Charge=              1.0000 electrons
 Dipole moment (field-independent basis, Debye):
    X=              1.5023    Y=             -0.2964    Z=             -0.7814  Tot=              1.7191
                          Isotropic Fermi Contact Couplings
        Atom                 a.u.       MegaHertz       Gauss      10(-4) cm-1
     1  F(19)              0.08451     355.57106     126.87660     118.60574
     2  C(13)              0.03007      33.80165      12.06127      11.27502
     3  C(13)             -0.00791      -8.88740      -3.17125      -2.96452
     4  C(13)             -0.01157     -13.00483      -4.64045      -4.33795
     5  F(19)              0.01974      83.07510      29.64326      27.71087
     6  C(13)             -0.00389      -4.37833      -1.56230      -1.46045
     7  F(19)              0.01931      81.22675      28.98373      27.09433
     8  C(13)             -0.00971     -10.91637      -3.89523      -3.64131
     9  F(19)              0.04919     206.98212      73.85637      69.04180
    10  H(1)               0.00290      12.95244       4.62175       4.32047
    11  H(1)               0.01788      79.93870      28.52412      26.66468
    12  H(1)               0.00772      34.49276      12.30788      11.50555
    13  H(1)               0.02508     112.10513      40.00190      37.39425
    14  H(1)               0.00136       6.06535       2.16427       2.02318
    15  H(1)               0.01969      88.01421      31.40566      29.35838
    16  H(1)               0.00541      24.15975       8.62080       8.05883
    17  H(1)               0.03599     160.86436      57.40040      53.65857
 --------------------------------------------------------
       Center         ----  Spin Dipole Couplings  ----
                      3XX-RR        3YY-RR        3ZZ-RR
 --------------------------------------------------------
     1   Atom       -0.617199     -0.530136      1.147334
     2   Atom       -0.161257     -0.158483      0.319739
     3   Atom       -0.111902     -0.160689      0.272591
     4   Atom       -0.020069     -0.020090      0.040159
     5   Atom       -0.100920     -0.141307      0.242227
     6   Atom        0.036300     -0.035993     -0.000307
     7   Atom        0.063442     -0.139869      0.076427
     8   Atom       -0.052623     -0.039355      0.091978
     9   Atom       -0.297239     -0.250057      0.547296
    10   Atom       -0.009574      0.011791     -0.002217
    11   Atom       -0.014771      0.026516     -0.011745
    12   Atom        0.007363     -0.002665     -0.004697
    13   Atom       -0.008618     -0.004442      0.013060
    14   Atom        0.005594     -0.001139     -0.004455
    15   Atom       -0.001374     -0.007831      0.009205
    16   Atom       -0.008577      0.015312     -0.006735
    17   Atom        0.000188     -0.009220      0.009031
 --------------------------------------------------------
                        XY            XZ            YZ
 --------------------------------------------------------
     1   Atom       -0.007686     -0.027154      0.386424
     2   Atom       -0.004308     -0.023288      0.082902
     3   Atom       -0.025610     -0.161491      0.068118
     4   Atom        0.011417     -0.034247     -0.027601
     5   Atom        0.014072     -0.140097     -0.029727
     6   Atom       -0.008714     -0.051945      0.007133
     7   Atom       -0.001780     -0.211103     -0.003265
     8   Atom       -0.000321     -0.003126      0.051014
     9   Atom       -0.069771     -0.198799      0.311078
    10   Atom       -0.016271      0.006509     -0.011396
    11   Atom        0.015537      0.002361      0.008521
    12   Atom       -0.005877      0.003805     -0.003806
    13   Atom       -0.001299     -0.002198      0.000461
    14   Atom        0.007598      0.001838      0.002907
    15   Atom        0.001180     -0.003289     -0.002072
    16   Atom       -0.002828      0.000743     -0.003644
    17   Atom       -0.000340     -0.014797      0.003882
 --------------------------------------------------------


 ---------------------------------------------------------------------------------
              Anisotropic Spin Dipole Couplings in Principal Axis System
 ---------------------------------------------------------------------------------

       Atom             a.u.   MegaHertz   Gauss  10(-4) cm-1        Axes

              Baa    -0.6184  -310.592  -110.827  -103.602  0.9031  0.4222 -0.0785
     1 F(19)  Bbb    -0.6141  -308.401  -110.045  -102.871 -0.4291  0.8808 -0.1999
              Bcc     1.2325   618.993   220.872   206.474 -0.0152  0.2142  0.9767
 
              Baa    -0.1725   -23.143    -8.258    -7.720  0.0376  0.9857 -0.1642
     2 C(13)  Bbb    -0.1624   -21.789    -7.775    -7.268  0.9982 -0.0292  0.0532
              Bcc     0.3348    44.931    16.033    14.988 -0.0477  0.1659  0.9850
 
              Baa    -0.1718   -23.048    -8.224    -7.688  0.5888  0.8031  0.0909
     3 C(13)  Bbb    -0.1702   -22.839    -8.149    -7.618  0.7338 -0.5783  0.3566
              Bcc     0.3420    45.887    16.374    15.306 -0.3389  0.1433  0.9298
 
              Baa    -0.0357    -4.793    -1.710    -1.599  0.8757  0.1630  0.4545
     4 C(13)  Bbb    -0.0303    -4.064    -1.450    -1.355 -0.2895  0.9306  0.2239
              Bcc     0.0660     8.857     3.160     2.954 -0.3865 -0.3277  0.8621
 
              Baa    -0.1521   -76.402   -27.262   -25.485  0.8864 -0.3628  0.2876
     5 F(19)  Bbb    -0.1425   -71.561   -25.535   -23.870  0.3191  0.9289  0.1880
              Bcc     0.2946   147.964    52.797    49.355 -0.3353 -0.0749  0.9391
 
              Baa    -0.0379    -5.085    -1.814    -1.696 -0.3416  0.7166 -0.6081
     6 C(13)  Bbb    -0.0363    -4.874    -1.739    -1.626  0.4740  0.6901  0.5469
              Bcc     0.0742     9.959     3.554     3.322  0.8116 -0.1014 -0.5754
 
              Baa    -0.1442   -72.415   -25.840   -24.155  0.5533  0.6352  0.5388
     7 F(19)  Bbb    -0.1370   -68.780   -24.543   -22.943 -0.4575  0.7723 -0.4408
              Bcc     0.2811   141.196    50.382    47.098 -0.6961 -0.0026  0.7179
 
              Baa    -0.0570    -7.643    -2.727    -2.550 -0.1636  0.9322 -0.3227
     8 C(13)  Bbb    -0.0526    -7.053    -2.517    -2.353  0.9863  0.1609 -0.0354
              Bcc     0.1095    14.697     5.244     4.902 -0.0189  0.3241  0.9458
 
              Baa    -0.3572  -179.379   -64.007   -59.834  0.0816  0.9479 -0.3081
     9 F(19)  Bbb    -0.3417  -171.607   -61.233   -57.242  0.9750 -0.0117  0.2221
              Bcc     0.6989   350.986   125.240   117.076 -0.2069  0.3185  0.9251
 
              Baa    -0.0184    -9.798    -3.496    -3.268  0.8839  0.4668 -0.0268
    10 H(1)   Bbb    -0.0082    -4.371    -1.560    -1.458 -0.1722  0.3784  0.9095
              Bcc     0.0266    14.169     5.056     4.726 -0.4347  0.7993 -0.4149
 
              Baa    -0.0200   -10.669    -3.807    -3.559  0.9424 -0.3273  0.0683
    11 H(1)   Bbb    -0.0134    -7.170    -2.559    -2.392 -0.1264 -0.1596  0.9790
              Bcc     0.0334    17.839     6.366     5.951  0.3096  0.9313  0.1918
 
              Baa    -0.0077    -4.085    -1.458    -1.363  0.0632  0.6512  0.7563
    12 H(1)   Bbb    -0.0040    -2.132    -0.761    -0.711  0.5189  0.6259 -0.5823
              Bcc     0.0117     6.217     2.219     2.074  0.8525 -0.4292  0.2983
 
              Baa    -0.0092    -4.892    -1.746    -1.632  0.9625  0.2558  0.0899
    13 H(1)   Bbb    -0.0041    -2.204    -0.787    -0.735 -0.2513  0.9662 -0.0580
              Bcc     0.0133     7.096     2.532     2.367 -0.1017  0.0333  0.9943
 
              Baa    -0.0071    -3.776    -1.347    -1.260 -0.3615  0.7401 -0.5670
    14 H(1)   Bbb    -0.0041    -2.183    -0.779    -0.728 -0.4572  0.3893  0.7996
              Bcc     0.0112     5.959     2.126     1.988  0.8126  0.5483  0.1976
 
              Baa    -0.0082    -4.363    -1.557    -1.456 -0.1259  0.9876  0.0939
    15 H(1)   Bbb    -0.0023    -1.206    -0.430    -0.402  0.9524  0.0938  0.2902
              Bcc     0.0104     5.569     1.987     1.858 -0.2778 -0.1259  0.9524
 
              Baa    -0.0090    -4.784    -1.707    -1.596  0.9789  0.0863 -0.1851
    16 H(1)   Bbb    -0.0073    -3.881    -1.385    -1.295  0.1677  0.1775  0.9697
              Bcc     0.0162     8.665     3.092     2.890 -0.1165  0.9803 -0.1593
 
              Baa    -0.0123    -6.584    -2.349    -2.196  0.6085 -0.5917  0.5288
    17 H(1)   Bbb    -0.0081    -4.314    -1.540    -1.439  0.5331  0.7984  0.2798
              Bcc     0.0204    10.899     3.889     3.635 -0.5878  0.1117  0.8013
 

 ---------------------------------------------------------------------------------

   1 Symmetry operations used in ECPInt.
 ECPInt:  NShTT=    2485 NPrTT=   10011 LenC2=    2446 LenP2D=    7686.
 LDataN:  DoStor=T MaxTD1= 5 Len=  102
 Calling FoFJK, ICntrl=      2127 FMM=F ISym2X=0 I1Cent= 0 IOpClX= 1 NMat=1 NMatS=1 NMatT=0.

 GradGradGradGradGradGradGradGradGradGradGradGradGradGradGradGradGradGrad
 FormGI is forming the generalized inverse of G from B-inverse, IUseBI=4.
 Internal  Forces:  Max     0.035923326 RMS     0.007780162
 Step number   1 out of a maximum of   92
 All quantities printed in internal units (Hartrees-Bohrs-Radians)
 Mixed Optimization -- RFO/linear search
 Second derivative matrix not updated -- first step.
 ITU=  0
     Eigenvalues ---    0.00311   0.00359   0.00373   0.00375   0.04510
     Eigenvalues ---    0.04887   0.05122   0.05485   0.05613   0.05639
     Eigenvalues ---    0.05701   0.05862   0.05877   0.05894   0.05956
     Eigenvalues ---    0.14248   0.14616   0.16000   0.16000   0.16000
     Eigenvalues ---    0.16000   0.16000   0.16000   0.16000   0.16000
     Eigenvalues ---    0.22334   0.22343   0.22366   0.22390   0.29022
     Eigenvalues ---    0.29355   0.29449   0.29467   0.32999   0.33092
     Eigenvalues ---    0.33108   0.33216   0.33275   0.33397   0.33416
     Eigenvalues ---    0.33647   0.49616   0.49750   0.50897   0.50996
 Linear search not attempted -- first point.
 Iteration  1 RMS(Cart)=  0.04528655 RMS(Int)=  0.00236271
 Iteration  2 RMS(Cart)=  0.00289178 RMS(Int)=  0.00125381
 Iteration  3 RMS(Cart)=  0.00000583 RMS(Int)=  0.00125380
 Iteration  4 RMS(Cart)=  0.00000002 RMS(Int)=  0.00125380
 Variable       Old X    -DE/DX   Delta X   Delta X   Delta X     New X
                                 (Linear)    (Quad)   (Total)
    R1        2.58873  -0.03256   0.00000  -0.06117  -0.06117   2.52756
    R2        2.89268   0.03592   0.00000   0.11374   0.11374   3.00642
    R3        2.08571   0.00046   0.00000   0.00130   0.00130   2.08701
    R4        2.08674   0.00424   0.00000   0.01196   0.01196   2.09870
    R5        2.89075  -0.00179   0.00000  -0.00564  -0.00564   2.88511
    R6        2.89039   0.00498   0.00000   0.01570   0.01570   2.90608
    R7        2.89957  -0.00291   0.00000  -0.00933  -0.00933   2.89024
    R8        2.60255  -0.01605   0.00000  -0.03096  -0.03096   2.57159
    R9        2.07930   0.00283   0.00000   0.00788   0.00788   2.08719
   R10        2.08891   0.00354   0.00000   0.01003   0.01003   2.09894
   R11        2.60118  -0.01493   0.00000  -0.02873  -0.02873   2.57245
   R12        2.08328   0.00004   0.00000   0.00012   0.00012   2.08340
   R13        2.08863   0.00157   0.00000   0.00443   0.00443   2.09306
   R14        2.58971  -0.01818   0.00000  -0.03422  -0.03422   2.55548
   R15        2.08360   0.00170   0.00000   0.00478   0.00478   2.08838
   R16        2.09052   0.00504   0.00000   0.01431   0.01431   2.10483
    A1        1.93623  -0.00968   0.00000  -0.04530  -0.04707   1.88916
    A2        1.89463   0.00641   0.00000   0.02756   0.02695   1.92158
    A3        1.89113   0.00976   0.00000   0.03264   0.02902   1.92014
    A4        1.92020  -0.00384   0.00000  -0.01612  -0.01652   1.90368
    A5        1.91663  -0.01490   0.00000  -0.08366  -0.08537   1.83125
    A6        1.90443   0.01307   0.00000   0.08927   0.08904   1.99346
    A7        1.92445   0.00031   0.00000  -0.02341  -0.02183   1.90263
    A8        1.89450  -0.00352   0.00000  -0.04866  -0.04670   1.84780
    A9        1.95121  -0.00855   0.00000  -0.08802  -0.08620   1.86501
   A10        1.90264   0.00106   0.00000   0.04418   0.04010   1.94274
   A11        1.89802   0.00403   0.00000   0.05224   0.04746   1.94547
   A12        1.89224   0.00696   0.00000   0.06805   0.06292   1.95516
   A13        1.91931  -0.00216   0.00000  -0.00611  -0.00649   1.91282
   A14        1.92361   0.00704   0.00000   0.04177   0.04173   1.96533
   A15        1.93229  -0.00387   0.00000  -0.02862  -0.02857   1.90372
   A16        1.89648  -0.00008   0.00000   0.01263   0.01222   1.90870
   A17        1.88720   0.00181   0.00000   0.00218   0.00189   1.88909
   A18        1.90419  -0.00280   0.00000  -0.02206  -0.02169   1.88250
   A19        1.92471  -0.00459   0.00000  -0.01715  -0.01763   1.90708
   A20        1.93697   0.00514   0.00000   0.03264   0.03277   1.96974
   A21        1.92510  -0.00652   0.00000  -0.04408  -0.04432   1.88077
   A22        1.89262   0.00210   0.00000   0.02325   0.02315   1.91576
   A23        1.88773   0.00368   0.00000   0.00716   0.00623   1.89396
   A24        1.89556   0.00038   0.00000  -0.00111  -0.00074   1.89482
   A25        1.94480  -0.00595   0.00000  -0.02296  -0.02366   1.92115
   A26        1.93071   0.00918   0.00000   0.05613   0.05636   1.98707
   A27        1.91555  -0.00644   0.00000  -0.04529  -0.04550   1.87005
   A28        1.89746   0.00082   0.00000   0.01734   0.01713   1.91459
   A29        1.88024   0.00389   0.00000   0.00458   0.00331   1.88355
   A30        1.89365  -0.00149   0.00000  -0.01051  -0.00978   1.88388
    D1        1.11908   0.00005   0.00000   0.01720   0.01863   1.13771
    D2       -3.08103  -0.00063   0.00000   0.02742   0.02718  -3.05385
    D3       -0.99462   0.00047   0.00000   0.02621   0.02766  -0.96696
    D4       -3.06737  -0.00068   0.00000   0.01193   0.01259  -3.05479
    D5       -0.98430  -0.00135   0.00000   0.02216   0.02114  -0.96317
    D6        1.10211  -0.00026   0.00000   0.02095   0.02162   1.12372
    D7       -0.97095   0.00367   0.00000   0.05940   0.05897  -0.91199
    D8        1.11212   0.00300   0.00000   0.06962   0.06752   1.17963
    D9       -3.08466   0.00409   0.00000   0.06841   0.06800  -3.01666
   D10        1.12937   0.00335   0.00000   0.04874   0.04896   1.17833
   D11       -0.96105   0.00038   0.00000   0.01069   0.01068  -0.95037
   D12       -3.06942   0.00177   0.00000   0.02950   0.02987  -3.03956
   D13       -0.94875   0.00681   0.00000   0.09516   0.09522  -0.85353
   D14       -3.03917   0.00384   0.00000   0.05710   0.05693  -2.98224
   D15        1.13564   0.00524   0.00000   0.07591   0.07613   1.21177
   D16       -3.00867  -0.00444   0.00000  -0.04146  -0.04166  -3.05033
   D17        1.18409  -0.00741   0.00000  -0.07951  -0.07994   1.10416
   D18       -0.92428  -0.00602   0.00000  -0.06070  -0.06075  -0.98503
   D19        1.16554  -0.00016   0.00000   0.01841   0.01787   1.18341
   D20       -0.93211  -0.00311   0.00000  -0.02066  -0.02110  -0.95321
   D21       -3.03371  -0.00263   0.00000  -0.01145  -0.01140  -3.04511
   D22       -3.02095  -0.00125   0.00000  -0.01280  -0.01369  -3.03464
   D23        1.16458  -0.00420   0.00000  -0.05188  -0.05266   1.11192
   D24       -0.93701  -0.00372   0.00000  -0.04266  -0.04296  -0.97997
   D25       -0.95740   0.00814   0.00000   0.11344   0.11418  -0.84322
   D26       -3.05505   0.00519   0.00000   0.07437   0.07521  -2.97984
   D27        1.12654   0.00567   0.00000   0.08358   0.08491   1.21145
   D28        1.33415   0.00310   0.00000   0.03739   0.03737   1.37152
   D29       -0.77883  -0.00020   0.00000  -0.00754  -0.00751  -0.78634
   D30       -2.86783  -0.00000   0.00000  -0.00087  -0.00004  -2.86787
   D31       -0.79481   0.00552   0.00000   0.08834   0.08925  -0.70556
   D32       -2.90779   0.00222   0.00000   0.04340   0.04436  -2.86343
   D33        1.28640   0.00241   0.00000   0.05008   0.05184   1.33824
   D34       -2.86130  -0.00196   0.00000  -0.03239  -0.03418  -2.89548
   D35        1.30891  -0.00526   0.00000  -0.07732  -0.07907   1.22984
   D36       -0.78009  -0.00506   0.00000  -0.07065  -0.07159  -0.85168
         Item               Value     Threshold  Converged?
 Maximum Force            0.035923     0.000015     NO 
 RMS     Force            0.007780     0.000010     NO 
 Maximum Displacement     0.138540     0.000060     NO 
 RMS     Displacement     0.044906     0.000040     NO 
 GradGradGradGradGradGradGradGradGradGradGradGradGradGradGradGradGradGrad

                    Distance matrix (angstroms):
                    1          2          3          4          5
     1  F    0.000000
     2  C    1.337526   0.000000
     3  C    2.377425   1.590930   0.000000
     4  C    2.905692   2.538610   1.526735   0.000000
     5  F    3.538944   2.947558   2.361443   1.360825   0.000000
     6  C    3.667569   2.496830   1.537833   2.530294   2.782703
     7  F    4.058000   2.893779   2.366346   3.710815   4.085234
     8  C    2.768104   2.506289   1.529449   2.525722   3.710793
     9  F    2.671135   3.031929   2.363836   2.720089   4.040070
    10  H    2.005963   1.104397   2.213376   3.489041   3.899349
    11  H    2.009789   1.110585   2.162053   2.641198   2.500454
    12  H    2.591439   2.759991   2.201626   1.104492   2.016996
    13  H    3.870235   3.507746   2.161704   1.110710   2.007871
    14  H    3.976711   2.709055   2.213044   2.851348   2.553951
    15  H    4.501739   3.465165   2.151940   2.715096   3.021168
    16  H    2.933495   2.666021   2.219778   3.496944   4.562097
    17  H    3.848205   3.456860   2.141091   2.879972   4.043976
                    6          7          8          9         10
     6  C    0.000000
     7  F    1.361280   0.000000
     8  C    2.543235   2.791858   0.000000
     9  F    3.710021   4.113516   1.352303   0.000000
    10  H    2.672587   2.514318   2.765602   3.515681   0.000000
    11  H    2.721712   3.353989   3.434479   3.926112   1.859925
    12  H    3.503967   4.554878   2.839883   2.498749   3.798453
    13  H    2.844875   4.025906   2.734165   2.914484   4.342427
    14  H    1.102486   2.020790   3.512137   4.560298   2.942872
    15  H    1.107599   2.009348   2.840708   3.958212   3.720290
    16  H    2.933929   2.655272   1.105125   2.014314   2.481048
    17  H    2.663235   2.917746   1.113828   1.999055   3.679195
                   11         12         13         14         15
    11  H    0.000000
    12  H    2.921349   0.000000
    13  H    3.693991   1.790539   0.000000
    14  H    2.478662   3.823560   3.317394   0.000000
    15  H    3.684947   3.772767   2.577373   1.794385   0.000000
    16  H    3.721295   3.776299   3.809994   3.888870   3.404538
    17  H    4.265306   3.378107   2.653567   3.729385   2.517163
                   16         17
    16  H    0.000000
    17  H    1.794474   0.000000
 Framework group  C1[X(C5H8F4)]
 Deg. of freedom    45
                         Standard orientation:                         
 ---------------------------------------------------------------------
 Center     Atomic      Atomic             Coordinates (Angstroms)
 Number     Number       Type             X           Y           Z
 ---------------------------------------------------------------------
      1          9           0       -1.559584   -0.100308    1.480223
      2          6           0       -0.225711   -0.045037    1.398343
      3          6           0        0.177065    0.006645   -0.139890
      4          6           0       -0.334929    1.311717   -0.744514
      5          9           0        0.343434    2.361294   -0.205946
      6          6           0        1.713016   -0.060837   -0.174949
      7          9           0        2.118346   -1.290389    0.245758
      8          6           0       -0.465831   -1.209817   -0.807810
      9          9           0       -1.778353   -0.975562   -1.033943
     10          1           0        0.220344   -0.944645    1.858161
     11          1           0        0.141795    0.913280    1.822568
     12          1           0       -1.418485    1.456365   -0.586761
     13          1           0       -0.148375    1.302293   -1.839404
     14          1           0        2.190130    0.719732    0.440315
     15          1           0        2.033222    0.074303   -1.226604
     16          1           0       -0.348054   -2.147995   -0.235752
     17          1           0        0.033176   -1.344675   -1.794429
 ---------------------------------------------------------------------
 Rotational constants (GHZ):           1.5564027           1.3918456           1.1185966
   142 basis functions,   257 primitive gaussians,   151 cartesian basis functions
    37 alpha electrons       36 beta electrons
       nuclear repulsion energy       527.1510154307 Hartrees.
 NAtoms=   17 NActive=   17 NUniq=   17 SFac= 1.00D+00 NAtFMM=   60 NAOKFM=F Big=F
 Nuclear repulsion after empirical dispersion term =      527.1395735086 Hartrees.
   1 Symmetry operations used in ECPInt.
 ECPInt:  NShTT=    2485 NPrTT=   10011 LenC2=    2450 LenP2D=    7703.
 LDataN:  DoStor=T MaxTD1= 4 Len=   56
 Initial guess from the checkpoint file:  "6.chk"
 B after Tr=    -0.000000   -0.000000   -0.000000
         Rot=    0.998484   -0.035701   -0.007590    0.041203 Ang=  -6.31 deg.
 Initial guess <Sx>= 0.0000 <Sy>= 0.0000 <Sz>= 0.5000 <S**2>= 0.7527 S= 0.5013
 ExpMin= 1.22D-01 ExpMax= 2.89D+03 ExpMxC= 4.35D+02 IAcc=3 IRadAn=         5 AccDes= 0.00D+00
 Harris functional with IExCor= 4639 and IRadAn=       5 diagonalized for initial guess.
 HarFok:  IExCor= 4639 AccDes= 0.00D+00 IRadAn=         5 IDoV= 1 UseB2=F ITyADJ=14
 ICtDFT=  3500011 ScaDFX=  1.000000  1.000000  1.000000  1.000000
 FoFCou: FMM=F IPFlag=           0 FMFlag=      100000 FMFlg1=           0
         NFxFlg=           0 DoJE=T BraDBF=F KetDBF=T FulRan=T
         wScrn=  0.000000 ICntrl=       500 IOpCl=  0 I1Cent=   200000004 NGrid=           0
         NMat0=    1 NMatS0=      1 NMatT0=    0 NMatD0=    1 NMtDS0=    0 NMtDT0=    0
 Petite list used in FoFCou.
     Accept linear search using points  3 and  4.
     Minimum is close to point  4 DX= -9.42D-02 DF= -1.37D-05 DXR=  8.52D-02 DFR=  2.27D-03 which will be used.
     Accept linear search using points  1 and  2.
     Minimum is close to point  2 DX= -5.38D-02 DF= -1.99D-06 DXR=  5.69D-02 DFR=  3.24D-03 which will be used.
     Accept linear search using points  1 and  2.
     Accept linear search using points  1 and  2.
     Accept linear search using points  2 and  3.
     Accept linear search using points  1 and  2.
     Minimum is close to point  2 DX=  3.16D-03 DF= -3.64D-09 DXR=  3.15D-03 DFR=  9.92D-06 which will be used.
     Minimum is close to point  2 DX=  4.44D-04 DF=  0.00D+00 DXR=  4.43D-04 DFR=  0.00D+00 which will be used.
 SCF Done:  E(UwB97XD) =  -593.661015644     a.u. after   11 cycles
            Convg  =    0.2241D-06                    59 Fock formations.
              S**2 =  0.7527                  -V/T =  2.0068
 <Sx>= 0.0000 <Sy>= 0.0000 <Sz>= 0.5000 <S**2>= 0.7527 S= 0.5014
 <L.S>=  0.00000000000    
 Annihilation of the first spin contaminant:
 S**2 before annihilation     0.7527,   after     0.7500
   1 Symmetry operations used in ECPInt.
 ECPInt:  NShTT=    2485 NPrTT=   10011 LenC2=    2450 LenP2D=    7703.
 LDataN:  DoStor=T MaxTD1= 5 Len=  102
 Calling FoFJK, ICntrl=      2127 FMM=F ISym2X=0 I1Cent= 0 IOpClX= 1 NMat=1 NMatS=1 NMatT=0.

 GradGradGradGradGradGradGradGradGradGradGradGradGradGradGradGradGradGrad
 Using GEDIIS/GDIIS optimizer.
 FormGI is forming the generalized inverse of G from B-inverse, IUseBI=4.
 Internal  Forces:  Max     0.027666428 RMS     0.004152963
 Step number   2 out of a maximum of   92
 All quantities printed in internal units (Hartrees-Bohrs-Radians)
 Mixed Optimization -- RFO/linear search
 Trust test= 1.20D+00 RLast= 4.22D-01 DXMaxT set to 5.05D-01
 ITU=  1  0
 Use linear search instead of GDIIS.
     Eigenvalues ---    0.00311   0.00361   0.00373   0.00377   0.04308
     Eigenvalues ---    0.05098   0.05248   0.05404   0.05548   0.05561
     Eigenvalues ---    0.05974   0.06083   0.06100   0.06242   0.06658
     Eigenvalues ---    0.12198   0.14330   0.14678   0.16000   0.16000
     Eigenvalues ---    0.16000   0.16000   0.16000   0.16000   0.16479
     Eigenvalues ---    0.21898   0.22351   0.22415   0.22742   0.25143
     Eigenvalues ---    0.29029   0.29452   0.30041   0.32991   0.33094
     Eigenvalues ---    0.33112   0.33252   0.33327   0.33415   0.33486
     Eigenvalues ---    0.33816   0.48153   0.49721   0.50119   0.51056
 Quartic linear search produced a step of  0.75590.
 Iteration  1 RMS(Cart)=  0.04618456 RMS(Int)=  0.00310063
 Iteration  2 RMS(Cart)=  0.00280109 RMS(Int)=  0.00167108
 Iteration  3 RMS(Cart)=  0.00000823 RMS(Int)=  0.00167107
 Iteration  4 RMS(Cart)=  0.00000004 RMS(Int)=  0.00167107
 Variable       Old X    -DE/DX   Delta X   Delta X   Delta X     New X
                                 (Linear)    (Quad)   (Total)
    R1        2.52756  -0.01542  -0.04624  -0.01830  -0.06454   2.46302
    R2        3.00642   0.02767   0.08598   0.09598   0.18196   3.18838
    R3        2.08701  -0.00134   0.00098  -0.00766  -0.00668   2.08033
    R4        2.09870  -0.00033   0.00904  -0.00853   0.00051   2.09922
    R5        2.88511  -0.00490  -0.00426  -0.02527  -0.02953   2.85558
    R6        2.90608  -0.00300   0.01187  -0.02642  -0.01455   2.89153
    R7        2.89024  -0.00113  -0.00705  -0.00130  -0.00835   2.88189
    R8        2.57159  -0.00337  -0.02341   0.00545  -0.01795   2.55363
    R9        2.08719  -0.00063   0.00596  -0.00770  -0.00174   2.08545
   R10        2.09894   0.00061   0.00758  -0.00253   0.00505   2.10398
   R11        2.57245  -0.00471  -0.02172  -0.00039  -0.02211   2.55034
   R12        2.08340  -0.00040   0.00009  -0.00214  -0.00205   2.08135
   R13        2.09306   0.00150   0.00335   0.00526   0.00861   2.10167
   R14        2.55548  -0.00592  -0.02587  -0.00114  -0.02701   2.52848
   R15        2.08838  -0.00099   0.00361  -0.00780  -0.00418   2.08420
   R16        2.10483   0.00200   0.01081   0.00226   0.01307   2.11790
    A1        1.88916   0.00078  -0.03558   0.03462  -0.00282   1.88634
    A2        1.92158   0.00250   0.02037   0.02418   0.04366   1.96525
    A3        1.92014   0.00291   0.02193   0.00922   0.02626   1.94640
    A4        1.90368  -0.00425  -0.01249  -0.02926  -0.04359   1.86009
    A5        1.83125  -0.00867  -0.06453  -0.04370  -0.11191   1.71934
    A6        1.99346   0.00592   0.06730   0.00337   0.06640   2.05987
    A7        1.90263  -0.00021  -0.01650  -0.00048  -0.01483   1.88780
    A8        1.84780  -0.00109  -0.03530  -0.00290  -0.03598   1.81182
    A9        1.86501  -0.00278  -0.06516  -0.00066  -0.06356   1.80145
   A10        1.94274   0.00047   0.03031   0.00330   0.02854   1.97127
   A11        1.94547   0.00170   0.03587   0.00924   0.03931   1.98478
   A12        1.95516   0.00157   0.04756  -0.00917   0.03125   1.98642
   A13        1.91282  -0.00156  -0.00490  -0.00343  -0.00865   1.90417
   A14        1.96533   0.00005   0.03154  -0.02945   0.00189   1.96723
   A15        1.90372  -0.00235  -0.02160  -0.01055  -0.03233   1.87139
   A16        1.90870   0.00146   0.00924   0.01246   0.02139   1.93009
   A17        1.88909   0.00234   0.00143   0.03085   0.03199   1.92108
   A18        1.88250   0.00019  -0.01640   0.00257  -0.01390   1.86860
   A19        1.90708   0.00006  -0.01333   0.01498   0.00124   1.90832
   A20        1.96974  -0.00009   0.02477  -0.02298   0.00166   1.97139
   A21        1.88077  -0.00293  -0.03350  -0.00722  -0.04113   1.83964
   A22        1.91576   0.00074   0.01750   0.00149   0.01884   1.93460
   A23        1.89396   0.00165   0.00471   0.02065   0.02461   1.91857
   A24        1.89482   0.00058  -0.00056  -0.00552  -0.00620   1.88862
   A25        1.92115   0.00064  -0.01788   0.02492   0.00616   1.92731
   A26        1.98707   0.00101   0.04260  -0.02340   0.01890   2.00597
   A27        1.87005  -0.00491  -0.03439  -0.03189  -0.06663   1.80343
   A28        1.91459   0.00037   0.01295   0.01034   0.02257   1.93715
   A29        1.88355   0.00213   0.00250   0.02528   0.02669   1.91024
   A30        1.88388   0.00074  -0.00739  -0.00424  -0.01131   1.87256
    D1        1.13771   0.00029   0.01408   0.05363   0.06962   1.20733
    D2       -3.05385   0.00013   0.02055   0.05565   0.07604  -2.97782
    D3       -0.96696  -0.00001   0.02091   0.04323   0.06609  -0.90087
    D4       -3.05479   0.00130   0.00951   0.08619   0.09535  -2.95944
    D5       -0.96317   0.00113   0.01598   0.08822   0.10177  -0.86140
    D6        1.12372   0.00100   0.01634   0.07580   0.09182   1.21554
    D7       -0.91199   0.00098   0.04457   0.04894   0.09399  -0.81799
    D8        1.17963   0.00082   0.05104   0.05097   0.10041   1.28005
    D9       -3.01666   0.00069   0.05140   0.03854   0.09046  -2.92620
   D10        1.17833   0.00083   0.03701   0.00974   0.04696   1.22529
   D11       -0.95037   0.00004   0.00807   0.01626   0.02449  -0.92589
   D12       -3.03956   0.00136   0.02258   0.03889   0.06175  -2.97781
   D13       -0.85353   0.00201   0.07197   0.01165   0.08373  -0.76981
   D14       -2.98224   0.00122   0.04304   0.01817   0.06125  -2.92098
   D15        1.21177   0.00254   0.05754   0.04080   0.09851   1.31028
   D16       -3.05033  -0.00171  -0.03149   0.01415  -0.01766  -3.06799
   D17        1.10416  -0.00250  -0.06043   0.02067  -0.04014   1.06402
   D18       -0.98503  -0.00118  -0.04592   0.04330  -0.00288  -0.98791
   D19        1.18341  -0.00038   0.01351   0.00304   0.01601   1.19942
   D20       -0.95321  -0.00131  -0.01595   0.00599  -0.01033  -0.96355
   D21       -3.04511  -0.00002  -0.00862   0.03175   0.02295  -3.02216
   D22       -3.03464  -0.00103  -0.01035   0.00250  -0.00861  -3.04325
   D23        1.11192  -0.00196  -0.03980   0.00545  -0.03495   1.07697
   D24       -0.97997  -0.00067  -0.03247   0.03121  -0.00167  -0.98164
   D25       -0.84322   0.00279   0.08631   0.01025   0.09735  -0.74587
   D26       -2.97984   0.00185   0.05685   0.01320   0.07100  -2.90884
   D27        1.21145   0.00314   0.06418   0.03896   0.10428   1.31573
   D28        1.37152   0.00101   0.02825   0.01271   0.04099   1.41251
   D29       -0.78634  -0.00071  -0.00568  -0.00305  -0.00881  -0.79515
   D30       -2.86787   0.00109  -0.00003   0.03799   0.03854  -2.82933
   D31       -0.70556   0.00202   0.06746   0.00847   0.07724  -0.62832
   D32       -2.86343   0.00030   0.03353  -0.00728   0.02744  -2.83599
   D33        1.33824   0.00211   0.03919   0.03375   0.07479   1.41302
   D34       -2.89548  -0.00112  -0.02584   0.00399  -0.02362  -2.91910
   D35        1.22984  -0.00284  -0.05977  -0.01176  -0.07342   1.15642
   D36       -0.85168  -0.00104  -0.05411   0.02927  -0.02607  -0.87775
         Item               Value     Threshold  Converged?
 Maximum Force            0.027666     0.000015     NO 
 RMS     Force            0.004153     0.000010     NO 
 Maximum Displacement     0.182021     0.000060     NO 
 RMS     Displacement     0.046433     0.000040     NO 
 GradGradGradGradGradGradGradGradGradGradGradGradGradGradGradGradGradGrad

                    Distance matrix (angstroms):
                    1          2          3          4          5
     1  F    0.000000
     2  C    1.303372   0.000000
     3  C    2.431121   1.687217   0.000000
     4  C    2.983188   2.592229   1.511110   0.000000
     5  F    3.635026   2.993443   2.333658   1.351324   0.000000
     6  C    3.662298   2.533863   1.530131   2.535273   2.744775
     7  F    4.002714   2.907775   2.351670   3.697321   4.041794
     8  C    2.722165   2.519702   1.525031   2.542280   3.704630
     9  F    2.663134   3.045401   2.353785   2.727399   4.038707
    10  H    2.003369   1.100862   2.262373   3.502416   3.876716
    11  H    1.998759   1.110857   2.153020   2.550765   2.428461
    12  H    2.668214   2.776962   2.188413   1.103572   2.023030
    13  H    3.917447   3.558997   2.125881   1.113380   2.024424
    14  H    3.963814   2.719842   2.206539   2.850136   2.515891
    15  H    4.506084   3.505394   2.117124   2.694156   2.939562
    16  H    2.842846   2.653628   2.227168   3.507424   4.545800
    17  H    3.815344   3.464339   2.090418   2.889173   4.017134
                    6          7          8          9         10
     6  C    0.000000
     7  F    1.349580   0.000000
     8  C    2.559563   2.771434   0.000000
     9  F    3.710381   4.082615   1.338012   0.000000
    10  H    2.622792   2.459823   2.783844   3.564333   0.000000
    11  H    2.719081   3.386831   3.382171   3.850687   1.896037
    12  H    3.498710   4.529725   2.848157   2.513656   3.811056
    13  H    2.878345   4.024919   2.732944   2.878630   4.352245
    14  H    1.101403   2.022943   3.515898   4.549534   2.852700
    15  H    1.112154   2.020227   2.881180   3.968762   3.687748
    16  H    2.938210   2.630396   1.102912   2.015922   2.493740
    17  H    2.638953   2.845811   1.120744   2.011204   3.660721
                   11         12         13         14         15
    11  H    0.000000
    12  H    2.785758   0.000000
    13  H    3.621274   1.782844   0.000000
    14  H    2.473140   3.802932   3.363778   0.000000
    15  H    3.651614   3.755187   2.592608   1.793200   0.000000
    16  H    3.686904   3.778527   3.806834   3.875589   3.443502
    17  H    4.198981   3.400927   2.654832   3.705481   2.525462
                   16         17
    16  H    0.000000
    17  H    1.790873   0.000000
 Framework group  C1[X(C5H8F4)]
 Deg. of freedom    45
                         Standard orientation:                         
 ---------------------------------------------------------------------
 Center     Atomic      Atomic             Coordinates (Angstroms)
 Number     Number       Type             X           Y           Z
 ---------------------------------------------------------------------
      1          9           0       -1.584253   -0.034219    1.475552
      2          6           0       -0.282626   -0.084661    1.430824
      3          6           0        0.189888    0.012813   -0.185941
      4          6           0       -0.112621    1.407822   -0.681814
      5          9           0        0.737589    2.279498   -0.095810
      6          6           0        1.688282   -0.294853   -0.147721
      7          9           0        1.870216   -1.590227    0.184349
      8          6           0       -0.644452   -1.071884   -0.859016
      9          9           0       -1.881481   -0.624766   -1.104213
     10          1           0        0.117517   -1.034231    1.818253
     11          1           0        0.174508    0.860781    1.793000
     12          1           0       -1.159647    1.706400   -0.501648
     13          1           0        0.041567    1.406403   -1.784464
     14          1           0        2.245303    0.366569    0.534435
     15          1           0        2.053489   -0.113936   -1.182506
     16          1           0       -0.671627   -2.036294   -0.324610
     17          1           0       -0.110587   -1.243685   -1.829346
 ---------------------------------------------------------------------
 Rotational constants (GHZ):           1.5514345           1.3892554           1.1252857
   142 basis functions,   257 primitive gaussians,   151 cartesian basis functions
    37 alpha electrons       36 beta electrons
       nuclear repulsion energy       527.6829791248 Hartrees.
 NAtoms=   17 NActive=   17 NUniq=   17 SFac= 1.00D+00 NAtFMM=   60 NAOKFM=F Big=F
 Nuclear repulsion after empirical dispersion term =      527.6714955156 Hartrees.
   1 Symmetry operations used in ECPInt.
 ECPInt:  NShTT=    2485 NPrTT=   10011 LenC2=    2452 LenP2D=    7704.
 LDataN:  DoStor=T MaxTD1= 4 Len=   56
 Initial guess from the checkpoint file:  "6.chk"
 B after Tr=    -0.000000    0.000000   -0.000000
         Rot=    0.996760   -0.028968    0.006106    0.074786 Ang=  -9.23 deg.
 Initial guess <Sx>= 0.0000 <Sy>= 0.0000 <Sz>= 0.5000 <S**2>= 0.7528 S= 0.5014
 ExpMin= 1.22D-01 ExpMax= 2.89D+03 ExpMxC= 4.35D+02 IAcc=3 IRadAn=         5 AccDes= 0.00D+00
 Harris functional with IExCor= 4639 and IRadAn=       5 diagonalized for initial guess.
 HarFok:  IExCor= 4639 AccDes= 0.00D+00 IRadAn=         5 IDoV= 1 UseB2=F ITyADJ=14
 ICtDFT=  3500011 ScaDFX=  1.000000  1.000000  1.000000  1.000000
 FoFCou: FMM=F IPFlag=           0 FMFlag=      100000 FMFlg1=           0
         NFxFlg=           0 DoJE=T BraDBF=F KetDBF=T FulRan=T
         wScrn=  0.000000 ICntrl=       500 IOpCl=  0 I1Cent=   200000004 NGrid=           0
         NMat0=    1 NMatS0=      1 NMatT0=    0 NMatD0=    1 NMtDS0=    0 NMtDT0=    0
 Petite list used in FoFCou.
     Minimum is close to point  4 DX=  6.29D-02 DF= -1.84D-05 DXR=  4.98D-02 DFR=  2.48D-03 which will be used.
     Accept linear search using points  2 and  3.
     Accept linear search using points  1 and  2.
     Accept linear search using points  1 and  2.
     Accept linear search using points  1 and  2.
     Accept linear search using points  1 and  2.
     Accept linear search using points  1 and  2.
     Minimum is close to point  2 DX=  2.67D-03 DF= -1.54D-09 DXR=  2.66D-03 DFR=  7.07D-06 which will be used.
     Minimum is close to point  2 DX=  1.14D-04 DF=  0.00D+00 DXR=  1.14D-04 DFR=  0.00D+00 which will be used.
 SCF Done:  E(UwB97XD) =  -593.668245964     a.u. after   13 cycles
            Convg  =    0.3557D-07                    61 Fock formations.
              S**2 =  0.7529                  -V/T =  2.0066
 <Sx>= 0.0000 <Sy>= 0.0000 <Sz>= 0.5000 <S**2>= 0.7529 S= 0.5014
 <L.S>=  0.00000000000    
 Annihilation of the first spin contaminant:
 S**2 before annihilation     0.7529,   after     0.7500
   1 Symmetry operations used in ECPInt.
 ECPInt:  NShTT=    2485 NPrTT=   10011 LenC2=    2452 LenP2D=    7704.
 LDataN:  DoStor=T MaxTD1= 5 Len=  102
 Calling FoFJK, ICntrl=      2127 FMM=F ISym2X=0 I1Cent= 0 IOpClX= 1 NMat=1 NMatS=1 NMatT=0.

 GradGradGradGradGradGradGradGradGradGradGradGradGradGradGradGradGradGrad
 Using GEDIIS/GDIIS optimizer.
 FormGI is forming the generalized inverse of G from B-inverse, IUseBI=4.
 Internal  Forces:  Max     0.014912433 RMS     0.002141635
 Step number   3 out of a maximum of   92
 All quantities printed in internal units (Hartrees-Bohrs-Radians)
 Mixed Optimization -- RFO/linear search
 Trust test= 1.12D+00 RLast= 4.81D-01 DXMaxT set to 8.49D-01
 ITU=  1  1  0
 Use linear search instead of GDIIS.
     Eigenvalues ---    0.00312   0.00369   0.00375   0.00379   0.03387
     Eigenvalues ---    0.05186   0.05394   0.05544   0.05587   0.06010
     Eigenvalues ---    0.06204   0.06355   0.06396   0.06547   0.07269
     Eigenvalues ---    0.11176   0.14041   0.14771   0.15999   0.16000
     Eigenvalues ---    0.16000   0.16000   0.16000   0.16459   0.16575
     Eigenvalues ---    0.20853   0.22421   0.22532   0.22833   0.24307
     Eigenvalues ---    0.29043   0.29583   0.30032   0.33035   0.33111
     Eigenvalues ---    0.33145   0.33301   0.33329   0.33420   0.33476
     Eigenvalues ---    0.33792   0.49687   0.50026   0.50559   0.51455
 Quartic linear search produced a step of  0.23612.
 Iteration  1 RMS(Cart)=  0.02928725 RMS(Int)=  0.00072922
 Iteration  2 RMS(Cart)=  0.00073290 RMS(Int)=  0.00039353
 Iteration  3 RMS(Cart)=  0.00000035 RMS(Int)=  0.00039353
 Variable       Old X    -DE/DX   Delta X   Delta X   Delta X     New X
                                 (Linear)    (Quad)   (Total)
    R1        2.46302   0.00291  -0.01524   0.00593  -0.00931   2.45370
    R2        3.18838   0.01491   0.04296   0.06124   0.10420   3.29258
    R3        2.08033   0.00037  -0.00158   0.00171   0.00013   2.08046
    R4        2.09922  -0.00130   0.00012  -0.00408  -0.00396   2.09525
    R5        2.85558   0.00120  -0.00697   0.00590  -0.00107   2.85451
    R6        2.89153  -0.00182  -0.00344  -0.00598  -0.00941   2.88212
    R7        2.88189   0.00070  -0.00197   0.00274   0.00077   2.88266
    R8        2.55363   0.00366  -0.00424   0.00788   0.00364   2.55727
    R9        2.08545   0.00012  -0.00041   0.00098   0.00057   2.08602
   R10        2.10398  -0.00101   0.00119  -0.00333  -0.00214   2.10184
   R11        2.55034   0.00328  -0.00522   0.00723   0.00201   2.55234
   R12        2.08135   0.00040  -0.00048   0.00157   0.00109   2.08244
   R13        2.10167  -0.00066   0.00203  -0.00253  -0.00050   2.10117
   R14        2.52848   0.00305  -0.00638   0.00637  -0.00000   2.52847
   R15        2.08420   0.00004  -0.00099   0.00062  -0.00037   2.08384
   R16        2.11790  -0.00138   0.00309  -0.00478  -0.00170   2.11620
    A1        1.88634   0.00317  -0.00067   0.01480   0.01397   1.90031
    A2        1.96525  -0.00000   0.01031   0.00011   0.01036   1.97561
    A3        1.94640  -0.00028   0.00620   0.00853   0.01424   1.96065
    A4        1.86009  -0.00347  -0.01029  -0.02749  -0.03834   1.82175
    A5        1.71934   0.00091  -0.02642   0.00814  -0.01912   1.70022
    A6        2.05987  -0.00002   0.01568  -0.00365   0.01022   2.07009
    A7        1.88780  -0.00176  -0.00350  -0.02622  -0.02917   1.85862
    A8        1.81182  -0.00047  -0.00850  -0.01091  -0.01894   1.79288
    A9        1.80145   0.00109  -0.01501   0.00134  -0.01333   1.78812
   A10        1.97127   0.00166   0.00674   0.01927   0.02483   1.99610
   A11        1.98478  -0.00001   0.00928   0.00582   0.01378   1.99856
   A12        1.98642  -0.00074   0.00738   0.00422   0.01012   1.99653
   A13        1.90417   0.00307  -0.00204   0.01598   0.01391   1.91808
   A14        1.96723  -0.00113   0.00045  -0.00601  -0.00559   1.96163
   A15        1.87139   0.00129  -0.00763   0.01215   0.00443   1.87582
   A16        1.93009  -0.00133   0.00505  -0.01088  -0.00581   1.92427
   A17        1.92108  -0.00178   0.00755  -0.01055  -0.00309   1.91799
   A18        1.86860  -0.00018  -0.00328  -0.00074  -0.00410   1.86450
   A19        1.90832   0.00278   0.00029   0.01401   0.01423   1.92255
   A20        1.97139  -0.00092   0.00039  -0.00604  -0.00568   1.96571
   A21        1.83964   0.00256  -0.00971   0.02108   0.01124   1.85089
   A22        1.93460  -0.00131   0.00445  -0.01010  -0.00565   1.92895
   A23        1.91857  -0.00186   0.00581  -0.00820  -0.00256   1.91601
   A24        1.88862  -0.00119  -0.00146  -0.00983  -0.01137   1.87725
   A25        1.92731   0.00216   0.00145   0.00968   0.01102   1.93832
   A26        2.00597  -0.00220   0.00446  -0.01683  -0.01245   1.99352
   A27        1.80343   0.00223  -0.01573   0.02112   0.00529   1.80872
   A28        1.93715  -0.00048   0.00533  -0.00717  -0.00194   1.93522
   A29        1.91024  -0.00111   0.00630  -0.00019   0.00597   1.91621
   A30        1.87256  -0.00053  -0.00267  -0.00460  -0.00734   1.86522
    D1        1.20733   0.00021   0.01644   0.02144   0.03801   1.24534
    D2       -2.97782   0.00104   0.01795   0.02553   0.04361  -2.93420
    D3       -0.90087   0.00048   0.01560   0.02633   0.04206  -0.85881
    D4       -2.95944  -0.00002   0.02251   0.01419   0.03616  -2.92327
    D5       -0.86140   0.00082   0.02403   0.01828   0.04177  -0.81963
    D6        1.21554   0.00025   0.02168   0.01908   0.04021   1.25576
    D7       -0.81799  -0.00091   0.02219   0.00366   0.02627  -0.79172
    D8        1.28005  -0.00008   0.02371   0.00775   0.03187   1.31192
    D9       -2.92620  -0.00064   0.02136   0.00855   0.03032  -2.89588
   D10        1.22529  -0.00039   0.01109   0.01376   0.02478   1.25007
   D11       -0.92589  -0.00014   0.00578   0.02025   0.02602  -0.89987
   D12       -2.97781  -0.00009   0.01458   0.01687   0.03142  -2.94639
   D13       -0.76981   0.00034   0.01977   0.03249   0.05249  -0.71731
   D14       -2.92098   0.00059   0.01446   0.03898   0.05373  -2.86725
   D15        1.31028   0.00064   0.02326   0.03560   0.05913   1.36941
   D16       -3.06799  -0.00017  -0.00417   0.00219  -0.00225  -3.07024
   D17        1.06402   0.00008  -0.00948   0.00867  -0.00101   1.06301
   D18       -0.98791   0.00013  -0.00068   0.00530   0.00439  -0.98352
   D19        1.19942   0.00060   0.00378   0.02938   0.03313   1.23256
   D20       -0.96355   0.00087  -0.00244   0.03630   0.03390  -0.92965
   D21       -3.02216   0.00120   0.00542   0.03827   0.04374  -2.97842
   D22       -3.04325  -0.00096  -0.00203   0.00105  -0.00120  -3.04445
   D23        1.07697  -0.00069  -0.00825   0.00797  -0.00044   1.07653
   D24       -0.98164  -0.00036  -0.00040   0.00994   0.00940  -0.97224
   D25       -0.74587  -0.00009   0.02299   0.03218   0.05527  -0.69060
   D26       -2.90884   0.00018   0.01676   0.03910   0.05604  -2.85280
   D27        1.31573   0.00052   0.02462   0.04107   0.06588   1.38161
   D28        1.41251  -0.00093   0.00968  -0.02716  -0.01753   1.39498
   D29       -0.79515  -0.00034  -0.00208  -0.01205  -0.01417  -0.80932
   D30       -2.82933  -0.00003   0.00910  -0.01161  -0.00252  -2.83184
   D31       -0.62832   0.00051   0.01824   0.00054   0.01888  -0.60945
   D32       -2.83599   0.00110   0.00648   0.01565   0.02224  -2.81375
   D33        1.41302   0.00141   0.01766   0.01610   0.03389   1.44691
   D34       -2.91910  -0.00118  -0.00558  -0.03740  -0.04308  -2.96217
   D35        1.15642  -0.00060  -0.01734  -0.02229  -0.03972   1.11671
   D36       -0.87775  -0.00028  -0.00616  -0.02184  -0.02806  -0.90581
         Item               Value     Threshold  Converged?
 Maximum Force            0.014912     0.000015     NO 
 RMS     Force            0.002142     0.000010     NO 
 Maximum Displacement     0.082011     0.000060     NO 
 RMS     Displacement     0.029251     0.000040     NO 
 GradGradGradGradGradGradGradGradGradGradGradGradGradGradGradGradGradGrad

                    Distance matrix (angstroms):
                    1          2          3          4          5
     1  F    0.000000
     2  C    1.298444   0.000000
     3  C    2.487144   1.742359   0.000000
     4  C    3.030551   2.609940   1.510541   0.000000
     5  F    3.699169   3.024852   2.346159   1.353251   0.000000
     6  C    3.679955   2.555880   1.525150   2.551257   2.765313
     7  F    4.020349   2.950128   2.360039   3.715579   4.070712
     8  C    2.746659   2.551265   1.525437   2.553519   3.721483
     9  F    2.685306   3.063336   2.363042   2.750553   4.066736
    10  H    2.005995   1.100933   2.280476   3.496707   3.876199
    11  H    2.002397   1.108760   2.182623   2.534698   2.437659
    12  H    2.690459   2.756186   2.184203   1.103873   2.020898
    13  H    3.957029   3.586917   2.127897   1.112246   2.023033
    14  H    3.951699   2.701396   2.198558   2.866546   2.547734
    15  H    4.550525   3.539247   2.121311   2.721956   2.936359
    16  H    2.834862   2.661563   2.218813   3.507244   4.549908
    17  H    3.845668   3.506209   2.094331   2.922471   4.051322
                    6          7          8          9         10
     6  C    0.000000
     7  F    1.350642   0.000000
     8  C    2.564120   2.772901   0.000000
     9  F    3.721620   4.084956   1.338011   0.000000
    10  H    2.591400   2.461184   2.805197   3.582743   0.000000
    11  H    2.742121   3.440449   3.392377   3.846565   1.900087
    12  H    3.501002   4.534290   2.857282   2.542183   3.785278
    13  H    2.930165   4.069905   2.749105   2.891771   4.361817
    14  H    1.101980   2.020419   3.510792   4.551042   2.771399
    15  H    1.111891   2.019142   2.928739   4.027830   3.671606
    16  H    2.918105   2.609252   1.102719   2.014444   2.501995
    17  H    2.664758   2.849357   1.119846   2.014692   3.680063
                   11         12         13         14         15
    11  H    0.000000
    12  H    2.723786   0.000000
    13  H    3.615968   1.779466   0.000000
    14  H    2.469839   3.794403   3.424965   0.000000
    15  H    3.663287   3.785368   2.672977   1.786043   0.000000
    16  H    3.683460   3.773153   3.820256   3.836557   3.470468
    17  H    4.224830   3.436016   2.704420   3.732488   2.605590
                   16         17
    16  H    0.000000
    17  H    1.785144   0.000000
 Framework group  C1[X(C5H8F4)]
 Deg. of freedom    45
                         Standard orientation:                         
 ---------------------------------------------------------------------
 Center     Atomic      Atomic             Coordinates (Angstroms)
 Number     Number       Type             X           Y           Z
 ---------------------------------------------------------------------
      1          9           0       -1.617388   -0.023483    1.479486
      2          6           0       -0.320163   -0.069414    1.447029
      3          6           0        0.205635    0.014775   -0.211966
      4          6           0       -0.055551    1.429228   -0.673311
      5          9           0        0.822287    2.274910   -0.085512
      6          6           0        1.682620   -0.352997   -0.115329
      7          9           0        1.817333   -1.663085    0.184263
      8          6           0       -0.663805   -1.041603   -0.886575
      9          9           0       -1.889874   -0.567452   -1.135991
     10          1           0        0.089314   -1.022599    1.815568
     11          1           0        0.143751    0.876567    1.792361
     12          1           0       -1.091461    1.752845   -0.471573
     13          1           0        0.079346    1.450826   -1.777135
     14          1           0        2.227333    0.268057    0.614013
     15          1           0        2.116227   -0.149985   -1.118859
     16          1           0       -0.715963   -1.999359   -0.342543
     17          1           0       -0.132190   -1.244293   -1.851126
 ---------------------------------------------------------------------
 Rotational constants (GHZ):           1.5242712           1.3728716           1.1126943
   142 basis functions,   257 primitive gaussians,   151 cartesian basis functions
    37 alpha electrons       36 beta electrons
       nuclear repulsion energy       525.0230526280 Hartrees.
 NAtoms=   17 NActive=   17 NUniq=   17 SFac= 1.00D+00 NAtFMM=   60 NAOKFM=F Big=F
 Nuclear repulsion after empirical dispersion term =      525.0115681633 Hartrees.
   1 Symmetry operations used in ECPInt.
 ECPInt:  NShTT=    2485 NPrTT=   10011 LenC2=    2450 LenP2D=    7689.
 LDataN:  DoStor=T MaxTD1= 4 Len=   56
 Initial guess from the checkpoint file:  "6.chk"
 B after Tr=    -0.000000    0.000000    0.000000
         Rot=    0.999855   -0.004072    0.006431    0.015226 Ang=  -1.95 deg.
 Initial guess <Sx>= 0.0000 <Sy>= 0.0000 <Sz>= 0.5000 <S**2>= 0.7529 S= 0.5015
 ExpMin= 1.22D-01 ExpMax= 2.89D+03 ExpMxC= 4.35D+02 IAcc=3 IRadAn=         5 AccDes= 0.00D+00
 Harris functional with IExCor= 4639 and IRadAn=       5 diagonalized for initial guess.
 HarFok:  IExCor= 4639 AccDes= 0.00D+00 IRadAn=         5 IDoV= 1 UseB2=F ITyADJ=14
 ICtDFT=  3500011 ScaDFX=  1.000000  1.000000  1.000000  1.000000
 FoFCou: FMM=F IPFlag=           0 FMFlag=      100000 FMFlg1=           0
         NFxFlg=           0 DoJE=T BraDBF=F KetDBF=T FulRan=T
         wScrn=  0.000000 ICntrl=       500 IOpCl=  0 I1Cent=   200000004 NGrid=           0
         NMat0=    1 NMatS0=      1 NMatT0=    0 NMatD0=    1 NMtDS0=    0 NMtDT0=    0
 Petite list used in FoFCou.
     Accept linear search using points  2 and  3.
     Accept linear search using points  1 and  2.
     Accept linear search using points  1 and  2.
     Minimum is close to point  2 DX=  8.44D-02 DF= -4.43D-07 DXR=  8.57D-02 DFR=  7.41D-03 which will be used.
     Minimum is close to point  2 DX=  7.87D-04 DF= -9.96D-11 DXR=  7.87D-04 DFR=  6.18D-07 which will be used.
     Accept linear search using points  2 and  3.
     Minimum is close to point  2 DX=  4.11D-05 DF=  0.00D+00 DXR=  4.11D-05 DFR=  0.00D+00 which will be used.
 SCF Done:  E(UwB97XD) =  -593.670008030     a.u. after    8 cycles
            Convg  =    0.2663D-07                    48 Fock formations.
              S**2 =  0.7529                  -V/T =  2.0067
 <Sx>= 0.0000 <Sy>= 0.0000 <Sz>= 0.5000 <S**2>= 0.7529 S= 0.5014
 <L.S>=  0.00000000000    
 Annihilation of the first spin contaminant:
 S**2 before annihilation     0.7529,   after     0.7500
   1 Symmetry operations used in ECPInt.
 ECPInt:  NShTT=    2485 NPrTT=   10011 LenC2=    2450 LenP2D=    7689.
 LDataN:  DoStor=T MaxTD1= 5 Len=  102
 Calling FoFJK, ICntrl=      2127 FMM=F ISym2X=0 I1Cent= 0 IOpClX= 1 NMat=1 NMatS=1 NMatT=0.

 GradGradGradGradGradGradGradGradGradGradGradGradGradGradGradGradGradGrad
 Using GEDIIS/GDIIS optimizer.
 FormGI is forming the generalized inverse of G from B-inverse, IUseBI=4.
 Internal  Forces:  Max     0.008958827 RMS     0.001420386
 Step number   4 out of a maximum of   92
 All quantities printed in internal units (Hartrees-Bohrs-Radians)
[...]
   yx        -0.607268D-01     -0.899878D-02     -0.100125D-01
   yy         0.586043D+02      0.868425D+01      0.966254D+01
   zx         0.120956D+01      0.179239D+00      0.199430D+00
   zy         0.120996D+01      0.179297D+00      0.199495D+00
   zz         0.600016D+02      0.889132D+01      0.989293D+01

 ----------------------------------------------------------------------
 1\1\GINC-C272\Freq\UwB97XD\def2SVPP\C5H8F4(1+,2)\PETERCHAO1\10-Jul-202
 3\0\\#T Geom=AllCheck Guess=TCheck SCRF=Check GenChk UwB97XD/def2SVPP 
 Freq\\comment\\1,2\F,-1.5410518319,-0.2594581383,1.5642871031\C,-0.290
 7831739,0.0618429791,1.5103917706\C,0.2209626396,-0.0004814086,-0.2783
 103433\C,-0.4133624093,1.241777066,-0.8483414587\F,0.2131763092,2.3472
 979436,-0.3780403714\C,1.7256277819,0.0308990683,-0.1517329188\F,2.179
 1579063,-1.1512409256,0.3305446734\C,-0.3571230424,-1.3013672465,-0.77
 36377234\F,-1.6754072055,-1.1775495694,-1.02652834\H,0.3859482045,-0.7
 066275557,1.9180777786\H,-0.0991006893,1.1309509503,1.7018030524\H,-1.
 4958071713,1.2929247845,-0.6398812167\H,-0.2955663808,1.1849252804,-1.
 9536557127\H,2.08306892,0.8645262042,0.4763096796\H,2.1250974571,0.196
 3498237,-1.176274781\H,-0.1692735294,-2.14651377,-0.0879413686\H,0.183
 8922152,-1.534292486,-1.7198698231\\Version=ES64L-G16RevB.01\State=2-A
 \HF=-593.6715389\S2=0.752822\S2-1=0.\S2A=0.750006\RMSD=1.516e-10\RMSF=
 6.380e-07\ZeroPoint=0.1287586\Thermal=0.1387682\Dipole=0.5391956,0.109
 188,0.0900059\DipoleDeriv=-0.7767451,-0.0777595,0.560206,-0.1603511,-0
 .171492,0.1396122,0.0332352,0.0274729,-0.2233205,1.0806769,0.0524406,-
 0.6283641,0.2398598,0.4794585,-0.0725526,-0.1079857,0.0504512,0.914981
 7,0.2078092,0.0976614,-0.0447935,-0.1164175,0.2133769,-0.0428874,-0.13
 87115,-0.0412166,0.2055114,0.2461568,0.3193213,-0.0229825,0.171554,0.8
 159397,0.0730407,-0.0932238,0.6411396,-0.0946094,-0.2824072,-0.2681011
 ,-0.0349718,-0.1245509,-0.758696,-0.0310279,-0.0583314,-0.2517335,-0.1
 799327,0.2119949,-0.2605984,0.1113723,-0.5116836,0.6049419,-0.1410749,
 0.6472115,-0.0980745,0.2325794,-0.3770379,0.1686214,-0.0709819,0.38284
 78,-0.5915401,0.1502808,-0.215956,0.1629613,-0.2445435,0.8837432,0.414
 2237,0.4148592,-0.0331042,-0.0408447,-0.1497949,0.0704682,-0.3647226,-
 0.0037582,-0.7901857,-0.2236858,-0.2781828,0.0229783,-0.1907713,0.0212
 429,-0.1367109,-0.0160037,-0.1950687,0.0989688,-0.0315776,0.0551495,0.
 0066448,0.0445121,-0.1126525,0.0121712,-0.0460265,0.010651,0.0507015,0
 .0369597,-0.0148546,-0.0505665,0.1230286,0.0879955,0.0544416,0.0162891
 ,0.0061539,0.0848627,-0.082223,0.0409406,-0.0218837,0.0695867,-0.01843
 8,0.0766868,-0.0813024,0.1243098,0.0933246,-0.0015715,0.0487295,0.0118
 588,-0.0202733,0.0174568,0.0462545,-0.1605974,0.1501629,0.1567039,0.03
 47554,-0.0087786,0.07309,0.0434075,-0.0010002,-0.0666358,-0.0448199,0.
 0512793,0.066529,0.0080646,-0.0274869,0.0949459,0.0770052,-0.0170831,-
 0.172116,0.0215944,0.0443517,0.0389926,-0.0536725,-0.0267601,0.0338716
 ,0.1838154,0.0617906,-0.0196737,0.0870734,0.072894,0.0059118,-0.132858
 5,-0.0731003,-0.0190935,0.1185448,0.0350921,0.0688757,0.0975151,0.1283
 578\Polar=60.1855569,1.0348376,59.1965347,-2.1228346,0.8016394,63.0323
 896\Quadrupole=-2.879032,-2.2032065,5.0822385,-0.2579704,-1.4588237,0.
 4474737\PG=C01 [X(C5H8F4)]\NImag=0\\0.50908919,0.11458333,0.09125557,-
 0.02053821,-0.00627679,0.04492578,-0.43554481,-0.08940093,0.01808378,0
 .66099966,-0.09387490,-0.10902969,0.00908151,0.00799681,0.66420009,-0.
 01165580,0.00119601,-0.04928998,0.09386046,-0.03575729,0.19082638,-0.0
 1739030,-0.00296591,0.01530117,-0.00354167,-0.00149021,-0.02142163,0.4
 8307933,-0.00288282,-0.00189793,0.00350802,-0.00256985,-0.00432820,-0.
 00079167,0.00265953,0.50424747,0.00989226,0.00166386,-0.00588242,-0.01
 678146,0.00256874,0.02353545,0.07840121,-0.00655992,0.27461523,-0.0006
 5489,-0.00038782,-0.00055979,0.00035497,0.00477094,0.00254435,-0.11013
 378,0.01755043,-0.01810081,0.59272952,0.00207562,0.00001835,-0.0020406
 3,0.00315950,-0.00829218,0.01370826,0.03838216,-0.13640837,0.03726292,
 0.02934804,0.48803562,0.00440219,0.00257825,-0.00388520,-0.00355137,-0
 .00082772,-0.00628573,-0.02090909,0.03427664,-0.09344266,-0.02783241,0
 .03269258,0.51746173,0.00013515,0.00004809,0.00100490,-0.00083291,-0.0
 0014894,-0.00332147,0.00762135,0.00323103,0.00453691,-0.12756350,-0.09
 222461,-0.03475471,0.13002255,-0.00158969,-0.00039519,0.00163643,0.000
 48087,-0.00030724,-0.00679609,-0.02388049,-0.05787546,-0.01581983,-0.1
 0031725,-0.23059113,-0.06898959,0.13403832,0.31605824,-0.00091182,0.00
 015954,0.00120108,-0.00007021,0.00299252,-0.00607065,0.00512951,0.0062
 5868,0.00671627,-0.03971151,-0.07086207,-0.08932137,0.05862796,0.09836
 320,0.09171449,-0.00067366,0.00035445,0.00222274,-0.01655882,-0.000262
 72,0.00844177,-0.16799529,-0.01969491,-0.00670060,-0.01245506,0.016039
 59,-0.01045910,-0.00051062,-0.00131982,-0.00118257,0.45700180,-0.00167
 761,-0.00163993,0.00044969,0.00360656,0.00495294,-0.00379343,-0.001087
 28,-0.09226811,-0.00587014,0.02743810,0.00547235,-0.00056387,-0.000797
 93,0.00128622,-0.00088261,0.01520317,0.58765131,0.00524906,0.00202562,
 -0.00070606,0.00051940,-0.00396148,-0.00291125,-0.00104470,-0.00816598
 ,-0.07487212,-0.01670589,0.00783908,0.01645162,-0.00233592,-0.00163885
 ,-0.00425642,0.01297349,0.03245487,0.56631386,-0.00056866,-0.00026858,
 0.00011898,0.00084368,0.00211036,-0.00151773,-0.02423688,0.04992034,-0
 .02017660,-0.00793393,-0.00642421,0.00171567,0.00147932,0.00025837,0.0
 0057905,-0.09131764,0.07500424,-0.03178347,0.11120897,0.00104681,0.001
 50544,0.00002663,-0.00436183,-0.00404396,0.00430037,0.01792946,-0.0165
 9779,0.00855298,0.00029144,0.00359818,0.00104327,0.00084878,0.00018608
 ,0.00017397,0.06890257,-0.26239691,0.06723429,-0.11400015,0.33127107,-
 0.00029526,-0.00105020,0.00017998,0.00373735,0.00104136,-0.00392460,-0
 .00828115,0.01151702,-0.00211164,-0.00267665,-0.00230629,-0.00055271,0
 .00095361,0.00032931,0.00083020,-0.03155888,0.07506353,-0.09583357,0.0
 4863983,-0.11302629,0.09570864,-0.01346956,-0.00064703,0.00285019,0.01
 607700,-0.00689998,-0.00539977,-0.09165780,-0.02925673,-0.01522328,0.0
 1596698,0.00124281,-0.00588029,-0.00055397,0.00871859,0.00038764,-0.01
 394300,-0.02495239,-0.01912905,0.00100312,-0.00206122,0.00176875,0.548
 47781,0.00311616,0.00014409,0.00064041,-0.00648485,-0.00832113,-0.0057
 0911,-0.00776804,-0.15354317,-0.02098854,-0.00229182,-0.03067866,-0.00
 390948,0.00247684,-0.00206118,0.00008105,-0.01867909,0.00642219,0.0009
 5376,-0.00075560,-0.00093200,0.00164081,-0.03358392,0.50479701,0.00737
 047,-0.00033298,-0.00221967,-0.00958172,-0.00416737,-0.00724067,-0.016
 19863,-0.03241047,-0.09487609,0.00698609,0.00731088,0.02769284,-0.0035
 0331,0.00550001,-0.00230170,-0.00640537,-0.00422548,0.01628458,0.00190
 282,0.00253331,-0.00248203,0.00750599,-0.06440375,0.53880315,0.0086928
 8,0.00211338,0.00007792,-0.01082361,0.00321051,0.00675402,-0.04394544,
 -0.00721451,-0.01356170,-0.00186209,0.00281448,0.00438108,0.00110367,-
 0.00060077,-0.00036200,0.00248593,-0.00718095,0.00141380,0.00041581,0.
 00070628,-0.00033617,-0.31506252,0.02825786,-0.05770883,0.42217705,-0.
 00138415,-0.00044393,-0.00122277,0.00174370,-0.00082040,0.00036560,-0.
 04038329,0.00320812,-0.00731295,0.00144959,-0.00023372,-0.00251899,-0.
 00133700,0.00104010,0.00005503,0.00187402,-0.00728278,-0.00282901,0.00
 073043,0.00175852,-0.00012707,0.02245638,-0.06832766,0.01019591,-0.024
 28919,0.06414774,-0.00210206,-0.00145034,-0.00345518,0.00123195,0.0015
 2940,0.00112488,-0.02381788,-0.00161096,-0.00278028,0.00191848,-0.0005
 0454,-0.00139501,0.00023590,-0.00004294,0.00030819,0.00194640,-0.00265
 461,0.00115246,-0.00008662,-0.00009625,0.00009081,-0.04708671,0.009905
 88,-0.07680786,0.07311446,-0.00215892,0.06628752,-0.03435653,0.0195615
 9,-0.01343720,-0.14491605,0.10539939,-0.06018829,0.00056688,0.00137709
 ,0.00168726,0.00045651,-0.00110147,-0.00106028,-0.00000866,0.00000123,
 0.00065654,0.00091566,-0.00332722,0.00476507,-0.00097190,0.00147488,-0
 .00116350,-0.00150825,0.00040775,0.00130596,0.00079917,-0.00016608,0.0
 0015892,0.16974449,-0.01144906,0.01771282,-0.00411142,0.11923964,-0.20
 941408,0.07642221,0.00195117,-0.00277996,0.00253076,-0.00128735,0.0000
 1457,-0.00053928,0.00033691,0.00075009,0.00092156,-0.00036233,0.001162
 73,-0.00168151,0.00015086,-0.00073148,0.00011749,0.00277524,-0.0009302
 1,-0.00436017,-0.00155632,0.00018754,0.00000043,-0.12112164,0.20089088
 ,0.00810202,-0.00302881,0.00982942,-0.07677596,0.08539474,-0.07991013,
 -0.00145986,0.00464144,-0.01317542,-0.00105442,0.00099294,-0.00112777,
 0.00012468,0.00025273,0.00031575,-0.00087173,0.00396161,-0.00543037,-0
 .00062104,-0.00203660,0.00241317,0.00294858,-0.00010160,-0.00349138,-0
 .00149806,0.00022349,0.00003395,0.06780850,-0.08251374,0.07758663,-0.0
 1830173,-0.04258179,-0.00603654,-0.06164216,-0.01993326,-0.00959897,0.
 00141558,0.00208562,0.00167086,0.00053315,0.00018346,-0.00088097,-0.00
 062780,-0.00004520,-0.00006250,-0.00037661,0.00100272,0.00120784,-0.00
 062161,-0.00014638,0.00027374,0.00018862,-0.00024298,-0.00006657,-0.00
 005005,0.00002795,0.00011102,0.00921655,0.01241759,0.00396205,0.071412
 64,-0.00709820,0.00243748,-0.00224574,-0.03704013,-0.32289230,-0.04246
 446,0.00048210,-0.00512447,-0.00419558,0.00030970,0.00279900,0.0051850
 1,-0.00025245,-0.00125395,-0.00067580,-0.00072646,-0.00128631,0.002883
 83,-0.00011524,0.00098263,-0.00076962,0.00007124,0.00083516,-0.0003084
 7,0.00034202,0.00008533,-0.00013396,-0.00280907,-0.00670457,-0.0070766
 0,0.04703011,0.33017991,0.00501016,0.00564272,0.00864115,-0.01656183,-
 0.05841369,-0.04794784,0.00182192,-0.00650611,-0.01012605,-0.00109853,
 -0.00592768,-0.00917064,0.00114413,0.00187624,0.00362239,0.00034781,0.
 00151320,-0.00422495,0.00012208,-0.00116535,0.00113415,-0.00027930,-0.
 00197283,-0.00109959,0.00005978,-0.00000160,0.00048268,0.00039811,0.01
 287182,0.01141389,0.00878344,0.05127009,0.04459794,0.00006817,-0.00078
 857,0.00093881,-0.00007548,0.00042222,-0.00023382,-0.01221030,0.007490
 26,0.00116852,-0.30416876,0.01608782,0.05806131,-0.01244759,-0.0095399
 8,-0.00277849,0.00240538,0.00170781,-0.00026214,-0.00051907,0.00016777
 ,0.00002602,-0.00041638,-0.00098977,-0.00153313,0.00014305,-0.00149744
 ,-0.00058330,-0.00004082,0.00005346,0.00020942,-0.00000873,-0.00043427
 ,0.00017150,0.33023687,-0.00088677,-0.00032137,0.00013310,0.00198258,-
 0.00074564,0.00126316,0.02664777,0.00238439,-0.00751131,0.02737485,-0.
 05266614,-0.00772806,-0.03978008,-0.00794051,0.00102250,-0.00214401,-0
 .00445974,0.00355482,0.00218979,-0.00067310,0.00069620,0.00148807,-0.0
 0022489,0.00165270,-0.00183712,-0.00050146,-0.00093935,-0.00005817,0.0
 0015423,0.00005170,-0.00015795,0.00022903,-0.00004385,-0.01371951,0.06
 100700,0.00035023,0.00036201,-0.00024032,-0.00186452,0.00172354,-0.001
 33477,-0.01868151,0.00591370,0.00139225,0.06410704,-0.00718145,-0.0586
 1886,-0.01906084,-0.00440042,0.00401651,0.00245984,0.00286411,-0.00148
 550,-0.00132170,0.00032588,0.00001096,0.00273263,-0.00142703,-0.002334
 30,-0.00096769,0.00056186,-0.00028872,0.00013656,-0.00015131,-0.000141
 03,-0.00009608,-0.00029380,0.00047104,-0.05564136,0.00691177,0.0623712
 4,0.00052861,-0.00014606,0.00008578,0.00018151,-0.00078474,0.00014045,
 -0.00216292,0.00832451,-0.01567197,-0.04550446,-0.00483063,0.03443454,
 0.00171740,-0.00629775,-0.02054526,0.00026657,0.00042796,0.00208447,-0
 .00021850,0.00050867,0.00009296,-0.00041214,-0.00212186,0.00210762,-0.
 00023334,0.00046873,-0.00079932,-0.00016920,0.00015229,0.00027478,-0.0
 0010257,-0.00019403,-0.00018404,-0.00243323,-0.00046415,0.02878484,0.0
 4940524,-0.00058836,-0.00023741,0.00024800,0.00015620,0.00181153,0.001
 42791,-0.00090446,-0.00177237,0.02443708,-0.00037151,-0.04183453,0.009
 93473,-0.00608235,-0.01409735,-0.03901877,0.00019506,0.00004749,-0.003
 54566,0.00021865,-0.00069350,0.00005696,0.00347999,-0.00117267,-0.0030
 5157,-0.00150261,0.00060954,0.00014730,0.00023436,-0.00032318,-0.00014
 627,-0.00007508,-0.00113876,0.00111283,0.00127970,0.00316443,-0.004504
 63,0.00402983,0.05648710,-0.00154358,-0.00061423,0.00103601,0.00036459
 ,0.00244098,-0.00431524,-0.00213176,0.00765526,-0.01355241,0.03666974,
 -0.00930246,-0.28530938,-0.00598645,-0.00998347,-0.00937072,0.00255124
 ,0.00103299,-0.00211128,-0.00022048,-0.00032137,0.00068143,0.00128236,
 -0.00275709,-0.00198157,-0.00057153,0.00057866,0.00007449,0.00021346,0
 .00030954,-0.00019229,0.00019656,-0.00051781,0.00149458,-0.00031924,0.
 00142794,-0.00523946,-0.02937795,0.01053811,0.31603959,0.00107598,0.00
 048177,0.00035687,-0.00219102,-0.00177421,-0.00079197,-0.01271317,-0.0
 2558984,-0.02012903,-0.00066682,-0.00161121,0.00170546,0.00045959,0.00
 137358,0.00037699,-0.07822682,-0.06741353,-0.05765175,0.00661902,0.016
 74323,0.00737748,-0.00485499,0.00558902,0.00272437,-0.00160128,-0.0018
 9075,-0.00077557,0.00018249,-0.00020726,0.00009706,-0.00078732,0.00060
 585,0.00027652,-0.00006711,0.00036983,-0.00006812,0.00030128,-0.000407
 21,-0.00013202,0.08500801,0.00061831,0.00026252,-0.00005245,0.00020731
 ,-0.00035556,-0.00036334,-0.00740077,0.00345293,-0.00011643,0.00028684
 ,-0.00016769,0.00105507,0.00092805,-0.00182337,0.00071528,-0.06040400,
 -0.19100994,-0.11452641,-0.00284084,-0.03593568,-0.00934565,0.00112846
 ,0.00164885,-0.00027153,0.00047193,0.00020670,-0.00013392,-0.00001660,
 -0.00037576,-0.00014303,0.00036871,0.00058915,-0.00028602,-0.00027141,
 0.00016297,-0.00035958,-0.00010288,-0.00027547,-0.00022447,0.06637926,
 0.21975690,-0.00020053,0.00001414,-0.00028715,0.00187192,0.00030221,0.
 00006332,0.00478154,0.00187409,0.00100164,-0.00122114,-0.00155236,-0.0
 0237126,0.00130426,0.00075548,0.00077025,-0.05836386,-0.12386658,-0.15
 000606,0.00459202,0.01913723,0.01303678,0.00012783,-0.00126409,0.00000
 646,-0.00007528,0.00022607,0.00026904,-0.00015539,0.00011988,0.0002880
 6,0.00050902,-0.00000857,0.00016635,0.00020474,-0.00003472,0.00022030,
 -0.00030018,0.00036078,0.00037452,0.05806323,0.12261640,0.15068545,-0.
 00063866,-0.00006932,0.00032901,-0.00061196,-0.00010721,0.00160572,-0.
 02102450,-0.00371538,0.02577945,0.00142666,-0.00171691,-0.00202186,0.0
 0013564,0.00034178,0.00062246,-0.07848549,-0.01332175,0.09771098,0.006
 36348,0.00932417,-0.01773426,0.00142182,0.00153861,-0.00233944,-0.0006
 8150,-0.00003132,-0.00094544,-0.00038343,0.00027064,0.00006699,0.00004
 564,-0.00012276,-0.00004075,-0.00001368,-0.00069549,-0.00015985,-0.000
 90610,0.00094109,0.00004000,0.00647416,0.00004555,-0.01079483,0.087578
 90,0.00078315,0.00022633,-0.00004396,-0.00023969,-0.00020977,-0.000355
 13,-0.00868470,0.00105623,0.00040029,0.00246729,-0.00031872,0.00118010
 ,-0.00107020,-0.00045110,-0.00006829,-0.00233545,-0.04664381,0.0190175
 9,-0.00648285,-0.01780657,0.03709621,-0.00032618,0.00097796,0.00044567
 ,0.00008932,-0.00005819,-0.00024449,0.00052845,-0.00050055,-0.00034693
 ,0.00006479,0.00048698,-0.00024076,-0.00038959,0.00001266,-0.00033075,
 0.00018712,-0.00009779,-0.00058874,0.00757299,0.00438923,-0.01918082,0
 .00794776,0.05942646,-0.00051045,-0.00019714,-0.00058484,0.00329533,0.
 00076966,-0.00092919,0.00228322,-0.00069449,0.00239429,-0.00062183,0.0
 0008114,-0.00357559,0.00049603,0.00016204,0.00080113,0.08226408,0.0226
 5674,-0.25437111,-0.00053537,0.01412110,-0.00954200,0.00173691,-0.0021
 3122,-0.00366559,-0.00111309,0.00022840,-0.00008271,-0.00075173,0.0002
 7547,0.00100420,-0.00026775,-0.00036399,0.00093937,0.00032747,-0.00043
 633,0.00052432,-0.00090374,0.00079037,0.00107211,0.00906179,0.00164273
 ,-0.01452681,-0.09272666,-0.03692984,0.27895532,0.00023626,0.00025774,
 0.00002639,-0.00001021,-0.00050776,0.00010255,0.00686292,-0.00229257,0
 .01049724,-0.00030654,-0.00170996,-0.00193896,0.00028988,-0.00109741,-
 0.00017082,-0.00027777,-0.00171311,0.00096750,-0.00175604,0.00125388,-
 0.00041710,-0.05413832,0.01579163,-0.01785890,-0.02249744,0.03136714,-
 0.02782037,0.00011659,-0.00040610,-0.00052587,-0.00015766,0.00003587,-
 0.00010888,-0.00002137,-0.00030903,-0.00005975,-0.00054384,0.00037984,
 -0.00038067,0.00030594,0.00030336,-0.00025625,-0.00002172,0.00021606,-
 0.00038153,0.06810151,-0.00073829,0.00029258,0.00016447,0.00134574,-0.
 00255374,-0.00084821,0.00088192,-0.02476365,0.01641333,-0.00442367,0.0
 0017325,-0.00537536,0.00043338,-0.00180384,0.00056913,0.00192668,-0.00
 085624,-0.00196889,0.00028992,0.00078546,-0.00030177,0.02715062,-0.202
 16492,0.13357019,0.00499799,0.00414324,-0.00028145,-0.00044664,0.00079
 838,-0.00012117,-0.00007894,0.00010021,-0.00000410,0.00050065,0.000048
 89,0.00050362,0.00002461,0.00073616,0.00060521,-0.00058576,-0.00001939
 ,0.00005070,0.00051475,-0.00013291,0.00050037,-0.03248104,0.21946485,-
 0.00041366,-0.00036357,0.00002436,0.00042853,-0.00263712,-0.00120232,0
 .00368906,-0.01321256,0.00984268,-0.00193168,-0.00084828,-0.00336270,0
 .00040832,-0.00132160,0.00041412,0.00055680,0.00156392,-0.00234772,-0.
 00110012,-0.00087467,0.00008357,-0.02540879,0.13244423,-0.15323202,-0.
 00603736,0.00206862,0.00095353,-0.00033972,-0.00052257,-0.00025783,-0.
 00000613,-0.00003113,-0.00021919,0.00020774,-0.00002117,0.00026692,-0.
 00016748,0.00028677,0.00030735,-0.00016963,-0.00002223,-0.00000510,0.0
 0044163,0.00010967,0.00059295,0.03065971,-0.13829296,0.16312730,0.0017
 7256,-0.00014433,-0.00082479,-0.00170812,0.00187368,0.00068012,0.00746
 598,0.00057778,-0.00728826,-0.00021797,0.00028551,0.00458880,-0.000419
 51,-0.00052437,-0.00058496,-0.00225458,-0.00291880,0.00202130,0.000210
 83,0.00137164,-0.00040676,-0.08711845,0.01574005,0.08529257,-0.0390602
 8,0.01086127,0.02530012,0.00035649,-0.00095776,-0.00078713,-0.00013594
 ,-0.00008430,0.00013787,-0.00043095,-0.00000063,-0.00064974,0.00028569
 ,-0.00098313,-0.00065427,0.00068206,0.00029872,-0.00008709,-0.00067925
 ,-0.00032826,-0.00165266,0.00381781,0.00068807,-0.00081723,0.11743364,
 -0.00005355,0.00011029,0.00010551,0.00017837,0.00034933,-0.00180480,0.
 00563101,-0.01698966,-0.02545527,-0.00220781,0.00107982,0.00250670,-0.
 00064784,-0.00072040,0.00019510,0.00143323,0.00084853,0.00235392,0.000
 01452,-0.00027639,-0.00063201,0.02921604,-0.04646878,-0.04767686,0.001
 17770,0.00228130,-0.00133129,0.00006213,0.00008854,-0.00000390,0.00008
 062,-0.00032453,0.00027509,-0.00007915,0.00036923,-0.00051753,0.000818
 38,-0.00121323,-0.00027906,0.00036424,-0.00050638,0.00045017,-0.001144
 21,-0.00035645,-0.00047499,-0.00908853,0.00575166,0.02167466,-0.025755
 15,0.05597713,-0.00220504,-0.00032808,0.00071303,0.00179375,-0.0020799
 6,-0.00418767,0.00253857,-0.00569267,-0.00867872,-0.00071103,0.0006379
 6,-0.00318730,0.00012600,0.00011734,0.00061048,0.00177796,0.00029604,-
 0.00164610,-0.00030731,0.00007148,0.00027689,0.09706630,-0.04100139,-0
 .23105456,-0.00356934,0.00166767,0.01403219,-0.00003428,0.00031083,0.0
 0084116,0.00030098,-0.00025340,-0.00017527,0.00003596,0.00000091,0.000
 40942,-0.00005549,0.00092606,0.00099227,-0.00032170,-0.00018442,0.0003
 1422,0.00016686,0.00008018,0.00099413,0.00766571,-0.00518310,-0.014985
 88,-0.10426789,0.05061457,0.24473172\\0.00000017,-0.00000044,0.0000000
 6,0.00000090,0.00000029,0.00000095,-0.00000015,0.00000020,-0.00000110,
 0.00000107,-0.00000032,0.00000109,0.00000039,0.00000066,0.00000087,0.0
 0000014,-0.00000207,-0.00000042,-0.00000025,-0.00000040,-0.00000103,-0
 .00000158,0.00000080,0.00000058,-0.00000032,0.00000059,-0.00000021,0.0
 0000066,0.00000017,-0.00000015,-0.00000024,-0.00000005,0.00000001,-0.0
 0000019,-0.00000005,-0.00000069,0.00000043,0.00000094,0.00000017,0.000
 00021,-0.00000075,0.00000030,-0.00000014,0.00000049,-0.00000027,-0.000
 00083,-0.00000001,-0.00000013,-0.00000027,-0.00000005,-0.00000003\\\@


0EVERYBODY IS IGNORANT, ONLY ON DIFFERENT SUBJECTS.
0          WILL ROGERS
 Job cpu time:       0 days  0 hours  9 minutes 45.5 seconds.
 Elapsed time:       0 days  0 hours  2 minutes 27.5 seconds.
 File lengths (MBytes):  RWF=     93 Int=      0 D2E=      0 Chk=      3 Scr=      1
 Normal termination of Gaussian 16 at Mon Jul 10 19:34:45 2023.
real 1011.32
user 3773.09
sys 16.30
