 Entering Gaussian System, Link 0=g16
 Input=gaussian_test.inp
 Output=gaussian_test.log
 Initial command:
 /sw/restricted/lms/sw/Gaussian/g16_B01/g16/l1.exe "/scratch/user/peterchao1/peterchao1/8625379_1689034736000000027749396/Gau-12452.inp" -scrdir="/scratch/user/peterchao1/peterchao1/8625379_1689034736000000027749396/"
 Entering Link 1 = /sw/restricted/lms/sw/Gaussian/g16_B01/g16/l1.exe PID=     12462.
  
 Copyright (c) 1988-2017, Gaussian, Inc.  All Rights Reserved.
  
 This is part of the Gaussian(R) 16 program.  It is based on
 the Gaussian(R) 09 system (copyright 2009, Gaussian, Inc.),
 the Gaussian(R) 03 system (copyright 2003, Gaussian, Inc.),
 the Gaussian(R) 98 system (copyright 1998, Gaussian, Inc.),
 the Gaussian(R) 94 system (copyright 1995, Gaussian, Inc.),
 the Gaussian 92(TM) system (copyright 1992, Gaussian, Inc.),
 the Gaussian 90(TM) system (copyright 1990, Gaussian, Inc.),
 the Gaussian 88(TM) system (copyright 1988, Gaussian, Inc.),
 the Gaussian 86(TM) system (copyright 1986, Carnegie Mellon
 University), and the Gaussian 82(TM) system (copyright 1983,
 Carnegie Mellon University). Gaussian is a federally registered
 trademark of Gaussian, Inc.
  
 This software contains proprietary and confidential information,
 including trade secrets, belonging to Gaussian, Inc.
  
 This software is provided under written license and may be
 used, copied, transmitted, or stored only in accord with that
 written license.
  
 The following legend is applicable only to US Government
 contracts under FAR:
  
                    RESTRICTED RIGHTS LEGEND
  
 Use, reproduction and disclosure by the US Government is
 subject to restrictions as set forth in subparagraphs (a)
 and (c) of the Commercial Computer Software - Restricted
 Rights clause in FAR 52.227-19.
  
 Gaussian, Inc.
 340 Quinnipiac St., Bldg. 40, Wallingford CT 06492
  
  
 ---------------------------------------------------------------
 Warning -- This program may not be used in any manner that
 competes with the business of Gaussian, Inc. or will provide
 assistance to any competitor of Gaussian, Inc.  The licensee
 of this program is prohibited from giving any competitor of
 Gaussian, Inc. access to this program.  By using this program,
 the user acknowledges that Gaussian, Inc. is engaged in the
 business of creating and licensing software in the field of
 computational chemistry and represents and warrants to the
 licensee that it is not a competitor of Gaussian, Inc. and that
 it will not use this program in any manner prohibited above.
 ---------------------------------------------------------------
  

 Cite this work as:
 Gaussian 16, Revision B.01,
 M. J. Frisch, G. W. Trucks, H. B. Schlegel, G. E. Scuseria, 
 M. A. Robb, J. R. Cheeseman, G. Scalmani, V. Barone, 
 G. A. Petersson, H. Nakatsuji, X. Li, M. Caricato, A. V. Marenich, 
 J. Bloino, B. G. Janesko, R. Gomperts, B. Mennucci, H. P. Hratchian, 
 J. V. Ortiz, A. F. Izmaylov, J. L. Sonnenberg, D. Williams-Young, 
 F. Ding, F. Lipparini, F. Egidi, J. Goings, B. Peng, A. Petrone, 
 T. Henderson, D. Ranasinghe, V. G. Zakrzewski, J. Gao, N. Rega, 
 G. Zheng, W. Liang, M. Hada, M. Ehara, K. Toyota, R. Fukuda, 
 J. Hasegawa, M. Ishida, T. Nakajima, Y. Honda, O. Kitao, H. Nakai, 
 T. Vreven, K. Throssell, J. A. Montgomery, Jr., J. E. Peralta, 
 F. Ogliaro, M. J. Bearpark, J. J. Heyd, E. N. Brothers, K. N. Kudin, 
 V. N. Staroverov, T. A. Keith, R. Kobayashi, J. Normand, 
 K. Raghavachari, A. P. Rendell, J. C. Burant, S. S. Iyengar, 
 J. Tomasi, M. Cossi, J. M. Millam, M. Klene, C. Adamo, R. Cammi, 
 J. W. Ochterski, R. L. Martin, K. Morokuma, O. Farkas, 
 J. B. Foresman, and D. J. Fox, Gaussian, Inc., Wallingford CT, 2016.
 
 ******************************************
 Gaussian 16:  ES64L-G16RevB.01 20-Dec-2017
                10-Jul-2023 
 ******************************************
 %nprocshared=4
 Will use up to    4 processors via shared memory.
 %mem=8000mb
 %chk=36.chk
 %mem=8000mb
 ----------------------------------------------------------------------
 #T wB97XD/def2svpp opt=tight freq int(grid=ultrafine) scf=(verytight,q
 c)
 ----------------------------------------------------------------------
 -------
 comment
 -------
 Symbolic Z-matrix:
 Charge =  1 Multiplicity = 2
 C                    -0.56849   1.73452  -0.30919 
 C                     0.02309   0.35855   0.00662 
 N                     0.09968   0.07476   1.44254 
 C                    -0.82519  -0.74951  -0.62067 
 O                    -2.08528  -0.7662    0.0126 
 C                     1.46565   0.24628  -0.52696 
 O                     2.07054  -0.927    -0.07832 
 H                    -1.61662   1.78884   0.02868 
 H                    -0.54428   1.94082  -1.39447 
 H                     0.00611   2.53073   0.19788 
 H                    -0.81902  -0.2119    1.78248 
 H                     0.38607   0.90337   1.96437 
 H                    -0.29387  -1.71009  -0.48828 
 H                    -0.92395  -0.55392  -1.70759 
 H                    -2.56291  -1.56089  -0.25359 
 H                     2.02767   1.14921  -0.19687 
 H                     1.47181   0.24542  -1.63162 
 H                     1.71877  -1.03835   0.82828 
 

 GradGradGradGradGradGradGradGradGradGradGradGradGradGradGradGradGradGrad
 Initialization pass.
                           ----------------------------
                           !    Initial Parameters    !
                           ! (Angstroms and Degrees)  !
 --------------------------                            --------------------------
 ! Name  Definition              Value          Derivative Info.                !
 --------------------------------------------------------------------------------
 ! R1    R(1,2)                  1.5307         estimate D2E/DX2                !
 ! R2    R(1,8)                  1.1026         estimate D2E/DX2                !
 ! R3    R(1,9)                  1.105          estimate D2E/DX2                !
 ! R4    R(1,10)                 1.1051         estimate D2E/DX2                !
 ! R5    R(2,3)                  1.4657         estimate D2E/DX2                !
 ! R6    R(2,4)                  1.53           estimate D2E/DX2                !
 ! R7    R(2,6)                  1.5422         estimate D2E/DX2                !
 ! R8    R(3,11)                 1.0207         estimate D2E/DX2                !
 ! R9    R(3,12)                 1.0203         estimate D2E/DX2                !
 ! R10   R(4,5)                  1.4104         estimate D2E/DX2                !
 ! R11   R(4,13)                 1.1057         estimate D2E/DX2                !
 ! R12   R(4,14)                 1.1088         estimate D2E/DX2                !
 ! R13   R(5,15)                 0.9646         estimate D2E/DX2                !
 ! R14   R(6,7)                  1.3942         estimate D2E/DX2                !
 ! R15   R(6,16)                 1.1136         estimate D2E/DX2                !
 ! R16   R(6,17)                 1.1047         estimate D2E/DX2                !
 ! R17   R(7,18)                 0.9788         estimate D2E/DX2                !
 ! A1    A(2,1,8)              110.3934         estimate D2E/DX2                !
 ! A2    A(2,1,9)              111.2233         estimate D2E/DX2                !
 ! A3    A(2,1,10)             110.6125         estimate D2E/DX2                !
 ! A4    A(8,1,9)              108.2162         estimate D2E/DX2                !
 ! A5    A(8,1,10)             108.5519         estimate D2E/DX2                !
 ! A6    A(9,1,10)             107.7436         estimate D2E/DX2                !
 ! A7    A(1,2,3)              113.3516         estimate D2E/DX2                !
 ! A8    A(1,2,4)              110.6192         estimate D2E/DX2                !
 ! A9    A(1,2,6)              110.8288         estimate D2E/DX2                !
 ! A10   A(3,2,4)              106.8825         estimate D2E/DX2                !
 ! A11   A(3,2,6)              106.0212         estimate D2E/DX2                !
 ! A12   A(4,2,6)              108.9075         estimate D2E/DX2                !
 ! A13   A(2,3,11)             109.4899         estimate D2E/DX2                !
 ! A14   A(2,3,12)             111.0082         estimate D2E/DX2                !
 ! A15   A(11,3,12)            108.0839         estimate D2E/DX2                !
 ! A16   A(2,4,5)              108.653          estimate D2E/DX2                !
 ! A17   A(2,4,13)             108.2805         estimate D2E/DX2                !
 ! A18   A(2,4,14)             108.877          estimate D2E/DX2                !
 ! A19   A(5,4,13)             111.4257         estimate D2E/DX2                !
 ! A20   A(5,4,14)             111.2635         estimate D2E/DX2                !
 ! A21   A(13,4,14)            108.2661         estimate D2E/DX2                !
 ! A22   A(4,5,15)             109.1609         estimate D2E/DX2                !
 ! A23   A(2,6,7)              110.8405         estimate D2E/DX2                !
 ! A24   A(2,6,16)             108.0891         estimate D2E/DX2                !
 ! A25   A(2,6,17)             110.5645         estimate D2E/DX2                !
 ! A26   A(7,6,16)             111.5919         estimate D2E/DX2                !
 ! A27   A(7,6,17)             108.5854         estimate D2E/DX2                !
 ! A28   A(16,6,17)            107.1116         estimate D2E/DX2                !
 ! A29   A(6,7,18)             103.7611         estimate D2E/DX2                !
 ! D1    D(8,1,2,3)            -63.8605         estimate D2E/DX2                !
 ! D2    D(8,1,2,4)             56.1669         estimate D2E/DX2                !
 ! D3    D(8,1,2,6)            177.0689         estimate D2E/DX2                !
 ! D4    D(9,1,2,3)            175.9974         estimate D2E/DX2                !
 ! D5    D(9,1,2,4)            -63.9751         estimate D2E/DX2                !
 ! D6    D(9,1,2,6)             56.9269         estimate D2E/DX2                !
 ! D7    D(10,1,2,3)            56.3041         estimate D2E/DX2                !
 ! D8    D(10,1,2,4)           176.3315         estimate D2E/DX2                !
 ! D9    D(10,1,2,6)           -62.7665         estimate D2E/DX2                !
 ! D10   D(1,2,3,11)            79.4185         estimate D2E/DX2                !
 ! D11   D(1,2,3,12)           -39.8326         estimate D2E/DX2                !
 ! D12   D(4,2,3,11)           -42.714          estimate D2E/DX2                !
 ! D13   D(4,2,3,12)          -161.9651         estimate D2E/DX2                !
 ! D14   D(6,2,3,11)          -158.7838         estimate D2E/DX2                !
 ! D15   D(6,2,3,12)            81.9651         estimate D2E/DX2                !
 ! D16   D(1,2,4,5)            -66.4253         estimate D2E/DX2                !
 ! D17   D(1,2,4,13)           172.4066         estimate D2E/DX2                !
 ! D18   D(1,2,4,14)            54.9031         estimate D2E/DX2                !
 ! D19   D(3,2,4,5)             57.4072         estimate D2E/DX2                !
 ! D20   D(3,2,4,13)           -63.7609         estimate D2E/DX2                !
 ! D21   D(3,2,4,14)           178.7356         estimate D2E/DX2                !
 ! D22   D(6,2,4,5)            171.5382         estimate D2E/DX2                !
 ! D23   D(6,2,4,13)            50.3702         estimate D2E/DX2                !
 ! D24   D(6,2,4,14)           -67.1333         estimate D2E/DX2                !
 ! D25   D(1,2,6,7)            171.5707         estimate D2E/DX2                !
 ! D26   D(1,2,6,16)            48.9843         estimate D2E/DX2                !
 ! D27   D(1,2,6,17)           -67.9613         estimate D2E/DX2                !
 ! D28   D(3,2,6,7)             48.1716         estimate D2E/DX2                !
 ! D29   D(3,2,6,16)           -74.4148         estimate D2E/DX2                !
 ! D30   D(3,2,6,17)           168.6396         estimate D2E/DX2                !
 ! D31   D(4,2,6,7)            -66.5199         estimate D2E/DX2                !
 ! D32   D(4,2,6,16)           170.8937         estimate D2E/DX2                !
 ! D33   D(4,2,6,17)            53.9481         estimate D2E/DX2                !
 ! D34   D(2,4,5,15)          -169.2649         estimate D2E/DX2                !
 ! D35   D(13,4,5,15)          -50.0491         estimate D2E/DX2                !
 ! D36   D(14,4,5,15)           70.8817         estimate D2E/DX2                !
 ! D37   D(2,6,7,18)           -36.1496         estimate D2E/DX2                !
 ! D38   D(16,6,7,18)           84.3785         estimate D2E/DX2                !
 ! D39   D(17,6,7,18)         -157.7865         estimate D2E/DX2                !
 --------------------------------------------------------------------------------
 Number of steps in this run=     95 maximum allowed number of steps=    108.
 GradGradGradGradGradGradGradGradGradGradGradGradGradGradGradGradGradGrad

                    Distance matrix (angstroms):
                    1          2          3          4          5
     1  C    0.000000
     2  C    1.530683   0.000000
     3  N    2.503953   1.465693   0.000000
     4  C    2.516605   1.529989   2.406577   0.000000
     5  O    2.942407   2.389629   2.743351   1.410370   0.000000
     6  C    2.529821   1.542168   2.402960   2.499659   3.731665
     7  O    3.755183   2.419062   2.683429   2.951415   4.159919
     8  H    1.102584   2.175980   2.807624   2.737017   2.597713
     9  H    1.104981   2.188274   3.456221   2.813460   3.417962
    10  H    1.105100   2.180654   2.754943   3.481533   3.908703
    11  H    2.868166   2.046517   1.020657   2.462552   2.245690
    12  H    2.602129   2.064312   1.020259   3.298727   3.564328
    13  H    3.460174   2.150503   2.658689   1.105685   2.085900
    14  H    2.705323   2.160550   3.371395   1.108782   2.086332
    15  H    3.852333   3.230996   3.555495   1.952626   0.964633
    16  H    2.663688   2.164459   2.749406   3.453049   4.541918
    17  H    2.851148   2.189841   3.370800   2.699645   4.047183
    18  H    3.770170   2.345585   2.058587   2.941866   3.900023
                    6          7          8          9         10
     6  C    0.000000
     7  O    1.394180   0.000000
     8  H    3.491223   4.580650   0.000000
     9  H    2.768364   4.098031   1.788403   0.000000
    10  H    2.806137   4.036588   1.792284   1.785082   0.000000
    11  H    3.280722   3.510476   2.777579   3.847426   3.273195
    12  H    2.793571   3.218740   2.922623   3.636438   2.431699
    13  H    2.631495   2.524225   3.776170   3.770017   4.306436
    14  H    2.782867   3.429378   2.997152   2.542811   3.743109
    15  H    4.423779   4.679885   3.492250   4.199812   4.852319
    16  H    1.113610   2.080033   3.706866   2.945471   2.480148
    17  H    1.104675   2.036116   3.831078   2.644848   3.273841
    18  H    1.884417   0.978807   4.444909   4.351719   4.008613
                   11         12         13         14         15
    11  H    0.000000
    12  H    1.652013   0.000000
    13  H    2.770684   3.648015   0.000000
    14  H    3.508348   4.162103   1.794560   0.000000
    15  H    3.001078   4.437158   2.286017   2.411280   0.000000
    16  H    3.724790   2.725117   3.694602   3.727596   5.331158
    17  H    4.136795   3.813518   2.872080   2.526728   4.630401
    18  H    2.834408   2.614786   2.497050   3.694487   4.447044
                   16         17         18
    16  H    0.000000
    17  H    1.784475   0.000000
    18  H    2.435528   2.785706   0.000000
 Framework group  C1[X(C4H11NO2)]
 Deg. of freedom    48
                         Standard orientation:                         
 ---------------------------------------------------------------------
 Center     Atomic      Atomic             Coordinates (Angstroms)
 Number     Number       Type             X           Y           Z
 ---------------------------------------------------------------------
      1          6           0       -0.568488    1.734516   -0.309191
      2          6           0        0.023094    0.358549    0.006619
      3          7           0        0.099680    0.074760    1.442535
      4          6           0       -0.825186   -0.749511   -0.620669
      5          8           0       -2.085280   -0.766195    0.012598
      6          6           0        1.465649    0.246276   -0.526964
      7          8           0        2.070536   -0.926997   -0.078321
      8          1           0       -1.616621    1.788842    0.028680
      9          1           0       -0.544275    1.940819   -1.394472
     10          1           0        0.006108    2.530732    0.197884
     11          1           0       -0.819018   -0.211902    1.782475
     12          1           0        0.386066    0.903371    1.964374
     13          1           0       -0.293868   -1.710091   -0.488282
     14          1           0       -0.923949   -0.553915   -1.707585
     15          1           0       -2.562906   -1.560886   -0.253591
     16          1           0        2.027670    1.149213   -0.196867
     17          1           0        1.471808    0.245416   -1.631621
     18          1           0        1.718767   -1.038355    0.828278
 ---------------------------------------------------------------------
 Rotational constants (GHZ):           3.4909590           2.0146290           1.7580250
   120 basis functions,   219 primitive gaussians,   127 cartesian basis functions
    29 alpha electrons       28 beta electrons
       nuclear repulsion energy       349.8548427998 Hartrees.
 NAtoms=   18 NActive=   18 NUniq=   18 SFac= 1.00D+00 NAtFMM=   60 NAOKFM=F Big=F
 Nuclear repulsion after empirical dispersion term =      349.8437433590 Hartrees.
   1 Symmetry operations used in ECPInt.
 ECPInt:  NShTT=    2080 NPrTT=    8380 LenC2=    2072 LenP2D=    6819.
 LDataN:  DoStor=T MaxTD1= 4 Len=   56
 ExpMin= 1.22D-01 ExpMax= 2.27D+03 ExpMxC= 3.41D+02 IAcc=3 IRadAn=         5 AccDes= 0.00D+00
 Harris functional with IExCor= 4639 and IRadAn=       5 diagonalized for initial guess.
 HarFok:  IExCor= 4639 AccDes= 0.00D+00 IRadAn=         5 IDoV= 1 UseB2=F ITyADJ=14
 ICtDFT=  3500011 ScaDFX=  1.000000  1.000000  1.000000  1.000000
 FoFCou: FMM=F IPFlag=           0 FMFlag=      100000 FMFlg1=           0
         NFxFlg=           0 DoJE=T BraDBF=F KetDBF=T FulRan=T
         wScrn=  0.000000 ICntrl=       500 IOpCl=  0 I1Cent=   200000004 NGrid=           0
         NMat0=    1 NMatS0=      1 NMatT0=    0 NMatD0=    1 NMtDS0=    0 NMtDT0=    0
 Petite list used in FoFCou.
 Initial guess <Sx>= 0.0000 <Sy>= 0.0000 <Sz>= 0.5000 <S**2>= 0.7500 S= 0.5000
     Accept linear search using points  3 and  4.
     Minimum is close to point  3 DX=  4.64D-02 DF= -4.67D-05 DXR=  6.21D-02 DFR=  3.87D-03 which will be used.
     Accept linear search using points  1 and  2.
     Accept linear search using points  2 and  3.
     Accept linear search using points  1 and  2.
     Minimum is close to point  3 DX=  1.23D-01 DF= -5.24D-06 DXR=  8.63D-02 DFR=  7.43D-03 which will be used.
     Accept linear search using points  1 and  2.
     Accept linear search using points  2 and  3.
     Accept linear search using points  1 and  2.
     Accept linear search using points  1 and  2.
     Minimum is close to point  2 DX= -2.89D-02 DF= -9.04D-07 DXR=  2.98D-02 DFR=  9.25D-04 which will be used.
     Minimum is close to point  2 DX=  3.39D-02 DF= -3.96D-08 DXR=  3.28D-02 DFR=  1.07D-03 which will be used.
 SCF Done:  E(UwB97XD) =  -363.477328846     a.u. after   14 cycles
            Convg  =    0.3651D-08                    91 Fock formations.
              S**2 =  0.7561                  -V/T =  2.0084
 <Sx>= 0.0000 <Sy>= 0.0000 <Sz>= 0.5000 <S**2>= 0.7561 S= 0.5030
 <L.S>=  0.00000000000    
 Annihilation of the first spin contaminant:
 S**2 before annihilation     0.7561,   after     0.7500

 **********************************************************************

            Population analysis using the SCF Density.

 **********************************************************************

 Orbital symmetries:
 Alpha Orbitals:
       Occupied  (A) (A) (A) (A) (A) (A) (A) (A) (A) (A) (A) (A)
                 (A) (A) (A) (A) (A) (A) (A) (A) (A) (A) (A) (A)
                 (A) (A) (A) (A) (A)
       Virtual   (A) (A) (A) (A) (A) (A) (A) (A) (A) (A) (A) (A)
                 (A) (A) (A) (A) (A) (A) (A) (A) (A) (A) (A) (A)
                 (A) (A) (A) (A) (A) (A) (A) (A) (A) (A) (A) (A)
                 (A) (A) (A) (A) (A) (A) (A) (A) (A) (A) (A) (A)
                 (A) (A) (A) (A) (A) (A) (A) (A) (A) (A) (A) (A)
                 (A) (A) (A) (A) (A) (A) (A) (A) (A) (A) (A) (A)
                 (A) (A) (A) (A) (A) (A) (A) (A) (A) (A) (A) (A)
                 (A) (A) (A) (A) (A) (A) (A)
 Beta  Orbitals:
       Occupied  (A) (A) (A) (A) (A) (A) (A) (A) (A) (A) (A) (A)
                 (A) (A) (A) (A) (A) (A) (A) (A) (A) (A) (A) (A)
                 (A) (A) (A) (A)
       Virtual   (A) (A) (A) (A) (A) (A) (A) (A) (A) (A) (A) (A)
                 (A) (A) (A) (A) (A) (A) (A) (A) (A) (A) (A) (A)
                 (A) (A) (A) (A) (A) (A) (A) (A) (A) (A) (A) (A)
                 (A) (A) (A) (A) (A) (A) (A) (A) (A) (A) (A) (A)
                 (A) (A) (A) (A) (A) (A) (A) (A) (A) (A) (A) (A)
                 (A) (A) (A) (A) (A) (A) (A) (A) (A) (A) (A) (A)
                 (A) (A) (A) (A) (A) (A) (A) (A) (A) (A) (A) (A)
                 (A) (A) (A) (A) (A) (A) (A) (A)
 The electronic state is 2-A.
 Alpha  occ. eigenvalues --  -19.50872 -19.43667 -14.71792 -10.56181 -10.55619
 Alpha  occ. eigenvalues --  -10.52583 -10.47814  -1.36795  -1.30192  -1.24602
 Alpha  occ. eigenvalues --   -1.08103  -0.97586  -0.97093  -0.89110  -0.84525
 Alpha  occ. eigenvalues --   -0.80772  -0.79825  -0.77770  -0.74778  -0.72855
 Alpha  occ. eigenvalues --   -0.70035  -0.69093  -0.67899  -0.64908  -0.62918
 Alpha  occ. eigenvalues --   -0.62407  -0.60164  -0.59043  -0.54306
 Alpha virt. eigenvalues --   -0.05672  -0.01816  -0.01504   0.00060   0.00986
 Alpha virt. eigenvalues --    0.02409   0.03614   0.05276   0.05741   0.07509
 Alpha virt. eigenvalues --    0.08416   0.09697   0.10544   0.11166   0.11860
 Alpha virt. eigenvalues --    0.12491   0.15927   0.32107   0.34428   0.35407
 Alpha virt. eigenvalues --    0.37520   0.39152   0.42413   0.44806   0.47078
 Alpha virt. eigenvalues --    0.48907   0.50410   0.52389   0.53433   0.55246
 Alpha virt. eigenvalues --    0.56265   0.57827   0.59143   0.60238   0.61252
 Alpha virt. eigenvalues --    0.61603   0.62570   0.63897   0.64872   0.66411
 Alpha virt. eigenvalues --    0.66804   0.70606   0.80482   0.83223   0.85704
 Alpha virt. eigenvalues --    0.90849   0.93481   0.98129   0.98549   1.01734
 Alpha virt. eigenvalues --    1.06861   1.11318   1.18300   1.23509   1.29060
 Alpha virt. eigenvalues --    1.35071   1.42992   1.48394   1.60683   1.63538
 Alpha virt. eigenvalues --    1.65507   1.70919   1.72970   1.73978   1.86665
 Alpha virt. eigenvalues --    1.87642   1.92150   1.96517   1.98145   2.00130
 Alpha virt. eigenvalues --    2.01725   2.11314   2.13211   2.16351   2.20698
 Alpha virt. eigenvalues --    2.31997   2.39108   2.45543   2.49730   2.53994
 Alpha virt. eigenvalues --    2.55014   2.58429   2.72984   2.77561   2.79758
 Alpha virt. eigenvalues --    2.80487   2.84991   2.86257   2.96412   3.24971
 Alpha virt. eigenvalues --    3.29705
  Beta  occ. eigenvalues --  -19.50134 -19.43593 -14.70889 -10.56101 -10.55520
  Beta  occ. eigenvalues --  -10.52575 -10.47703  -1.35070  -1.29908  -1.22706
  Beta  occ. eigenvalues --   -1.06995  -0.96840  -0.96721  -0.88340  -0.83813
  Beta  occ. eigenvalues --   -0.79990  -0.78926  -0.76925  -0.73121  -0.72051
  Beta  occ. eigenvalues --   -0.68707  -0.68309  -0.66893  -0.64570  -0.61742
  Beta  occ. eigenvalues --   -0.60159  -0.54769  -0.53703
  Beta virt. eigenvalues --   -0.35862  -0.05393  -0.01649  -0.01047   0.00241
  Beta virt. eigenvalues --    0.01335   0.02737   0.03895   0.05450   0.06068
  Beta virt. eigenvalues --    0.07855   0.08696   0.10073   0.10816   0.11487
  Beta virt. eigenvalues --    0.12197   0.12836   0.16268   0.32456   0.34567
  Beta virt. eigenvalues --    0.35884   0.37866   0.39500   0.42589   0.45267
  Beta virt. eigenvalues --    0.47513   0.49309   0.50919   0.52671   0.53646
  Beta virt. eigenvalues --    0.55980   0.56812   0.57970   0.59451   0.60555
  Beta virt. eigenvalues --    0.61574   0.61886   0.63228   0.64063   0.65181
  Beta virt. eigenvalues --    0.66802   0.66991   0.71839   0.81124   0.83708
  Beta virt. eigenvalues --    0.86423   0.91680   0.93917   0.98513   0.98879
  Beta virt. eigenvalues --    1.03182   1.07212   1.11964   1.18760   1.23880
  Beta virt. eigenvalues --    1.29777   1.35508   1.43445   1.48775   1.61219
  Beta virt. eigenvalues --    1.64011   1.66174   1.71661   1.73491   1.74469
  Beta virt. eigenvalues --    1.86986   1.88042   1.92419   1.96829   1.98481
  Beta virt. eigenvalues --    2.00329   2.02055   2.13584   2.14847   2.17436
  Beta virt. eigenvalues --    2.21443   2.33898   2.40117   2.47112   2.51249
  Beta virt. eigenvalues --    2.54243   2.56503   2.59487   2.74744   2.77895
  Beta virt. eigenvalues --    2.80319   2.81548   2.86612   2.87447   2.96727
  Beta virt. eigenvalues --    3.25798   3.29870
          Condensed to atoms (all electrons):
          Atomic-Atomic Spin Densities.
 Mulliken charges and spin densities:
               1          2
     1  C   -0.266736   0.063935
     2  C   -0.344051   0.014712
     3  N   -0.337868   0.506980
     4  C    0.070000   0.011587
     5  O   -0.471134   0.030730
     6  C    0.059666   0.045007
     7  O   -0.299454   0.310740
     8  H    0.200679   0.001872
     9  H    0.186832   0.007818
    10  H    0.164948  -0.002999
    11  H    0.325748  -0.006933
    12  H    0.307253  -0.013140
    13  H    0.140069  -0.001019
    14  H    0.155180   0.002943
    15  H    0.364894  -0.001032
    16  H    0.195383   0.046259
    17  H    0.190457  -0.000221
    18  H    0.358134  -0.017238
 Sum of Mulliken charges =   1.00000   1.00000
 Mulliken charges and spin densities with hydrogens summed into heavy atoms:
               1          2
     1  C    0.285723   0.070626
     2  C   -0.344051   0.014712
     3  N    0.295133   0.486906
     4  C    0.365249   0.013510
     5  O   -0.106240   0.029699
     6  C    0.445506   0.091045
     7  O    0.058680   0.293502
 Electronic spatial extent (au):  <R**2>=            787.8001
 Charge=              1.0000 electrons
 Dipole moment (field-independent basis, Debye):
    X=              0.0435    Y=              0.8583    Z=              1.5569  Tot=              1.7783
                          Isotropic Fermi Contact Couplings
        Atom                 a.u.       MegaHertz       Gauss      10(-4) cm-1
     1  C(13)              0.02897      32.56766      11.62095      10.86340
     2  C(13)             -0.00224      -2.51630      -0.89788      -0.83935
     3  N(14)              0.28331      91.53873      32.66330      30.53403
     4  C(13)             -0.00318      -3.57072      -1.27412      -1.19106
     5  O(17)              0.00941      -5.70583      -2.03598      -1.90326
     6  C(13)              0.01015      11.41475       4.07307       3.80755
     7  O(17)              0.10879     -65.94555     -23.53101     -21.99707
     8  H(1)               0.00006       0.27076       0.09661       0.09032
     9  H(1)               0.00318      14.23091       5.07794       4.74692
    10  H(1)              -0.00094      -4.19883      -1.49825      -1.40058
    11  H(1)              -0.00013      -0.59025      -0.21061      -0.19688
    12  H(1)              -0.00376     -16.78497      -5.98930      -5.59886
    13  H(1)               0.00051       2.28181       0.81421       0.76113
    14  H(1)               0.00188       8.39122       2.99419       2.79901
    15  H(1)              -0.00039      -1.76518      -0.62986      -0.58880
    16  H(1)               0.02070      92.52427      33.01496      30.86277
    17  H(1)               0.00063       2.83700       1.01231       0.94632
    18  H(1)              -0.00551     -24.62745      -8.78769      -8.21483
 --------------------------------------------------------
       Center         ----  Spin Dipole Couplings  ----
                      3XX-RR        3YY-RR        3ZZ-RR
 --------------------------------------------------------
     1   Atom       -0.024149      0.053187     -0.029037
     2   Atom        0.081840     -0.021168     -0.060672
     3   Atom        0.206105      0.269614     -0.475719
     4   Atom       -0.004776      0.009604     -0.004827
     5   Atom       -0.059763     -0.016374      0.076138
     6   Atom        0.114371     -0.052591     -0.061780
     7   Atom        0.302235     -0.268234     -0.034001
     8   Atom        0.006238     -0.001604     -0.004634
     9   Atom       -0.005539     -0.002716      0.008255
    10   Atom       -0.005154      0.010674     -0.005521
    11   Atom        0.042253     -0.011780     -0.030472
    12   Atom       -0.017031      0.029897     -0.012866
    13   Atom        0.001177      0.002032     -0.003209
    14   Atom       -0.001172     -0.003893      0.005065
    15   Atom        0.000834      0.001640     -0.002475
    16   Atom       -0.005833      0.013267     -0.007433
    17   Atom       -0.005988     -0.008989      0.014978
    18   Atom        0.005729     -0.036863      0.031134
 --------------------------------------------------------
                        XY            XZ            YZ
 --------------------------------------------------------
     1   Atom       -0.053401      0.025946     -0.049713
     2   Atom       -0.093729      0.029900     -0.014989
     3   Atom       -0.755283      0.162385     -0.169257
     4   Atom       -0.001105      0.006866     -0.005604
     5   Atom       -0.009001      0.025215     -0.083365
     6   Atom        0.043271      0.002553     -0.007538
     7   Atom        0.565520      0.756492      0.465388
     8   Atom       -0.005499     -0.001676     -0.003494
     9   Atom       -0.003306     -0.000451     -0.003848
    10   Atom        0.001075      0.002218      0.000551
    11   Atom        0.026110     -0.032626     -0.019457
    12   Atom        0.015408      0.022786      0.042335
    13   Atom        0.003317      0.003043      0.005220
    14   Atom        0.001056      0.004102      0.003543
    15   Atom        0.006348      0.003656      0.002655
    16   Atom        0.007912     -0.000977      0.004267
    17   Atom       -0.000754     -0.007464     -0.005333
    18   Atom        0.002027     -0.045004     -0.008585
 --------------------------------------------------------


 ---------------------------------------------------------------------------------
              Anisotropic Spin Dipole Couplings in Principal Axis System
 ---------------------------------------------------------------------------------

       Atom             a.u.   MegaHertz   Gauss  10(-4) cm-1        Axes

              Baa    -0.0528    -7.087    -2.529    -2.364 -0.4476  0.1849  0.8749
     1 C(13)  Bbb    -0.0513    -6.878    -2.454    -2.294  0.7894  0.5414  0.2894
              Bcc     0.1041    13.965     4.983     4.658 -0.4202  0.8202 -0.3882
 
              Baa    -0.0771   -10.345    -3.691    -3.451  0.5254  0.8264 -0.2025
     2 C(13)  Bbb    -0.0657    -8.812    -3.144    -2.939 -0.0324  0.2572  0.9658
              Bcc     0.1428    19.157     6.836     6.390  0.8502 -0.5009  0.1619
 
              Baa    -0.5181   -19.982    -7.130    -6.665  0.7230  0.6908 -0.0115
     3 N(14)  Bbb    -0.5122   -19.756    -7.050    -6.590 -0.0981  0.1191  0.9880
              Bcc     1.0303    39.738    14.179    13.255 -0.6839  0.7132 -0.1539
 
              Baa    -0.0122    -1.633    -0.583    -0.545 -0.6595  0.1558  0.7354
     4 C(13)  Bbb    -0.0001    -0.009    -0.003    -0.003  0.7211  0.4073  0.5604
              Bcc     0.0122     1.642     0.586     0.548 -0.2122  0.8999 -0.3809
 
              Baa    -0.0695     5.031     1.795     1.678  0.6270 -0.6244 -0.4658
     5 O(17)  Bbb    -0.0594     4.295     1.532     1.433  0.7667  0.6006  0.2269
              Bcc     0.1289    -9.326    -3.328    -3.111  0.1381 -0.4994  0.8553
 
              Baa    -0.0704    -9.449    -3.372    -3.152 -0.1768  0.7151  0.6763
     6 C(13)  Bbb    -0.0545    -7.314    -2.610    -2.440  0.1574 -0.6577  0.7366
              Bcc     0.1249    16.763     5.982     5.592  0.9716  0.2367  0.0037
 
              Baa    -0.6436    46.573    16.618    15.535 -0.4863 -0.2895  0.8244
     7 O(17)  Bbb    -0.6164    44.601    15.915    14.877 -0.5201  0.8541 -0.0068
              Bcc     1.2600   -91.173   -32.533   -30.412  0.7021  0.4322  0.5659
 
              Baa    -0.0084    -4.487    -1.601    -1.497  0.3156  0.6226  0.7161
     8 H(1)   Bbb    -0.0007    -0.353    -0.126    -0.118 -0.3350 -0.6330  0.6980
              Bcc     0.0091     4.840     1.727     1.614  0.8878 -0.4602  0.0088
 
              Baa    -0.0081    -4.338    -1.548    -1.447  0.7872  0.5952  0.1615
     9 H(1)   Bbb    -0.0014    -0.727    -0.259    -0.242 -0.6155  0.7413  0.2677
              Bcc     0.0095     5.065     1.807     1.689  0.0397 -0.3101  0.9499
 
              Baa    -0.0076    -4.038    -1.441    -1.347 -0.6807  0.0180  0.7323
    10 H(1)   Bbb    -0.0032    -1.712    -0.611    -0.571  0.7289 -0.0834  0.6795
              Bcc     0.0108     5.750     2.052     1.918  0.0733  0.9964  0.0436
 
              Baa    -0.0461   -24.615    -8.783    -8.211  0.2372  0.3360  0.9115
    11 H(1)   Bbb    -0.0211   -11.282    -4.026    -3.763 -0.4592  0.8656 -0.1995
              Bcc     0.0673    35.898    12.809    11.974  0.8561  0.3712 -0.3596
 
              Baa    -0.0449   -23.935    -8.541    -7.984 -0.4616 -0.3632  0.8093
    12 H(1)   Bbb    -0.0190   -10.124    -3.612    -3.377  0.8348 -0.4865  0.2578
              Bcc     0.0638    34.059    12.153    11.361  0.3001  0.7946  0.5278
 
              Baa    -0.0065    -3.494    -1.247    -1.165 -0.1382 -0.4752  0.8689
    13 H(1)   Bbb    -0.0015    -0.826    -0.295    -0.276  0.8297 -0.5346 -0.1604
              Bcc     0.0081     4.320     1.542     1.441  0.5408  0.6988  0.4682
 
              Baa    -0.0052    -2.761    -0.985    -0.921  0.1410  0.9168 -0.3737
    14 H(1)   Bbb    -0.0030    -1.614    -0.576    -0.538  0.9007 -0.2755 -0.3360
              Bcc     0.0082     4.375     1.561     1.459  0.4110  0.2892  0.8646
 
              Baa    -0.0056    -2.973    -1.061    -0.992  0.7431 -0.4838 -0.4623
    15 H(1)   Bbb    -0.0037    -1.978    -0.706    -0.660  0.1370 -0.5662  0.8128
              Bcc     0.0093     4.952     1.767     1.652  0.6550  0.6674  0.3544
 
              Baa    -0.0107    -5.713    -2.038    -1.906  0.6822 -0.3403  0.6471
    16 H(1)   Bbb    -0.0060    -3.190    -1.138    -1.064 -0.6566  0.1043  0.7470
              Bcc     0.0167     8.903     3.177     2.970  0.3217  0.9345  0.1523
 
              Baa    -0.0115    -6.156    -2.196    -2.053  0.5210  0.7965  0.3069
    17 H(1)   Bbb    -0.0067    -3.573    -1.275    -1.192  0.8047 -0.5782  0.1348
              Bcc     0.0182     9.729     3.472     3.245 -0.2848 -0.1767  0.9422
 
              Baa    -0.0387   -20.656    -7.370    -6.890  0.2140  0.9433  0.2538
    18 H(1)   Bbb    -0.0271   -14.468    -5.162    -4.826  0.7714 -0.3226  0.5485
              Bcc     0.0658    35.123    12.533    11.716 -0.5992 -0.0784  0.7967
 

 ---------------------------------------------------------------------------------

   1 Symmetry operations used in ECPInt.
 ECPInt:  NShTT=    2080 NPrTT=    8380 LenC2=    2072 LenP2D=    6819.
 LDataN:  DoStor=T MaxTD1= 5 Len=  102
 Calling FoFJK, ICntrl=      2127 FMM=F ISym2X=0 I1Cent= 0 IOpClX= 1 NMat=1 NMatS=1 NMatT=0.

 GradGradGradGradGradGradGradGradGradGradGradGradGradGradGradGradGradGrad
 FormGI is forming the generalized inverse of G from B-inverse, IUseBI=4.
 Internal  Forces:  Max     0.021784539 RMS     0.005968220
 Step number   1 out of a maximum of   95
 All quantities printed in internal units (Hartrees-Bohrs-Radians)
 Mixed Optimization -- RFO/linear search
 Second derivative matrix not updated -- first step.
 ITU=  0
     Eigenvalues ---    0.00230   0.00360   0.00369   0.00823   0.01555
     Eigenvalues ---    0.01769   0.04204   0.04521   0.04964   0.04966
     Eigenvalues ---    0.05315   0.05540   0.05593   0.05864   0.06099
     Eigenvalues ---    0.06222   0.11063   0.11502   0.13676   0.13890
     Eigenvalues ---    0.14848   0.15365   0.16000   0.16000   0.16000
     Eigenvalues ---    0.16000   0.16000   0.16000   0.16000   0.22001
     Eigenvalues ---    0.22021   0.28328   0.29360   0.29424   0.32221
     Eigenvalues ---    0.32729   0.33061   0.33124   0.33137   0.33170
     Eigenvalues ---    0.33398   0.36261   0.43944   0.44233   0.44297
     Eigenvalues ---    0.46599   0.51617   0.54489
 Linear search not attempted -- first point.
 Iteration  1 RMS(Cart)=  0.07503304 RMS(Int)=  0.00606352
 Iteration  2 RMS(Cart)=  0.00581132 RMS(Int)=  0.00312002
 Iteration  3 RMS(Cart)=  0.00002863 RMS(Int)=  0.00311993
 Iteration  4 RMS(Cart)=  0.00000010 RMS(Int)=  0.00311993
 Variable       Old X    -DE/DX   Delta X   Delta X   Delta X     New X
                                 (Linear)    (Quad)   (Total)
    R1        2.89257   0.00542   0.00000   0.01722   0.01722   2.90979
    R2        2.08358  -0.00102   0.00000  -0.00287  -0.00287   2.08071
    R3        2.08811  -0.00156   0.00000  -0.00442  -0.00442   2.08369
    R4        2.08834  -0.00053   0.00000  -0.00152  -0.00152   2.08682
    R5        2.76976  -0.01573   0.00000  -0.04101  -0.04101   2.72875
    R6        2.89126   0.00354   0.00000   0.01123   0.01123   2.90249
    R7        2.91427   0.01679   0.00000   0.05520   0.05520   2.96947
    R8        1.92876   0.01135   0.00000   0.02451   0.02451   1.95327
    R9        1.92801   0.00734   0.00000   0.01582   0.01582   1.94383
   R10        2.66521  -0.01009   0.00000  -0.02191  -0.02191   2.64331
   R11        2.08944   0.00210   0.00000   0.00596   0.00596   2.09541
   R12        2.09529  -0.00114   0.00000  -0.00326  -0.00326   2.09203
   R13        1.82289   0.00391   0.00000   0.00691   0.00691   1.82980
   R14        2.63462  -0.00893   0.00000  -0.01834  -0.01834   2.61628
   R15        2.10442  -0.00055   0.00000  -0.00161  -0.00161   2.10280
   R16        2.08753  -0.00196   0.00000  -0.00557  -0.00557   2.08196
   R17        1.84968   0.00386   0.00000   0.00718   0.00718   1.85686
    A1        1.92673  -0.00263   0.00000  -0.01510  -0.01545   1.91128
    A2        1.94121  -0.00720   0.00000  -0.04361  -0.04380   1.89741
    A3        1.93055   0.00433   0.00000   0.02832   0.02850   1.95906
    A4        1.88873   0.00373   0.00000   0.01222   0.01146   1.90019
    A5        1.89459   0.00037   0.00000   0.00947   0.00949   1.90408
    A6        1.88048   0.00164   0.00000   0.01010   0.01045   1.89093
    A7        1.97836  -0.00606   0.00000  -0.05749  -0.05702   1.92134
    A8        1.93067   0.00657   0.00000   0.03574   0.03575   1.96642
    A9        1.93433  -0.00469   0.00000  -0.02997  -0.03001   1.90432
   A10        1.86545  -0.00227   0.00000  -0.00730  -0.00755   1.85790
   A11        1.85042   0.00707   0.00000   0.04447   0.04357   1.89398
   A12        1.90079  -0.00045   0.00000   0.01760   0.01755   1.91835
   A13        1.91096   0.01158   0.00000   0.10650   0.09298   2.00394
   A14        1.93746   0.01242   0.00000   0.10996   0.09662   2.03408
   A15        1.88642  -0.00011   0.00000   0.08182   0.06287   1.94929
   A16        1.89635  -0.01607   0.00000  -0.06891  -0.06881   1.82754
   A17        1.88985   0.00635   0.00000   0.03080   0.03079   1.92064
   A18        1.90026   0.00271   0.00000   0.00653   0.00642   1.90668
   A19        1.94474   0.00371   0.00000   0.01119   0.01152   1.95627
   A20        1.94191   0.00595   0.00000   0.02340   0.02302   1.96494
   A21        1.88960  -0.00247   0.00000  -0.00218  -0.00259   1.88701
   A22        1.90522   0.00434   0.00000   0.02397   0.02397   1.92919
   A23        1.93453   0.00321   0.00000   0.01189   0.01192   1.94645
   A24        1.88651  -0.00274   0.00000  -0.01105  -0.01105   1.87546
   A25        1.92971   0.00367   0.00000   0.02482   0.02489   1.95461
   A26        1.94765   0.00042   0.00000   0.00470   0.00471   1.95236
   A27        1.89517  -0.00516   0.00000  -0.03612  -0.03616   1.85902
   A28        1.86945   0.00063   0.00000   0.00641   0.00637   1.87582
   A29        1.81097   0.02178   0.00000   0.12039   0.12039   1.93136
    D1       -1.11458   0.00017   0.00000  -0.01028  -0.00929  -1.12386
    D2        0.98030  -0.00220   0.00000  -0.03342  -0.03332   0.94697
    D3        3.09044  -0.00149   0.00000  -0.00731  -0.00777   3.08267
    D4        3.07173   0.00195   0.00000   0.01298   0.01347   3.08520
    D5       -1.11658  -0.00042   0.00000  -0.01015  -0.01057  -1.12715
    D6        0.99356   0.00029   0.00000   0.01595   0.01499   1.00855
    D7        0.98269   0.00173   0.00000   0.01009   0.01097   0.99366
    D8        3.07757  -0.00063   0.00000  -0.01304  -0.01307   3.06449
    D9       -1.09548   0.00007   0.00000   0.01306   0.01249  -1.08300
   D10        1.38611   0.01203   0.00000   0.20388   0.20861   1.59473
   D11       -0.69521  -0.00293   0.00000  -0.03366  -0.03696  -0.73217
   D12       -0.74550   0.00918   0.00000   0.20023   0.20397  -0.54153
   D13       -2.82682  -0.00579   0.00000  -0.03731  -0.04161  -2.86843
   D14       -2.77130   0.00737   0.00000   0.16222   0.16580  -2.60550
   D15        1.43056  -0.00760   0.00000  -0.07532  -0.07977   1.35079
   D16       -1.15934   0.00098   0.00000   0.02149   0.02152  -1.13782
   D17        3.00906   0.00221   0.00000   0.03033   0.03079   3.03986
   D18        0.95824   0.00012   0.00000   0.01216   0.01246   0.97070
   D19        1.00194  -0.00393   0.00000  -0.03218  -0.03222   0.96973
   D20       -1.11284  -0.00271   0.00000  -0.02335  -0.02294  -1.13578
   D21        3.11952  -0.00479   0.00000  -0.04151  -0.04128   3.07825
   D22        2.99391   0.00291   0.00000   0.02438   0.02367   3.01758
   D23        0.87913   0.00414   0.00000   0.03321   0.03295   0.91207
   D24       -1.17170   0.00205   0.00000   0.01505   0.01461  -1.15708
   D25        2.99447  -0.00059   0.00000   0.06408   0.06398   3.05845
   D26        0.85494  -0.00133   0.00000   0.05803   0.05797   0.91291
   D27       -1.18615  -0.00253   0.00000   0.04297   0.04292  -1.14323
   D28        0.84075   0.00505   0.00000   0.12359   0.12409   0.96484
   D29       -1.29878   0.00431   0.00000   0.11754   0.11808  -1.18070
   D30        2.94332   0.00312   0.00000   0.10248   0.10303   3.04635
   D31       -1.16099   0.00430   0.00000   0.10108   0.10059  -1.06040
   D32        2.98266   0.00356   0.00000   0.09504   0.09459   3.07724
   D33        0.94157   0.00236   0.00000   0.07997   0.07953   1.02111
   D34       -2.95423  -0.00188   0.00000  -0.03037  -0.03060  -2.98483
   D35       -0.87352  -0.00206   0.00000  -0.02958  -0.02962  -0.90314
   D36        1.23712   0.00145   0.00000  -0.00850  -0.00824   1.22888
   D37       -0.63093   0.00052   0.00000  -0.01702  -0.01713  -0.64806
   D38        1.47268  -0.00048   0.00000  -0.01975  -0.01977   1.45291
   D39       -2.75389  -0.00268   0.00000  -0.03169  -0.03156  -2.78546
         Item               Value     Threshold  Converged?
 Maximum Force            0.021785     0.000015     NO 
 RMS     Force            0.005968     0.000010     NO 
 Maximum Displacement     0.286566     0.000060     NO 
 RMS     Displacement     0.076505     0.000040     NO 
 GradGradGradGradGradGradGradGradGradGradGradGradGradGradGradGradGradGrad

                    Distance matrix (angstroms):
                    1          2          3          4          5
     1  C    0.000000
     2  C    1.539796   0.000000
     3  N    2.446052   1.443991   0.000000
     4  C    2.559869   1.535933   2.387533   0.000000
     5  O    2.899838   2.325248   2.630456   1.398777   0.000000
     6  C    2.534643   1.571377   2.448590   2.544091   3.723880
     7  O    3.766216   2.445875   2.822373   2.949524   4.156779
     8  H    1.101063   2.171556   2.734199   2.759423   2.540539
     9  H    1.102639   2.162467   3.386362   2.829550   3.378684
    10  H    1.104296   2.208598   2.718835   3.527522   3.859605
    11  H    2.971229   2.099144   1.033626   2.455708   2.173660
    12  H    2.622121   2.114415   1.028631   3.331118   3.488102
    13  H    3.513663   2.180848   2.681836   1.108841   2.086256
    14  H    2.766793   2.169231   3.351767   1.107057   2.090804
    15  H    3.820736   3.196969   3.468491   1.960699   0.968290
    16  H    2.675730   2.180941   2.735618   3.488327   4.499819
    17  H    2.849219   2.231494   3.416018   2.805882   4.102723
    18  H    3.922768   2.482816   2.338247   2.977510   3.949484
                    6          7          8          9         10
     6  C    0.000000
     7  O    1.384473   0.000000
     8  H    3.496289   4.597286   0.000000
     9  H    2.727716   4.037152   1.792650   0.000000
    10  H    2.817609   4.074497   1.796488   1.789313   0.000000
    11  H    3.339683   3.577467   2.886472   3.921331   3.397079
    12  H    2.870817   3.366742   2.926584   3.651672   2.466069
    13  H    2.718853   2.562737   3.802036   3.797832   4.367584
    14  H    2.822745   3.385154   3.031283   2.586436   3.807031
    15  H    4.466023   4.725486   3.419284   4.176992   4.812368
    16  H    1.112756   2.074206   3.712819   2.952200   2.496012
    17  H    1.101727   1.999425   3.834592   2.591373   3.253173
    18  H    1.960147   0.982605   4.604531   4.425255   4.203306
                   11         12         13         14         15
    11  H    0.000000
    12  H    1.706525   0.000000
    13  H    2.716283   3.692617   0.000000
    14  H    3.517168   4.208202   1.794036   0.000000
    15  H    2.893786   4.367748   2.317272   2.434433   0.000000
    16  H    3.749623   2.744678   3.755529   3.792432   5.334188
    17  H    4.218339   3.881915   3.037558   2.637960   4.752159
    18  H    2.981506   2.898057   2.486481   3.690822   4.505725
                   16         17         18
    16  H    0.000000
    17  H    1.785603   0.000000
    18  H    2.508323   2.821470   0.000000
 Framework group  C1[X(C4H11NO2)]
 Deg. of freedom    48
                         Standard orientation:                         
 ---------------------------------------------------------------------
 Center     Atomic      Atomic             Coordinates (Angstroms)
 Number     Number       Type             X           Y           Z
 ---------------------------------------------------------------------
      1          6           0       -0.578027    1.715602   -0.380217
      2          6           0        0.004245    0.341685   -0.000370
      3          7           0       -0.051267    0.158099    1.430827
      4          6           0       -0.779782   -0.825081   -0.619280
      5          8           0       -2.042645   -0.761305   -0.021211
      6          6           0        1.507346    0.276780   -0.453911
      7          8           0        2.111807   -0.898771   -0.042240
      8          1           0       -1.647480    1.746364   -0.120097
      9          1           0       -0.471497    1.856318   -1.468640
     10          1           0       -0.058105    2.545548    0.130019
     11          1           0       -0.910429   -0.301098    1.776315
     12          1           0        0.204584    0.969726    2.008655
     13          1           0       -0.265481   -1.784037   -0.406144
     14          1           0       -0.822491   -0.694056   -1.717726
     15          1           0       -2.564829   -1.545163   -0.245877
     16          1           0        2.019983    1.173400   -0.039784
     17          1           0        1.609439    0.314160   -1.550260
     18          1           0        1.789190   -1.161168    0.848029
 ---------------------------------------------------------------------
 Rotational constants (GHZ):           3.4956470           2.0119144           1.7476988
   120 basis functions,   219 primitive gaussians,   127 cartesian basis functions
    29 alpha electrons       28 beta electrons
       nuclear repulsion energy       349.2294954088 Hartrees.
 NAtoms=   18 NActive=   18 NUniq=   18 SFac= 1.00D+00 NAtFMM=   60 NAOKFM=F Big=F
 Nuclear repulsion after empirical dispersion term =      349.2184526258 Hartrees.
   1 Symmetry operations used in ECPInt.
 ECPInt:  NShTT=    2080 NPrTT=    8380 LenC2=    2072 LenP2D=    6811.
 LDataN:  DoStor=T MaxTD1= 4 Len=   56
 Initial guess from the checkpoint file:  "36.chk"
 B after Tr=     0.000000    0.000000   -0.000000
         Rot=    0.999689    0.013225    0.019475   -0.008190 Ang=   2.86 deg.
 Initial guess <Sx>= 0.0000 <Sy>= 0.0000 <Sz>= 0.5000 <S**2>= 0.7561 S= 0.5030
 ExpMin= 1.22D-01 ExpMax= 2.27D+03 ExpMxC= 3.41D+02 IAcc=3 IRadAn=         5 AccDes= 0.00D+00
 Harris functional with IExCor= 4639 and IRadAn=       5 diagonalized for initial guess.
 HarFok:  IExCor= 4639 AccDes= 0.00D+00 IRadAn=         5 IDoV= 1 UseB2=F ITyADJ=14
 ICtDFT=  3500011 ScaDFX=  1.000000  1.000000  1.000000  1.000000
 FoFCou: FMM=F IPFlag=           0 FMFlag=      100000 FMFlg1=           0
         NFxFlg=           0 DoJE=T BraDBF=F KetDBF=T FulRan=T
         wScrn=  0.000000 ICntrl=       500 IOpCl=  0 I1Cent=   200000004 NGrid=           0
         NMat0=    1 NMatS0=      1 NMatT0=    0 NMatD0=    1 NMtDS0=    0 NMtDT0=    0
 Petite list used in FoFCou.
     Minimum is close to point  4 DX=  2.39D-02 DF= -4.11D-06 DXR=  1.95D-02 DFR=  3.81D-04 which will be used.
     Accept linear search using points  2 and  3.
     Minimum is close to point  2 DX=  3.53D-02 DF= -1.21D-06 DXR=  3.41D-02 DFR=  1.16D-03 which will be used.
     Accept linear search using points  1 and  2.
     Minimum is close to point  2 DX= -6.10D-02 DF= -2.32D-06 DXR=  6.50D-02 DFR=  4.24D-03 which will be used.
     Accept linear search using points  1 and  2.
     Accept linear search using points  1 and  2.
     Minimum is close to point  2 DX=  1.10D-01 DF= -1.59D-06 DXR=  9.94D-02 DFR=  9.98D-03 which will be used.
     Minimum is close to point  2 DX=  7.72D-02 DF= -7.18D-07 DXR=  7.17D-02 DFR=  5.16D-03 which will be used.
     Accept linear search using points  1 and  2.
     Minimum is close to point  2 DX= -4.14D-02 DF= -2.25D-07 DXR=  3.91D-02 DFR=  1.81D-03 which will be used.
     Accept linear search using points  1 and  2.
     Minimum is close to point  2 DX=  6.05D-02 DF= -3.37D-07 DXR=  5.70D-02 DFR=  3.26D-03 which will be used.
     Minimum is close to point  2 DX=  2.53D-02 DF= -5.80D-08 DXR=  2.46D-02 DFR=  6.07D-04 which will be used.
     Accept linear search using points  1 and  2.
     Minimum is close to point  2 DX= -1.01D-02 DF= -9.20D-09 DXR=  1.02D-02 DFR=  1.04D-04 which will be used.
     Accept linear search using points  1 and  2.
     Minimum is close to point  2 DX= -4.53D-02 DF= -1.85D-07 DXR=  4.75D-02 DFR=  2.26D-03 which will be used.
     Accept linear search using points  1 and  2.
     Minimum is close to point  2 DX= -7.98D-02 DF= -5.79D-07 DXR=  8.67D-02 DFR=  7.58D-03 which will be used.
     Accept linear search using points  1 and  2.
     Minimum is close to point  2 DX= -1.82D-02 DF= -2.48D-08 DXR=  2.07D-02 DFR=  3.42D-04 which will be used.
     Accept linear search using points  1 and  2.
     Minimum is close to point  2 DX= -8.76D-02 DF= -5.81D-07 DXR=  9.60D-02 DFR=  9.31D-03 which will be used.
     Accept linear search using points  1 and  2.
     Minimum is close to point  2 DX=  1.90D-02 DF= -3.44D-07 DXR=  1.86D-02 DFR=  3.46D-04 which will be used.
     Minimum is close to point  2 DX=  2.25D-02 DF= -8.92D-09 DXR=  2.20D-02 DFR=  4.83D-04 which will be used.
 SCF Done:  E(UwB97XD) =  -363.492371635     a.u. after   24 cycles
            Convg  =    0.1186D-06                    88 Fock formations.
              S**2 =  0.7554                  -V/T =  2.0086
 <Sx>= 0.0000 <Sy>= 0.0000 <Sz>= 0.5000 <S**2>= 0.7554 S= 0.5027
 <L.S>=  0.00000000000    
 Annihilation of the first spin contaminant:
 S**2 before annihilation     0.7554,   after     0.7500
   1 Symmetry operations used in ECPInt.
 ECPInt:  NShTT=    2080 NPrTT=    8380 LenC2=    2072 LenP2D=    6811.
 LDataN:  DoStor=T MaxTD1= 5 Len=  102
 Calling FoFJK, ICntrl=      2127 FMM=F ISym2X=0 I1Cent= 0 IOpClX= 1 NMat=1 NMatS=1 NMatT=0.

 GradGradGradGradGradGradGradGradGradGradGradGradGradGradGradGradGradGrad
 Using GEDIIS/GDIIS optimizer.
 FormGI is forming the generalized inverse of G from B-inverse, IUseBI=4.
 Internal  Forces:  Max     0.017280712 RMS     0.003645276
 Step number   2 out of a maximum of   95
 All quantities printed in internal units (Hartrees-Bohrs-Radians)
 Mixed Optimization -- RFO/linear search
 Trust test= 1.08D+00 RLast= 5.22D-01 DXMaxT set to 5.05D-01
 ITU=  1  0
 Use linear search instead of GDIIS.
     Eigenvalues ---    0.00246   0.00360   0.00369   0.00864   0.01484
     Eigenvalues ---    0.01585   0.02498   0.04381   0.04865   0.05390
     Eigenvalues ---    0.05403   0.05528   0.05698   0.05817   0.05876
     Eigenvalues ---    0.06117   0.10671   0.11596   0.13233   0.13571
     Eigenvalues ---    0.14710   0.15117   0.15580   0.16000   0.16000
     Eigenvalues ---    0.16000   0.16000   0.16000   0.17011   0.21422
     Eigenvalues ---    0.24906   0.27227   0.29367   0.29552   0.32248
     Eigenvalues ---    0.32722   0.33092   0.33123   0.33151   0.33172
     Eigenvalues ---    0.33393   0.35504   0.44061   0.44277   0.45398
     Eigenvalues ---    0.46561   0.54188   0.55251
 Quartic linear search produced a step of  0.50120.
 Iteration  1 RMS(Cart)=  0.08000574 RMS(Int)=  0.00937901
 Iteration  2 RMS(Cart)=  0.00942050 RMS(Int)=  0.00574562
 Iteration  3 RMS(Cart)=  0.00010007 RMS(Int)=  0.00574515
 Iteration  4 RMS(Cart)=  0.00000031 RMS(Int)=  0.00574515
 Variable       Old X    -DE/DX   Delta X   Delta X   Delta X     New X
                                 (Linear)    (Quad)   (Total)
    R1        2.90979   0.00617   0.00863   0.02819   0.03682   2.94661
    R2        2.08071  -0.00037  -0.00144  -0.00154  -0.00298   2.07773
    R3        2.08369  -0.00000  -0.00222  -0.00007  -0.00229   2.08139
    R4        2.08682  -0.00108  -0.00076  -0.00438  -0.00514   2.08168
    R5        2.72875  -0.01728  -0.02055  -0.06483  -0.08538   2.64336
    R6        2.90249   0.00106   0.00563   0.00490   0.01053   2.91303
    R7        2.96947   0.00624   0.02766   0.02968   0.05734   3.02681
    R8        1.95327   0.00035   0.01228   0.00168   0.01397   1.96724
    R9        1.94383  -0.00030   0.00793  -0.00051   0.00742   1.95125
   R10        2.64331   0.00378  -0.01098   0.01108   0.00010   2.64340
   R11        2.09541  -0.00156   0.00299  -0.00626  -0.00327   2.09214
   R12        2.09203  -0.00071  -0.00163  -0.00295  -0.00458   2.08745
   R13        1.82980   0.00021   0.00346   0.00074   0.00420   1.83401
   R14        2.61628  -0.00178  -0.00919  -0.00569  -0.01488   2.60140
   R15        2.10280  -0.00194  -0.00081  -0.00810  -0.00891   2.09390
   R16        2.08196  -0.00093  -0.00279  -0.00383  -0.00662   2.07534
   R17        1.85686  -0.01163   0.00360  -0.03036  -0.02676   1.83009
    A1        1.91128  -0.00058  -0.00774  -0.00197  -0.01012   1.90116
    A2        1.89741  -0.00303  -0.02195  -0.02558  -0.04792   1.84950
    A3        1.95906  -0.00066   0.01429  -0.00610   0.00823   1.96728
    A4        1.90019   0.00153   0.00575   0.01177   0.01658   1.91677
    A5        1.90408   0.00132   0.00476   0.01501   0.01976   1.92384
    A6        1.89093   0.00151   0.00524   0.00742   0.01275   1.90368
    A7        1.92134  -0.00258  -0.02858  -0.04068  -0.06811   1.85323
    A8        1.96642   0.00131   0.01792   0.00055   0.01892   1.98533
    A9        1.90432  -0.00304  -0.01504  -0.03585  -0.05026   1.85405
   A10        1.85790  -0.00025  -0.00378   0.01237   0.00667   1.86458
   A11        1.89398   0.00297   0.02183   0.03438   0.05301   1.94699
   A12        1.91835   0.00178   0.00880   0.03210   0.03998   1.95833
   A13        2.00394  -0.00053   0.04660   0.02405   0.04187   2.04580
   A14        2.03408   0.00523   0.04843   0.06984   0.08978   2.12386
   A15        1.94929   0.00273   0.03151   0.07354   0.07329   2.02258
   A16        1.82754   0.00370  -0.03449   0.02585  -0.00857   1.81897
   A17        1.92064  -0.00124   0.01543  -0.01282   0.00259   1.92323
   A18        1.90668  -0.00195   0.00322  -0.01465  -0.01146   1.89522
   A19        1.95627  -0.00117   0.00578  -0.00510   0.00083   1.95710
   A20        1.96494   0.00009   0.01154   0.01235   0.02367   1.98861
   A21        1.88701   0.00051  -0.00130  -0.00599  -0.00756   1.87945
   A22        1.92919   0.00265   0.01201   0.02060   0.03262   1.96181
   A23        1.94645   0.00718   0.00597   0.04514   0.05049   1.99693
   A24        1.87546  -0.00128  -0.00554   0.00286  -0.00470   1.87076
   A25        1.95461  -0.00922   0.01248  -0.10031  -0.08778   1.86683
   A26        1.95236  -0.00026   0.00236   0.03465   0.03579   1.98815
   A27        1.85902   0.00036  -0.01812   0.00090  -0.01629   1.84273
   A28        1.87582   0.00295   0.00319   0.01455   0.01676   1.89258
   A29        1.93136   0.00561   0.06034   0.04119   0.10153   2.03289
    D1       -1.12386   0.00009  -0.00465  -0.00201  -0.00481  -1.12867
    D2        0.94697  -0.00112  -0.01670  -0.01355  -0.03010   0.91687
    D3        3.08267  -0.00013  -0.00389   0.00221  -0.00290   3.07977
    D4        3.08520   0.00037   0.00675   0.00001   0.00807   3.09327
    D5       -1.12715  -0.00085  -0.00530  -0.01152  -0.01722  -1.14437
    D6        1.00855   0.00014   0.00751   0.00424   0.00997   1.01852
    D7        0.99366   0.00092   0.00550   0.01160   0.01872   1.01237
    D8        3.06449  -0.00029  -0.00655   0.00006  -0.00658   3.05792
    D9       -1.08300   0.00070   0.00626   0.01582   0.02062  -1.06238
   D10        1.59473   0.00648   0.10456   0.10893   0.21866   1.81339
   D11       -0.73217  -0.00301  -0.01853  -0.11105  -0.13236  -0.86453
   D12       -0.54153   0.00655   0.10223   0.12426   0.23030  -0.31123
   D13       -2.86843  -0.00294  -0.02085  -0.09572  -0.12072  -2.98916
   D14       -2.60550   0.00306   0.08310   0.06220   0.14825  -2.45724
   D15        1.35079  -0.00643  -0.03998  -0.15778  -0.20277   1.14802
   D16       -1.13782  -0.00064   0.01078  -0.05691  -0.04587  -1.18370
   D17        3.03986  -0.00076   0.01543  -0.05917  -0.04325   2.99661
   D18        0.97070   0.00054   0.00624  -0.03535  -0.02871   0.94198
   D19        0.96973  -0.00322  -0.01615  -0.09864  -0.11448   0.85525
   D20       -1.13578  -0.00333  -0.01150  -0.10089  -0.11185  -1.24763
   D21        3.07825  -0.00204  -0.02069  -0.07708  -0.09732   2.98093
   D22        3.01758   0.00108   0.01187  -0.03433  -0.02340   2.99418
   D23        0.91207   0.00096   0.01651  -0.03658  -0.02077   0.89131
   D24       -1.15708   0.00226   0.00732  -0.01277  -0.00624  -1.16332
   D25        3.05845   0.00127   0.03206   0.03803   0.07025   3.12871
   D26        0.91291  -0.00206   0.02905  -0.03551  -0.00648   0.90643
   D27       -1.14323   0.00038   0.02151   0.00201   0.02278  -1.12045
   D28        0.96484   0.00441   0.06219   0.08788   0.15182   1.11666
   D29       -1.18070   0.00108   0.05918   0.01434   0.07509  -1.10561
   D30        3.04635   0.00353   0.05164   0.05186   0.10434  -3.13249
   D31       -1.06040   0.00205   0.05042   0.03594   0.08553  -0.97487
   D32        3.07724  -0.00128   0.04741  -0.03760   0.00880   3.08604
   D33        1.02111   0.00116   0.03986  -0.00009   0.03806   1.05916
   D34       -2.98483  -0.00086  -0.01534  -0.02606  -0.04155  -3.02638
   D35       -0.90314  -0.00070  -0.01485  -0.02833  -0.04323  -0.94637
   D36        1.22888  -0.00084  -0.00413  -0.03084  -0.03476   1.19412
   D37       -0.64806  -0.00702  -0.00859  -0.21558  -0.22513  -0.87319
   D38        1.45291  -0.00384  -0.00991  -0.15650  -0.16542   1.28749
   D39       -2.78546  -0.00021  -0.01582  -0.11975  -0.13560  -2.92106
         Item               Value     Threshold  Converged?
 Maximum Force            0.017281     0.000015     NO 
 RMS     Force            0.003645     0.000010     NO 
 Maximum Displacement     0.530244     0.000060     NO 
 RMS     Displacement     0.085192     0.000040     NO 
 GradGradGradGradGradGradGradGradGradGradGradGradGradGradGradGradGradGrad

                    Distance matrix (angstroms):
                    1          2          3          4          5
     1  C    0.000000
     2  C    1.559280   0.000000
     3  N    2.367226   1.398808   0.000000
     4  C    2.596885   1.541506   2.362562   0.000000
     5  O    2.954710   2.322131   2.548350   1.398827   0.000000
     6  C    2.528420   1.601720   2.483633   2.609196   3.770671
     7  O    3.789424   2.506667   3.006721   3.029939   4.243108
     8  H    1.099488   2.180023   2.647148   2.778948   2.596487
     9  H    1.101427   2.142301   3.292397   2.835877   3.434189
    10  H    1.101575   2.229681   2.651232   3.559427   3.900806
    11  H    3.016501   2.091014   1.041017   2.412840   2.098621
    12  H    2.636468   2.130791   1.032556   3.348463   3.471950
    13  H    3.544364   2.186351   2.722421   1.107110   2.085516
    14  H    2.781014   2.163803   3.307610   1.104633   2.104968
    15  H    3.869424   3.211365   3.425564   1.983287   0.970514
    16  H    2.645866   2.200481   2.746997   3.533111   4.518355
    17  H    2.745079   2.190415   3.385745   2.818789   4.097988
    18  H    4.121640   2.712440   2.740741   3.231477   4.234965
                    6          7          8          9         10
     6  C    0.000000
     7  O    1.376600   0.000000
     8  H    3.496595   4.644780   0.000000
     9  H    2.667129   3.964516   1.800933   0.000000
    10  H    2.791502   4.086061   1.805516   1.794309   0.000000
    11  H    3.358810   3.687305   2.951036   3.933613   3.455779
    12  H    2.883804   3.483985   2.953552   3.649184   2.480890
    13  H    2.781706   2.657963   3.827737   3.780395   4.394896
    14  H    2.882598   3.422192   3.014656   2.577689   3.820948
    15  H    4.545233   4.853097   3.453170   4.226874   4.850301
    16  H    1.108043   2.087903   3.686543   2.889230   2.444164
    17  H    1.098223   1.978195   3.728516   2.419802   3.144166
    18  H    2.005398   0.968444   4.861314   4.516774   4.363104
                   11         12         13         14         15
    11  H    0.000000
    12  H    1.757395   0.000000
    13  H    2.683619   3.726082   0.000000
    14  H    3.472453   4.216091   1.785751   0.000000
    15  H    2.834554   4.368229   2.357698   2.464296   0.000000
    16  H    3.761339   2.735658   3.804747   3.837645   5.380754
    17  H    4.183757   3.853146   3.073052   2.651147   4.785579
    18  H    3.299619   3.165537   2.726263   3.878163   4.825841
                   16         17         18
    16  H    0.000000
    17  H    1.789849   0.000000
    18  H    2.526431   2.843276   0.000000
 Framework group  C1[X(C4H11NO2)]
 Deg. of freedom    48
                         Standard orientation:                         
 ---------------------------------------------------------------------
 Center     Atomic      Atomic             Coordinates (Angstroms)
 Number     Number       Type             X           Y           Z
 ---------------------------------------------------------------------
      1          6           0       -0.514689    1.716699   -0.454488
      2          6           0       -0.007172    0.315555    0.004398
      3          7           0       -0.205655    0.262984    1.388055
      4          6           0       -0.795870   -0.860545   -0.604688
      5          8           0       -2.064035   -0.761884   -0.022674
      6          6           0        1.549287    0.258731   -0.369385
      7          8           0        2.176292   -0.915440   -0.018365
      8          1           0       -1.597738    1.779807   -0.275899
      9          1           0       -0.310390    1.773937   -1.535287
     10          1           0        0.004105    2.544650    0.054253
     11          1           0       -1.010059   -0.300902    1.732558
     12          1           0        0.111612    1.023062    2.010787
     13          1           0       -0.299245   -1.819915   -0.362474
     14          1           0       -0.797495   -0.751685   -1.703943
     15          1           0       -2.634242   -1.514021   -0.248621
     16          1           0        2.021894    1.165355    0.057738
     17          1           0        1.618120    0.314069   -1.464051
     18          1           0        2.045631   -1.219295    0.891846
 ---------------------------------------------------------------------
 Rotational constants (GHZ):           3.5068336           1.9614634           1.6871753
   120 basis functions,   219 primitive gaussians,   127 cartesian basis functions
    29 alpha electrons       28 beta electrons
       nuclear repulsion energy       347.4992730349 Hartrees.
 NAtoms=   18 NActive=   18 NUniq=   18 SFac= 1.00D+00 NAtFMM=   60 NAOKFM=F Big=F
 Nuclear repulsion after empirical dispersion term =      347.4882708718 Hartrees.
   1 Symmetry operations used in ECPInt.
 ECPInt:  NShTT=    2080 NPrTT=    8380 LenC2=    2070 LenP2D=    6793.
 LDataN:  DoStor=T MaxTD1= 4 Len=   56
 Initial guess from the checkpoint file:  "36.chk"
 B after Tr=    -0.000000   -0.000000    0.000000
         Rot=    0.999753    0.016321    0.014775    0.003178 Ang=   2.55 deg.
 Initial guess <Sx>= 0.0000 <Sy>= 0.0000 <Sz>= 0.5000 <S**2>= 0.7553 S= 0.5026
 ExpMin= 1.22D-01 ExpMax= 2.27D+03 ExpMxC= 3.41D+02 IAcc=3 IRadAn=         5 AccDes= 0.00D+00
 Harris functional with IExCor= 4639 and IRadAn=       5 diagonalized for initial guess.
 HarFok:  IExCor= 4639 AccDes= 0.00D+00 IRadAn=         5 IDoV= 1 UseB2=F ITyADJ=14
 ICtDFT=  3500011 ScaDFX=  1.000000  1.000000  1.000000  1.000000
 FoFCou: FMM=F IPFlag=           0 FMFlag=      100000 FMFlg1=           0
         NFxFlg=           0 DoJE=T BraDBF=F KetDBF=T FulRan=T
         wScrn=  0.000000 ICntrl=       500 IOpCl=  0 I1Cent=   200000004 NGrid=           0
         NMat0=    1 NMatS0=      1 NMatT0=    0 NMatD0=    1 NMtDS0=    0 NMtDT0=    0
 Petite list used in FoFCou.
     Accept linear search using points  3 and  4.
     Minimum is close to point  4 DX= -7.57D-02 DF= -1.63D-05 DXR=  6.73D-02 DFR=  1.21D-03 which will be used.
     Minimum is close to point  2 DX=  5.21D-02 DF= -3.24D-06 DXR=  4.95D-02 DFR=  2.46D-03 which will be used.
     Accept linear search using points  1 and  2.
     Minimum is close to point  2 DX= -3.90D-03 DF= -1.02D-08 DXR=  4.35D-03 DFR=  1.50D-05 which will be used.
     Accept linear search using points  1 and  2.
     Minimum is close to point  2 DX= -5.07D-02 DF= -1.16D-06 DXR=  5.34D-02 DFR=  2.86D-03 which will be used.
     Accept linear search using points  1 and  2.
     Accept linear search using points  1 and  2.
     Accept linear search using points  1 and  2.
     Accept linear search using points  1 and  2.
     Accept linear search using points  1 and  2.
     Accept linear search using points  1 and  2.
     Minimum is close to point  2 DX= -1.41D-02 DF= -1.41D-07 DXR=  1.43D-02 DFR=  2.07D-04 which will be used.
     Minimum is close to point  2 DX=  1.25D-03 DF= -1.14D-11 DXR=  1.25D-03 DFR=  1.55D-06 which will be used.
 SCF Done:  E(UwB97XD) =  -363.501646216     a.u. after   18 cycles
            Convg  =    0.2952D-08                    80 Fock formations.
              S**2 =  0.7550                  -V/T =  2.0086
 <Sx>= 0.0000 <Sy>= 0.0000 <Sz>= 0.5000 <S**2>= 0.7550 S= 0.5025
 <L.S>=  0.00000000000    
 Annihilation of the first spin contaminant:
 S**2 before annihilation     0.7550,   after     0.7500
   1 Symmetry operations used in ECPInt.
 ECPInt:  NShTT=    2080 NPrTT=    8380 LenC2=    2070 LenP2D=    6793.
 LDataN:  DoStor=T MaxTD1= 5 Len=  102
 Calling FoFJK, ICntrl=      2127 FMM=F ISym2X=0 I1Cent= 0 IOpClX= 1 NMat=1 NMatS=1 NMatT=0.

 GradGradGradGradGradGradGradGradGradGradGradGradGradGradGradGradGradGrad
 Using GEDIIS/GDIIS optimizer.
 FormGI is forming the generalized inverse of G from B-inverse, IUseBI=4.
 Internal  Forces:  Max     0.009896226 RMS     0.002718588
 Step number   3 out of a maximum of   95
 All quantities printed in internal units (Hartrees-Bohrs-Radians)
 Mixed Optimization -- RFO/linear search
 Trust test= 8.30D-01 RLast= 6.80D-01 DXMaxT set to 8.49D-01
 ITU=  1  1  0
 Use linear search instead of GDIIS.
     Eigenvalues ---    0.00243   0.00360   0.00376   0.00852   0.01352
     Eigenvalues ---    0.01557   0.02041   0.04243   0.04727   0.05436
     Eigenvalues ---    0.05564   0.05741   0.06047   0.06103   0.06154
     Eigenvalues ---    0.06202   0.10552   0.11551   0.13372   0.13889
     Eigenvalues ---    0.14726   0.15656   0.15839   0.15973   0.16000
     Eigenvalues ---    0.16000   0.16000   0.16121   0.17904   0.22099
     Eigenvalues ---    0.24966   0.27039   0.29318   0.29929   0.32231
     Eigenvalues ---    0.32731   0.33103   0.33127   0.33165   0.33229
     Eigenvalues ---    0.33396   0.35340   0.44223   0.44326   0.45654
     Eigenvalues ---    0.46862   0.53629   0.54676
 Quartic linear search produced a step of  0.09319.
 Iteration  1 RMS(Cart)=  0.05672645 RMS(Int)=  0.00298379
 Iteration  2 RMS(Cart)=  0.00298615 RMS(Int)=  0.00139261
 Iteration  3 RMS(Cart)=  0.00001562 RMS(Int)=  0.00139253
 Iteration  4 RMS(Cart)=  0.00000001 RMS(Int)=  0.00139253
 Variable       Old X    -DE/DX   Delta X   Delta X   Delta X     New X
                                 (Linear)    (Quad)   (Total)
    R1        2.94661   0.00565   0.00343   0.01855   0.02198   2.96859
    R2        2.07773   0.00023  -0.00028   0.00056   0.00028   2.07801
    R3        2.08139   0.00116  -0.00021   0.00310   0.00289   2.08428
    R4        2.08168  -0.00017  -0.00048  -0.00031  -0.00079   2.08089
    R5        2.64336   0.00533  -0.00796   0.01611   0.00815   2.65152
    R6        2.91303  -0.00289   0.00098  -0.00917  -0.00819   2.90484
    R7        3.02681  -0.00451   0.00534  -0.01325  -0.00790   3.01891
    R8        1.96724  -0.00694   0.00130  -0.01373  -0.01243   1.95481
    R9        1.95125  -0.00577   0.00069  -0.01164  -0.01095   1.94030
   R10        2.64340   0.00215   0.00001   0.00212   0.00213   2.64553
   R11        2.09214  -0.00060  -0.00030  -0.00080  -0.00111   2.09103
   R12        2.08745   0.00064  -0.00043   0.00189   0.00147   2.08892
   R13        1.83401  -0.00241   0.00039  -0.00390  -0.00351   1.83049
   R14        2.60140  -0.00543  -0.00139  -0.01293  -0.01432   2.58708
   R15        2.09390  -0.00006  -0.00083   0.00029  -0.00054   2.09336
   R16        2.07534   0.00174  -0.00062   0.00504   0.00442   2.07976
   R17        1.83009  -0.00119  -0.00249   0.00063  -0.00187   1.82823
    A1        1.90116   0.00036  -0.00094   0.00020  -0.00083   1.90034
    A2        1.84950   0.00396  -0.00447   0.02506   0.02059   1.87009
    A3        1.96728  -0.00309   0.00077  -0.01778  -0.01701   1.95028
    A4        1.91677  -0.00145   0.00155  -0.00483  -0.00339   1.91339
    A5        1.92384   0.00084   0.00184  -0.00009   0.00168   1.92553
    A6        1.90368  -0.00054   0.00119  -0.00170  -0.00042   1.90326
    A7        1.85323   0.00193  -0.00635   0.02729   0.02117   1.87440
    A8        1.98533  -0.00263   0.00176  -0.02012  -0.01883   1.96650
    A9        1.85405   0.00054  -0.00468  -0.00817  -0.01316   1.84090
   A10        1.86458   0.00209   0.00062   0.02419   0.02480   1.88938
   A11        1.94699  -0.00164   0.00494  -0.00441   0.00045   1.94744
   A12        1.95833  -0.00029   0.00373  -0.01690  -0.01364   1.94469
   A13        2.04580  -0.00086   0.00390   0.01896   0.01560   2.06140
   A14        2.12386  -0.00110   0.00837   0.01379   0.01492   2.13879
   A15        2.02258   0.00265   0.00683   0.03027   0.02959   2.05217
   A16        1.81897   0.00789  -0.00080   0.02834   0.02757   1.84654
   A17        1.92323  -0.00390   0.00024  -0.01877  -0.01852   1.90472
   A18        1.89522  -0.00097  -0.00107   0.00179   0.00070   1.89592
   A19        1.95710  -0.00158   0.00008  -0.00272  -0.00252   1.95458
   A20        1.98861  -0.00305   0.00221  -0.01250  -0.01040   1.97821
   A21        1.87945   0.00151  -0.00070   0.00350   0.00273   1.88218
   A22        1.96181  -0.00304   0.00304  -0.01822  -0.01518   1.94663
   A23        1.99693  -0.00240   0.00470  -0.01466  -0.01008   1.98685
   A24        1.87076   0.00205  -0.00044   0.01026   0.00970   1.88046
   A25        1.86683  -0.00471  -0.00818  -0.02739  -0.03558   1.83125
   A26        1.98815   0.00018   0.00333   0.00101   0.00421   1.99236
   A27        1.84273   0.00373  -0.00152   0.01962   0.01787   1.86060
   A28        1.89258   0.00092   0.00156   0.01020   0.01164   1.90423
   A29        2.03289  -0.00990   0.00946  -0.05303  -0.04356   1.98933
    D1       -1.12867  -0.00057  -0.00045  -0.00747  -0.00776  -1.13643
    D2        0.91687   0.00178  -0.00280   0.02860   0.02568   0.94255
    D3        3.07977   0.00010  -0.00027  -0.01181  -0.01208   3.06769
    D4        3.09327  -0.00120   0.00075  -0.01548  -0.01464   3.07863
    D5       -1.14437   0.00116  -0.00161   0.02059   0.01880  -1.12557
    D6        1.01852  -0.00052   0.00093  -0.01982  -0.01896   0.99956
    D7        1.01237  -0.00134   0.00174  -0.01945  -0.01752   0.99486
    D8        3.05792   0.00102  -0.00061   0.01662   0.01592   3.07384
    D9       -1.06238  -0.00066   0.00192  -0.02379  -0.02183  -1.08421
   D10        1.81339   0.00036   0.02038   0.08100   0.10221   1.91560
   D11       -0.86453  -0.00199  -0.01233  -0.07802  -0.09063  -0.95517
   D12       -0.31123   0.00130   0.02146   0.07717   0.09902  -0.21222
   D13       -2.98916  -0.00105  -0.01125  -0.08184  -0.09383  -3.08299
   D14       -2.45724   0.00127   0.01382   0.08471   0.09899  -2.35826
   D15        1.14802  -0.00108  -0.01890  -0.07430  -0.09386   1.05416
   D16       -1.18370  -0.00181  -0.00428  -0.08108  -0.08528  -1.26897
   D17        2.99661  -0.00249  -0.00403  -0.08460  -0.08842   2.90819
   D18        0.94198  -0.00151  -0.00268  -0.07914  -0.08164   0.86035
   D19        0.85525   0.00044  -0.01067  -0.04323  -0.05398   0.80127
   D20       -1.24763  -0.00024  -0.01042  -0.04675  -0.05713  -1.30475
   D21        2.98093   0.00074  -0.00907  -0.04129  -0.05034   2.93059
   D22        2.99418  -0.00037  -0.00218  -0.04281  -0.04521   2.94898
   D23        0.89131  -0.00105  -0.00194  -0.04633  -0.04836   0.84295
   D24       -1.16332  -0.00007  -0.00058  -0.04087  -0.04157  -1.20489
   D25        3.12871   0.00228   0.00655   0.12204   0.12851  -3.02597
   D26        0.90643   0.00216  -0.00060   0.12321   0.12259   1.02902
   D27       -1.12045   0.00242   0.00212   0.11991   0.12207  -0.99838
   D28        1.11666   0.00051   0.01415   0.09653   0.11071   1.22737
   D29       -1.10561   0.00039   0.00700   0.09769   0.10479  -1.00083
   D30       -3.13249   0.00065   0.00972   0.09439   0.10427  -3.02822
   D31       -0.97487  -0.00083   0.00797   0.08026   0.08809  -0.88678
   D32        3.08604  -0.00095   0.00082   0.08142   0.08216  -3.11498
   D33        1.05916  -0.00069   0.00355   0.07812   0.08165   1.14081
   D34       -3.02638   0.00043  -0.00387  -0.01798  -0.02192  -3.04831
   D35       -0.94637  -0.00026  -0.00403  -0.02465  -0.02866  -0.97503
   D36        1.19412  -0.00184  -0.00324  -0.03170  -0.03488   1.15924
   D37       -0.87319  -0.00561  -0.02098  -0.14694  -0.16809  -1.04128
   D38        1.28749  -0.00463  -0.01542  -0.14420  -0.15963   1.12786
   D39       -2.92106  -0.00095  -0.01264  -0.11813  -0.13058  -3.05164
         Item               Value     Threshold  Converged?
 Maximum Force            0.009896     0.000015     NO 
 RMS     Force            0.002719     0.000010     NO 
 Maximum Displacement     0.183420     0.000060     NO 
 RMS     Displacement     0.056756     0.000040     NO 
 GradGradGradGradGradGradGradGradGradGradGradGradGradGradGradGradGradGrad

                    Distance matrix (angstroms):
                    1          2          3          4          5
     1  C    0.000000
     2  C    1.570912   0.000000
     3  N    2.398841   1.403122   0.000000
     4  C    2.586939   1.537173   2.383859   0.000000
     5  O    3.020709   2.344055   2.579072   1.399956   0.000000
     6  C    2.521738   1.597538   2.483901   2.590152   3.770666
     7  O    3.772453   2.488813   3.046739   2.950865   4.175510
     8  H    1.099635   2.189744   2.684705   2.776049   2.682566
     9  H    1.102955   2.169331   3.328996   2.833426   3.507616
    10  H    1.101159   2.227533   2.664409   3.544663   3.958559
    11  H    3.094300   2.099177   1.034441   2.446568   2.159143
    12  H    2.716414   2.138450   1.026760   3.367730   3.534658
    13  H    3.524102   2.168467   2.758334   1.106525   2.084302
    14  H    2.728892   2.161104   3.321193   1.105410   2.099563
    15  H    3.914154   3.221780   3.469671   1.973234   0.968656
    16  H    2.701951   2.204054   2.708922   3.523090   4.534482
    17  H    2.639949   2.160761   3.366947   2.806273   4.095468
    18  H    4.138672   2.722055   2.809156   3.218426   4.227691
                    6          7          8          9         10
     6  C    0.000000
     7  O    1.369022   0.000000
     8  H    3.490679   4.627197   0.000000
     9  H    2.668336   3.922032   1.800156   0.000000
    10  H    2.779985   4.094829   1.806353   1.794946   0.000000
    11  H    3.331841   3.657548   3.064882   4.010858   3.512282
    12  H    2.855307   3.501355   3.058046   3.719311   2.550119
    13  H    2.720827   2.525953   3.831210   3.748169   4.368946
    14  H    2.883342   3.351241   2.953923   2.532986   3.772052
    15  H    4.523430   4.752302   3.525667   4.267263   4.894677
    16  H    1.107760   2.083854   3.732625   2.974166   2.496150
    17  H    1.100563   1.986598   3.633480   2.312305   3.025785
    18  H    1.971490   0.967457   4.893994   4.508312   4.385584
                   11         12         13         14         15
    11  H    0.000000
    12  H    1.762902   0.000000
    13  H    2.717960   3.735050   0.000000
    14  H    3.504143   4.229502   1.787688   0.000000
    15  H    2.918979   4.440965   2.352691   2.433460   0.000000
    16  H    3.700694   2.662541   3.736660   3.860761   5.376795
    17  H    4.161766   3.800759   3.043302   2.655452   4.763014
    18  H    3.299240   3.183745   2.679154   3.871179   4.802168
                   16         17         18
    16  H    0.000000
    17  H    1.799001   0.000000
    18  H    2.438354   2.839623   0.000000
 Framework group  C1[X(C4H11NO2)]
 Deg. of freedom    48
                         Standard orientation:                         
 ---------------------------------------------------------------------
 Center     Atomic      Atomic             Coordinates (Angstroms)
 Number     Number       Type             X           Y           Z
 ---------------------------------------------------------------------
      1          6           0       -0.476099    1.732136   -0.508253
      2          6           0       -0.004686    0.332250    0.026399
[...]
 -0.1172342,0.1430862,-0.2047293,0.0095404,0.0197746,0.0237015,-0.01712
 52,0.0510285,0.0628703,0.0512786,0.0207067,0.0465908,0.0958923,0.01336
 05,0.0272705,0.0351673,0.0431543,-0.0679472,0.0062975,0.0048854,0.0103
 634,0.0245181,-0.0611851,-0.0352935,-0.0217051,0.051787,-0.000033,-0.0
 578437,-0.0367681,0.0476403,0.315449,-0.0068619,-0.04599,0.1205028,0.2
 409672,-0.1499806,-0.0346308,-0.0096324,0.3152979,0.2731368,-0.0053634
 ,0.0355407,-0.0919393,0.2762023,0.122951,-0.0234661,0.0862089,0.330776
 1,0.0424565,0.0390906,0.1146356,-0.0072577,0.0262286,0.0136205,0.02923
 79,0.035165,-0.01906,-0.0384868,0.0509499,-0.0468148,0.0052017,-0.0434
 209,-0.0257917,-0.0091974,0.0000633,0.0166555,0.3440193,-0.0017014,-0.
 0357511,0.0532887,0.4392638,-0.0054237,-0.0350985,-0.0177117,0.2634855
 ,-0.0578411,0.0369401,0.0679574,-0.0270646,0.0113668,-0.0007293,0.0287
 096,-0.0930612,-0.0311217,-0.014662,-0.0127456,0.0133932,-0.0130307,0.
 0697699,0.020077,-0.0617419,0.0445117,0.0447623,0.4421379,-0.0772833,0
 .0257779,-0.0906217,0.3819888,-0.0578597,0.1173441,-0.1153134,0.194018
 4\Polar=61.4227492,-3.5255207,63.3317678,-5.1079734,3.6561263,60.02250
 59\Quadrupole=-1.3903169,1.6132623,-0.2229454,1.4455156,2.559235,0.689
 3166\PG=C01 [X(C4H11N1O2)]\NImag=0\\0.58793360,0.01446614,0.50542814,-
 0.00564997,0.04210722,0.59031750,-0.06338513,-0.00603793,-0.01687857,0
 .22932097,0.00542178,-0.17996515,0.03660842,0.08555985,0.51923650,-0.0
 2278065,0.04698235,-0.10006434,0.05137758,-0.03849186,0.61545969,-0.00
 029545,0.00287224,0.00193676,-0.05272434,-0.02495253,0.04225552,0.1448
 6585,-0.00437362,0.00044790,0.04256350,-0.02356679,-0.12339318,-0.0065
 9875,0.20772948,0.77800523,0.00679962,0.00644939,-0.02925395,0.0113770
 5,0.00377310,-0.36199597,-0.06871282,0.05029263,0.77361694,0.00319328,
 0.00081890,0.00708512,-0.09280932,-0.04157443,-0.04244847,0.00334259,0
 .00584597,0.00012522,0.55502742,-0.01243091,-0.01905503,-0.00540985,-0
 .04150804,-0.11543134,-0.03381702,-0.00263844,-0.00410697,-0.01655194,
 -0.05213196,0.51907805,0.01043518,0.00800907,0.00992001,-0.01605657,-0
 .02065610,-0.10193894,-0.02239084,-0.03431639,-0.03281957,-0.03079013,
 0.00956763,0.61533476,-0.00176955,-0.00110761,-0.00202077,0.00080314,-
 0.01855010,0.01424322,0.00146782,-0.00221818,-0.00192127,-0.06856627,-
 0.01381955,-0.00167389,0.10794714,-0.00386588,-0.00294527,-0.00568616,
 -0.01017835,-0.04804259,0.02316211,-0.00198872,-0.00606290,-0.00187444
 ,-0.00642738,-0.19725742,0.11199127,0.15292523,0.64533629,-0.00127821,
 -0.00190045,-0.00077084,-0.00070696,-0.00298115,0.01118669,-0.00144519
 ,-0.00703615,-0.00200523,-0.00614207,0.06701212,-0.18766352,0.07521862
 ,0.04114894,0.34702123,-0.01657300,0.01135156,0.00358848,0.03843749,-0
 .02689573,-0.04541671,-0.01976862,0.00212137,0.02911504,-0.03252184,-0
 .00464558,-0.00443288,-0.00076105,0.00861186,0.00077887,0.24726151,0.0
 2193367,-0.01751484,-0.00137221,-0.04295629,-0.01573020,0.02052043,0.0
 0228792,-0.00275491,-0.00840923,-0.01146190,0.00427665,-0.00042433,0.0
 0459634,-0.00651350,-0.00056414,0.09150665,0.64440784,0.00076401,0.002
 71566,-0.00261223,-0.02066418,0.00687231,-0.00627834,0.01974752,-0.007
 21080,-0.02737609,-0.00275807,-0.00504106,0.00225529,0.00046694,0.0024
 6505,-0.00356086,0.10920714,-0.02445447,0.65432901,-0.00373113,0.00157
 543,0.00006861,-0.01155896,0.02180107,0.00116176,0.00207378,0.00066747
 ,-0.00062746,0.00232288,0.00234880,0.00144937,-0.00764361,0.00083391,0
 .00034017,-0.05633522,0.04222385,-0.01425160,0.09066963,0.00083905,0.0
 0174880,0.00127772,0.03316512,-0.02303469,-0.01240402,-0.00107134,0.00
 214377,0.00179895,-0.00166179,-0.00858740,0.00088072,-0.00737944,0.009
 13287,-0.00042073,-0.00029195,-0.38817235,0.01005842,-0.07776877,0.539
 75638,-0.00019888,-0.00054604,-0.00016103,-0.00279793,-0.00283545,-0.0
 0009510,0.00048886,-0.00107787,0.00243254,-0.00270553,0.00405301,-0.00
 206647,0.00410982,-0.00236971,0.00054589,-0.01431503,0.04167927,-0.117
 71636,0.10057554,-0.14842608,0.53670846,-0.27862029,0.09279890,0.04681
 310,-0.00140307,0.00012593,0.00023123,0.00137114,-0.00095372,0.0001877
 0,0.00003818,-0.00011118,-0.00042240,0.00005419,-0.00035662,0.00018881
 ,0.00049247,0.00056074,-0.00016282,-0.00000396,0.00006567,-0.00005082,
 0.29279950,0.09224326,-0.08355233,-0.01967833,0.02371945,-0.01369584,-
 0.00148060,-0.00017299,0.00126889,-0.00268897,0.00158768,0.00065961,0.
 00055528,-0.00048284,-0.00019233,-0.00015338,0.00137932,-0.00246730,0.
 00011379,0.00091963,-0.00017229,-0.00000263,-0.10004812,0.09035455,0.0
 4728875,-0.01983224,-0.05789425,-0.01183274,0.00608976,-0.00234467,-0.
 00105965,0.00071473,0.00149471,-0.00008090,-0.00024837,-0.00014463,-0.
 00009984,0.00015394,0.00008933,-0.00086167,0.00142771,-0.00019164,-0.0
 0027983,-0.00013710,0.00063082,-0.05027616,0.01774336,0.05716676,-0.05
 251600,0.00262223,0.03470260,-0.00298745,-0.00025419,-0.00341131,0.001
 34541,0.00033276,0.00003393,0.00028910,-0.00008537,0.00045311,-0.00017
 500,0.00015383,-0.00023027,0.00008736,0.00024100,-0.00138067,0.0001086
 9,-0.00023532,0.00023451,-0.00020514,0.00064270,0.02821566,0.05094020,
 0.00277280,-0.05042753,-0.02553191,-0.00086633,0.00310889,0.02960386,-
 0.00064037,-0.00650254,0.00324737,-0.00079009,0.00058477,0.00084022,0.
 00019737,0.00067794,-0.00039609,-0.00211032,0.00125104,0.00179446,0.00
 001962,-0.00052596,-0.00009550,-0.00040233,-0.00093129,-0.01106170,-0.
 00447684,0.05384191,0.03339184,-0.02050186,-0.32315663,0.00122036,-0.0
 0257091,-0.01060521,0.00016996,0.00308802,-0.00068015,-0.00003285,-0.0
 0047224,0.00024921,-0.00012132,-0.00009750,0.00019743,0.00141952,-0.00
 109733,-0.00060180,-0.00007309,0.00022601,0.00054638,-0.00096491,0.000
 13340,-0.00163815,-0.03671763,0.02048378,0.34161645,-0.17714343,-0.120
 47103,-0.06902493,0.00214397,0.00583951,0.00366257,0.00044692,-0.00026
 055,0.00060183,-0.00029167,0.00050683,-0.00093989,0.00041592,0.0003878
 4,0.00001271,0.00111423,0.00115818,-0.00049882,-0.00021520,-0.00009399
 ,0.00023296,-0.01504617,-0.01889364,-0.01099494,0.00409454,0.00489465,
 0.00243603,0.18414823,-0.11794513,-0.15640293,-0.06176604,-0.01975606,
 -0.02111388,-0.01267861,0.00082452,0.00172096,-0.00141815,0.00282065,-
 0.00152841,0.00436861,-0.00087808,-0.00186000,-0.00060858,-0.00193705,
 -0.00018504,-0.00021776,0.00019132,0.00072366,0.00005391,0.00857363,0.
 00942222,0.00546192,0.00007549,-0.00032115,0.00055737,0.12766021,0.169
 99798,-0.06885082,-0.06331688,-0.08524355,0.01305998,0.00992802,0.0049
 6411,0.00002606,0.00028979,0.00150490,-0.00120193,0.00118414,-0.001528
 71,0.00031876,0.00104171,0.00041582,-0.00011867,0.00046175,0.00043870,
 0.00015691,-0.00024660,-0.00010064,0.00483976,0.00540306,0.00225280,-0
 .02200197,-0.01951935,-0.00703010,0.07388190,0.06474835,0.08512532,0.0
 0275150,0.00306016,-0.00230383,0.00291219,-0.00727381,0.00222691,-0.05
 197342,-0.10768774,0.05503376,-0.00112802,0.00469890,-0.00011234,-0.00
 227613,-0.00130456,0.00059316,-0.00120171,0.00094871,0.00092789,0.0003
 2710,0.00037061,-0.00088777,0.00014169,-0.00056391,0.00035186,0.000564
 35,-0.00005853,-0.00033036,-0.00005571,0.00027325,-0.00014489,0.052734
 06,-0.00300020,-0.00018910,-0.00015572,0.00851582,0.00819585,0.0006711
 3,-0.10615413,-0.31880826,0.13281934,-0.00300797,0.00413558,-0.0034720
 5,-0.00119980,-0.00516875,-0.00022426,-0.00487717,0.00447481,0.0030253
 5,0.00171548,-0.00504624,0.00067572,-0.00002366,0.00057615,-0.00059527
 ,-0.00017015,0.00018152,-0.00030316,0.00021443,-0.00031519,-0.00007775
 ,0.10890462,0.32370821,0.00216446,-0.00231867,-0.00548252,0.00511933,0
 .02950475,-0.00846310,0.05487808,0.12973396,-0.14261907,0.00011485,0.0
 0393301,-0.00351216,0.00044986,0.00069819,-0.00113594,0.00251168,-0.00
 027130,-0.00126645,-0.00076961,0.00060168,-0.00003236,-0.00012848,-0.0
 0034545,0.00032176,-0.00004810,0.00153455,-0.00036768,0.00012369,0.000
 02528,0.00010340,-0.05734153,-0.14467434,0.14466682,-0.00141349,-0.001
 52359,0.00152158,0.00316840,0.01099254,0.00477207,-0.02907465,-0.07312
 372,-0.03142250,0.00272867,-0.00621200,-0.00164925,-0.00031951,0.00006
 111,-0.00129602,0.00063204,-0.00054058,-0.00013074,-0.00054120,-0.0000
 1438,-0.00008334,-0.00040882,0.00070413,-0.00064765,-0.00049813,0.0001
 5316,0.00007634,-0.00013270,-0.00056381,0.00004761,-0.00067660,-0.0036
 4544,-0.00680696,0.02705289,0.00266490,0.00197292,-0.00046468,-0.00298
 471,0.00744359,0.00478635,-0.07380565,-0.31943515,-0.16870830,0.000768
 25,0.00026307,0.00337483,-0.00034222,-0.00039865,-0.00159584,0.0034702
 6,-0.00208040,-0.00139633,-0.00109088,0.00225040,-0.00022007,0.0003947
 8,-0.00030374,0.00062172,0.00004758,-0.00055982,-0.00002290,-0.0010358
 7,0.00011332,0.00001939,-0.00083277,-0.00967507,-0.01635404,0.07336970
 ,0.32009284,0.00001885,-0.00111101,0.00177183,-0.01250445,-0.02547705,
 -0.00949224,-0.02951159,-0.16689095,-0.18367510,0.00424133,0.00072754,
 -0.00536904,0.00091985,0.00223250,0.00120597,0.00257998,-0.00199326,-0
 .00184568,-0.00098375,0.00186945,0.00004424,-0.00029670,0.00019748,-0.
 00020698,0.00012976,0.00008340,0.00037056,0.00041305,0.00087950,-0.000
 40060,0.00136014,0.01156882,0.01439515,0.03473029,0.17940184,0.1819309
 3,-0.00016332,0.00059349,-0.00019054,0.00429138,-0.00548432,-0.0169369
 9,-0.00122948,-0.00417720,-0.00145147,-0.09724686,0.03553534,0.0975039
 0,0.00276127,-0.00405266,-0.00027142,0.00019667,-0.00140644,-0.0030691
 6,-0.00091676,0.00011826,-0.00016815,0.00009711,-0.00004812,0.00008545
 ,0.00016175,0.00023627,0.00015244,-0.00002473,-0.00001709,0.00003932,0
 .00033857,0.00046144,0.00006390,-0.00023165,0.00011090,-0.00122637,0.1
 0023994,0.00002246,0.00042883,-0.00069483,0.01035090,-0.00284176,-0.01
 714482,-0.00275654,-0.00445057,-0.00225322,0.03387626,-0.08047682,-0.0
 7385352,-0.01258876,0.00253304,0.03626258,0.00120756,-0.00052818,-0.00
 186398,-0.00006856,0.00065148,0.00051576,-0.00012290,0.00007922,-0.000
 00616,-0.00009304,-0.00029096,0.00029184,-0.00016014,-0.00002892,0.000
 31151,0.00023605,-0.00092752,0.00001703,-0.00063354,0.00052545,-0.0011
 6628,-0.03169519,0.08330867,-0.00033709,-0.00005386,-0.00012781,0.0019
 9266,-0.00406961,-0.00953483,-0.00076958,-0.00215871,0.00030031,0.0915
 6042,-0.06685625,-0.24571843,0.00856642,0.00518231,-0.02284021,0.00224
 169,-0.00181835,-0.00094997,-0.00009581,0.00134081,0.00067383,0.000029
 63,0.00001643,0.00013974,0.00007810,-0.00027347,0.00014023,-0.00005665
 ,-0.00008994,0.00013248,0.00055969,0.00120315,0.00058922,-0.00002899,0
 .00008101,-0.00035190,-0.10026727,0.06716831,0.26972737,0.00053540,0.0
 0132754,-0.00004577,-0.01731935,0.00220776,-0.00420416,0.00105272,-0.0
 0020922,0.00167793,-0.26909958,0.08417094,-0.03047108,0.01247058,0.000
 69306,-0.00177475,-0.00185236,-0.00057519,-0.00068803,0.00034653,-0.00
 067337,0.00002026,0.00028308,-0.00058521,-0.00010252,-0.00025924,-0.00
 019999,0.00011525,0.00038160,-0.00005884,0.00002419,-0.00074604,0.0002
 8635,-0.00002247,0.00049550,-0.00007076,-0.00000153,-0.00871718,0.0029
 4672,-0.00223262,0.28252432,-0.00062303,0.00058865,0.00001389,-0.02037
 908,0.00411602,-0.00812843,-0.00041773,0.00008066,0.00155474,0.0789964
 1,-0.07648724,0.00617728,0.02316641,-0.02147027,0.01913091,-0.00265109
 ,-0.00118050,0.00034463,-0.00002937,0.00071839,-0.00030879,-0.00018302
 ,-0.00061064,-0.00031351,-0.00001394,-0.00005120,0.00023617,0.00016295
 ,0.00028930,-0.00003091,-0.00129327,-0.00130394,-0.00052305,0.00140502
 ,0.00014158,0.00034888,0.01036019,-0.00033882,0.00096504,-0.08936047,0
 .09487356,0.00062648,0.00103613,0.00040137,-0.01654946,-0.00007158,-0.
 00465335,0.00000765,-0.00003958,0.00083385,-0.02759782,0.01060009,-0.0
 5701937,-0.01985023,0.01888501,-0.00847802,0.00057199,-0.00130950,-0.0
 0003585,0.00035986,0.00069617,0.00048382,0.00006962,-0.00034989,0.0001
 1012,0.00013226,-0.00018831,0.00001909,0.00017708,0.00011550,-0.000254
 45,-0.00108335,0.00022828,-0.00003012,0.00091075,-0.00002962,0.0002779
 8,0.02459057,-0.00899885,0.00666066,0.03835947,-0.02043412,0.06170903,
 0.00025881,0.00008872,-0.00075636,-0.00239840,-0.00369605,0.00101681,0
 .00050753,0.00056066,0.00020380,-0.00269038,0.00267964,-0.00046434,-0.
 04721806,-0.13287136,-0.06424325,0.00243665,-0.00209937,0.00022840,0.0
 0041970,0.00292471,-0.00061162,-0.00000936,-0.00018540,0.00006754,-0.0
 0001454,-0.00002931,0.00003093,0.00008275,-0.00011164,0.00001979,-0.00
 076749,-0.00016087,-0.00044758,0.00033966,-0.00006300,-0.00000644,0.00
 089704,0.00012117,-0.00111095,0.00007798,0.00156187,-0.00070772,0.0491
 0474,-0.00123793,-0.00047349,-0.00018103,0.00343805,-0.00131772,0.0028
 9566,-0.00003391,0.00105728,0.00156620,-0.00864681,-0.02752771,-0.0132
 1479,-0.12305051,-0.36602818,-0.14764592,-0.00229693,0.00112533,-0.000
 54174,0.00042422,-0.00159845,0.00042071,0.00007853,0.00015440,-0.00007
 694,-0.00001312,0.00000643,-0.00002805,0.00010497,-0.00017067,0.000154
 11,-0.00011278,-0.00090205,-0.00111731,-0.00014703,-0.00000180,-0.0002
 3390,-0.00023542,0.00278105,-0.00075870,-0.00011504,0.00069916,-0.0003
 2585,0.13177606,0.39170962,0.00085353,0.00065890,0.00090206,-0.0000081
 5,0.00504962,-0.00479148,-0.00093112,-0.00266598,-0.00094768,0.0115461
 4,0.03171937,0.01065576,-0.07817760,-0.19701405,-0.13511623,-0.0003233
 2,0.00030157,-0.00055847,-0.00030454,-0.00033095,-0.00000532,0.0000005
 8,-0.00000879,0.00004304,0.00002554,-0.00004912,0.00003774,-0.00006085
 ,0.00041234,-0.00012231,0.00054762,0.00150455,0.00216917,-0.00038766,-
 0.00028776,0.00043860,0.00085456,0.00075877,0.00027230,-0.00044856,0.0
 0098226,-0.00038222,0.06678402,0.15922118,0.12718308,0.00132258,-0.001
 59188,-0.00057229,-0.02179521,-0.00475467,-0.00322521,0.00079072,-0.00
 112178,-0.00278979,-0.00203047,0.00038637,0.00017994,0.00066640,-0.000
 13761,-0.00070523,-0.11859926,-0.08817992,-0.10662647,0.01155068,0.012
 02201,0.00581842,0.00021616,-0.00003038,0.00043346,-0.00007286,0.00042
 585,-0.00006541,-0.00004616,0.00072050,-0.00001007,0.00003066,0.001140
 91,-0.00027386,-0.00118404,-0.00040080,-0.00013469,-0.00030272,-0.0002
 1576,-0.00000632,-0.00045776,-0.00028326,-0.00004481,-0.00012490,0.000
 05616,-0.00007919,0.12565753,0.00003790,0.00071223,0.00045494,0.002861
 48,0.00246896,0.00123216,0.00112478,0.00068455,0.00118020,0.00104953,0
 .00001694,0.00019094,-0.00011765,0.00026641,-0.00002014,-0.07439136,-0
 .13092832,-0.08749046,-0.01766701,-0.03252548,-0.02075170,-0.00017236,
 -0.00008342,-0.00009894,0.00018265,-0.00003908,-0.00005617,0.00023073,
 -0.00022357,-0.00010487,-0.00002626,0.00002237,-0.00008724,-0.00022956
 ,0.00010879,-0.00012119,0.00014370,-0.00014631,-0.00011162,0.00019882,
 0.00021093,0.00001852,0.00018895,-0.00001828,-0.00001954,0.08087899,0.
 15017138,-0.00086628,0.00075105,0.00010238,0.01003223,-0.00115080,-0.0
 0379907,0.00316896,0.00129155,0.00268772,0.00029159,0.00006920,-0.0004
 4394,-0.00049419,0.00014412,0.00071280,-0.10375609,-0.09110646,-0.1786
 5171,0.00185660,0.00027069,0.01127080,0.00000122,0.00024965,-0.0000029
 8,-0.00000293,-0.00026463,0.00034411,-0.00023342,0.00032575,-0.0000172
 9,0.00004776,-0.00091196,0.00020345,0.00021295,0.00033506,0.00043008,0
 .00017293,0.00035092,0.00049092,-0.00010388,0.00000426,0.00017737,0.00
 011581,-0.00003221,0.00004345,0.10255274,0.10340925,0.17481343,-0.0007
 1983,-0.00136202,0.00213934,-0.01346697,0.00061666,0.01732495,-0.00200
 538,0.00128149,0.00182478,-0.00011761,0.00138581,0.00131894,-0.0000612
 0,-0.00123673,-0.00002428,-0.04167909,-0.01976062,0.02645953,0.0000559
 6,0.00859893,-0.00678614,0.00028434,-0.00012220,-0.00030383,-0.0007808
 3,0.00080855,-0.00082809,0.00013400,0.00021190,-0.00008008,0.00022261,
 0.00030022,-0.00012109,-0.00026652,-0.00029714,-0.00009519,-0.00017123
 ,-0.00042022,-0.00048601,0.00022538,-0.00018617,-0.00031689,-0.0003250
 3,0.00038160,0.00014042,0.00593945,0.00513122,-0.01566917,0.04816974,0
 .00297562,-0.00057541,-0.00194449,0.00028742,0.00092348,-0.00039208,0.
 00061556,-0.00021599,-0.00042169,-0.00010507,-0.00013450,0.00074905,0.
 00013826,0.00008765,-0.00050198,-0.00973920,-0.06713365,0.05477325,0.0
 0255383,-0.02202744,0.04065776,-0.00024426,-0.00049306,0.00026622,0.00
 109518,-0.00009790,0.00027392,-0.00023411,-0.00005245,-0.00030815,-0.0
 0001228,0.00033112,-0.00007186,-0.00029915,-0.00007475,-0.00007981,-0.
 00050897,-0.00018095,-0.00001156,0.00012051,0.00004680,0.00002312,-0.0
 0000847,-0.00009119,0.00004268,0.00214580,0.00758025,-0.01401300,0.003
 31657,0.08768997,-0.00192197,0.00053108,0.00091345,0.00073675,0.001357
 86,-0.00550811,0.00235173,-0.00028604,-0.00046200,-0.00072918,0.000391
 54,0.00002958,-0.00003849,-0.00070951,0.00028476,0.01924335,0.06992687
 ,-0.31815569,-0.00146526,0.00501938,0.00457137,-0.00012452,0.00017566,
 0.00030264,-0.00023294,-0.00004998,0.00048576,0.00022495,-0.00021280,-
 0.00018635,-0.00004584,0.00009548,-0.00009661,-0.00021236,0.00001335,-
 0.00004660,0.00004830,0.00020395,0.00032900,-0.00010875,-0.00005643,0.
 00026485,-0.00004912,0.00010099,0.00006741,0.00398245,0.00474835,-0.00
 961970,-0.02346344,-0.08017762,0.32475011,0.00033545,0.00051874,-0.000
 41255,-0.00122933,0.00087072,0.00015087,-0.00019314,-0.00084669,-0.000
 05533,-0.00044010,0.00187041,-0.00193684,0.00220393,-0.00124696,0.0009
 8531,-0.00136626,0.00152323,-0.00757086,-0.02692892,0.03108598,-0.0828
 7516,-0.00008105,-0.00006337,0.00009699,-0.00008221,0.00006584,0.00012
 098,-0.00000638,-0.00008375,-0.00000586,-0.00119760,0.00070013,0.00053
 381,0.00033015,0.00009744,0.00036744,0.00002021,-0.00000647,0.00036268
 ,0.00005842,-0.00023242,0.00034455,-0.00057670,-0.00037010,-0.00003140
 ,-0.00156080,0.00057543,0.00267316,0.00456221,-0.00209723,0.00180437,0
 .02615211,0.00009912,-0.00022640,-0.00014043,0.00033549,-0.00092695,0.
 00128213,-0.00082213,0.00032122,-0.00035598,0.00004374,0.00157818,-0.0
 0076770,0.00071113,-0.00209437,0.00049426,0.01018776,-0.02034648,0.046
 05367,0.02134996,-0.07543545,0.08857772,0.00001999,-0.00001281,-0.0001
 0913,-0.00005146,0.00009490,-0.00014039,-0.00001097,-0.00006524,0.0000
 6265,0.00067361,0.00071051,-0.00028518,0.00024714,-0.00038259,-0.00023
 596,0.00006584,-0.00009692,0.00024500,-0.00010363,-0.00032245,0.000144
 50,-0.00067631,0.00059629,-0.00027505,-0.00106051,0.00172163,0.0002775
 8,0.00135214,-0.00558198,-0.00107212,-0.03236091,0.10046890,-0.0004588
 4,0.00034016,0.00043855,0.00308306,-0.00087935,-0.00204575,-0.00021033
 ,0.00030706,-0.00103615,-0.00047773,-0.00086092,-0.00021983,0.00010409
 ,0.00064623,-0.00008906,-0.00203335,-0.00149701,0.00277813,-0.08711788
 ,0.13792547,-0.43773088,0.00006515,0.00011993,-0.00012843,0.00002034,-
 0.00015758,0.00007274,0.00004273,0.00004334,-0.00005353,0.00060113,-0.
 00137730,0.00055705,0.00039388,0.00044600,0.00052279,0.00007000,0.0001
 0100,0.00006708,0.00000704,0.00003718,-0.00008478,-0.00006973,-0.00020
 241,0.00011110,0.00156634,-0.00237249,0.00125814,-0.00103375,0.0011362
 5,0.00207613,0.08544785,-0.13375555,0.43350670\\-0.00000125,0.00000014
 ,0.00000040,-0.00000073,0.00000007,0.00000035,0.00000050,-0.00000073,0
 .00000023,0.00000065,-0.00000064,-0.00000032,0.00000095,-0.00000061,0.
 ,-0.00000003,0.00000102,0.,0.00000099,0.00000106,-0.00000066,-0.000001
 36,-0.00000077,0.00000077,-0.00000130,0.00000008,0.00000032,-0.0000015
 0,0.00000022,0.00000026,0.00000071,-0.00000077,-0.00000007,-0.00000018
 ,-0.00000041,0.00000012,0.00000026,0.,-0.00000011,0.,-0.00000123,0.000
 00060,0.00000161,-0.00000076,-0.00000027,-0.00000013,0.00000112,-0.000
 00045,-0.00000045,0.00000128,-0.00000044,0.00000126,0.00000093,-0.0000
 0073\\\@


 MAN IS A SINGULAR CREATURE.  HE HAS A SET OF GIFTS
 WHICH MAKE HIM UNIQUE AMONG THE ANIMALS: SO THAT, 
 UNLIKE THEM, HE IS NOT A FIGURE IN THE LANDSCAPE --
 HE IS A SHAPER OF THE LANDSCAPE.

                       -- JACOB BRONOWSKI
 Job cpu time:       0 days  0 hours  8 minutes 16.6 seconds.
 Elapsed time:       0 days  0 hours  2 minutes  5.1 seconds.
 File lengths (MBytes):  RWF=     68 Int=      0 D2E=      0 Chk=      3 Scr=      1
 Normal termination of Gaussian 16 at Mon Jul 10 19:55:46 2023.
real 2210.89
user 8410.14
sys 29.81
