 Entering Gaussian System, Link 0=g16
 Input=gaussian_test.inp
 Output=gaussian_test.log
 Initial command:
 /sw/restricted/lms/sw/Gaussian/g16_B01/g16/l1.exe "/scratch/user/peterchao1/peterchao1/9993831_1712001998000000686036118/Gau-127070.inp" -scrdir="/scratch/user/peterchao1/peterchao1/9993831_1712001998000000686036118/"
 Entering Link 1 = /sw/restricted/lms/sw/Gaussian/g16_B01/g16/l1.exe PID=    127075.
  
 Copyright (c) 1988-2017, Gaussian, Inc.  All Rights Reserved.
  
 This is part of the Gaussian(R) 16 program.  It is based on
 the Gaussian(R) 09 system (copyright 2009, Gaussian, Inc.),
 the Gaussian(R) 03 system (copyright 2003, Gaussian, Inc.),
 the Gaussian(R) 98 system (copyright 1998, Gaussian, Inc.),
 the Gaussian(R) 94 system (copyright 1995, Gaussian, Inc.),
 the Gaussian 92(TM) system (copyright 1992, Gaussian, Inc.),
 the Gaussian 90(TM) system (copyright 1990, Gaussian, Inc.),
 the Gaussian 88(TM) system (copyright 1988, Gaussian, Inc.),
 the Gaussian 86(TM) system (copyright 1986, Carnegie Mellon
 University), and the Gaussian 82(TM) system (copyright 1983,
 Carnegie Mellon University). Gaussian is a federally registered
 trademark of Gaussian, Inc.
  
 This software contains proprietary and confidential information,
 including trade secrets, belonging to Gaussian, Inc.
  
 This software is provided under written license and may be
 used, copied, transmitted, or stored only in accord with that
 written license.
  
 The following legend is applicable only to US Government
 contracts under FAR:
  
                    RESTRICTED RIGHTS LEGEND
  
 Use, reproduction and disclosure by the US Government is
 subject to restrictions as set forth in subparagraphs (a)
 and (c) of the Commercial Computer Software - Restricted
 Rights clause in FAR 52.227-19.
  
 Gaussian, Inc.
 340 Quinnipiac St., Bldg. 40, Wallingford CT 06492
  
  
 ---------------------------------------------------------------
 Warning -- This program may not be used in any manner that
 competes with the business of Gaussian, Inc. or will provide
 assistance to any competitor of Gaussian, Inc.  The licensee
 of this program is prohibited from giving any competitor of
 Gaussian, Inc. access to this program.  By using this program,
 the user acknowledges that Gaussian, Inc. is engaged in the
 business of creating and licensing software in the field of
 computational chemistry and represents and warrants to the
 licensee that it is not a competitor of Gaussian, Inc. and that
 it will not use this program in any manner prohibited above.
 ---------------------------------------------------------------
  

 Cite this work as:
 Gaussian 16, Revision B.01,
 M. J. Frisch, G. W. Trucks, H. B. Schlegel, G. E. Scuseria, 
 M. A. Robb, J. R. Cheeseman, G. Scalmani, V. Barone, 
 G. A. Petersson, H. Nakatsuji, X. Li, M. Caricato, A. V. Marenich, 
 J. Bloino, B. G. Janesko, R. Gomperts, B. Mennucci, H. P. Hratchian, 
 J. V. Ortiz, A. F. Izmaylov, J. L. Sonnenberg, D. Williams-Young, 
 F. Ding, F. Lipparini, F. Egidi, J. Goings, B. Peng, A. Petrone, 
 T. Henderson, D. Ranasinghe, V. G. Zakrzewski, J. Gao, N. Rega, 
 G. Zheng, W. Liang, M. Hada, M. Ehara, K. Toyota, R. Fukuda, 
 J. Hasegawa, M. Ishida, T. Nakajima, Y. Honda, O. Kitao, H. Nakai, 
 T. Vreven, K. Throssell, J. A. Montgomery, Jr., J. E. Peralta, 
 F. Ogliaro, M. J. Bearpark, J. J. Heyd, E. N. Brothers, K. N. Kudin, 
 V. N. Staroverov, T. A. Keith, R. Kobayashi, J. Normand, 
 K. Raghavachari, A. P. Rendell, J. C. Burant, S. S. Iyengar, 
 J. Tomasi, M. Cossi, J. M. Millam, M. Klene, C. Adamo, R. Cammi, 
 J. W. Ochterski, R. L. Martin, K. Morokuma, O. Farkas, 
 J. B. Foresman, and D. J. Fox, Gaussian, Inc., Wallingford CT, 2016.
 
 ******************************************
 Gaussian 16:  ES64L-G16RevB.01 20-Dec-2017
                 1-Apr-2024 
 ******************************************
 %nprocshared=4
 Will use up to    4 processors via shared memory.
 %mem=8000mb
 %chk=dimer.chk
 %nprocshared=4
 Will use up to    4 processors via shared memory.
 %mem=8000mb
 ----------------------------------------------------------------------
 #T wB97XD/def2svpp opt=tight freq int(grid=ultrafine) scf=(verytight,q
 c) Volume=tight
 ----------------------------------------------------------------------
 -----
 Dimer
 -----
 Symbolic Z-matrix:
 Charge =  0 Multiplicity = 1
 O                    -5.48487  -1.11968   1.29046 
 C                    -4.55462  -1.44698   0.28488 
 C                    -3.39822  -0.42995   0.33932 
 C                    -3.94354   0.98708   0.14042 
 Br                   -4.76417   1.25776  -1.60636 
 C                    -2.80682  -0.52195   1.74709 
 Br                   -1.31967   0.6753    2.03833 
 C                    -2.37212  -0.72397  -0.75174 
 Br                   -1.46225  -2.43024  -0.51046 
 H                    -6.24618  -1.7031    1.21757 
 H                    -5.02088  -1.40848  -0.70903 
 H                    -4.15817  -2.46052   0.44063 
 H                    -3.1488    1.72964   0.2133 
 H                    -4.72142   1.19111   0.87606 
 H                    -2.43004  -1.52592   1.94341 
 H                    -3.56374  -0.2687    2.4881 
 H                    -1.58784   0.03512  -0.77622 
 H                    -2.85194  -0.78004  -1.72827 
 O                     0.18304   1.19632  -0.86471 
 C                     1.42295   0.75008  -1.33942 
 C                     2.40571   0.33442  -0.21154 
 C                     2.4304    1.37845   0.90974 
 Br                    2.70976   3.19557   0.25289 
 C                     1.89464  -0.98172   0.37291 
 Br                    2.93441  -1.60243   1.90418 
 C                     3.81711   0.19218  -0.77595 
 Br                    3.9089   -1.0313   -2.29379 
 H                     0.27805   2.09216  -0.51746 
 H                     1.89848   1.51441  -1.96588 
 H                     1.20978  -0.11882  -1.9675 
 H                     3.24284   1.18329   1.60848 
 H                     1.48288   1.3885    1.45035 
 H                     1.93458  -1.78195  -0.36566 
 H                     0.87347  -0.86339   0.72827 
 H                     4.49976  -0.20645  -0.02441 
 H                     4.19071   1.15023  -1.13825 
 
 Add virtual bond connecting atoms O19        and H17        Dist= 4.01D+00.

 GradGradGradGradGradGradGradGradGradGradGradGradGradGradGradGradGradGrad
 Initialization pass.
                           ----------------------------
                           !    Initial Parameters    !
                           ! (Angstroms and Degrees)  !
 --------------------------                            --------------------------
 ! Name  Definition              Value          Derivative Info.                !
 --------------------------------------------------------------------------------
 ! R1    R(1,2)                  1.4084         estimate D2E/DX2                !
 ! R2    R(1,10)                 0.9619         estimate D2E/DX2                !
 ! R3    R(2,3)                  1.541          estimate D2E/DX2                !
 ! R4    R(2,11)                 1.0985         estimate D2E/DX2                !
 ! R5    R(2,12)                 1.0994         estimate D2E/DX2                !
 ! R6    R(3,4)                  1.5313         estimate D2E/DX2                !
 ! R7    R(3,6)                  1.5297         estimate D2E/DX2                !
 ! R8    R(3,8)                  1.5263         estimate D2E/DX2                !
 ! R9    R(4,5)                  1.9488         estimate D2E/DX2                !
 ! R10   R(4,13)                 1.0901         estimate D2E/DX2                !
 ! R11   R(4,14)                 1.0899         estimate D2E/DX2                !
 ! R12   R(6,7)                  1.9313         estimate D2E/DX2                !
 ! R13   R(6,15)                 1.0902         estimate D2E/DX2                !
 ! R14   R(6,16)                 1.0891         estimate D2E/DX2                !
 ! R15   R(8,9)                  1.9487         estimate D2E/DX2                !
 ! R16   R(8,17)                 1.0917         estimate D2E/DX2                !
 ! R17   R(8,18)                 1.0895         estimate D2E/DX2                !
 ! R18   R(17,19)                2.1195         estimate D2E/DX2                !
 ! R19   R(19,20)                1.4007         estimate D2E/DX2                !
 ! R20   R(19,28)                0.9655         estimate D2E/DX2                !
 ! R21   R(20,21)                1.5526         estimate D2E/DX2                !
 ! R22   R(20,29)                1.0967         estimate D2E/DX2                !
 ! R23   R(20,30)                1.0931         estimate D2E/DX2                !
 ! R24   R(21,22)                1.5323         estimate D2E/DX2                !
 ! R25   R(21,24)                1.5281         estimate D2E/DX2                !
 ! R26   R(21,26)                1.5267         estimate D2E/DX2                !
 ! R27   R(22,23)                1.9523         estimate D2E/DX2                !
 ! R28   R(22,31)                1.0892         estimate D2E/DX2                !
 ! R29   R(22,32)                1.0909         estimate D2E/DX2                !
 ! R30   R(24,25)                1.9522         estimate D2E/DX2                !
 ! R31   R(24,33)                1.0897         estimate D2E/DX2                !
 ! R32   R(24,34)                1.0877         estimate D2E/DX2                !
 ! R33   R(26,27)                1.9517         estimate D2E/DX2                !
 ! R34   R(26,35)                1.0907         estimate D2E/DX2                !
 ! R35   R(26,36)                1.0903         estimate D2E/DX2                !
 ! A1    A(2,1,10)             109.1287         estimate D2E/DX2                !
 ! A2    A(1,2,3)              108.4851         estimate D2E/DX2                !
 ! A3    A(1,2,11)             110.9465         estimate D2E/DX2                !
 ! A4    A(1,2,12)             110.5642         estimate D2E/DX2                !
 ! A5    A(3,2,11)             109.1082         estimate D2E/DX2                !
 ! A6    A(3,2,12)             109.4408         estimate D2E/DX2                !
 ! A7    A(11,2,12)            108.2735         estimate D2E/DX2                !
 ! A8    A(2,3,4)              109.8104         estimate D2E/DX2                !
 ! A9    A(2,3,6)              106.4361         estimate D2E/DX2                !
 ! A10   A(2,3,8)              110.6158         estimate D2E/DX2                !
 ! A11   A(4,3,6)              108.2318         estimate D2E/DX2                !
 ! A12   A(4,3,8)              108.954          estimate D2E/DX2                !
 ! A13   A(6,3,8)              112.7276         estimate D2E/DX2                !
 ! A14   A(3,4,5)              113.26           estimate D2E/DX2                !
 ! A15   A(3,4,13)             111.2255         estimate D2E/DX2                !
 ! A16   A(3,4,14)             109.8602         estimate D2E/DX2                !
 ! A17   A(5,4,13)             105.8014         estimate D2E/DX2                !
 ! A18   A(5,4,14)             106.167          estimate D2E/DX2                !
 ! A19   A(13,4,14)            110.3465         estimate D2E/DX2                !
 ! A20   A(3,6,7)              113.5278         estimate D2E/DX2                !
 ! A21   A(3,6,15)             110.7767         estimate D2E/DX2                !
 ! A22   A(3,6,16)             110.0882         estimate D2E/DX2                !
 ! A23   A(7,6,15)             106.1183         estimate D2E/DX2                !
 ! A24   A(7,6,16)             106.7634         estimate D2E/DX2                !
 ! A25   A(15,6,16)            109.3792         estimate D2E/DX2                !
 ! A26   A(3,8,9)              113.2062         estimate D2E/DX2                !
 ! A27   A(3,8,17)             111.4093         estimate D2E/DX2                !
 ! A28   A(3,8,18)             110.7659         estimate D2E/DX2                !
 ! A29   A(9,8,17)             106.031          estimate D2E/DX2                !
 ! A30   A(9,8,18)             105.7562         estimate D2E/DX2                !
 ! A31   A(17,8,18)            109.3943         estimate D2E/DX2                !
 ! A32   A(17,19,20)           125.3969         estimate D2E/DX2                !
 ! A33   A(17,19,28)           125.1384         estimate D2E/DX2                !
 ! A34   A(20,19,28)           109.2931         estimate D2E/DX2                !
 ! A35   A(19,20,21)           113.5411         estimate D2E/DX2                !
 ! A36   A(19,20,29)           110.8175         estimate D2E/DX2                !
 ! A37   A(19,20,30)           105.9823         estimate D2E/DX2                !
 ! A38   A(21,20,29)           109.0917         estimate D2E/DX2                !
 ! A39   A(21,20,30)           109.1487         estimate D2E/DX2                !
 ! A40   A(29,20,30)           108.0786         estimate D2E/DX2                !
 ! A41   A(20,21,22)           111.0615         estimate D2E/DX2                !
 ! A42   A(20,21,24)           107.2614         estimate D2E/DX2                !
 ! A43   A(20,21,26)           109.9707         estimate D2E/DX2                !
 ! A44   A(22,21,24)           108.2015         estimate D2E/DX2                !
 ! A45   A(22,21,26)           108.6093         estimate D2E/DX2                !
 ! A46   A(24,21,26)           111.737          estimate D2E/DX2                !
 ! A47   A(21,22,23)           112.9719         estimate D2E/DX2                !
 ! A48   A(21,22,31)           111.0618         estimate D2E/DX2                !
 ! A49   A(21,22,32)           110.788          estimate D2E/DX2                !
 ! A50   A(23,22,31)           106.0137         estimate D2E/DX2                !
 ! A51   A(23,22,32)           106.4057         estimate D2E/DX2                !
 ! A52   A(31,22,32)           109.3658         estimate D2E/DX2                !
 ! A53   A(21,24,25)           113.3113         estimate D2E/DX2                !
 ! A54   A(21,24,33)           111.1625         estimate D2E/DX2                !
 ! A55   A(21,24,34)           110.1971         estimate D2E/DX2                !
 ! A56   A(25,24,33)           106.1777         estimate D2E/DX2                !
 ! A57   A(25,24,34)           106.1628         estimate D2E/DX2                !
 ! A58   A(33,24,34)           109.6173         estimate D2E/DX2                !
 ! A59   A(21,26,27)           112.9164         estimate D2E/DX2                !
 ! A60   A(21,26,35)           110.9725         estimate D2E/DX2                !
 ! A61   A(21,26,36)           110.9635         estimate D2E/DX2                !
 ! A62   A(27,26,35)           106.0991         estimate D2E/DX2                !
 ! A63   A(27,26,36)           106.0396         estimate D2E/DX2                !
 ! A64   A(35,26,36)           109.6116         estimate D2E/DX2                !
 ! A65   L(8,17,19,7,-1)       182.3575         estimate D2E/DX2                !
 ! A66   L(8,17,19,7,-2)       169.2234         estimate D2E/DX2                !
 ! D1    D(10,1,2,3)           175.2902         estimate D2E/DX2                !
 ! D2    D(10,1,2,11)           55.4518         estimate D2E/DX2                !
 ! D3    D(10,1,2,12)          -64.6937         estimate D2E/DX2                !
 ! D4    D(1,2,3,4)            -58.5936         estimate D2E/DX2                !
 ! D5    D(1,2,3,6)             58.3412         estimate D2E/DX2                !
 ! D6    D(1,2,3,8)           -178.8835         estimate D2E/DX2                !
 ! D7    D(11,2,3,4)            62.3865         estimate D2E/DX2                !
 ! D8    D(11,2,3,6)           179.3213         estimate D2E/DX2                !
 ! D9    D(11,2,3,8)           -57.9033         estimate D2E/DX2                !
 ! D10   D(12,2,3,4)          -179.3076         estimate D2E/DX2                !
 ! D11   D(12,2,3,6)           -62.3728         estimate D2E/DX2                !
 ! D12   D(12,2,3,8)            60.4025         estimate D2E/DX2                !
 ! D13   D(2,3,4,5)            -63.1911         estimate D2E/DX2                !
 ! D14   D(2,3,4,13)           177.8024         estimate D2E/DX2                !
 ! D15   D(2,3,4,14)            55.3311         estimate D2E/DX2                !
 ! D16   D(6,3,4,5)           -178.9953         estimate D2E/DX2                !
 ! D17   D(6,3,4,13)            61.9982         estimate D2E/DX2                !
 ! D18   D(6,3,4,14)           -60.4731         estimate D2E/DX2                !
 ! D19   D(8,3,4,5)             58.1019         estimate D2E/DX2                !
 ! D20   D(8,3,4,13)           -60.9046         estimate D2E/DX2                !
 ! D21   D(8,3,4,14)           176.6241         estimate D2E/DX2                !
 ! D22   D(2,3,6,7)            179.7137         estimate D2E/DX2                !
 ! D23   D(2,3,6,15)            60.4361         estimate D2E/DX2                !
 ! D24   D(2,3,6,16)           -60.6709         estimate D2E/DX2                !
 ! D25   D(4,3,6,7)            -62.3042         estimate D2E/DX2                !
 ! D26   D(4,3,6,15)           178.4182         estimate D2E/DX2                !
 ! D27   D(4,3,6,16)            57.3112         estimate D2E/DX2                !
 ! D28   D(8,3,6,7)             58.2758         estimate D2E/DX2                !
 ! D29   D(8,3,6,15)           -61.0017         estimate D2E/DX2                !
 ! D30   D(8,3,6,16)           177.8913         estimate D2E/DX2                !
 ! D31   D(2,3,8,9)            -65.1237         estimate D2E/DX2                !
 ! D32   D(2,3,8,17)           175.4808         estimate D2E/DX2                !
 ! D33   D(2,3,8,18)            53.4665         estimate D2E/DX2                !
 ! D34   D(4,3,8,9)            174.0759         estimate D2E/DX2                !
 ! D35   D(4,3,8,17)            54.6805         estimate D2E/DX2                !
 ! D36   D(4,3,8,18)           -67.3339         estimate D2E/DX2                !
 ! D37   D(6,3,8,9)             53.9103         estimate D2E/DX2                !
 ! D38   D(6,3,8,17)           -65.4851         estimate D2E/DX2                !
 ! D39   D(6,3,8,18)           172.5005         estimate D2E/DX2                !
 ! D40   D(3,8,19,20)          150.7428         estimate D2E/DX2                !
 ! D41   D(3,8,19,28)          -22.2001         estimate D2E/DX2                !
 ! D42   D(9,8,19,20)           29.0508         estimate D2E/DX2                !
 ! D43   D(9,8,19,28)         -143.892          estimate D2E/DX2                !
 ! D44   D(18,8,19,20)         -81.6375         estimate D2E/DX2                !
 ! D45   D(18,8,19,28)         105.4196         estimate D2E/DX2                !
 ! D46   D(17,19,20,21)        -99.2788         estimate D2E/DX2                !
 ! D47   D(17,19,20,29)        137.5366         estimate D2E/DX2                !
 ! D48   D(17,19,20,30)         20.5205         estimate D2E/DX2                !
 ! D49   D(28,19,20,21)         76.1512         estimate D2E/DX2                !
 ! D50   D(28,19,20,29)        -47.0334         estimate D2E/DX2                !
 ! D51   D(28,19,20,30)       -164.0495         estimate D2E/DX2                !
 ! D52   D(19,20,21,22)        -45.9948         estimate D2E/DX2                !
 ! D53   D(19,20,21,24)         72.0503         estimate D2E/DX2                !
 ! D54   D(19,20,21,26)       -166.2451         estimate D2E/DX2                !
 ! D55   D(29,20,21,22)         78.1309         estimate D2E/DX2                !
 ! D56   D(29,20,21,24)       -163.824          estimate D2E/DX2                !
 ! D57   D(29,20,21,26)        -42.1193         estimate D2E/DX2                !
 ! D58   D(30,20,21,22)       -163.9775         estimate D2E/DX2                !
 ! D59   D(30,20,21,24)        -45.9324         estimate D2E/DX2                !
 ! D60   D(30,20,21,26)         75.7723         estimate D2E/DX2                !
 ! D61   D(20,21,22,23)        -50.7796         estimate D2E/DX2                !
 ! D62   D(20,21,22,31)       -169.7477         estimate D2E/DX2                !
 ! D63   D(20,21,22,32)         68.4983         estimate D2E/DX2                !
 ! D64   D(24,21,22,23)       -168.2537         estimate D2E/DX2                !
 ! D65   D(24,21,22,31)         72.7783         estimate D2E/DX2                !
 ! D66   D(24,21,22,32)        -48.9758         estimate D2E/DX2                !
 ! D67   D(26,21,22,23)         70.2747         estimate D2E/DX2                !
 ! D68   D(26,21,22,31)        -48.6934         estimate D2E/DX2                !
 ! D69   D(26,21,22,32)       -170.4475         estimate D2E/DX2                !
 ! D70   D(20,21,24,25)       -175.7547         estimate D2E/DX2                !
 ! D71   D(20,21,24,33)         64.7643         estimate D2E/DX2                !
 ! D72   D(20,21,24,34)        -56.9723         estimate D2E/DX2                !
 ! D73   D(22,21,24,25)        -55.8664         estimate D2E/DX2                !
 ! D74   D(22,21,24,33)       -175.3473         estimate D2E/DX2                !
 ! D75   D(22,21,24,34)         62.9161         estimate D2E/DX2                !
 ! D76   D(26,21,24,25)         63.654          estimate D2E/DX2                !
 ! D77   D(26,21,24,33)        -55.827          estimate D2E/DX2                !
 ! D78   D(26,21,24,34)       -177.5636         estimate D2E/DX2                !
 ! D79   D(20,21,26,27)        -54.6922         estimate D2E/DX2                !
 ! D80   D(20,21,26,35)       -173.6699         estimate D2E/DX2                !
 ! D81   D(20,21,26,36)         64.2033         estimate D2E/DX2                !
 ! D82   D(22,21,26,27)       -176.4155         estimate D2E/DX2                !
 ! D83   D(22,21,26,35)         64.6068         estimate D2E/DX2                !
 ! D84   D(22,21,26,36)        -57.52           estimate D2E/DX2                !
 ! D85   D(24,21,26,27)         64.3051         estimate D2E/DX2                !
 ! D86   D(24,21,26,35)        -54.6726         estimate D2E/DX2                !
 ! D87   D(24,21,26,36)       -176.7995         estimate D2E/DX2                !
 --------------------------------------------------------------------------------
 Number of steps in this run=    198 maximum allowed number of steps=    216.
 GradGradGradGradGradGradGradGradGradGradGradGradGradGradGradGradGradGrad

                    Distance matrix (angstroms):
                    1          2          3          4          5
     1  O    0.000000
     2  C    1.408437   0.000000
     3  C    2.394689   1.540967   0.000000
     4  C    2.852497   2.513750   1.531312   0.000000
     5  Br   3.816173   3.307007   2.915451   1.948829   0.000000
     6  C    2.781688   2.459383   1.529720   2.480061   4.271325
     7  Br   4.596763   4.247774   2.903201   3.253301   5.048523
     8  C    3.743847   2.522025   1.526344   2.488573   3.221727
     9  Br   4.598086   3.340976   2.910546   4.273006   5.070019
    10  H    0.961912   1.948559   3.240851   3.701277   4.351732
    11  H    2.072835   1.098512   2.165542   2.760601   2.824874
    12  H    2.068864   1.099408   2.170488   3.467299   4.287544
    13  H    3.838772   3.474534   2.177598   1.090102   2.478555
    14  H    2.468672   2.708661   2.160278   1.089903   2.483677
    15  H    3.150137   2.696438   2.170624   3.443342   5.079159
    16  H    2.418523   2.687819   2.161172   2.689393   4.531632
    17  H    4.559776   3.481993   2.176732   2.701071   3.503291
    18  H    4.019998   2.719679   2.167002   2.793979   2.797165
    19  O    6.491062   5.545629   4.113375   4.252383   5.002872
    20  C    7.624327   6.572426   5.239687   5.571838   6.213656
    21  C    8.162825   7.201804   5.879904   6.392406   7.362426
    22  C    8.308857   7.560683   6.129308   6.432117   7.622806
    23  Br   9.319334   8.621223   7.103467   7.011169   7.941761
    24  C    7.437620   6.466621   5.321649   6.165602   7.298811
    25  Br   8.455418   7.663674   6.627648   7.557956   8.931564
    26  C    9.618620   8.596393   7.327466   7.854888   8.686968
    27  Br  10.054727   8.857390   7.790300   8.465225   8.996361
    28  H    6.840743   6.043502   4.539827   4.413141   5.225503
    29  H    8.488583   7.448366   6.095034   6.232477   6.677277
    30  H    7.512284   6.329731   5.162542   5.676536   6.141132
    31  H    9.032047   8.334905   6.951042   7.337426   8.628616
    32  H    7.407170   6.771239   5.326000   5.596709   6.956025
    33  H    7.630837   6.530324   5.546501   6.517364   7.460063
    34  H    6.388290   5.477344   4.311200   5.193591   6.460089
    35  H   10.112161   9.144196   7.909506   8.528836   9.511411
    36  H   10.230743   9.233180   7.891263   8.235759   8.967758
                    6          7          8          9         10
     6  C    0.000000
     7  Br   1.931281   0.000000
     8  C    2.544391   3.293945   0.000000
     9  Br   3.247459   4.020079   1.948711   0.000000
    10  H    3.674877   5.531814   4.454793   5.138169   0.000000
    11  H    3.423525   5.058562   2.736107   3.707733   2.302158
    12  H    2.700195   4.521406   2.761765   2.858931   2.353101
    13  H    2.745751   2.790717   2.748586   4.546752   4.731388
    14  H    2.712745   3.631649   3.440416   5.065458   3.289067
    15  H    1.090162   2.467248   2.812525   2.788527   3.888589
    16  H    1.089113   2.475748   3.481924   4.252047   3.296545
    17  H    2.857153   2.898867   1.091738   2.482822   5.356925
    18  H    3.485223   4.318927   1.089488   2.477395   4.588114
    19  O    4.325880   3.310171   3.198298   3.998054   7.353732
    20  C    5.388469   4.351636   4.113487   4.373333   8.448187
    21  C    5.633830   4.365377   4.923380   4.763801   9.002721
    22  C    5.633921   3.978829   5.499531   5.628123   9.212689
    23  Br   6.818008   5.076989   6.495965   7.045434  10.253605
    24  C    4.919705   3.981346   4.420019   3.761286   8.216251
    25  Br   5.844130   4.827345   5.998744   5.083933   9.206781
    26  C    7.124049   5.877071   6.256713   5.900778  10.432443
    27  Br   7.854232   7.001255   6.474839   5.829793  10.765985
    28  H    4.634454   3.330500   3.874125   4.845702   7.744665
    29  H    6.330302   5.205212   4.972168   5.382657   9.317837
    30  H    5.485778   4.803682   3.830704   3.821701   8.261107
    31  H    6.286927   4.610783   6.382482   6.299634   9.926006
    32  H    4.705251   2.951041   4.916580   5.205894   8.327698
    33  H    5.341556   4.733646   4.451528   3.461170   8.332926
    34  H    3.833938   2.982222   3.569834   3.073280   7.185672
    35  H    7.524882   6.236835   6.929616   6.381772  10.920515
    36  H    7.751569   6.378124   6.836139   6.720855  11.073394
                   11         12         13         14         15
    11  H    0.000000
    12  H    1.781232   0.000000
    13  H    3.768707   4.316016   0.000000
    14  H    3.059416   3.720385   1.789529   0.000000
    15  H    3.709668   2.473507   3.756139   3.711051   0.000000
    16  H    3.693773   3.057701   3.056190   2.463727   1.778359
    17  H    3.724805   3.783584   2.507421   3.726348   3.246922
    18  H    2.477508   3.038811   3.186899   3.763365   3.770349
    19  O    5.821508   5.824305   3.542276   5.204238   4.703651
    20  C    6.824932   6.680233   4.926603   6.546467   5.550020
    21  C    7.644564   7.163905   5.742799   7.260360   5.611519
    22  C    8.118426   7.639826   5.633457   7.154354   5.755663
    23  Br   9.049048   8.899162   6.039309   7.721962   7.181079
    24  C    7.012641   6.231210   5.728292   6.981884   4.633088
    25  Br   8.375746   7.292668   7.139141   8.214180   5.365144
    26  C    8.982011   8.492463   7.201824   8.754055   7.026637
    27  Br   9.077144   8.636971   7.982443   9.458830   7.640721
    28  H    6.353719   6.428443   3.522600   5.267684   5.145884
    29  H    7.615797   7.633763   5.501834   7.211396   6.577401
    30  H    6.485988   6.332264   5.212476   6.706781   5.524802
    31  H    8.965331   8.331639   6.564919   7.997878   6.295524
    32  H    7.401680   6.903328   4.806163   6.233956   4.903865
    33  H    6.973937   6.183219   6.205427   7.394823   4.944422
    34  H    6.091490   5.286865   4.813280   5.962014   3.581715
    35  H    9.620607   8.958618   7.893382   9.369860   7.323624
    36  H    9.569984   9.232240   7.485378   9.137029   7.777711
                   16         17         18         19         20
    16  H    0.000000
    17  H    3.827830   0.000000
    18  H    4.306495   1.780119   0.000000
    19  O    5.236990   2.119496   3.723287   0.000000
    20  C    6.368281   3.145358   4.557107   1.400663   0.000000
    21  C    6.579224   4.044371   5.584391   2.471796   1.552647
    22  C    6.413582   4.559966   6.286598   2.869231   2.543332
    23  Br   7.506945   5.432951   7.117797   3.410330   3.189316
    24  C    5.897153   3.805548   5.194780   3.034004   2.480674
    25  Br   6.659268   5.506083   6.881349   4.803111   4.282503
    26  C    8.083525   5.407233   6.806495   3.771288   2.522049
    27  Br   8.904402   5.801243   6.789101   4.570180   3.203757
    28  H    5.419081   2.789255   4.417289   0.965476   1.946178
    29  H    7.270028   3.969639   5.280857   2.063122   1.096707
    30  H    6.531568   3.044592   4.122141   1.999978   1.093119
    31  H    7.015102   5.508234   7.220456   3.934367   3.491387
    32  H    5.412179   4.027237   5.796285   2.661966   2.862518
    33  H    6.376951   3.984696   5.076551   3.490999   2.760650
    34  H    4.810354   3.021401   4.463208   2.693824   2.679660
    35  H    8.446106   6.138608   7.568334   4.616054   3.480080
    36  H    8.677292   5.896294   7.326193   4.017261   2.803763
                   21         22         23         24         25
    21  C    0.000000
    22  C    1.532278   0.000000
    23  Br   2.914505   1.952295   0.000000
    24  C    1.528071   2.479034   4.257771   0.000000
    25  Br   2.916711   3.182543   5.079184   1.952226   0.000000
    26  C    1.526704   2.484297   3.362300   2.528596   3.344083
    27  Br   2.908698   4.272641   5.078380   3.342301   4.347273
    28  H    2.776727   2.679353   2.779242   3.585377   5.154678
    29  H    2.174255   2.927569   2.899559   3.420621   5.075951
    30  H    2.172343   3.465579   4.262069   2.586733   4.490592
    31  H    2.175737   1.089211   2.484166   2.833997   2.818303
    32  H    2.173607   1.090936   2.490919   2.635972   3.355376
    33  H    2.173648   3.443925   5.075359   1.089707   2.486782
    34  H    2.160034   2.735466   4.480303   1.087695   2.485247
    35  H    2.170853   2.768901   3.854189   2.746915   2.849309
    36  H    2.170387   2.710179   2.883037   3.478617   4.290903
                   26         27         28         29         30
    26  C    0.000000
    27  Br   1.951714   0.000000
    28  H    4.025133   5.108272   0.000000
    29  H    2.616366   3.260358   2.248894   0.000000
    30  H    2.883519   2.867808   2.803420   1.772490   0.000000
    31  H    2.645287   4.536047   3.759747   3.833147   4.314678
    32  H    3.440372   5.075386   2.412277   3.443725   3.745436
    33  H    2.758522   2.859906   4.216153   3.664425   2.420177
    34  H    3.470145   4.286591   3.262156   3.736712   2.816855
    35  H    1.090746   2.485873   4.832144   3.673873   3.821942
    36  H    1.090277   2.484709   4.072049   2.464133   3.344265
                   31         32         33         34         35
    31  H    0.000000
    32  H    1.778924   0.000000
    33  H    3.794923   3.681533   0.000000
    34  H    3.252321   2.442082   1.779443   0.000000
    35  H    2.485469   3.717571   3.029651   3.761395   0.000000
    36  H    2.905865   3.753661   3.779514   4.306121   1.782339
                   36
    36  H    0.000000
 Framework group  C1[X(C10H18Br6O2)]
 Deg. of freedom   102
                         Standard orientation:                         
 ---------------------------------------------------------------------
 Center     Atomic      Atomic             Coordinates (Angstroms)
 Number     Number       Type             X           Y           Z
 ---------------------------------------------------------------------
      1          8           0        5.459242   -1.064568   -1.198771
      2          6           0        4.523233   -1.381097   -0.195082
      3          6           0        3.352117   -0.383801   -0.287115
      4          6           0        3.873584    1.046036   -0.118134
      5         35           0        4.670998    1.372863    1.629793
      6          6           0        2.777494   -0.520020   -1.698248
      7         35           0        1.275506    0.646386   -2.034965
      8          6           0        2.318851   -0.666418    0.800180
      9         35           0        1.437769   -2.392091    0.592271
     10          1           0        6.228517   -1.634110   -1.103305
     11          1           0        4.978042   -1.310606    0.802368
     12          1           0        4.143997   -2.404234   -0.329504
     13          1           0        3.068451    1.774133   -0.217924
     14          1           0        4.656197    1.243711   -0.850480
     15          1           0        2.418222   -1.534294   -1.873247
     16          1           0        3.538464   -0.273607   -2.437417
     17          1           0        1.522872    0.080779    0.797407
     18          1           0        2.788853   -0.690691    1.782776
     19          8           0       -0.266369    1.216214    0.838212
     20          6           0       -1.504408    0.762764    1.310967
     21          6           0       -2.468423    0.303923    0.183645
     22          6           0       -2.496863    1.319173   -0.963671
     23         35           0       -2.811007    3.147553   -0.355562
     24          6           0       -1.931039   -1.018287   -0.362228
     25         35           0       -2.944553   -1.693023   -1.888239
     26          6           0       -3.883525    0.153918    0.736647
     27         35           0       -3.973106   -1.032635    2.283661
     28          1           0       -0.371250    2.101543    0.467622
     29          1           0       -1.998298    1.534993    1.913049
     30          1           0       -1.284836   -0.086800    1.962840
     31          1           0       -3.298613    1.094084   -1.665749
     32          1           0       -1.543805    1.330445   -1.494419
     33          1           0       -1.966780   -1.800387    0.395731
     34          1           0       -0.907992   -0.893017   -0.709739
     35          1           0       -4.551830   -0.273866   -0.011749
     36          1           0       -4.275604    1.114787    1.070875
 ---------------------------------------------------------------------
 Rotational constants (GHZ):           0.1529961           0.0649343           0.0612191
   396 basis functions,   852 primitive gaussians,   426 cartesian basis functions
   152 alpha electrons      152 beta electrons
       nuclear repulsion energy      4925.0085173236 Hartrees.
 NAtoms=   36 NActive=   36 NUniq=   36 SFac= 1.00D+00 NAtFMM=   60 NAOKFM=F Big=F
 Nuclear repulsion after empirical dispersion term =     4924.9699595571 Hartrees.
   1 Symmetry operations used in ECPInt.
 ECPInt:  NShTT=   16290 NPrTT=   79056 LenC2=   13820 LenP2D=   41730.
 LDataN:  DoStor=T MaxTD1= 4 Len=   56
 ExpMin= 1.22D-01 ExpMax= 1.13D+05 ExpMxC= 1.70D+04 IAcc=3 IRadAn=         5 AccDes= 0.00D+00
 Harris functional with IExCor= 4639 and IRadAn=       5 diagonalized for initial guess.
 HarFok:  IExCor= 4639 AccDes= 0.00D+00 IRadAn=         5 IDoV= 1 UseB2=F ITyADJ=14
 ICtDFT=  3500011 ScaDFX=  1.000000  1.000000  1.000000  1.000000
 FoFCou: FMM=F IPFlag=           0 FMFlag=      100000 FMFlg1=           0
         NFxFlg=           0 DoJE=T BraDBF=F KetDBF=T FulRan=T
         wScrn=  0.000000 ICntrl=       500 IOpCl=  0 I1Cent=   200000004 NGrid=           0
         NMat0=    1 NMatS0=      1 NMatT0=    0 NMatD0=    1 NMtDS0=    0 NMtDT0=    0
 Petite list used in FoFCou.
     Accept linear search using points  2 and  3.
     Accept linear search using points  1 and  2.
     Accept linear search using points  2 and  3.
     Accept linear search using points  1 and  2.
     Minimum is close to point  2 DX= -2.30D-05 DF=  0.00D+00 DXR=  2.30D-05 DFR=  0.00D+00 which will be used.
 SCF Done:  E(RwB97XD) =  -15985.1788598     a.u. after    7 cycles
            Convg  =    0.1825D-05                    26 Fock formations.
              S**2 =  0.0000                  -V/T =  2.0014

 **********************************************************************

            Population analysis using the SCF Density.

 **********************************************************************

 Orbital symmetries:
       Occupied  (A) (A) (A) (A) (A) (A) (A) (A) (A) (A) (A) (A)
                 (A) (A) (A) (A) (A) (A) (A) (A) (A) (A) (A) (A)
                 (A) (A) (A) (A) (A) (A) (A) (A) (A) (A) (A) (A)
                 (A) (A) (A) (A) (A) (A) (A) (A) (A) (A) (A) (A)
                 (A) (A) (A) (A) (A) (A) (A) (A) (A) (A) (A) (A)
                 (A) (A) (A) (A) (A) (A) (A) (A) (A) (A) (A) (A)
                 (A) (A) (A) (A) (A) (A) (A) (A) (A) (A) (A) (A)
                 (A) (A) (A) (A) (A) (A) (A) (A) (A) (A) (A) (A)
                 (A) (A) (A) (A) (A) (A) (A) (A) (A) (A) (A) (A)
                 (A) (A) (A) (A) (A) (A) (A) (A) (A) (A) (A) (A)
                 (A) (A) (A) (A) (A) (A) (A) (A) (A) (A) (A) (A)
                 (A) (A) (A) (A) (A) (A) (A) (A) (A) (A) (A) (A)
                 (A) (A) (A) (A) (A) (A) (A) (A)
       Virtual   (A) (A) (A) (A) (A) (A) (A) (A) (A) (A) (A) (A)
                 (A) (A) (A) (A) (A) (A) (A) (A) (A) (A) (A) (A)
                 (A) (A) (A) (A) (A) (A) (A) (A) (A) (A) (A) (A)
                 (A) (A) (A) (A) (A) (A) (A) (A) (A) (A) (A) (A)
                 (A) (A) (A) (A) (A) (A) (A) (A) (A) (A) (A) (A)
                 (A) (A) (A) (A) (A) (A) (A) (A) (A) (A) (A) (A)
                 (A) (A) (A) (A) (A) (A) (A) (A) (A) (A) (A) (A)
                 (A) (A) (A) (A) (A) (A) (A) (A) (A) (A) (A) (A)
                 (A) (A) (A) (A) (A) (A) (A) (A) (A) (A) (A) (A)
                 (A) (A) (A) (A) (A) (A) (A) (A) (A) (A) (A) (A)
                 (A) (A) (A) (A) (A) (A) (A) (A) (A) (A) (A) (A)
                 (A) (A) (A) (A) (A) (A) (A) (A) (A) (A) (A) (A)
                 (A) (A) (A) (A) (A) (A) (A) (A) (A) (A) (A) (A)
                 (A) (A) (A) (A) (A) (A) (A) (A) (A) (A) (A) (A)
                 (A) (A) (A) (A) (A) (A) (A) (A) (A) (A) (A) (A)
                 (A) (A) (A) (A) (A) (A) (A) (A) (A) (A) (A) (A)
                 (A) (A) (A) (A) (A) (A) (A) (A) (A) (A) (A) (A)
                 (A) (A) (A) (A) (A) (A) (A) (A) (A) (A) (A) (A)
                 (A) (A) (A) (A) (A) (A) (A) (A) (A) (A) (A) (A)
                 (A) (A) (A) (A) (A) (A) (A) (A) (A) (A) (A) (A)
                 (A) (A) (A) (A)
 The electronic state is 1-A.
 Alpha  occ. eigenvalues -- -483.06973-483.06033-483.05706-483.05641-483.05572
 Alpha  occ. eigenvalues -- -483.05376 -62.65182 -62.64224 -62.63899 -62.63852
 Alpha  occ. eigenvalues --  -62.63786 -62.63589 -56.45944 -56.45598 -56.45591
 Alpha  occ. eigenvalues --  -56.44991 -56.44660 -56.44642 -56.44634 -56.44623
 Alpha  occ. eigenvalues --  -56.44554 -56.44354 -56.44319 -56.44311 -56.44264
 Alpha  occ. eigenvalues --  -56.44256 -56.44200 -56.44191 -56.44005 -56.43995
 Alpha  occ. eigenvalues --  -19.27311 -19.27114 -10.36472 -10.35616 -10.35606
 Alpha  occ. eigenvalues --  -10.35521 -10.35452 -10.35385 -10.34998 -10.34970
 Alpha  occ. eigenvalues --  -10.34957 -10.34628  -8.82126  -8.81161  -8.80832
 Alpha  occ. eigenvalues --   -8.80796  -8.80733  -8.80534  -6.64638  -6.63686
 Alpha  occ. eigenvalues --   -6.63379  -6.63355  -6.63341  -6.63338  -6.63267
 Alpha  occ. eigenvalues --   -6.63056  -6.62414  -6.62383  -6.62092  -6.62062
 Alpha  occ. eigenvalues --   -6.62036  -6.62005  -6.61981  -6.61945  -6.61789
 Alpha  occ. eigenvalues --   -6.61752  -2.75008  -2.74655  -2.74636  -2.74060
 Alpha  occ. eigenvalues --   -2.73710  -2.73703  -2.73701  -2.73676  -2.73633
 Alpha  occ. eigenvalues --   -2.73633  -2.73633  -2.73424  -2.73361  -2.73341
 Alpha  occ. eigenvalues --   -2.73337  -2.73316  -2.73276  -2.73247  -2.73073
 Alpha  occ. eigenvalues --   -2.73042  -2.72662  -2.72661  -2.72345  -2.72344
 Alpha  occ. eigenvalues --   -2.72276  -2.72276  -2.72222  -2.72221  -2.72033
 Alpha  occ. eigenvalues --   -2.72033  -1.13874  -1.13641  -0.97914  -0.97825
 Alpha  occ. eigenvalues --   -0.91542  -0.90985  -0.90456  -0.90280  -0.85990
 Alpha  occ. eigenvalues --   -0.85817  -0.79074  -0.78197  -0.77226  -0.77045
 Alpha  occ. eigenvalues --   -0.75739  -0.75533  -0.66411  -0.64541  -0.63299
 Alpha  occ. eigenvalues --   -0.62007  -0.59843  -0.59723  -0.57440  -0.57317
 Alpha  occ. eigenvalues --   -0.56099  -0.55601  -0.54719  -0.54176  -0.51434
 Alpha  occ. eigenvalues --   -0.51109  -0.50131  -0.49326  -0.48790  -0.48384
 Alpha  occ. eigenvalues --   -0.46844  -0.46288  -0.45732  -0.45580  -0.45098
 Alpha  occ. eigenvalues --   -0.44484  -0.43280  -0.42682  -0.39465  -0.38542
 Alpha  occ. eigenvalues --   -0.38230  -0.37830  -0.37659  -0.37142  -0.36704
 Alpha  occ. eigenvalues --   -0.36335  -0.36090  -0.36039  -0.35763  -0.35705
 Alpha  occ. eigenvalues --   -0.35516  -0.35235
 Alpha virt. eigenvalues --    0.05757   0.06793   0.07240   0.07616   0.07736
 Alpha virt. eigenvalues --    0.07888   0.12482   0.13067   0.15148   0.15602
 Alpha virt. eigenvalues --    0.16889   0.17185   0.17485   0.17536   0.18255
 Alpha virt. eigenvalues --    0.19010   0.20536   0.20893   0.21583   0.22049
 Alpha virt. eigenvalues --    0.22507   0.22716   0.23605   0.24355   0.25049
 Alpha virt. eigenvalues --    0.25869   0.26711   0.27701   0.28098   0.28337
 Alpha virt. eigenvalues --    0.28839   0.30093   0.30790   0.33205   0.39795
 Alpha virt. eigenvalues --    0.41490   0.41991   0.43105   0.43791   0.44346
 Alpha virt. eigenvalues --    0.45364   0.45781   0.47126   0.47498   0.48150
 Alpha virt. eigenvalues --    0.49234   0.50440   0.50733   0.52113   0.52569
 Alpha virt. eigenvalues --    0.52730   0.53769   0.54338   0.54906   0.55369
 Alpha virt. eigenvalues --    0.56219   0.56666   0.57125   0.57718   0.57953
 Alpha virt. eigenvalues --    0.58801   0.59339   0.59815   0.60077   0.60784
 Alpha virt. eigenvalues --    0.61156   0.61794   0.62088   0.63163   0.63649
 Alpha virt. eigenvalues --    0.63968   0.64157   0.64399   0.64631   0.65242
 Alpha virt. eigenvalues --    0.65487   0.66040   0.66524   0.67393   0.67583
 Alpha virt. eigenvalues --    0.68275   0.68396   0.68949   0.69504   0.69637
 Alpha virt. eigenvalues --    0.70369   0.70780   0.71707   0.72015   0.72794
 Alpha virt. eigenvalues --    0.73876   0.74269   0.74419   0.75289   0.75850
 Alpha virt. eigenvalues --    0.76317   0.76443   0.76776   0.77335   0.77572
 Alpha virt. eigenvalues --    0.78575   0.79346   0.79759   0.80162   0.80847
 Alpha virt. eigenvalues --    0.81171   0.82016   0.82468   0.83052   0.83673
 Alpha virt. eigenvalues --    0.83833   0.84035   0.85066   0.85248   0.87196
 Alpha virt. eigenvalues --    0.88004   0.88392   0.90563   0.92001   0.92883
 Alpha virt. eigenvalues --    0.93316   0.96230   0.98212   0.98851   0.99381
 Alpha virt. eigenvalues --    1.01544   1.01888   1.04931   1.05383   1.07765
 Alpha virt. eigenvalues --    1.08119   1.08399   1.11297   1.11845   1.12375
 Alpha virt. eigenvalues --    1.13681   1.14424   1.15331   1.17036   1.17364
 Alpha virt. eigenvalues --    1.18467   1.19975   1.22453   1.23494   1.25304
 Alpha virt. eigenvalues --    1.26625   1.28452   1.29064   1.31437   1.34802
 Alpha virt. eigenvalues --    1.42935   1.43742   1.50490   1.51267   1.55036
 Alpha virt. eigenvalues --    1.60438   1.64038   1.65405   1.76361   1.77624
 Alpha virt. eigenvalues --    1.78624   1.80017   1.80483   1.84014   1.88011
 Alpha virt. eigenvalues --    1.88786   1.89561   1.90045   1.92041   1.93088
 Alpha virt. eigenvalues --    2.04967   2.05783   2.07025   2.07694   2.08180
 Alpha virt. eigenvalues --    2.08570   2.09099   2.10292   2.11057   2.12477
 Alpha virt. eigenvalues --    2.15296   2.16920   2.17208   2.18440   2.19474
 Alpha virt. eigenvalues --    2.20899   2.23490   2.24905   2.25784   2.26525
 Alpha virt. eigenvalues --    2.27020   2.28377   2.29367   2.30409   2.54760
 Alpha virt. eigenvalues --    2.55628   2.58478   2.59095   2.68246   2.70226
 Alpha virt. eigenvalues --    2.70347   2.70891   2.73764   2.75388   2.75830
 Alpha virt. eigenvalues --    2.76044   2.90886   2.95357   2.96978   3.06154
 Alpha virt. eigenvalues --    3.09298   3.12347   3.45512   3.46146   3.54060
 Alpha virt. eigenvalues --    3.54217   3.54489   3.55029   3.55153   3.55475
 Alpha virt. eigenvalues --    3.55712   3.56307   3.56669   3.57066   3.57588
 Alpha virt. eigenvalues --    3.59302   3.62410   3.62885   3.63754   3.64047
 Alpha virt. eigenvalues --    3.64259   3.64702   3.65658   3.66122   3.66380
 Alpha virt. eigenvalues --    3.66717   3.67588   3.70233   3.87923   3.88420
 Alpha virt. eigenvalues --    3.88916   3.89355   3.89601   3.89814
          Condensed to atoms (all electrons):
 Mulliken charges:
               1
     1  O   -0.489988
     2  C    0.073730
     3  C   -0.304415
     4  C   -0.181822
     5  Br  -0.124473
     6  C   -0.168272
     7  Br  -0.127707
     8  C   -0.217108
     9  Br  -0.131693
    10  H    0.328517
    11  H    0.115977
    12  H    0.111949
    13  H    0.173792
    14  H    0.179844
    15  H    0.173250
    16  H    0.180794
    17  H    0.223090
    18  H    0.171610
    19  O   -0.479293
    20  C    0.082345
    21  C   -0.277163
    22  C   -0.223236
    23  Br  -0.123541
    24  C   -0.203553
    25  Br  -0.125247
    26  C   -0.183737
    27  Br  -0.115592
    28  H    0.332270
    29  H    0.122601
    30  H    0.130971
    31  H    0.181159
    32  H    0.180463
    33  H    0.176948
    34  H    0.191851
    35  H    0.172873
    36  H    0.172803
 Sum of Mulliken charges =   0.00000
 Mulliken charges with hydrogens summed into heavy atoms:
               1
     1  O   -0.161470
     2  C    0.301656
     3  C   -0.304415
     4  C    0.171815
     5  Br  -0.124473
     6  C    0.185773
     7  Br  -0.127707
     8  C    0.177591
     9  Br  -0.131693
    19  O   -0.147023
    20  C    0.335917
    21  C   -0.277163
    22  C    0.138386
    23  Br  -0.123541
    24  C    0.165246
    25  Br  -0.125247
    26  C    0.161939
    27  Br  -0.115592
 Electronic spatial extent (au):  <R**2>=          16625.7168
 Charge=              0.0000 electrons
 Dipole moment (field-independent basis, Debye):
    X=              2.3251    Y=             -0.0098    Z=             -0.5732  Tot=              2.3947
 Evaluate density.
 Using the total density.
 Monte-Carlo method of calculating molar volume:
 based on  0.001 e/bohr**3 density envelope.
 Number of points per bohr**3 =  100 CutOff= 1.00D-04
 Using the SCF density.
 There are      3100 points.  Will hold      3100 in memory.
 LenV=  1047073443 MDV=  1048576000.
 Box volume =29816.512 fraction occupied=0.097
 Integrated density= 1.8703622984733920D+02 error=-1.1696377015266080D+02
 Molar volume = 2904.705 bohr**3/mol (259.213 cm**3/mol)
 Recommended a0 for SCRF calculation =  5.66 angstrom ( 10.69 bohr)
   1 Symmetry operations used in ECPInt.
 ECPInt:  NShTT=   16290 NPrTT=   79056 LenC2=   13820 LenP2D=   41730.
 LDataN:  DoStor=T MaxTD1= 5 Len=  102
 Calling FoFJK, ICntrl=      2127 FMM=F ISym2X=0 I1Cent= 0 IOpClX= 0 NMat=1 NMatS=1 NMatT=0.

 GradGradGradGradGradGradGradGradGradGradGradGradGradGradGradGradGradGrad
 FormGI is forming the generalized inverse of G from B-inverse, IUseBI=4.
 Internal  Forces:  Max     0.015608070 RMS     0.003381400
 Step number   1 out of a maximum of  198
 All quantities printed in internal units (Hartrees-Bohrs-Radians)
 Mixed Optimization -- RFO/linear search
 Second derivative matrix not updated -- first step.
 ITU=  0
     Eigenvalues ---    0.00230   0.00230   0.00230   0.00230   0.00230
     Eigenvalues ---    0.00339   0.00352   0.00373   0.00395   0.00413
     Eigenvalues ---    0.00417   0.00956   0.01580   0.01683   0.03556
     Eigenvalues ---    0.04274   0.04424   0.04541   0.04642   0.04664
     Eigenvalues ---    0.04762   0.04872   0.05071   0.05238   0.05291
     Eigenvalues ---    0.05336   0.05356   0.05371   0.05376   0.05420
     Eigenvalues ---    0.05544   0.05697   0.05729   0.05746   0.05771
     Eigenvalues ---    0.05807   0.05911   0.09823   0.11147   0.11209
     Eigenvalues ---    0.13044   0.13676   0.14031   0.14049   0.14801
     Eigenvalues ---    0.14812   0.15698   0.15917   0.15920   0.15938
     Eigenvalues ---    0.15941   0.16000   0.16000   0.16000   0.16000
     Eigenvalues ---    0.16000   0.16000   0.16000   0.16000   0.16000
     Eigenvalues ---    0.16000   0.16000   0.16000   0.16059   0.16064
     Eigenvalues ---    0.16767   0.16806   0.22010   0.22020   0.22292
     Eigenvalues ---    0.22297   0.22311   0.22314   0.22342   0.27427
     Eigenvalues ---    0.28433   0.29214   0.29303   0.29449   0.29602
     Eigenvalues ---    0.29730   0.29762   0.33748   0.33847   0.34049
     Eigenvalues ---    0.34455   0.34608   0.34705   0.34727   0.34781
     Eigenvalues ---    0.34794   0.34801   0.34824   0.34847   0.34872
     Eigenvalues ---    0.34904   0.34915   0.35080   0.44250   0.45511
     Eigenvalues ---    0.54312   0.55064
 Linear search not attempted -- first point.
 Maximum step size (   0.300) exceeded in Quadratic search.
    -- Step size scaled by   0.518
 Iteration  1 RMS(Cart)=  0.17664468 RMS(Int)=  0.01081960
 Iteration  2 RMS(Cart)=  0.09354864 RMS(Int)=  0.00235259
 Iteration  3 RMS(Cart)=  0.00526050 RMS(Int)=  0.00146367
 Iteration  4 RMS(Cart)=  0.00002316 RMS(Int)=  0.00146366
 Iteration  5 RMS(Cart)=  0.00000033 RMS(Int)=  0.00146366
 Variable       Old X    -DE/DX   Delta X   Delta X   Delta X     New X
                                 (Linear)    (Quad)   (Total)
    R1        2.66156   0.00041   0.00000   0.00046   0.00046   2.66202
    R2        1.81775   0.00294   0.00000   0.00268   0.00268   1.82043
    R3        2.91201  -0.00057   0.00000  -0.00099  -0.00099   2.91102
    R4        2.07589   0.00539   0.00000   0.00786   0.00786   2.08375
    R5        2.07758   0.00478   0.00000   0.00699   0.00699   2.08457
    R6        2.89376   0.00675   0.00000   0.01129   0.01129   2.90505
    R7        2.89075   0.00934   0.00000   0.01556   0.01537   2.90612
    R8        2.88437   0.00956   0.00000   0.01573   0.01596   2.90033
    R9        3.68275   0.00155   0.00000   0.00452   0.00452   3.68728
   R10        2.05999   0.00524   0.00000   0.00744   0.00744   2.06743
   R11        2.05962   0.00548   0.00000   0.00778   0.00778   2.06740
   R12        3.64959   0.00679   0.00000   0.01903   0.01904   3.66864
   R13        2.06011   0.00545   0.00000   0.00775   0.00775   2.06786
   R14        2.05812   0.00551   0.00000   0.00780   0.00780   2.06592
   R15        3.68253   0.00242   0.00000   0.00708   0.00708   3.68961
   R16        2.06309   0.00806   0.00000   0.01153   0.01139   2.07448
   R17        2.05883   0.00561   0.00000   0.00796   0.00796   2.06679
   R18        4.00527   0.00209   0.00000   0.02065   0.02068   4.02595
   R19        2.64687   0.00282   0.00000   0.00310   0.00310   2.64997
   R20        1.82449   0.00321   0.00000   0.00297   0.00297   1.82746
   R21        2.93408   0.00117   0.00000   0.00209   0.00209   2.93617
   R22        2.07248   0.00589   0.00000   0.00854   0.00854   2.08101
   R23        2.06570   0.00449   0.00000   0.00644   0.00644   2.07213
   R24        2.89559   0.00505   0.00000   0.00846   0.00846   2.90405
   R25        2.88764   0.00615   0.00000   0.01018   0.01018   2.89782
   R26        2.88505   0.00625   0.00000   0.01031   0.01031   2.89536
   R27        3.68930   0.00193   0.00000   0.00569   0.00569   3.69499
   R28        2.05831   0.00554   0.00000   0.00785   0.00785   2.06616
   R29        2.06157   0.00495   0.00000   0.00705   0.00705   2.06862
   R30        3.68917   0.00115   0.00000   0.00339   0.00339   3.69256
   R31        2.05925   0.00584   0.00000   0.00828   0.00828   2.06753
   R32        2.05545   0.00758   0.00000   0.01068   0.01068   2.06613
   R33        3.68820   0.00005   0.00000   0.00016   0.00016   3.68837
   R34        2.06121   0.00569   0.00000   0.00809   0.00809   2.06930
   R35        2.06032   0.00602   0.00000   0.00855   0.00855   2.06888
    A1        1.90466   0.00033   0.00000   0.00096   0.00096   1.90562
    A2        1.89342  -0.00040   0.00000  -0.00034  -0.00034   1.89308
    A3        1.93638   0.00089   0.00000   0.00322   0.00321   1.93959
    A4        1.92971   0.00158   0.00000   0.00805   0.00805   1.93776
    A5        1.90430  -0.00126   0.00000  -0.00627  -0.00628   1.89802
    A6        1.91010  -0.00099   0.00000  -0.00373  -0.00374   1.90636
    A7        1.88973   0.00012   0.00000  -0.00120  -0.00124   1.88848
    A8        1.91655   0.00171   0.00000  -0.00187  -0.00180   1.91475
    A9        1.85766  -0.00220   0.00000  -0.01184  -0.01163   1.84603
   A10        1.93061  -0.00268   0.00000  -0.01177  -0.01194   1.91867
   A11        1.88900  -0.00168   0.00000  -0.00262  -0.00315   1.88585
   A12        1.90161  -0.00023   0.00000   0.00370   0.00364   1.90525
   A13        1.96747   0.00507   0.00000   0.02392   0.02422   1.99169
   A14        1.97676   0.00839   0.00000   0.01909   0.01907   1.99583
   A15        1.94125  -0.00116   0.00000  -0.00227  -0.00230   1.93896
   A16        1.91742  -0.00072   0.00000  -0.00236  -0.00237   1.91506
   A17        1.84658  -0.00285   0.00000  -0.00312  -0.00316   1.84343
   A18        1.85296  -0.00359   0.00000  -0.00770  -0.00771   1.84526
   A19        1.92591  -0.00028   0.00000  -0.00410  -0.00412   1.92179
   A20        1.98143   0.01561   0.00000   0.03566   0.03503   2.01646
   A21        1.93342  -0.00269   0.00000  -0.00556  -0.00545   1.92797
   A22        1.92140  -0.00212   0.00000  -0.00691  -0.00694   1.91446
   A23        1.85211  -0.00474   0.00000  -0.00366  -0.00338   1.84873
   A24        1.86337  -0.00655   0.00000  -0.01430  -0.01427   1.84910
   A25        1.90903   0.00003   0.00000  -0.00634  -0.00644   1.90259
   A26        1.97582   0.00207   0.00000   0.01048   0.00784   1.98366
   A27        1.94446   0.01032   0.00000   0.03436   0.03546   1.97992
   A28        1.93323  -0.00428   0.00000  -0.01645  -0.00875   1.92448
   A29        1.85059  -0.00483   0.00000  -0.00588  -0.00851   1.84208
   A30        1.84579   0.00034   0.00000  -0.00674  -0.01128   1.83451
   A31        1.90929  -0.00435   0.00000  -0.01831  -0.01858   1.89071
   A32        2.18859  -0.00027   0.00000  -0.00143  -0.00149   2.18710
   A33        2.18408  -0.00026   0.00000  -0.00118  -0.00133   2.18275
   A34        1.90753   0.00045   0.00000   0.00052   0.00042   1.90795
   A35        1.98167  -0.00058   0.00000  -0.00038  -0.00038   1.98128
   A36        1.93413   0.00073   0.00000   0.00293   0.00293   1.93706
   A37        1.84974   0.00075   0.00000   0.00391   0.00391   1.85365
   A38        1.90401  -0.00024   0.00000  -0.00185  -0.00186   1.90215
   A39        1.90500   0.00005   0.00000  -0.00013  -0.00013   1.90487
   A40        1.88633  -0.00072   0.00000  -0.00463  -0.00464   1.88169
   A41        1.93839  -0.00025   0.00000  -0.00409  -0.00410   1.93428
   A42        1.87207  -0.00176   0.00000  -0.00684  -0.00687   1.86519
   A43        1.91935   0.00143   0.00000   0.00638   0.00639   1.92574
   A44        1.88847   0.00056   0.00000  -0.00028  -0.00031   1.88816
   A45        1.89559  -0.00119   0.00000  -0.00250  -0.00250   1.89310
   A46        1.95018   0.00122   0.00000   0.00722   0.00723   1.95741
   A47        1.97173   0.00759   0.00000   0.01744   0.01740   1.98913
   A48        1.93839   0.00075   0.00000   0.00361   0.00355   1.94195
   A49        1.93362  -0.00117   0.00000  -0.00420  -0.00419   1.92942
   A50        1.85029  -0.00321   0.00000  -0.00356  -0.00365   1.84664
   A51        1.85713  -0.00331   0.00000  -0.00786  -0.00784   1.84929
   A52        1.90879  -0.00103   0.00000  -0.00634  -0.00634   1.90245
   A53        1.97765   0.00817   0.00000   0.01869   0.01866   1.99632
   A54        1.94015  -0.00199   0.00000  -0.00651  -0.00649   1.93366
   A55        1.92330   0.00012   0.00000   0.00182   0.00177   1.92507
   A56        1.85315  -0.00320   0.00000  -0.00733  -0.00730   1.84585
   A57        1.85289  -0.00302   0.00000  -0.00279  -0.00287   1.85002
   A58        1.91318  -0.00035   0.00000  -0.00445  -0.00446   1.90872
   A59        1.97076   0.00807   0.00000   0.01830   0.01828   1.98904
   A60        1.93684  -0.00103   0.00000  -0.00328  -0.00328   1.93356
   A61        1.93668  -0.00077   0.00000  -0.00105  -0.00108   1.93559
   A62        1.85178  -0.00352   0.00000  -0.00793  -0.00792   1.84386
   A63        1.85074  -0.00284   0.00000  -0.00323  -0.00327   1.84747
   A64        1.91308  -0.00018   0.00000  -0.00339  -0.00340   1.90968
   A65        3.18274   0.00974   0.00000   0.28190   0.27899   3.46173
   A66        2.95351  -0.00102   0.00000  -0.02590  -0.03282   2.92069
    D1        3.05939  -0.00031   0.00000  -0.00304  -0.00304   3.05635
    D2        0.96782   0.00095   0.00000   0.00295   0.00296   0.97078
    D3       -1.12912  -0.00083   0.00000  -0.00297  -0.00298  -1.13210
    D4       -1.02265   0.00101   0.00000   0.01005   0.01014  -1.01251
    D5        1.01825  -0.00131   0.00000  -0.00057  -0.00083   1.01742
    D6       -3.12211   0.00190   0.00000   0.01414   0.01430  -3.10780
    D7        1.08885   0.00109   0.00000   0.01000   0.01009   1.09894
    D8        3.12975  -0.00123   0.00000  -0.00061  -0.00088   3.12887
    D9       -1.01060   0.00198   0.00000   0.01410   0.01425  -0.99635
   D10       -3.12951  -0.00008   0.00000   0.00268   0.00279  -3.12672
   D11       -1.08861  -0.00240   0.00000  -0.00793  -0.00818  -1.09679
   D12        1.05422   0.00081   0.00000   0.00678   0.00695   1.06117
   D13       -1.10289   0.00033   0.00000   0.00433   0.00442  -1.09847
   D14        3.10324  -0.00092   0.00000  -0.00308  -0.00300   3.10024
   D15        0.96571   0.00071   0.00000   0.00528   0.00536   0.97107
   D16       -3.12406   0.00297   0.00000   0.02092   0.02095  -3.10310
   D17        1.08207   0.00172   0.00000   0.01351   0.01353   1.09560
   D18       -1.05545   0.00335   0.00000   0.02187   0.02189  -1.03356
   D19        1.01407  -0.00205   0.00000  -0.00898  -0.00908   1.00499
   D20       -1.06299  -0.00330   0.00000  -0.01639  -0.01651  -1.07949
   D21        3.08267  -0.00167   0.00000  -0.00803  -0.00814   3.07453
   D22        3.13660   0.00079   0.00000   0.02288   0.02324  -3.12335
   D23        1.05481  -0.00180   0.00000   0.00732   0.00736   1.06217
   D24       -1.05891   0.00134   0.00000   0.02351   0.02342  -1.03548
   D25       -1.08741   0.00077   0.00000   0.01309   0.01351  -1.07390
   D26        3.11399  -0.00182   0.00000  -0.00247  -0.00237   3.11161
   D27        1.00027   0.00132   0.00000   0.01372   0.01369   1.01396
   D28        1.01711   0.00254   0.00000   0.03102   0.03150   1.04860
   D29       -1.06468  -0.00005   0.00000   0.01546   0.01561  -1.04907
   D30        3.10479   0.00309   0.00000   0.03165   0.03167   3.13646
   D31       -1.13662   0.00107   0.00000  -0.00522  -0.00542  -1.14204
   D32        3.06272  -0.00150   0.00000  -0.02939  -0.02616   3.03656
   D33        0.93317  -0.00010   0.00000  -0.01827  -0.02068   0.91249
   D34        3.03820   0.00078   0.00000   0.00205   0.00189   3.04009
   D35        0.95435  -0.00179   0.00000  -0.02212  -0.01885   0.93551
   D36       -1.17520  -0.00039   0.00000  -0.01100  -0.01337  -1.18857
   D37        0.94091  -0.00020   0.00000  -0.01251  -0.01259   0.92832
   D38       -1.14293  -0.00278   0.00000  -0.03668  -0.03333  -1.17626
   D39        3.01070  -0.00137   0.00000  -0.02556  -0.02785   2.98285
   D40        2.63096   0.00381   0.00000   0.08147   0.08770   2.71865
   D41       -0.38746   0.00180   0.00000   0.00912   0.01596  -0.37150
   D42        0.50703  -0.00272   0.00000  -0.01373  -0.01318   0.49386
   D43       -2.51139  -0.00472   0.00000  -0.08608  -0.08491  -2.59630
   D44       -1.42484   0.00273   0.00000   0.06395   0.05617  -1.36868
   D45        1.83992   0.00072   0.00000  -0.00840  -0.01557   1.82435
   D46       -1.73274   0.00032   0.00000   0.01175   0.01138  -1.72136
   D47        2.40047   0.00050   0.00000   0.01223   0.01186   2.41233
   D48        0.35815   0.00054   0.00000   0.01397   0.01361   0.37176
   D49        1.32909  -0.00076   0.00000  -0.01620  -0.01583   1.31325
   D50       -0.82089  -0.00058   0.00000  -0.01572  -0.01536  -0.83624
   D51       -2.86320  -0.00054   0.00000  -0.01397  -0.01361  -2.87681
   D52       -0.80276   0.00013   0.00000   0.00550   0.00548  -0.79728
   D53        1.25751  -0.00039   0.00000  -0.00125  -0.00123   1.25628
   D54       -2.90152   0.00084   0.00000   0.00707   0.00707  -2.89446
   D55        1.36364   0.00049   0.00000   0.00763   0.00761   1.37125
   D56       -2.85927  -0.00004   0.00000   0.00088   0.00090  -2.85837
   D57       -0.73512   0.00120   0.00000   0.00920   0.00920  -0.72593
   D58       -2.86195  -0.00048   0.00000   0.00090   0.00089  -2.86105
   D59       -0.80167  -0.00101   0.00000  -0.00584  -0.00582  -0.80749
   D60        1.32248   0.00023   0.00000   0.00248   0.00248   1.32495
   D61       -0.88627  -0.00037   0.00000   0.00027   0.00029  -0.88598
   D62       -2.96266  -0.00192   0.00000  -0.00946  -0.00949  -2.97215
   D63        1.19552  -0.00032   0.00000  -0.00097  -0.00099   1.19453
   D64       -2.93658   0.00157   0.00000   0.01108   0.01112  -2.92546
   D65        1.27022   0.00002   0.00000   0.00135   0.00134   1.27156
   D66       -0.85479   0.00162   0.00000   0.00984   0.00984  -0.84495
   D67        1.22652   0.00046   0.00000   0.00400   0.00403   1.23055
   D68       -0.84986  -0.00108   0.00000  -0.00573  -0.00575  -0.85562
   D69       -2.97487   0.00052   0.00000   0.00275   0.00275  -2.97212
   D70       -3.06750   0.00015   0.00000  -0.00103  -0.00107  -3.06857
   D71        1.13035   0.00007   0.00000   0.00019   0.00019   1.13054
   D72       -0.99435   0.00176   0.00000   0.00896   0.00897  -0.98539
   D73       -0.97505  -0.00082   0.00000  -0.00986  -0.00989  -0.98495
   D74       -3.06039  -0.00090   0.00000  -0.00864  -0.00863  -3.06902
   D75        1.09809   0.00079   0.00000   0.00013   0.00014   1.09824
   D76        1.11097  -0.00119   0.00000  -0.00877  -0.00879   1.10218
   D77       -0.97436  -0.00128   0.00000  -0.00755  -0.00753  -0.98189
   D78       -3.09907   0.00041   0.00000   0.00121   0.00124  -3.09782
   D79       -0.95456  -0.00054   0.00000  -0.01109  -0.01112  -0.96568
   D80       -3.03111  -0.00077   0.00000  -0.01099  -0.01100  -3.04212
   D81        1.12056   0.00071   0.00000  -0.00367  -0.00368   1.11688
   D82       -3.07903  -0.00037   0.00000  -0.00842  -0.00844  -3.08747
   D83        1.12760  -0.00059   0.00000  -0.00832  -0.00832   1.11928
   D84       -1.00391   0.00088   0.00000  -0.00100  -0.00099  -1.00490
   D85        1.12234  -0.00103   0.00000  -0.01086  -0.01085   1.11148
   D86       -0.95422  -0.00125   0.00000  -0.01076  -0.01073  -0.96495
   D87       -3.08573   0.00022   0.00000  -0.00343  -0.00341  -3.08914
         Item               Value     Threshold  Converged?
 Maximum Force            0.015608     0.000015     NO 
 RMS     Force            0.003381     0.000010     NO 
 Maximum Displacement     1.121278     0.000060     NO 
 RMS     Displacement     0.262805     0.000040     NO 
 GradGradGradGradGradGradGradGradGradGradGradGradGradGradGradGradGradGrad

                    Distance matrix (angstroms):
                    1          2          3          4          5
     1  O    0.000000
     2  C    1.408681   0.000000
     3  C    2.394156   1.540444   0.000000
     4  C    2.847142   2.516612   1.537285   0.000000
     5  Br   3.817032   3.332354   2.940117   1.951224   0.000000
     6  C    2.771094   2.454703   1.537851   2.488642   4.293675
     7  Br   4.592067   4.273394   2.950888   3.300350   5.121604
     8  C    3.744321   2.518033   1.534788   2.503552   3.255206
     9  Br   4.616419   3.350609   2.927855   4.294452   5.112312
    10  H    0.963333   1.950443   3.241891   3.697196   4.352859
    11  H    2.078505   1.102673   2.163506   2.763118   2.852414
    12  H    2.077564   1.103106   2.170013   3.472816   4.320939
    13  H    3.836995   3.479646   2.184206   1.094039   2.480686
    14  H    2.462211   2.713518   2.166879   1.094022   2.482192
    15  H    3.144087   2.690685   2.176949   3.453623   5.107684
    16  H    2.384554   2.665582   2.166357   2.698546   4.538649
    17  H    4.590566   3.499392   2.213854   2.741959   3.527316
    18  H    3.999593   2.698017   2.171297   2.810273   2.840111
    19  O    6.684232   5.628501   4.295203   4.475824   4.970593
    20  C    7.721175   6.550661   5.352210   5.745489   6.133347
    21  C    8.415061   7.315215   6.079585   6.623380   7.342872
    22  C    8.781255   7.852601   6.457250   6.769207   7.658488
    23  Br   9.787146   8.886476   7.435411   7.386612   7.946234
    24  C    7.668328   6.592715   5.486627   6.332234   7.306697
    25  Br   8.825880   7.905611   6.846822   7.757809   8.983544
    26  C    9.802473   8.635622   7.487455   8.068549   8.635731
    27  Br  10.025370   8.725586   7.842457   8.601916   8.925327
    28  H    7.165724   6.228628   4.808067   4.730167   5.229112
    29  H    8.563702   7.390723   6.201873   6.421100   6.562195
    30  H    7.433566   6.160106   5.157161   5.749384   6.021984
    31  H    9.562526   8.671176   7.298242   7.683867   8.682419
    32  H    7.976360   7.158732   5.710662   5.964392   7.034545
    33  H    7.679805   6.501937   5.594358   6.594500   7.422626
    34  H    6.683468   5.683148   4.513708   5.362629   6.499028
    35  H   10.367189   9.247347   8.102544   8.759767   9.488819
    36  H   10.430082   9.271491   8.066489   8.476271   8.897964
                    6          7          8          9         10
     6  C    0.000000
     7  Br   1.941358   0.000000
     8  C    2.578613   3.404936   0.000000
     9  Br   3.292760   4.125364   1.952456   0.000000
    10  H    3.665247   5.527300   4.453402   5.154500   0.000000
    11  H    3.423452   5.098942   2.716964   3.700009   2.309735
    12  H    2.694057   4.542038   2.755042   2.863352   2.364495
    13  H    2.758706   2.847506   2.770513   4.571634   4.731051
    14  H    2.708533   3.640573   3.457051   5.089424   3.284161
    15  H    1.094262   2.476288   2.841071   2.835129   3.881981
    16  H    1.093240   2.475919   3.510428   4.291823   3.260357
    17  H    2.942243   3.084169   1.097766   2.483115   5.381930
    18  H    3.511166   4.437446   1.093699   2.474172   4.561801
    19  O    4.745750   4.066600   3.173798   3.919497   7.498973
    20  C    5.763589   5.119500   4.035945   4.205175   8.480801
    21  C    6.118666   5.182717   4.902304   4.666259   9.206319
    22  C    6.292172   4.934113   5.538551   5.621200   9.651674
    23  Br   7.497260   6.099187   6.521830   7.011086  10.673067
    24  C    5.307185   4.564554   4.413741   3.708923   8.420946
    25  Br   6.281392   5.318213   6.025647   5.095005   9.575269
    26  C    7.577009   6.692882   6.209705   5.752787  10.551480
    27  Br   8.146685   7.694012   6.404516   5.615603  10.647300
    28  H    5.168777   4.207097   3.889052   4.805619   8.022720
    29  H    6.724257   6.038034   4.880092   5.189539   9.312689
    30  H    5.702150   5.411175   3.698033   3.571283   8.110542
    31  H    6.966929   5.516378   6.434889   6.314557  10.432927
    32  H    5.420008   3.923820   4.993998   5.261185   8.877274
    33  H    5.566095   5.183696   4.390318   3.316036   8.344899
    34  H    4.240864   3.491354   3.601325   3.106807   7.471141
    35  H    8.008888   7.023502   6.908298   6.276625  11.123014
    36  H    8.246026   7.273769   6.783412   6.563999  11.198523
                   11         12         13         14         15
    11  H    0.000000
    12  H    1.786798   0.000000
    13  H    3.773219   4.322441   0.000000
    14  H    3.070891   3.726818   1.793565   0.000000
    15  H    3.707198   2.461681   3.770657   3.711370   0.000000
    16  H    3.677941   3.035047   3.079533   2.456469   1.780995
    17  H    3.714377   3.795992   2.559139   3.775379   3.321031
    18  H    2.433971   3.015070   3.219749   3.777304   3.789203
    19  O    5.766504   5.880230   3.870344   5.499257   5.075247
    20  C    6.648823   6.620166   5.229871   6.788685   5.880547
    21  C    7.602935   7.249827   6.048692   7.586239   6.076891
    22  C    8.239220   7.916002   6.000801   7.635070   6.401165
    23  Br   9.120269   9.135829   6.490181   8.260990   7.819936
    24  C    7.024354   6.346904   5.919458   7.221012   5.035107
    25  Br   8.506125   7.542278   7.314556   8.511031   5.846623
    26  C    8.852200   8.491542   7.520923   9.059834   7.450649
    27  Br   8.793533   8.441014   8.267864   9.639131   7.883124
    28  H    6.386177   6.583793   3.942267   5.689861   5.621034
    29  H    7.379444   7.530068   5.855033   7.477490   6.914785
    30  H    6.180179   6.114403   5.433076   6.813852   5.693706
    31  H    9.129635   8.658869   6.917361   8.500014   6.979909
    32  H    7.628353   7.284722   5.158058   6.756578   5.611182
    33  H    6.850946   6.127624   6.340145   7.512203   5.163615
    34  H    6.197891   5.501293   4.962245   6.202923   4.028638
    35  H    9.559492   9.030573   8.200080   9.703075   7.794026
    36  H    9.419162   9.226198   7.851368   9.483319   8.232811
                   16         17         18         19         20
    16  H    0.000000
    17  H    3.916391   0.000000
    18  H    4.319577   1.776635   0.000000
    19  O    5.710375   2.130441   3.531113   0.000000
    20  C    6.797382   3.155782   4.290071   1.402303   0.000000
    21  C    7.147709   4.047485   5.396884   2.473773   1.553753
    22  C    7.209914   4.554777   6.159972   2.865287   2.544333
    23  Br   8.346987   5.443158   6.946040   3.419616   3.214548
    24  C    6.346724   3.790650   5.079930   3.030559   2.479584
    25  Br   7.201681   5.478524   6.821739   4.808679   4.294908
    26  C    8.623843   5.422602   6.575306   3.781534   2.533055
    27  Br   9.237189   5.865267   6.543649   4.619266   3.248831
    28  H    6.044795   2.800183   4.260670   0.967048   1.949059
    29  H    7.729557   3.989329   4.968853   2.070077   1.101223
    30  H    6.770807   3.059806   3.810711   2.006775   1.096525
    31  H    7.854965   5.501970   7.115951   3.934392   3.499007
    32  H    6.274986   4.009802   5.731857   2.653056   2.860658
    33  H    6.636045   3.970846   4.919180   3.485974   2.755044
    34  H    5.268959   2.990660   4.413095   2.684515   2.676572
    35  H    9.032563   6.150319   7.378673   4.624679   3.492011
    36  H    9.273208   5.914703   7.065394   4.026837   2.815477
                   21         22         23         24         25
    21  C    0.000000
    22  C    1.536756   0.000000
    23  Br   2.937034   1.955305   0.000000
    24  C    1.533458   2.486749   4.277098   0.000000
    25  Br   2.939981   3.221198   5.126730   1.954021   0.000000
    26  C    1.532160   2.490128   3.391642   2.543776   3.378364
    27  Br   2.930226   4.289886   5.122413   3.373451   4.363592
    28  H    2.772419   2.663558   2.776072   3.575963   5.157493
    29  H    2.177184   2.932258   2.933610   3.424560   5.098973
    30  H    2.175730   3.470688   4.291925   2.585754   4.494475
    31  H    2.185379   1.093367   2.486601   2.846489   2.867096
    32  H    2.177339   1.094667   2.489648   2.635975   3.380647
    33  H    2.177053   3.453019   5.098889   1.094090   2.485261
    34  H    2.170291   2.746536   4.494785   1.093348   2.488219
    35  H    2.176541   2.768865   3.871215   2.766578   2.890878
    36  H    2.177838   2.716210   2.914356   3.495588   4.335039
                   26         27         28         29         30
    26  C    0.000000
    27  Br   1.951799   0.000000
    28  H    4.028778   5.149659   0.000000
    29  H    2.624155   3.295670   2.260992   0.000000
    30  H    2.897331   2.923490   2.812508   1.775907   0.000000
    31  H    2.656664   4.549355   3.746748   3.845104   4.326322
    32  H    3.448107   5.098598   2.391768   3.449058   3.746353
    33  H    2.774005   2.893995   4.208212   3.661822   2.410494
    34  H    3.489311   4.327546   3.247868   3.739742   2.813395
    35  H    1.095029   2.482213   4.829990   3.683699   3.840152
    36  H    1.094803   2.485055   4.076014   2.471577   3.359192
                   31         32         33         34         35
    31  H    0.000000
    32  H    1.781340   0.000000
    33  H    3.812072   3.683823   0.000000
    34  H    3.267758   2.443265   1.784826   0.000000
    35  H    2.487264   3.719740   3.057044   3.784614   0.000000
    36  H    2.919174   3.762975   3.796091   4.325495   1.787390
                   36
    36  H    0.000000
 Framework group  C1[X(C10H18Br6O2)]
 Deg. of freedom   102
                         Standard orientation:                         
 ---------------------------------------------------------------------
 Center     Atomic      Atomic             Coordinates (Angstroms)
 Number     Number       Type             X           Y           Z
 ---------------------------------------------------------------------
      1          8           0        5.663969   -1.344342   -0.272298
      2          6           0        4.528402   -1.359530    0.561152
      3          6           0        3.454989   -0.445821   -0.060046
      4          6           0        4.015460    0.976458   -0.222041
      5         35           0        4.490786    1.850006    1.456725
      6          6           0        3.183750   -1.013806   -1.463188
      7         35           0        1.878137   -0.041967   -2.521383
      8          6           0        2.218212   -0.399603    0.847599
      9         35           0        1.292863   -2.112208    0.998586
     10          1           0        6.369405   -1.850870    0.144593
     11          1           0        4.770790   -0.986369    1.570056
     12          1           0        4.123360   -2.380848    0.659611
     13          1           0        3.284877    1.635443   -0.700484
     14          1           0        4.936674    0.945407   -0.811350
     15          1           0        2.810769   -2.040271   -1.394893
     16          1           0        4.107694   -1.008781   -2.047546
     17          1           0        1.457333    0.317353    0.512742
     18          1           0        2.508107   -0.141079    1.869999
     19          8           0       -0.374185    1.405285    0.539620
     20          6           0       -1.569501    0.965776    1.126565
     21          6           0       -2.569889    0.350063    0.109574
     22          6           0       -2.685787    1.230820   -1.144401
     23         35           0       -3.033791    3.116384   -0.761307
     24          6           0       -1.996909   -1.008649   -0.311248
     25         35           0       -3.026920   -1.924331   -1.696456
     26          6           0       -3.959567    0.220280    0.741608
     27         35           0       -3.980527   -0.794159    2.408940
     28          1           0       -0.535573    2.233150    0.066572
     29          1           0       -2.067692    1.785237    1.667843
     30          1           0       -1.287138    0.201761    1.860676
     31          1           0       -3.507131    0.900836   -1.786239
     32          1           0       -1.753683    1.207311   -1.717922
     33          1           0       -1.964750   -1.696668    0.538826
     34          1           0       -0.988944   -0.886078   -0.716701
     35          1           0       -4.645306   -0.304348    0.068099
     36          1           0       -4.371247    1.204984    0.985470
 ---------------------------------------------------------------------
 Rotational constants (GHZ):           0.1440186           0.0614861           0.0591246
   396 basis functions,   852 primitive gaussians,   426 cartesian basis functions
   152 alpha electrons      152 beta electrons
       nuclear repulsion energy      4820.6016700248 Hartrees.
 NAtoms=   36 NActive=   36 NUniq=   36 SFac= 1.00D+00 NAtFMM=   60 NAOKFM=F Big=F
 Nuclear repulsion after empirical dispersion term =     4820.5643876362 Hartrees.
   1 Symmetry operations used in ECPInt.
 ECPInt:  NShTT=   16290 NPrTT=   79056 LenC2=   13688 LenP2D=   41160.
 LDataN:  DoStor=T MaxTD1= 4 Len=   56
 Initial guess from the checkpoint file:  "dimer.chk"
 B after Tr=    -0.000000    0.000000    0.000000
         Rot=    0.995688    0.091164    0.016532   -0.004569 Ang=  10.65 deg.
 ExpMin= 1.22D-01 ExpMax= 1.13D+05 ExpMxC= 1.70D+04 IAcc=3 IRadAn=         5 AccDes= 0.00D+00
 Harris functional with IExCor= 4639 and IRadAn=       5 diagonalized for initial guess.
 HarFok:  IExCor= 4639 AccDes= 0.00D+00 IRadAn=         5 IDoV= 1 UseB2=F ITyADJ=14
 ICtDFT=  3500011 ScaDFX=  1.000000  1.000000  1.000000  1.000000
 FoFCou: FMM=F IPFlag=           0 FMFlag=      100000 FMFlg1=           0
         NFxFlg=           0 DoJE=T BraDBF=F KetDBF=T FulRan=T
         wScrn=  0.000000 ICntrl=       500 IOpCl=  0 I1Cent=   200000004 NGrid=           0
         NMat0=    1 NMatS0=      1 NMatT0=    0 NMatD0=    1 NMtDS0=    0 NMtDT0=    0
 Petite list used in FoFCou.
     Accept linear search using points  1 and  2.
     Minimum is close to point  2 DX= -8.08D-02 DF= -5.14D-05 DXR=  7.93D-02 DFR=  7.37D-03 which will be used.
     Accept linear search using points  1 and  2.
     Accept linear search using points  2 and  3.
     Accept linear search using points  1 and  2.
     Accept linear search using points  2 and  3.
 Restarting incremental Fock formation.
     Accept linear search using points  1 and  2.
     Accept linear search using points  2 and  3.
     Accept linear search using points  1 and  2.
     Accept linear search using points  1 and  2.
     Minimum is close to point  2 DX= -8.24D-05 DF=  0.00D+00 DXR=  8.24D-05 DFR=  0.00D+00 which will be used.
 SCF Done:  E(RwB97XD) =  -15985.1805237     a.u. after   13 cycles
            Convg  =    0.1235D-07                    47 Fock formations.
              S**2 =  0.0000                  -V/T =  2.0014
   1 Symmetry operations used in ECPInt.
 ECPInt:  NShTT=   16290 NPrTT=   79056 LenC2=   13688 LenP2D=   41160.
 LDataN:  DoStor=T MaxTD1= 5 Len=  102
 Calling FoFJK, ICntrl=      2127 FMM=F ISym2X=0 I1Cent= 0 IOpClX= 0 NMat=1 NMatS=1 NMatT=0.

 GradGradGradGradGradGradGradGradGradGradGradGradGradGradGradGradGradGrad
 Using GEDIIS/GDIIS optimizer.
 FormGI is forming the generalized inverse of G from B-inverse, IUseBI=4.
 Internal  Forces:  Max     0.008412615 RMS     0.001553807
 Step number   2 out of a maximum of  198
 All quantities printed in internal units (Hartrees-Bohrs-Radians)
 Mixed Optimization -- RFO/linear search
 Trust test= 2.27D-01 RLast= 3.46D-01 DXMaxT set to 3.00D-01
 ITU=  0  0
 Use linear search instead of GDIIS.
[...]
 00039936,-0.00016180,-0.00003718,0.00042269,0.00065022,-0.00000481,0.0
 0013210,-0.00031608,0.00003349,0.00013795,0.00008725,-0.00060642,0.000
 36109,-0.00085179,0.14920232,-0.02188079,0.22267062,0.00003295,0.00001
 217,-0.00001142,-0.00002255,-0.00002163,0.00001079,-0.00000880,0.00001
 885,0.00000933,-0.00004032,-0.00000613,-0.00002755,0.00002222,-0.00000
 484,0.00002295,-0.00024812,0.00003488,-0.00012786,-0.00058386,-0.00032
 223,0.00049704,0.00002177,-0.00007133,0.00000929,-0.00001790,0.0000328
 3,0.00000583,-0.00000718,-0.00000250,0.00000594,0.00000883,0.00000236,
 0.00000147,0.00000069,0.00000392,-0.00000354,-0.00001299,0.00001362,-0
 .00000035,0.00000395,0.00000671,0.00000613,0.00007292,0.00003275,0.000
 01880,-0.00000276,0.00002224,0.00002010,-0.00004766,-0.00003370,-0.000
 03380,0.00000270,0.00001924,0.00000636,-0.00074159,-0.00037121,-0.0023
 6446,-0.00042602,0.00053393,-0.00003712,0.00071534,0.00037334,-0.00004
 054,-0.29739533,0.03140755,0.09504999,0.00153055,-0.00058156,-0.000200
 89,0.00080489,-0.00070123,0.00013532,-0.00006346,0.00020058,-0.0003694
 0,0.00014997,0.00042641,0.00007386,0.00013414,-0.00018142,-0.00020624,
 -0.00001164,-0.00019135,-0.00051020,-0.00007086,0.00007240,0.00005415,
 -0.00002327,-0.00005119,0.00013322,-0.01371811,0.00211374,0.00816971,0
 .30935564,0.00002664,0.00000186,0.00000170,-0.00000613,-0.00002826,0.0
 0002030,0.00000438,0.00005853,-0.00002531,-0.00000442,0.00002968,-0.00
 000716,0.00001260,-0.00001638,0.00001988,0.00009060,-0.00025789,-0.000
 16966,-0.00050774,0.00012031,0.00034426,-0.00000677,-0.00003873,0.0000
 1206,0.00000895,0.00000534,0.00001874,-0.00000527,-0.00000021,0.000004
 03,0.00001304,0.00000848,0.00000446,-0.00000399,-0.00000291,-0.0000028
 1,0.00000906,0.00002555,-0.00000511,-0.00000329,0.00000135,-0.00000064
 ,-0.00004197,-0.00002616,0.00000607,0.00006266,0.00006826,0.00005857,-
 0.00003934,-0.00000758,-0.00003558,0.00000825,0.00001903,0.00000710,-0
 .00052086,0.00040133,0.00031089,0.00084374,-0.00036445,0.00055884,0.02
 230693,-0.00363141,-0.00892698,0.02846316,-0.04144803,-0.01290701,-0.0
 2093082,-0.01206830,0.01375629,0.00177605,0.00030959,-0.00093865,0.000
 00618,-0.00011812,0.00016690,-0.00155191,-0.00254676,-0.00233674,0.001
 08419,-0.00102589,-0.00119153,-0.00034805,-0.00008449,0.00074898,-0.00
 003015,-0.00002944,-0.00007057,0.00009844,-0.00000784,-0.00002229,0.00
 262906,0.00108641,-0.00226220,-0.03241352,0.06041151,0.00004864,0.0000
 1406,-0.00004425,-0.00003077,0.00001177,-0.00004469,-0.00006152,-0.000
 02666,0.00008646,0.00000209,-0.00001540,-0.00002021,0.00000444,0.00000
 697,-0.00002592,0.00017715,0.00022199,0.00015096,0.00057389,0.00010194
 ,-0.00039295,-0.00001068,-0.00003238,-0.00002016,0.00003616,0.00001944
 ,-0.00002652,-0.00000190,-0.00000286,0.00000061,-0.00002099,-0.0000144
 5,-0.00000709,0.00000052,-0.00000060,0.00000604,-0.00002211,0.00000265
 ,0.00003548,0.00001650,-0.00000075,0.00000434,-0.00005182,-0.00002907,
 -0.00000118,-0.00004909,-0.00005602,-0.00004412,-0.00028001,-0.0001275
 0,0.00005345,-0.00000106,0.00000839,-0.00001218,-0.00082313,0.00120824
 ,0.00189699,0.00260757,-0.00077033,-0.00019969,0.01949909,-0.00274817,
 -0.00685143,0.09441041,-0.01672801,-0.08424879,0.00858416,0.00554873,-
 0.00503880,0.00022438,0.00102939,0.00134790,0.00000073,-0.00017549,-0.
 00018118,-0.00158399,-0.00246828,-0.00183096,0.00068993,-0.00061711,-0
 .00041544,-0.00071208,0.00106079,-0.00232601,-0.00032118,0.00003165,0.
 00008012,-0.00010870,0.00002558,0.00022125,-0.02219076,0.00179574,0.01
 164957,-0.10007948,0.01291281,0.08597388,0.00009266,-0.00003931,-0.000
 08180,-0.00008825,0.00008062,-0.00002012,-0.00003808,-0.00021182,0.000
 17492,0.00007107,0.00004825,-0.00008260,-0.00000326,-0.00001678,-0.000
 02844,0.00024018,0.00027951,0.00019395,-0.00047989,0.00004611,0.000143
 86,-0.00013075,0.00060582,0.00013113,0.00010395,-0.00026324,-0.0000816
 1,-0.00001746,0.00000244,-0.00000099,-0.00002790,-0.00001202,-0.000007
 04,-0.00001156,-0.00004739,0.00002653,0.00000275,-0.00001875,0.0000213
 4,0.00002649,-0.00003935,0.00000312,-0.00005823,-0.00003090,0.00001616
 ,-0.00004687,-0.00008209,-0.00007014,0.00013449,-0.00001278,0.00002080
 ,0.00004659,-0.00014174,-0.00006354,-0.00037381,0.00033404,-0.00033785
 ,0.00022522,0.00084786,-0.00022592,0.00126538,-0.01347590,-0.00793896,
 -0.00085476,-0.00102365,0.00195805,-0.00002427,-0.00088520,-0.00006660
 ,-0.04905480,0.01551205,0.01777627,-0.00199959,-0.00588562,-0.01360547
 ,0.00025771,-0.00087280,-0.00125169,-0.00151854,0.00037398,0.00131901,
 -0.00007705,-0.00004222,-0.00004529,-0.00012918,0.00001778,-0.00009043
 ,0.00023293,0.00041840,-0.00023459,0.00005281,0.00026446,-0.00005532,0
 .00016493,-0.00012505,-0.00008937,0.04954913,-0.00002764,0.00000794,0.
 00001804,0.00001554,-0.00001098,0.00000080,0.00000253,-0.00000811,-0.0
 0001650,-0.00000340,-0.00001247,0.00001387,-0.00000459,0.00000786,-0.0
 0000287,-0.00001860,-0.00000252,-0.00003949,0.00002816,-0.00000442,0.0
 0001126,0.00007704,-0.00005783,0.00000518,-0.00042762,-0.00007243,-0.0
 0006672,0.00000466,0.00000085,-0.00000044,0.00000210,-0.00000077,-0.00
 000017,0.00000509,0.00001436,-0.00000839,-0.00000214,-0.00000307,-0.00
 000088,-0.00000326,0.00000468,-0.00000032,0.00001251,0.00001069,-0.000
 00646,0.00000879,0.00001256,0.00001167,0.00000259,-0.00001130,-0.00001
 344,0.00000432,-0.00000759,0.00000077,0.00001621,0.00031195,0.00031798
 ,-0.00044826,-0.00010989,-0.00177916,0.00182117,-0.01951121,-0.0128451
 6,-0.00169659,-0.00180349,0.00290915,-0.00026954,-0.00135005,-0.000136
 42,0.01686604,-0.23771228,-0.13671154,0.00245492,0.00668665,0.01184625
 ,0.00072736,-0.00039597,-0.00097428,0.00070926,0.00088985,-0.00010174,
 -0.00019329,-0.00000085,-0.00008261,0.00001362,0.00036328,0.00007869,0
 .00049327,-0.00006096,0.00108612,-0.00006173,-0.00002426,-0.00004505,-
 0.00004010,0.00020332,0.00027468,-0.01889897,0.25457334,-0.00004641,0.
 00000709,0.00003707,0.00004126,-0.00002156,0.00000238,0.00002606,0.000
 04455,-0.00005130,-0.00001104,-0.00001348,0.00002618,-0.00000473,0.000
 00699,0.00000777,-0.00006051,-0.00010368,-0.00001592,0.00006762,0.0000
 2374,-0.00002123,0.00006007,-0.00015548,-0.00011482,-0.00037115,0.0000
 0973,-0.00004830,0.00000848,0.00000035,-0.00000347,0.00000812,0.000004
 44,0.00000369,0.00000462,0.00001314,-0.00000887,0.00000344,0.00000476,
 -0.00001052,-0.00000868,0.00000967,-0.00000237,0.00002733,0.00000804,-
 0.00002109,0.00000428,0.00002493,0.00001110,0.00000519,0.00001679,0.00
 000263,-0.00002465,0.00005370,0.00002815,-0.00008791,-0.00005857,-0.00
 020692,0.00034094,0.00117096,0.00137768,-0.00118516,0.01214096,0.00883
 497,0.00111941,0.00097145,-0.00127756,0.00032037,0.00137232,0.00007669
 ,0.01705959,-0.14132564,-0.13724976,-0.00467414,-0.00850079,-0.0203015
 4,-0.00014203,-0.00007125,0.00051499,0.00170329,0.00016929,-0.00139963
 ,0.00007216,0.00003590,-0.00001847,-0.00001643,0.00001745,0.00010695,-
 0.00026502,0.00041671,-0.00041256,0.00006993,0.00018267,0.00000469,0.0
 0000453,0.00005995,-0.00022359,-0.01408386,0.13756590,0.15159546,0.000
 06360,0.00002595,-0.00000854,-0.00002036,-0.00007440,0.00003782,-0.000
 00048,0.00011110,-0.00001726,-0.00003447,0.00004230,-0.00003253,0.0000
 4141,-0.00003141,0.00004982,-0.00035813,-0.00000869,0.00000885,-0.0013
 8947,0.00044378,0.00109963,-0.00004088,-0.00040187,0.00009579,-0.00110
 015,-0.00063923,-0.00045539,-0.00001123,-0.00000240,0.00000474,0.00002
 668,0.00000908,0.00000662,-0.00000371,0.00000836,-0.00001359,0.0000060
 9,0.00001931,-0.00001556,0.00000065,-0.00000267,0.00000771,0.00001314,
 -0.00007801,0.00006457,0.00000348,-0.00006327,0.00001019,-0.00003820,0
 .00034928,-0.00026734,0.00009614,0.00011521,0.00000660,0.00022618,0.00
 053339,-0.00069311,-0.00034758,0.00020104,-0.00007367,-0.01015751,0.00
 178727,0.00344219,0.00008949,0.00046030,0.00027197,0.00020973,0.000284
 43,-0.00009729,-0.31490347,0.05035880,0.06259662,-0.00491795,0.0021799
 3,-0.00314155,0.00033258,-0.00215790,0.00082107,0.00020192,0.00004697,
 -0.00011096,0.00009216,0.00002788,-0.00013655,-0.00005541,0.00010009,-
 0.00003038,0.00006613,-0.00013031,0.00023030,0.00008703,0.00003897,0.0
 0002878,0.00022108,-0.00062477,-0.00037259,0.00236110,-0.00117619,0.00
 003279,0.32950889,0.00007568,-0.00006071,-0.00008663,-0.00009860,0.000
 12074,-0.00001142,-0.00010751,-0.00032054,0.00013687,0.00010490,0.0000
 4746,-0.00005661,-0.00001000,-0.00002154,-0.00003325,0.00010446,0.0005
 2500,0.00036195,0.00041485,-0.00063441,-0.00071086,-0.00040339,0.00080
 519,0.00006982,0.00024461,-0.00031167,0.00002212,-0.00001614,0.0000059
 9,-0.00000224,-0.00003645,-0.00001457,-0.00001238,-0.00001497,-0.00005
 564,0.00002989,0.00000312,-0.00001963,0.00001747,0.00002102,-0.0000451
 6,-0.00000107,-0.00026458,-0.00010690,0.00005102,-0.00009418,-0.000180
 52,-0.00011794,0.00039525,-0.00000171,0.00009213,0.00002346,-0.0001478
 7,-0.00008026,0.00050627,-0.00047542,-0.00047594,-0.00091234,0.0011878
 2,0.00020131,-0.02604389,0.00460590,0.00519205,-0.00158218,0.00097460,
 0.00075501,0.00031156,0.00036622,-0.00014761,0.05333917,-0.06008321,-0
 .01404130,0.00475855,-0.00082103,0.00246543,-0.00106710,-0.00554550,0.
 00201858,0.00050611,0.00042336,-0.00013983,-0.00001947,-0.00019961,0.0
 0013459,0.00004346,0.00007243,-0.00019997,0.00019843,-0.00004346,-0.00
 000368,0.00001415,-0.00009973,-0.00002578,-0.00011365,-0.00102804,-0.0
 0047848,0.02315415,-0.00184535,-0.00400648,-0.05208684,0.06255475,0.00
 003666,-0.00002457,-0.00008677,-0.00003626,0.00009726,-0.00012297,-0.0
 0008133,-0.00016679,0.00026944,0.00011675,0.00000371,-0.00002626,-0.00
 005241,0.00001441,-0.00011308,0.00051300,0.00050323,0.00044477,0.00047
 280,-0.00051771,-0.00096021,-0.00032840,0.00014932,0.00014743,0.000107
 39,-0.00031871,-0.00018175,0.00000929,0.00000215,-0.00001694,-0.000070
 15,-0.00003171,-0.00002060,-0.00000286,-0.00002870,0.00003723,-0.00001
 353,-0.00004382,0.00006282,0.00004507,-0.00003082,-0.00000040,-0.00000
 730,-0.00003399,-0.00002681,-0.00009805,-0.00011663,-0.00014519,-0.000
 47632,0.00029043,-0.00010919,0.00007749,-0.00001200,-0.00005306,-0.000
 50501,0.00011701,-0.00005765,0.00173201,-0.00028998,0.00002144,0.01230
 383,-0.00275580,-0.00221268,-0.00079643,-0.00051239,-0.00005755,-0.000
 01720,0.00007329,-0.00007558,0.05835684,-0.01404060,-0.05160832,-0.025
 88988,0.00795739,-0.00991301,0.00071781,0.00260223,-0.00086111,0.00003
 158,0.00034527,0.00009111,-0.00005601,0.00009974,0.00029573,-0.0001362
 6,-0.00023596,0.00006889,-0.00001611,-0.00021615,-0.00012716,-0.000016
 61,0.00004939,-0.00002261,-0.00011666,-0.00012227,0.00032719,0.0166165
 2,-0.00134018,-0.00107612,-0.06337141,0.00864756,0.06635866,-0.0000032
 7,-0.00001162,0.00001135,-0.00000144,0.00000642,0.00001654,0.00000541,
 -0.00002270,-0.00002837,-0.00000324,0.00001335,-0.00000845,0.00000485,
 -0.00000867,0.00001816,-0.00004407,-0.00003795,-0.00002339,0.00004768,
 -0.00000627,0.00001224,-0.00002338,0.00005662,0.00003427,0.00001700,-0
 .00002760,0.00002644,-0.00000399,0.00000335,-0.00000056,0.00000750,0.0
 0000432,0.00000355,-0.00000081,-0.00000426,-0.00000144,0.00000634,0.00
 000154,-0.00001418,-0.00000337,-0.00000203,0.00000045,-0.00000976,-0.0
 0000004,-0.00000482,0.00000517,0.00000663,0.00000930,0.00011213,0.0000
 4918,-0.00007606,0.00001575,-0.00000536,0.00000127,-0.00247218,0.00094
 335,-0.00132694,-0.00281734,0.00034764,0.00487491,-0.01727503,0.008262
 13,-0.02512123,0.00077165,-0.00064606,-0.00124713,0.00000330,-0.000226
 43,0.00008711,0.00015301,0.00066534,-0.00194041,0.00050088,-0.00038271
 ,0.00096628,-0.13147573,0.03763751,-0.12221327,0.00315000,0.00141039,0
 .00610337,-0.00001926,-0.00028658,-0.00005741,0.00015587,0.00010529,0.
 00012508,0.00002852,-0.00011646,-0.00025768,0.00007813,0.00064866,0.00
 072086,0.00014814,-0.00025081,0.00013035,-0.00014043,-0.00014278,0.000
 12096,0.00015198,0.00017716,0.00007008,0.14038861,0.00002675,0.0000035
 1,-0.00000569,-0.00001499,-0.00001096,0.00000395,0.00000592,0.00002690
 ,0.00000436,-0.00001653,0.00000851,-0.00001499,0.00001295,-0.00000620,
 0.00001164,-0.00003247,-0.00003428,-0.00001925,0.00004148,0.00000283,-
 0.00000547,0.00000032,-0.00001716,0.00000282,0.00002421,0.00001531,0.0
 0000869,-0.00000636,-0.00000038,0.00000069,0.00000570,0.00000032,0.000
 00192,-0.00000188,-0.00000164,-0.00000187,-0.00000203,0.00000559,0.000
 00347,0.00000136,0.00000014,0.00000277,-0.00000648,-0.00000032,0.00000
 157,0.00000312,0.00000497,0.00000485,-0.00004660,-0.00001238,0.0000092
 1,0.00000186,0.00000184,-0.00000146,0.00075181,-0.00000037,0.00013359,
 0.00014572,0.00029986,-0.00038678,0.00157072,-0.00034920,0.00303824,0.
 00065417,0.00027527,0.00094105,-0.00005544,-0.00023415,-0.00014050,-0.
 00049831,0.00003125,-0.00063893,-0.00037767,-0.00029695,0.00038304,0.0
 3523590,-0.06151165,0.06337487,-0.00733940,-0.00586126,-0.02424521,-0.
 00007176,0.00014446,0.00002118,-0.00009066,0.00004182,-0.00037809,0.00
 038028,-0.00000600,0.00010704,0.00047317,-0.00023172,-0.00049533,-0.00
 016610,0.00000406,-0.00009018,0.00003046,-0.00005284,-0.00002210,0.000
 08598,0.00003279,0.00005847,-0.04540890,0.07018633,-0.00000124,0.00000
 553,0.00000162,0.00000301,-0.00000596,-0.00000408,0.00000296,0.0000174
 6,0.00000100,-0.00000514,-0.00000482,0.00000349,0.00000062,0.00000283,
 -0.00000138,-0.00000328,-0.00000590,-0.00000695,-0.00000102,0.00000916
 ,0.00000516,0.00001499,-0.00003718,-0.00000961,-0.00000748,0.00001936,
 -0.00000206,0.00000130,-0.00000152,-0.00000016,0.00000034,-0.00000084,
 -0.00000003,0.00000022,0.00000284,-0.00000108,-0.00000143,-0.00000021,
 0.00000304,-0.00000013,0.00000193,0.00000030,0.00000460,0.00000179,-0.
 00000022,0.00000164,0.00000247,0.00000141,-0.00003718,-0.00001575,0.00
 002200,-0.00000382,0.00000344,-0.00000002,0.00104158,-0.00035730,0.000
 55168,0.00124727,0.00012813,-0.00088038,0.00488730,-0.00224931,0.00847
 642,0.00053297,0.00005281,0.00094450,-0.00011768,0.00017770,-0.0000262
 5,-0.00007356,0.00002300,0.00043593,0.00114090,0.00062740,-0.00113920,
 -0.12613374,0.06492803,-0.23010245,-0.00357656,-0.00471705,-0.01287679
 ,-0.00003477,0.00009872,-0.00000970,0.00008698,-0.00011961,0.00001200,
 0.00007723,-0.00002412,0.00010567,0.00001817,-0.00010367,0.00003216,-0
 .00000291,0.00001910,0.00013706,0.00001642,0.00007161,-0.00006226,-0.0
 0008746,-0.00006450,-0.00012734,0.12756823,-0.06066804,0.24125612,-0.0
 0000796,0.00000615,-0.00000135,0.00000566,-0.00000115,-0.00000578,0.00
 000528,0.00000745,0.00000402,0.00000244,-0.00001431,0.00001366,-0.0000
 0545,0.00000915,-0.00001273,0.00003349,0.00001699,0.00000350,-0.000069
 62,0.00004297,0.00004867,0.00004041,-0.00003890,-0.00002164,-0.0000433
 4,0.00001372,-0.00003712,0.00000251,-0.00000153,0.00000067,-0.00000392
 ,-0.00000264,-0.00000204,0.00000188,0.00000493,-0.00000095,-0.00000283
 ,-0.00000513,0.00000613,-0.00000035,0.00000335,-0.00000126,0.00001396,
 0.00000528,-0.00000818,-0.00000096,0.00000182,-0.00000328,-0.00002542,
 -0.00003797,0.00004710,-0.00001521,0.00000007,0.00000283,0.00066432,0.
 00031571,-0.00031321,0.00050377,-0.00140881,0.00165741,-0.01141990,-0.
 02518694,0.01315027,0.00041875,-0.00136381,0.00024836,0.00013794,0.000
 97940,-0.00024541,-0.00629434,0.00307586,0.00050172,0.00054300,0.00021
 328,-0.00015403,-0.09405118,-0.08995777,0.04635784,0.00187988,0.005504
 29,0.00046588,-0.00013721,0.00001073,0.00006126,-0.00046992,0.00039516
 ,-0.00103077,0.00005447,0.00011816,-0.00004822,0.00001384,0.00015800,0
 .00006573,0.00005172,-0.00002906,-0.00019474,0.00024733,0.00014951,-0.
 00011873,-0.00042043,-0.00152505,0.00088104,0.00854139,0.01468370,-0.0
 0655932,0.09980602,0.00000427,0.00000299,-0.00000008,-0.00000078,-0.00
 000547,-0.00000002,0.00000046,0.00001352,-0.00000094,-0.00000464,0.000
 00062,-0.00000079,0.00000276,-0.00000083,0.00000271,-0.00001593,-0.000
 00957,-0.00000308,0.00001662,-0.00000318,-0.00001076,0.00000156,-0.000
 01862,0.00000208,0.00001202,0.00001269,0.00000548,-0.00000044,-0.00000
 102,0.00000007,0.00000161,0.00000010,0.00000053,-0.00000065,0.00000050
 ,-0.00000081,-0.00000042,0.00000198,0.00000067,-0.00000023,0.00000069,
 0.00000044,-0.00000234,-0.00000072,0.00000158,0.00000059,0.00000022,0.
 00000108,-0.00002245,0.00000002,-0.00000059,0.00000032,0.00000401,0.00
 000037,0.00015750,0.00005449,-0.00008744,0.00017438,0.00024826,-0.0001
 8380,0.00204479,0.00600056,-0.00152984,-0.00000694,0.00046642,-0.00020
 180,0.00153477,-0.00183593,-0.00089807,0.00146648,-0.00003906,-0.00017
 225,-0.00010336,0.00001296,-0.00004896,-0.09362404,-0.23186694,0.10850
 848,-0.00274837,-0.01631997,-0.00223949,-0.00000048,0.00000878,0.00004
 166,-0.00023613,0.00013199,-0.00016538,0.00009453,0.00005404,-0.000006
 08,-0.00015549,-0.00006087,0.00004044,-0.00005384,-0.00002372,0.000106
 95,0.00010964,-0.00002870,-0.00005247,0.00024852,0.00033996,-0.0001720
 8,-0.00275166,-0.00245831,0.00218246,0.09385738,0.24531810,0.00002307,
 0.00000198,-0.00000719,-0.00001302,-0.00000877,0.00000657,-0.00000002,
 0.00001904,0.00000092,-0.00000910,0.00000877,-0.00001058,0.00000977,-0
 .00000645,0.00000911,-0.00002945,-0.00002900,-0.00001298,0.00004691,-0
 .00001292,-0.00001857,-0.00001062,-0.00000614,0.00000788,0.00004299,0.
 00001637,0.00001868,-0.00000516,-0.00000074,0.00000147,0.00000454,0.00
 000099,0.00000132,-0.00000212,-0.00000273,-0.00000092,-0.00000080,0.00
 000688,0.00000108,0.00000056,-0.00000038,0.00000147,-0.00001084,-0.000
 00265,0.00000353,0.00000231,0.00000227,0.00000391,-0.00003662,0.000002
 97,-0.00000310,0.00000191,0.00000209,-0.00000050,0.00040508,-0.0002051
 1,-0.00017288,-0.00115142,-0.00090394,0.00029391,0.00171687,0.00525906
 ,-0.00243785,0.00061945,0.00102005,-0.00007512,-0.00013027,-0.00057923
 ,0.00010100,0.00139429,-0.00068420,-0.00016932,0.00039810,-0.00006806,
 0.00014849,0.04495337,0.10498860,-0.09828496,-0.00470711,-0.02341720,-
 0.00070202,0.00006579,0.00012249,0.00012560,-0.00019984,0.00009475,0.0
 0008767,-0.00008495,-0.00001139,-0.00003317,-0.00000718,0.00005859,-0.
 00009361,-0.00010240,-0.00000644,-0.00001612,0.00004355,-0.00004016,-0
 .00010410,0.00010913,0.00050041,-0.00012236,0.01142055,0.01900048,-0.0
 0673959,-0.05475731,-0.10512026,0.10819234\\-0.00000011,-0.00000093,-0
 .00000102,0.00000011,-0.00000039,-0.00000110,0.,-0.00000062,-0.0000004
 1,-0.00000008,-0.00000043,0.00000060,-0.00000002,0.00000081,0.00000092
 ,-0.00000007,-0.00000115,-0.00000079,-0.00000015,-0.00000162,0.0000003
 6,0.00000005,0.00000043,-0.00000018,0.00000015,0.00000057,-0.00000162,
 0.00000005,-0.00000101,-0.00000146,0.00000012,0.00000039,-0.00000115,0
 .00000008,-0.00000032,-0.00000191,-0.00000004,-0.00000039,0.00000116,-
 0.00000013,-0.00000102,0.00000070,0.00000003,-0.00000136,-0.00000131,-
 0.00000008,-0.00000188,-0.00000050,0.00000010,0.00000049,0.,0.,0.00000
 130,-0.00000038,0.00000035,0.00000106,0.00000095,-0.00000032,0.0000012
 8,0.00000064,0.00000011,0.00000065,0.00000028,-0.00000010,-0.00000047,
 0.00000115,-0.00000014,0.00000035,0.00000247,0.00000002,-0.00000015,-0
 .00000043,-0.00000002,-0.00000142,-0.00000075,-0.00000007,0.00000073,0
 .00000025,0.00000017,0.00000160,-0.00000074,-0.00000017,0.00000078,0.0
 0000167,0.00000014,0.00000176,0.00000100,0.00000014,0.00000146,-0.0000
 0023,-0.00000005,-0.00000084,0.00000119,-0.00000019,-0.00000063,0.0000
 0119,0.00000012,0.00000023,-0.00000118,-0.00000007,-0.00000040,-0.0000
 0036,0.00000002,0.00000005,0.00000014,0.00000002,0.00000110,0.00000086
 \\\@


 WE'RE IN THE POSITION OF A VISITOR FROM ANOTHER
 DIMENSION WHO COMES TO EARTH AND SEES A CHESS MATCH.
 ASSUMING HE KNOWS IT'S A GAME, HE'S GOT TWO PROBLEMS:
 FIRST, FIGURE OUT THE RULES, AND SECOND, FIGURE OUT HOW TO WIN.
 NINETY PERCENT OF SCIENCE (INCLUDING VIRTUALLY ALL OF CHEMISRY)
 IS IN THAT SECOND CATEGORY.  THEY'RE TRYING TO APPLY
 THE LAWS THAT ARE ALREADY KNOWN.

                     -- SHELDON GLASHOW, 1979
 File lengths (MBytes):  RWF=    859 Int=      0 D2E=      0 Chk=     12 Scr=      1
 Normal termination of Gaussian 16 at Mon Apr  1 19:24:24 2024.
real 15462.96
user 60144.08
sys 44.67
