 Entering Gaussian System, Link 0=g16
 Input=gaussian_test.inp
 Output=gaussian_test.log
 Initial command:
 /sw/restricted/lms/sw/Gaussian/g16_B01/g16/l1.exe "/scratch/user/peterchao1/peterchao1/6949352_1675442989000000041455278/Gau-210110.inp" -scrdir="/scratch/user/peterchao1/peterchao1/6949352_1675442989000000041455278/"
 Entering Link 1 = /sw/restricted/lms/sw/Gaussian/g16_B01/g16/l1.exe PID=    210118.
  
 Copyright (c) 1988-2017, Gaussian, Inc.  All Rights Reserved.
  
 This is part of the Gaussian(R) 16 program.  It is based on
 the Gaussian(R) 09 system (copyright 2009, Gaussian, Inc.),
 the Gaussian(R) 03 system (copyright 2003, Gaussian, Inc.),
 the Gaussian(R) 98 system (copyright 1998, Gaussian, Inc.),
 the Gaussian(R) 94 system (copyright 1995, Gaussian, Inc.),
 the Gaussian 92(TM) system (copyright 1992, Gaussian, Inc.),
 the Gaussian 90(TM) system (copyright 1990, Gaussian, Inc.),
 the Gaussian 88(TM) system (copyright 1988, Gaussian, Inc.),
 the Gaussian 86(TM) system (copyright 1986, Carnegie Mellon
 University), and the Gaussian 82(TM) system (copyright 1983,
 Carnegie Mellon University). Gaussian is a federally registered
 trademark of Gaussian, Inc.
  
 This software contains proprietary and confidential information,
 including trade secrets, belonging to Gaussian, Inc.
  
 This software is provided under written license and may be
 used, copied, transmitted, or stored only in accord with that
 written license.
  
 The following legend is applicable only to US Government
 contracts under FAR:
  
                    RESTRICTED RIGHTS LEGEND
  
 Use, reproduction and disclosure by the US Government is
 subject to restrictions as set forth in subparagraphs (a)
 and (c) of the Commercial Computer Software - Restricted
 Rights clause in FAR 52.227-19.
  
 Gaussian, Inc.
 340 Quinnipiac St., Bldg. 40, Wallingford CT 06492
  
  
 ---------------------------------------------------------------
 Warning -- This program may not be used in any manner that
 competes with the business of Gaussian, Inc. or will provide
 assistance to any competitor of Gaussian, Inc.  The licensee
 of this program is prohibited from giving any competitor of
 Gaussian, Inc. access to this program.  By using this program,
 the user acknowledges that Gaussian, Inc. is engaged in the
 business of creating and licensing software in the field of
 computational chemistry and represents and warrants to the
 licensee that it is not a competitor of Gaussian, Inc. and that
 it will not use this program in any manner prohibited above.
 ---------------------------------------------------------------
  

 Cite this work as:
 Gaussian 16, Revision B.01,
 M. J. Frisch, G. W. Trucks, H. B. Schlegel, G. E. Scuseria, 
 M. A. Robb, J. R. Cheeseman, G. Scalmani, V. Barone, 
 G. A. Petersson, H. Nakatsuji, X. Li, M. Caricato, A. V. Marenich, 
 J. Bloino, B. G. Janesko, R. Gomperts, B. Mennucci, H. P. Hratchian, 
 J. V. Ortiz, A. F. Izmaylov, J. L. Sonnenberg, D. Williams-Young, 
 F. Ding, F. Lipparini, F. Egidi, J. Goings, B. Peng, A. Petrone, 
 T. Henderson, D. Ranasinghe, V. G. Zakrzewski, J. Gao, N. Rega, 
 G. Zheng, W. Liang, M. Hada, M. Ehara, K. Toyota, R. Fukuda, 
 J. Hasegawa, M. Ishida, T. Nakajima, Y. Honda, O. Kitao, H. Nakai, 
 T. Vreven, K. Throssell, J. A. Montgomery, Jr., J. E. Peralta, 
 F. Ogliaro, M. J. Bearpark, J. J. Heyd, E. N. Brothers, K. N. Kudin, 
 V. N. Staroverov, T. A. Keith, R. Kobayashi, J. Normand, 
 K. Raghavachari, A. P. Rendell, J. C. Burant, S. S. Iyengar, 
 J. Tomasi, M. Cossi, J. M. Millam, M. Klene, C. Adamo, R. Cammi, 
 J. W. Ochterski, R. L. Martin, K. Morokuma, O. Farkas, 
 J. B. Foresman, and D. J. Fox, Gaussian, Inc., Wallingford CT, 2016.
 
 ******************************************
 Gaussian 16:  ES64L-G16RevB.01 20-Dec-2017
                 3-Feb-2023 
 ******************************************
 %nprocshared=4
 Will use up to    4 processors via shared memory.
 %mem=8000mb
 %chk=22.chk
 %nprocshared=4
 Will use up to    4 processors via shared memory.
 %mem=8000mb
 ----------------------------------------------------------------------
 #T wB97XD/def2svpp opt=tight freq int(grid=ultrafine) scf=(verytight,q
 c) Volume=tight
 ----------------------------------------------------------------------
 -----
 Dimer
 -----
 Symbolic Z-matrix:
 Charge =  0 Multiplicity = 1
 C                    -3.86915   0.59779  -0.04439 
 C                    -2.49821  -0.09585  -0.06248 
 C                    -2.58705  -1.45274   0.63937 
 C                    -1.99704  -0.26375  -1.49441 
 C                    -1.56747   0.7942    0.72142 
 O                    -0.70686   1.49817   0.27023 
 H                    -4.59822  -0.02187  -0.56123 
 H                    -3.81631   1.56223  -0.54499 
 H                    -4.21083   0.75475   0.97681 
 H                    -3.27756  -2.1006    0.10484 
 H                    -2.9408   -1.33928   1.66225 
 H                    -1.60837  -1.92542   0.65571 
 H                    -1.84899   0.70797  -1.9597 
 H                    -2.7134   -0.83074  -2.08354 
 H                    -1.04835  -0.79381  -1.48733 
 H                    -1.76263   0.7762    1.81379 
 C                     1.99887   0.26214  -1.49526 
 C                     2.49816   0.09596  -0.06247 
 C                     3.86823  -0.5994   -0.04172 
 C                     2.58782   1.45383   0.63732 
 C                     1.56571  -0.79211   0.72164 
 O                     0.70685  -1.49802   0.27021 
 H                     1.8504   -0.71014  -1.95923 
 H                     2.71654   0.82747  -2.0844 
 H                     1.05072   0.79318  -1.49017 
 H                     4.20852  -0.75519   0.98012 
 H                     4.59869   0.01852  -0.55868 
 H                     3.81472  -1.56456  -0.54087 
 H                     1.60965   1.92761   0.65193 
 H                     3.27963   2.10008   0.10254 
 H                     2.94034   1.34158   1.66074 
 H                     1.75809  -0.77098   1.81444 
 
 Add virtual bond connecting atoms O22        and H12        Dist= 4.51D+00.
 Add virtual bond connecting atoms H29        and O6         Dist= 4.51D+00.

 GradGradGradGradGradGradGradGradGradGradGradGradGradGradGradGradGradGrad
 Initialization pass.
                           ----------------------------
                           !    Initial Parameters    !
                           ! (Angstroms and Degrees)  !
 --------------------------                            --------------------------
 ! Name  Definition              Value          Derivative Info.                !
 --------------------------------------------------------------------------------
 ! R1    R(1,2)                  1.5365         estimate D2E/DX2                !
 ! R2    R(1,7)                  1.0875         estimate D2E/DX2                !
 ! R3    R(1,8)                  1.0879         estimate D2E/DX2                !
 ! R4    R(1,9)                  1.0882         estimate D2E/DX2                !
 ! R5    R(2,3)                  1.5302         estimate D2E/DX2                !
 ! R6    R(2,4)                  1.5264         estimate D2E/DX2                !
 ! R7    R(2,5)                  1.5076         estimate D2E/DX2                !
 ! R8    R(3,10)                 1.0873         estimate D2E/DX2                !
 ! R9    R(3,11)                 1.0882         estimate D2E/DX2                !
 ! R10   R(3,12)                 1.087          estimate D2E/DX2                !
 ! R11   R(4,13)                 1.0875         estimate D2E/DX2                !
 ! R12   R(4,14)                 1.0871         estimate D2E/DX2                !
 ! R13   R(4,15)                 1.0867         estimate D2E/DX2                !
 ! R14   R(5,6)                  1.1999         estimate D2E/DX2                !
 ! R15   R(5,16)                 1.1098         estimate D2E/DX2                !
 ! R16   R(6,29)                 2.3867         estimate D2E/DX2                !
 ! R17   R(12,22)                2.3857         estimate D2E/DX2                !
 ! R18   R(17,18)                1.5264         estimate D2E/DX2                !
 ! R19   R(17,23)                1.0875         estimate D2E/DX2                !
 ! R20   R(17,24)                1.0871         estimate D2E/DX2                !
 ! R21   R(17,25)                1.0867         estimate D2E/DX2                !
 ! R22   R(18,19)                1.5366         estimate D2E/DX2                !
 ! R23   R(18,20)                1.5302         estimate D2E/DX2                !
 ! R24   R(18,21)                1.5076         estimate D2E/DX2                !
 ! R25   R(19,26)                1.0882         estimate D2E/DX2                !
 ! R26   R(19,27)                1.0875         estimate D2E/DX2                !
 ! R27   R(19,28)                1.0879         estimate D2E/DX2                !
 ! R28   R(20,29)                1.087          estimate D2E/DX2                !
 ! R29   R(20,30)                1.0873         estimate D2E/DX2                !
 ! R30   R(20,31)                1.0882         estimate D2E/DX2                !
 ! R31   R(21,22)                1.1999         estimate D2E/DX2                !
 ! R32   R(21,32)                1.1098         estimate D2E/DX2                !
 ! A1    A(2,1,7)              109.5928         estimate D2E/DX2                !
 ! A2    A(2,1,8)              110.5755         estimate D2E/DX2                !
 ! A3    A(2,1,9)              110.8736         estimate D2E/DX2                !
 ! A4    A(7,1,8)              108.6032         estimate D2E/DX2                !
 ! A5    A(7,1,9)              108.5224         estimate D2E/DX2                !
 ! A6    A(8,1,9)              108.6143         estimate D2E/DX2                !
 ! A7    A(1,2,3)              110.0653         estimate D2E/DX2                !
 ! A8    A(1,2,4)              110.7116         estimate D2E/DX2                !
 ! A9    A(1,2,5)              106.1521         estimate D2E/DX2                !
 ! A10   A(3,2,4)              110.5975         estimate D2E/DX2                !
 ! A11   A(3,2,5)              108.714          estimate D2E/DX2                !
 ! A12   A(4,2,5)              110.4885         estimate D2E/DX2                !
 ! A13   A(2,3,10)             109.8602         estimate D2E/DX2                !
 ! A14   A(2,3,11)             110.9483         estimate D2E/DX2                !
 ! A15   A(2,3,12)             109.8902         estimate D2E/DX2                !
 ! A16   A(10,3,11)            108.5279         estimate D2E/DX2                !
 ! A17   A(10,3,12)            108.6675         estimate D2E/DX2                !
 ! A18   A(11,3,12)            108.8981         estimate D2E/DX2                !
 ! A19   A(2,4,13)             110.3521         estimate D2E/DX2                !
 ! A20   A(2,4,14)             110.4513         estimate D2E/DX2                !
 ! A21   A(2,4,15)             109.5224         estimate D2E/DX2                !
 ! A22   A(13,4,14)            108.8982         estimate D2E/DX2                !
 ! A23   A(13,4,15)            108.6491         estimate D2E/DX2                !
 ! A24   A(14,4,15)            108.929          estimate D2E/DX2                !
 ! A25   A(2,5,6)              126.4147         estimate D2E/DX2                !
 ! A26   A(2,5,16)             113.1813         estimate D2E/DX2                !
 ! A27   A(6,5,16)             120.381          estimate D2E/DX2                !
 ! A28   A(5,6,29)             137.8645         estimate D2E/DX2                !
 ! A29   A(3,12,22)            142.5084         estimate D2E/DX2                !
 ! A30   A(18,17,23)           110.3531         estimate D2E/DX2                !
 ! A31   A(18,17,24)           110.4502         estimate D2E/DX2                !
 ! A32   A(18,17,25)           109.5234         estimate D2E/DX2                !
 ! A33   A(23,17,24)           108.8976         estimate D2E/DX2                !
 ! A34   A(23,17,25)           108.6487         estimate D2E/DX2                !
 ! A35   A(24,17,25)           108.9291         estimate D2E/DX2                !
 ! A36   A(17,18,19)           110.7079         estimate D2E/DX2                !
 ! A37   A(17,18,20)           110.5993         estimate D2E/DX2                !
 ! A38   A(17,18,21)           110.4889         estimate D2E/DX2                !
 ! A39   A(19,18,20)           110.0693         estimate D2E/DX2                !
 ! A40   A(19,18,21)           106.1337         estimate D2E/DX2                !
 ! A41   A(20,18,21)           108.7296         estimate D2E/DX2                !
 ! A42   A(18,19,26)           110.872          estimate D2E/DX2                !
 ! A43   A(18,19,27)           109.5938         estimate D2E/DX2                !
 ! A44   A(18,19,28)           110.5751         estimate D2E/DX2                !
 ! A45   A(26,19,27)           108.5225         estimate D2E/DX2                !
 ! A46   A(26,19,28)           108.6142         estimate D2E/DX2                !
 ! A47   A(27,19,28)           108.6042         estimate D2E/DX2                !
 ! A48   A(18,20,29)           109.8895         estimate D2E/DX2                !
 ! A49   A(18,20,30)           109.8634         estimate D2E/DX2                !
 ! A50   A(18,20,31)           110.9485         estimate D2E/DX2                !
 ! A51   A(29,20,30)           108.6705         estimate D2E/DX2                !
 ! A52   A(29,20,31)           108.8942         estimate D2E/DX2                !
 ! A53   A(30,20,31)           108.5262         estimate D2E/DX2                !
 ! A54   A(18,21,22)           126.411          estimate D2E/DX2                !
 ! A55   A(18,21,32)           113.1847         estimate D2E/DX2                !
 ! A56   A(22,21,32)           120.3804         estimate D2E/DX2                !
 ! A57   A(12,22,21)           137.6667         estimate D2E/DX2                !
 ! A58   A(6,29,20)            142.454          estimate D2E/DX2                !
 ! D1    D(7,1,2,3)            -60.0903         estimate D2E/DX2                !
 ! D2    D(7,1,2,4)             62.4925         estimate D2E/DX2                !
 ! D3    D(7,1,2,5)           -177.5679         estimate D2E/DX2                !
 ! D4    D(8,1,2,3)           -179.7803         estimate D2E/DX2                !
 ! D5    D(8,1,2,4)            -57.1975         estimate D2E/DX2                !
 ! D6    D(8,1,2,5)             62.7421         estimate D2E/DX2                !
 ! D7    D(9,1,2,3)             59.6863         estimate D2E/DX2                !
 ! D8    D(9,1,2,4)           -177.731          estimate D2E/DX2                !
 ! D9    D(9,1,2,5)            -57.7913         estimate D2E/DX2                !
 ! D10   D(1,2,3,10)            62.4646         estimate D2E/DX2                !
 ! D11   D(1,2,3,11)           -57.539          estimate D2E/DX2                !
 ! D12   D(1,2,3,12)          -178.0244         estimate D2E/DX2                !
 ! D13   D(4,2,3,10)           -60.1854         estimate D2E/DX2                !
 ! D14   D(4,2,3,11)           179.811          estimate D2E/DX2                !
 ! D15   D(4,2,3,12)            59.3256         estimate D2E/DX2                !
 ! D16   D(5,2,3,10)           178.3409         estimate D2E/DX2                !
 ! D17   D(5,2,3,11)            58.3373         estimate D2E/DX2                !
 ! D18   D(5,2,3,12)           -62.1481         estimate D2E/DX2                !
 ! D19   D(1,2,4,13)            62.8732         estimate D2E/DX2                !
 ! D20   D(1,2,4,14)           -57.5926         estimate D2E/DX2                !
 ! D21   D(1,2,4,15)          -177.5633         estimate D2E/DX2                !
 ! D22   D(3,2,4,13)          -174.8545         estimate D2E/DX2                !
 ! D23   D(3,2,4,14)            64.6797         estimate D2E/DX2                !
 ! D24   D(3,2,4,15)           -55.291          estimate D2E/DX2                !
 ! D25   D(5,2,4,13)           -54.4347         estimate D2E/DX2                !
 ! D26   D(5,2,4,14)          -174.9006         estimate D2E/DX2                !
 ! D27   D(5,2,4,15)            65.1288         estimate D2E/DX2                !
 ! D28   D(1,2,5,6)           -106.101          estimate D2E/DX2                !
 ! D29   D(1,2,5,16)            72.1489         estimate D2E/DX2                !
 ! D30   D(3,2,5,6)            135.5241         estimate D2E/DX2                !
 ! D31   D(3,2,5,16)           -46.226          estimate D2E/DX2                !
 ! D32   D(4,2,5,6)             13.9838         estimate D2E/DX2                !
 ! D33   D(4,2,5,16)          -167.7663         estimate D2E/DX2                !
 ! D34   D(2,3,12,22)           12.2748         estimate D2E/DX2                !
 ! D35   D(10,3,12,22)         132.5115         estimate D2E/DX2                !
 ! D36   D(11,3,12,22)        -109.4424         estimate D2E/DX2                !
 ! D37   D(2,5,6,29)          -130.1847         estimate D2E/DX2                !
 ! D38   D(16,5,6,29)           51.6802         estimate D2E/DX2                !
 ! D39   D(5,6,29,20)           61.802          estimate D2E/DX2                !
 ! D40   D(3,12,22,21)          62.0275         estimate D2E/DX2                !
 ! D41   D(23,17,18,19)         62.8576         estimate D2E/DX2                !
 ! D42   D(23,17,18,20)       -174.8662         estimate D2E/DX2                !
 ! D43   D(23,17,18,21)        -54.4255         estimate D2E/DX2                !
 ! D44   D(24,17,18,19)        -57.6073         estimate D2E/DX2                !
 ! D45   D(24,17,18,20)         64.6689         estimate D2E/DX2                !
 ! D46   D(24,17,18,21)       -174.8904         estimate D2E/DX2                !
 ! D47   D(25,17,18,19)       -177.5781         estimate D2E/DX2                !
 ! D48   D(25,17,18,20)        -55.3019         estimate D2E/DX2                !
 ! D49   D(25,17,18,21)         65.1388         estimate D2E/DX2                !
 ! D50   D(17,18,19,26)       -177.7273         estimate D2E/DX2                !
 ! D51   D(17,18,19,27)         62.4965         estimate D2E/DX2                !
 ! D52   D(17,18,19,28)        -57.1952         estimate D2E/DX2                !
 ! D53   D(20,18,19,26)         59.6874         estimate D2E/DX2                !
 ! D54   D(20,18,19,27)        -60.0888         estimate D2E/DX2                !
 ! D55   D(20,18,19,28)       -179.7805         estimate D2E/DX2                !
 ! D56   D(21,18,19,26)        -57.8003         estimate D2E/DX2                !
 ! D57   D(21,18,19,27)       -177.5766         estimate D2E/DX2                !
 ! D58   D(21,18,19,28)         62.7317         estimate D2E/DX2                !
 ! D59   D(17,18,20,29)         59.338          estimate D2E/DX2                !
 ! D60   D(17,18,20,30)        -60.1783         estimate D2E/DX2                !
 ! D61   D(17,18,20,31)        179.818          estimate D2E/DX2                !
 ! D62   D(19,18,20,29)       -178.0128         estimate D2E/DX2                !
 ! D63   D(19,18,20,30)         62.4709         estimate D2E/DX2                !
 ! D64   D(19,18,20,31)        -57.5327         estimate D2E/DX2                !
 ! D65   D(21,18,20,29)        -62.1475         estimate D2E/DX2                !
 ! D66   D(21,18,20,30)        178.3362         estimate D2E/DX2                !
 ! D67   D(21,18,20,31)         58.3326         estimate D2E/DX2                !
 ! D68   D(17,18,21,22)         14.1443         estimate D2E/DX2                !
 ! D69   D(17,18,21,32)       -167.6417         estimate D2E/DX2                !
 ! D70   D(19,18,21,22)       -105.9251         estimate D2E/DX2                !
 ! D71   D(19,18,21,32)         72.2888         estimate D2E/DX2                !
 ! D72   D(20,18,21,22)        135.6972         estimate D2E/DX2                !
 ! D73   D(20,18,21,32)        -46.0888         estimate D2E/DX2                !
 ! D74   D(18,20,29,6)          12.5255         estimate D2E/DX2                !
 ! D75   D(30,20,29,6)         132.7675         estimate D2E/DX2                !
 ! D76   D(31,20,29,6)        -109.189          estimate D2E/DX2                !
 ! D77   D(18,21,22,12)       -130.3624         estimate D2E/DX2                !
 ! D78   D(32,21,22,12)         51.5407         estimate D2E/DX2                !
 --------------------------------------------------------------------------------
 Number of steps in this run=    178 maximum allowed number of steps=    192.
 GradGradGradGradGradGradGradGradGradGradGradGradGradGradGradGradGradGrad

                    Distance matrix (angstroms):
                    1          2          3          4          5
     1  C    0.000000
     2  C    1.536532   0.000000
     3  C    2.513162   1.530246   0.000000
     4  C    2.519845   1.526362   2.512936   0.000000
     5  C    2.433673   1.507636   2.468812   2.492725   0.000000
     6  O    3.302987   2.420851   3.518416   2.807644   1.199909
     7  H    1.087495   2.159686   2.744743   2.774071   3.390662
     8  H    1.087901   2.172417   3.464651   2.746875   2.692753
     9  H    1.088222   2.176400   2.761079   3.470613   2.655964
    10  H    2.766503   2.157405   1.087308   2.751609   3.418249
    11  H    2.743482   2.171797   1.088248   3.465824   2.706092
    12  H    3.459459   2.157535   1.086973   2.745037   2.720726
    13  H    2.785960   2.160328   3.459558   1.087492   2.697229
    14  H    2.744919   2.161258   2.795907   1.087071   3.438221
    15  H    3.460568   2.149287   2.706409   1.086746   2.769448
    16  H    2.814622   2.195897   2.650869   3.475725   1.109822
    17  C    6.054040   4.733370   5.341179   4.030368   4.232679
    18  C    6.387082   5.000054   5.361944   4.731455   4.198974
    19  C    7.829450   6.386357   6.546963   6.051802   5.663155
    20  C    6.549043   5.362735   5.935271   5.339966   4.208160
    21  C    5.661831   4.197034   4.205786   4.228856   3.511867
    22  O    5.042937   3.514147   3.314838   3.456638   3.260435
    23  H    6.171752   4.783870   5.195685   3.901037   4.596817
    24  H    6.898235   5.668708   6.383287   4.874077   5.121172
    25  H    5.131628   3.927289   4.776245   3.225827   3.427252
    26  H    8.254026   6.819239   6.839773   6.698789   5.985785
    27  H    8.503193   7.115143   7.432012   6.667746   6.345220
    28  H    7.997759   6.499162   6.510621   6.031410   6.010418
    29  H    5.680715   4.634576   5.388807   4.734664   3.373949
    30  H    7.306407   6.183272   6.879590   5.998434   5.057940
    31  H    7.059026   5.883329   6.277222   6.075342   4.637059
    32  H    6.082316   4.700502   4.552561   5.030579   3.834557
                    6          7          8          9         10
     6  O    0.000000
     7  H    4.259635   0.000000
     8  H    3.215173   1.766639   0.000000
     9  H    3.650988   1.766004   1.767352   0.000000
    10  H    4.425714   2.551250   3.758828   3.127993   0.000000
    11  H    3.870308   3.070253   3.749288   2.543186   1.765934
    12  H    3.561221   3.747481   4.298877   3.749567   1.766445
    13  H    2.627060   3.169640   2.569334   3.768757   3.767114
    14  H    3.871722   2.554256   3.051197   3.757899   2.592263
    15  H    2.908406   3.749011   3.755061   4.297826   3.035138
    16  H    2.004615   3.783941   3.224795   2.587411   3.673074
    17  C    3.459156   6.668935   6.034035   6.701810   5.998633
    18  C    3.514125   7.114861   6.500407   6.820902   6.181570
    19  C    5.042676   8.502007   7.998625   8.254839   7.303243
    20  C    3.315366   7.433258   6.513251   6.842925   6.878963
    21  C    3.257875   6.342951   6.009441   5.985511   5.054685
    22  O    3.312970   5.569030   5.521654   5.455082   4.033113
    23  H    4.048050   6.634212   6.266999   6.892369   5.699975
    24  H    4.208774   7.519777   6.751864   7.573949   7.021079
    25  H    2.585564   5.782540   5.017249   5.811319   5.445368
    26  H    5.453676   8.970627   8.490834   8.553681   7.656216
    27  H    5.570037   9.196993   8.555427   8.972591   8.183288
    28  H    5.521136   8.553237   8.246783   8.490706   7.141761
    29  H    2.386703   6.618902   5.568406   5.946356   6.356931
    30  H    4.035169   8.185587   7.145697   7.660376   7.787330
    31  H    3.906422   7.976592   7.110994   7.207732   7.275419
    32  H    3.689120   6.826974   6.487268   6.217515   5.481637
                   11         12         13         14         15
    11  H    0.000000
    12  H    1.769757   0.000000
    13  H    4.301363   3.719269   0.000000
    14  H    3.786983   3.150063   1.769224   0.000000
    15  H    3.714663   2.487324   1.766206   1.768956   0.000000
    16  H    2.426167   2.943419   3.775095   4.321507   3.724590
    17  C    6.077397   4.735432   3.901349   4.872984   3.225010
    18  C    5.883605   4.633074   4.782443   5.666029   3.924246
    19  C    7.057886   5.677842   6.170447   6.894952   5.128388
    20  C    6.278338   5.387735   5.194810   6.381631   4.773654
    21  C    4.636026   3.370984   4.593471   5.116768   3.422411
    22  O    3.907469   2.385697   4.046135   4.205181   2.581787
    23  H    6.038745   4.503097   3.961883   4.567086   2.938105
    24  H    7.123032   5.813041   4.568792   5.677488   4.142397
    25  H    5.515192   4.366505   2.938717   4.142200   2.631477
    26  H    7.205498   5.942300   6.890340   7.569987   5.807284
    27  H    7.976213   6.616740   6.634056   7.517515   5.780254
    28  H    7.109255   5.565246   6.265389   6.747942   5.013917
    29  H    5.692088   5.020113   4.502257   5.812061   4.364353
    30  H    7.277065   6.356359   5.700314   7.020335   5.443693
    31  H    6.463343   5.689834   6.037113   7.120633   5.511803
    32  H    4.735571   3.742785   5.426083   5.932284   4.333396
                   16         17         18         19         20
    16  H    0.000000
    17  C    5.036174   0.000000
    18  C    4.705045   1.526371   0.000000
    19  C    6.086198   2.519823   1.536567   0.000000
    20  C    4.557380   2.512941   1.530210   2.513223   0.000000
    21  C    3.838001   2.492736   1.507634   2.433404   2.469021
    22  O    3.695009   2.807913   2.420792   3.301381   3.519406
    23  H    5.431288   1.087488   2.160344   2.785805   3.459562
    24  H    5.938138   1.087072   2.161252   2.744975   2.795821
    25  H    4.339521   1.086747   2.149309   3.460578   2.706532
    26  H    6.220517   3.470593   2.176412   1.088225   2.761151
    27  H    6.831479   2.774085   2.159730   1.087497   2.744832
    28  H    6.490799   2.746817   2.172447   1.087908   3.464691
    29  H    3.748060   2.745131   2.157491   3.459497   1.086968
    30  H    5.486851   2.751609   2.157415   2.766669   1.087309
    31  H    4.739307   3.465824   2.171764   2.743501   1.088244
    32  H    3.845676   3.475547   2.195920   2.815577   2.650254
                   21         22         23         24         25
    21  C    0.000000
    22  O    1.199889   0.000000
    23  H    2.697186   2.626565   0.000000
    24  H    3.438214   3.871814   1.769214   0.000000
    25  H    2.769560   2.909775   1.766200   1.768958   0.000000
    26  H    2.655678   3.649307   3.768623   3.757941   4.297844
    27  H    3.390474   4.258326   3.169470   2.554348   3.749105
    28  H    2.692334   3.212650   2.569112   3.051285   3.754970
    29  H    2.720970   3.563105   3.719387   3.150081   2.487557
    30  H    3.418423   4.426475   3.767085   2.592161   3.035253
    31  H    2.706322   3.871099   4.301362   3.786883   3.714789
    32  H    1.109802   2.004574   3.775283   4.321413   3.723894
                   26         27         28         29         30
    26  H    0.000000
    27  H    1.766009   0.000000
    28  H    1.767360   1.766657   0.000000
    29  H    3.749568   3.747606   4.298882   0.000000
    30  H    3.128189   2.551469   3.758976   1.766475   0.000000
    31  H    2.543226   3.070255   3.749309   1.769706   1.765913
    32  H    2.588621   3.784711   3.225985   2.942082   3.672699
                   31         32
    31  H    0.000000
    32  H    2.425753   0.000000
 Framework group  C1[X(C10H20O2)]
 Deg. of freedom    90
                         Standard orientation:                         
 ---------------------------------------------------------------------
 Center     Atomic      Atomic             Coordinates (Angstroms)
 Number     Number       Type             X           Y           Z
 ---------------------------------------------------------------------
      1          6           0        3.862640    0.638580    0.029710
      2          6           0        2.499094   -0.069479    0.047803
      3          6           0        2.602241   -1.425360   -0.654051
      4          6           0        1.999718   -0.242657    1.479730
      5          6           0        1.559017    0.810705   -0.736097
      6          8           0        0.691034    1.505556   -0.284912
      7          1           0        4.598202    0.026641    0.546550
      8          1           0        3.799629    1.602404    0.530312
      9          1           0        4.202649    0.799138   -0.991487
     10          1           0        3.299543   -2.065896   -0.119521
     11          1           0        2.954769   -1.308175   -1.676927
     12          1           0        1.628600   -1.908337   -0.670387
     13          1           0        1.841430    0.727444    1.945014
     14          1           0        2.722021   -0.802058    2.068859
     15          1           0        1.056678   -0.782696    1.472652
     16          1           0        1.754358    0.794759   -1.828476
     17          6           0       -2.001518    0.241056    1.480581
     18          6           0       -2.499025    0.069620    0.047785
     19          6           0       -3.861681   -0.640150    0.027042
     20          6           0       -2.602998    1.426468   -0.651998
     21          6           0       -1.557258   -0.808566   -0.736322
     22          8           0       -0.691005   -1.505380   -0.284892
     23          1           0       -1.842798   -0.729602    1.944544
     24          1           0       -2.725102    0.798792    2.069716
     25          1           0       -1.059021    0.782067    1.475488
     26          1           0       -4.200311   -0.799522   -0.994802
     27          1           0       -4.598616   -0.029964    0.544003
     28          1           0       -3.797999   -1.604693    0.526186
     29          1           0       -1.629880    1.910541   -0.666616
     30          1           0       -3.301592    2.065390   -0.117219
     31          1           0       -2.954315    1.310513   -1.675426
     32          1           0       -1.749847   -0.789466   -1.829119
 ---------------------------------------------------------------------
 Rotational constants (GHZ):           1.7155840           0.4440376           0.4205965
   208 basis functions,   380 primitive gaussians,   220 cartesian basis functions
    48 alpha electrons       48 beta electrons
       nuclear repulsion energy       761.9231160747 Hartrees.
 NAtoms=   32 NActive=   32 NUniq=   32 SFac= 1.00D+00 NAtFMM=   60 NAOKFM=F Big=F
 Nuclear repulsion after empirical dispersion term =      761.8985812994 Hartrees.
   1 Symmetry operations used in ECPInt.
 ECPInt:  NShTT=    6328 NPrTT=   25416 LenC2=    6169 LenP2D=   18139.
 LDataN:  DoStor=T MaxTD1= 4 Len=   56
 ExpMin= 1.22D-01 ExpMax= 2.27D+03 ExpMxC= 3.41D+02 IAcc=3 IRadAn=         5 AccDes= 0.00D+00
 Harris functional with IExCor= 4639 and IRadAn=       5 diagonalized for initial guess.
 HarFok:  IExCor= 4639 AccDes= 0.00D+00 IRadAn=         5 IDoV= 1 UseB2=F ITyADJ=14
 ICtDFT=  3500011 ScaDFX=  1.000000  1.000000  1.000000  1.000000
 FoFCou: FMM=F IPFlag=           0 FMFlag=      100000 FMFlg1=           0
         NFxFlg=           0 DoJE=T BraDBF=F KetDBF=T FulRan=T
         wScrn=  0.000000 ICntrl=       500 IOpCl=  0 I1Cent=   200000004 NGrid=           0
         NMat0=    1 NMatS0=      1 NMatT0=    0 NMatD0=    1 NMtDS0=    0 NMtDT0=    0
 Petite list used in FoFCou.
     Accept linear search using points  2 and  3.
     Accept linear search using points  1 and  2.
     Accept linear search using points  2 and  3.
     Accept linear search using points  1 and  2.
     Accept linear search using points  1 and  2.
     Minimum is close to point  2 DX= -1.25D-04 DF= -5.68D-13 DXR=  1.25D-04 DFR=  1.49D-08 which will be used.
 SCF Done:  E(RwB97XD) =  -542.953013563     a.u. after    8 cycles
            Convg  =    0.8785D-09                    35 Fock formations.
              S**2 =  0.0000                  -V/T =  2.0093

 **********************************************************************

            Population analysis using the SCF Density.

 **********************************************************************

 Orbital symmetries:
       Occupied  (A) (A) (A) (A) (A) (A) (A) (A) (A) (A) (A) (A)
                 (A) (A) (A) (A) (A) (A) (A) (A) (A) (A) (A) (A)
                 (A) (A) (A) (A) (A) (A) (A) (A) (A) (A) (A) (A)
                 (A) (A) (A) (A) (A) (A) (A) (A) (A) (A) (A) (A)
       Virtual   (A) (A) (A) (A) (A) (A) (A) (A) (A) (A) (A) (A)
                 (A) (A) (A) (A) (A) (A) (A) (A) (A) (A) (A) (A)
                 (A) (A) (A) (A) (A) (A) (A) (A) (A) (A) (A) (A)
                 (A) (A) (A) (A) (A) (A) (A) (A) (A) (A) (A) (A)
                 (A) (A) (A) (A) (A) (A) (A) (A) (A) (A) (A) (A)
                 (A) (A) (A) (A) (A) (A) (A) (A) (A) (A) (A) (A)
                 (A) (A) (A) (A) (A) (A) (A) (A) (A) (A) (A) (A)
                 (A) (A) (A) (A) (A) (A) (A) (A) (A) (A) (A) (A)
                 (A) (A) (A) (A) (A) (A) (A) (A) (A) (A) (A) (A)
                 (A) (A) (A) (A) (A) (A) (A) (A) (A) (A) (A) (A)
                 (A) (A) (A) (A) (A) (A) (A) (A) (A) (A) (A) (A)
                 (A) (A) (A) (A) (A) (A) (A) (A) (A) (A) (A) (A)
                 (A) (A) (A) (A) (A) (A) (A) (A) (A) (A) (A) (A)
                 (A) (A) (A) (A)
 The electronic state is 1-A.
 Alpha  occ. eigenvalues --  -19.25930 -19.25928 -10.38103 -10.38099 -10.30960
 Alpha  occ. eigenvalues --  -10.30960 -10.28794 -10.28793 -10.27660 -10.27659
 Alpha  occ. eigenvalues --  -10.26820 -10.26817  -1.14659  -1.14392  -0.92133
 Alpha  occ. eigenvalues --   -0.92016  -0.78503  -0.78444  -0.77870  -0.77633
 Alpha  occ. eigenvalues --   -0.72736  -0.72576  -0.62385  -0.62353  -0.57224
 Alpha  occ. eigenvalues --   -0.56926  -0.55381  -0.55064  -0.54024  -0.53004
 Alpha  occ. eigenvalues --   -0.52053  -0.50932  -0.49362  -0.49201  -0.47068
 Alpha  occ. eigenvalues --   -0.46846  -0.46181  -0.46036  -0.45299  -0.45082
 Alpha  occ. eigenvalues --   -0.45028  -0.44755  -0.41451  -0.41359  -0.41241
 Alpha  occ. eigenvalues --   -0.40534  -0.33565  -0.33534
 Alpha virt. eigenvalues --    0.04757   0.06184   0.13562   0.14148   0.16774
 Alpha virt. eigenvalues --    0.17755   0.18803   0.19168   0.20097   0.20652
 Alpha virt. eigenvalues --    0.20890   0.21088   0.21382   0.23665   0.23817
 Alpha virt. eigenvalues --    0.24276   0.25313   0.25637   0.25667   0.26686
 Alpha virt. eigenvalues --    0.26807   0.27850   0.29017   0.29228   0.30059
 Alpha virt. eigenvalues --    0.30777   0.30790   0.31392   0.34323   0.35510
 Alpha virt. eigenvalues --    0.37559   0.39787   0.47105   0.47306   0.48196
 Alpha virt. eigenvalues --    0.48376   0.49497   0.52531   0.53565   0.55416
 Alpha virt. eigenvalues --    0.59054   0.61117   0.62769   0.65702   0.65864
 Alpha virt. eigenvalues --    0.66718   0.67237   0.69171   0.70716   0.71418
 Alpha virt. eigenvalues --    0.71934   0.74499   0.74515   0.75355   0.75683
 Alpha virt. eigenvalues --    0.76972   0.77256   0.77677   0.77945   0.78002
 Alpha virt. eigenvalues --    0.78479   0.78951   0.80117   0.81126   0.81163
 Alpha virt. eigenvalues --    0.81815   0.82354   0.82584   0.82673   0.83727
 Alpha virt. eigenvalues --    0.83759   0.84258   0.84395   0.85212   0.85638
 Alpha virt. eigenvalues --    0.86322   0.86768   0.87904   0.88288   0.89721
 Alpha virt. eigenvalues --    0.92868   0.95294   1.00080   1.04331   1.04461
 Alpha virt. eigenvalues --    1.06362   1.10565   1.12337   1.12539   1.15266
 Alpha virt. eigenvalues --    1.19496   1.19584   1.22797   1.25003   1.29015
 Alpha virt. eigenvalues --    1.32213   1.33661   1.35621   1.42652   1.43011
 Alpha virt. eigenvalues --    1.53631   1.54563   1.62619   1.62926   1.75307
 Alpha virt. eigenvalues --    1.75430   1.80243   1.80245   1.80679   1.80720
 Alpha virt. eigenvalues --    1.88752   1.88787   1.92029   1.92126   1.92883
 Alpha virt. eigenvalues --    1.93014   1.96261   1.97029   2.05767   2.07029
 Alpha virt. eigenvalues --    2.11729   2.11781   2.13042   2.13194   2.13482
 Alpha virt. eigenvalues --    2.15988   2.16496   2.19166   2.24687   2.24915
 Alpha virt. eigenvalues --    2.25813   2.26034   2.26167   2.27253   2.27422
 Alpha virt. eigenvalues --    2.28828   2.29088   2.29702   2.43740   2.45471
 Alpha virt. eigenvalues --    2.58300   2.58891   2.63945   2.65267   2.68627
 Alpha virt. eigenvalues --    2.69414   2.72234   2.72833   2.78163   2.78903
 Alpha virt. eigenvalues --    2.80662   2.80792   2.85031   2.85245   3.23683
 Alpha virt. eigenvalues --    3.25320   3.37492   3.37506   3.72719   3.73080
          Condensed to atoms (all electrons):
 Mulliken charges:
               1
     1  C   -0.264381
     2  C   -0.306755
     3  C   -0.288388
     4  C   -0.261850
     5  C    0.135180
     6  O   -0.209392
     7  H    0.124772
     8  H    0.126794
     9  H    0.114259
    10  H    0.117059
    11  H    0.108176
    12  H    0.156739
    13  H    0.122162
    14  H    0.106507
    15  H    0.146953
    16  H    0.072069
    17  C   -0.261760
    18  C   -0.306715
    19  C   -0.264380
    20  C   -0.288328
    21  C    0.135236
    22  O   -0.209395
    23  H    0.122231
    24  H    0.106525
    25  H    0.146805
    26  H    0.114260
    27  H    0.124779
    28  H    0.126827
    29  H    0.156716
    30  H    0.117032
    31  H    0.108185
    32  H    0.072078
 Sum of Mulliken charges =   0.00000
 Mulliken charges with hydrogens summed into heavy atoms:
               1
     1  C    0.101443
     2  C   -0.306755
     3  C    0.093586
     4  C    0.113772
     5  C    0.207250
     6  O   -0.209392
    17  C    0.113801
    18  C   -0.306715
    19  C    0.101486
    20  C    0.093606
    21  C    0.207314
    22  O   -0.209395
 Electronic spatial extent (au):  <R**2>=           2957.1676
 Charge=              0.0000 electrons
 Dipole moment (field-independent basis, Debye):
    X=              0.0011    Y=              0.0019    Z=             -0.9281  Tot=              0.9281
 Evaluate density.
 Using the total density.
 Monte-Carlo method of calculating molar volume:
 based on  0.001 e/bohr**3 density envelope.
 Number of points per bohr**3 =  100 CutOff= 1.00D-04
 Using the SCF density.
 There are      2061 points.  Will hold      2061 in memory.
 LenV=  1048068290 MDV=  1048576000.
 Box volume = 8756.447 fraction occupied=0.195
 Integrated density= 9.4593844232752318D+01 error=-1.4061557672476823D+00
 Molar volume = 1703.705 bohr**3/mol (152.037 cm**3/mol)
 Recommended a0 for SCRF calculation =  4.82 angstrom (  9.10 bohr)
   1 Symmetry operations used in ECPInt.
 ECPInt:  NShTT=    6328 NPrTT=   25416 LenC2=    6169 LenP2D=   18139.
 LDataN:  DoStor=T MaxTD1= 5 Len=  102
 Calling FoFJK, ICntrl=      2127 FMM=F ISym2X=0 I1Cent= 0 IOpClX= 0 NMat=1 NMatS=1 NMatT=0.

 GradGradGradGradGradGradGradGradGradGradGradGradGradGradGradGradGradGrad
 FormGI is forming the generalized inverse of G from B-inverse, IUseBI=4.
 Internal  Forces:  Max     0.011586153 RMS     0.004043368
 Step number   1 out of a maximum of  178
 All quantities printed in internal units (Hartrees-Bohrs-Radians)
 Mixed Optimization -- RFO/linear search
 Second derivative matrix not updated -- first step.
 ITU=  0
     Eigenvalues ---    0.00276   0.00282   0.00283   0.00319   0.00417
     Eigenvalues ---    0.00417   0.00435   0.00828   0.00865   0.01974
     Eigenvalues ---    0.02120   0.02280   0.02411   0.03076   0.03778
     Eigenvalues ---    0.04558   0.04633   0.04762   0.05033   0.05147
     Eigenvalues ---    0.05365   0.05520   0.05520   0.05653   0.05654
     Eigenvalues ---    0.05667   0.05667   0.05773   0.05773   0.05791
     Eigenvalues ---    0.05883   0.06418   0.06700   0.10331   0.11094
     Eigenvalues ---    0.11174   0.11983   0.14145   0.14732   0.15032
     Eigenvalues ---    0.15221   0.15304   0.15889   0.15997   0.15997
     Eigenvalues ---    0.16000   0.16000   0.16000   0.16000   0.16000
     Eigenvalues ---    0.16000   0.16000   0.16000   0.16000   0.16000
     Eigenvalues ---    0.16000   0.16000   0.19936   0.20550   0.21626
     Eigenvalues ---    0.28397   0.28825   0.28828   0.29233   0.29761
     Eigenvalues ---    0.29762   0.30804   0.31384   0.32619   0.32621
     Eigenvalues ---    0.34728   0.35016   0.35016   0.35019   0.35019
     Eigenvalues ---    0.35056   0.35056   0.35104   0.35104   0.35104
     Eigenvalues ---    0.35105   0.35125   0.35126   0.35153   0.35153
     Eigenvalues ---    0.35165   0.35191   0.35191   0.98768   1.04414
 Linear search not attempted -- first point.
 Iteration  1 RMS(Cart)=  0.03059374 RMS(Int)=  0.00020201
 Iteration  2 RMS(Cart)=  0.00029430 RMS(Int)=  0.00003245
 Iteration  3 RMS(Cart)=  0.00000007 RMS(Int)=  0.00003245
 Variable       Old X    -DE/DX   Delta X   Delta X   Delta X     New X
                                 (Linear)    (Quad)   (Total)
    R1        2.90363   0.00462   0.00000   0.01559   0.01559   2.91922
    R2        2.05507   0.01093   0.00000   0.03041   0.03041   2.08548
    R3        2.05584   0.01092   0.00000   0.03043   0.03043   2.08626
    R4        2.05644   0.01146   0.00000   0.03198   0.03198   2.08842
    R5        2.89175   0.00496   0.00000   0.01676   0.01676   2.90851
    R6        2.88441   0.00360   0.00000   0.01177   0.01177   2.89618
    R7        2.84902   0.00563   0.00000   0.01699   0.01699   2.86601
    R8        2.05471   0.01105   0.00000   0.03076   0.03076   2.08547
    R9        2.05649   0.01158   0.00000   0.03233   0.03233   2.08882
   R10        2.05408   0.01112   0.00000   0.03092   0.03092   2.08500
   R11        2.05506   0.01034   0.00000   0.02878   0.02878   2.08384
   R12        2.05427   0.01134   0.00000   0.03152   0.03152   2.08579
   R13        2.05365   0.01083   0.00000   0.03009   0.03009   2.08374
   R14        2.26750   0.00688   0.00000   0.00659   0.00659   2.27409
   R15        2.09726   0.00889   0.00000   0.02659   0.02659   2.12385
   R16        4.51021   0.00052   0.00000   0.01497   0.01496   4.52518
   R17        4.50831   0.00053   0.00000   0.01523   0.01523   4.52354
   R18        2.88442   0.00360   0.00000   0.01176   0.01176   2.89619
   R19        2.05505   0.01034   0.00000   0.02877   0.02877   2.08383
   R20        2.05427   0.01134   0.00000   0.03152   0.03152   2.08579
   R21        2.05365   0.01083   0.00000   0.03008   0.03008   2.08373
   R22        2.90369   0.00462   0.00000   0.01558   0.01558   2.91927
   R23        2.89168   0.00495   0.00000   0.01674   0.01674   2.90842
   R24        2.84901   0.00564   0.00000   0.01703   0.01703   2.86604
   R25        2.05645   0.01146   0.00000   0.03197   0.03197   2.08842
   R26        2.05507   0.01093   0.00000   0.03042   0.03042   2.08549
   R27        2.05585   0.01091   0.00000   0.03041   0.03041   2.08625
   R28        2.05407   0.01112   0.00000   0.03091   0.03091   2.08498
   R29        2.05472   0.01105   0.00000   0.03075   0.03075   2.08547
   R30        2.05648   0.01159   0.00000   0.03233   0.03233   2.08881
   R31        2.26746   0.00692   0.00000   0.00663   0.00663   2.27410
   R32        2.09722   0.00890   0.00000   0.02661   0.02661   2.12383
    A1        1.91276   0.00006   0.00000  -0.00150  -0.00149   1.91127
    A2        1.92991   0.00145   0.00000   0.00997   0.00991   1.93982
    A3        1.93511   0.00218   0.00000   0.01352   0.01346   1.94857
    A4        1.89548  -0.00090   0.00000  -0.00639  -0.00639   1.88910
    A5        1.89407  -0.00147   0.00000  -0.01133  -0.01131   1.88276
    A6        1.89568  -0.00145   0.00000  -0.00508  -0.00520   1.89048
    A7        1.92100  -0.00012   0.00000  -0.00154  -0.00160   1.91940
    A8        1.93228  -0.00009   0.00000   0.00387   0.00386   1.93614
    A9        1.85270   0.00011   0.00000  -0.00268  -0.00271   1.85000
   A10        1.93029   0.00086   0.00000   0.00894   0.00894   1.93923
   A11        1.89742  -0.00095   0.00000  -0.00955  -0.00955   1.88787
   A12        1.92839   0.00014   0.00000   0.00018   0.00020   1.92859
   A13        1.91742  -0.00007   0.00000  -0.00283  -0.00283   1.91460
   A14        1.93641   0.00083   0.00000   0.00812   0.00809   1.94450
   A15        1.91795   0.00122   0.00000   0.01301   0.01299   1.93093
   A16        1.89417  -0.00078   0.00000  -0.01133  -0.01133   1.88284
   A17        1.89661  -0.00047   0.00000  -0.00300  -0.00302   1.89359
   A18        1.90063  -0.00078   0.00000  -0.00449  -0.00461   1.89602
   A19        1.92601   0.00189   0.00000   0.01117   0.01113   1.93714
   A20        1.92774  -0.00080   0.00000  -0.00559  -0.00557   1.92217
   A21        1.91153   0.00210   0.00000   0.01333   0.01329   1.92481
   A22        1.90063  -0.00079   0.00000  -0.00635  -0.00632   1.89431
   A23        1.89628  -0.00179   0.00000  -0.00901  -0.00912   1.88717
   A24        1.90117  -0.00067   0.00000  -0.00392  -0.00390   1.89727
   A25        2.20635  -0.00153   0.00000  -0.00749  -0.00750   2.19886
   A26        1.97539   0.00311   0.00000   0.01780   0.01779   1.99318
   A27        2.10105  -0.00158   0.00000  -0.01014  -0.01015   2.09090
   A28        2.40619  -0.00040   0.00000  -0.00125  -0.00122   2.40497
   A29        2.48724  -0.00020   0.00000   0.00034   0.00038   2.48762
   A30        1.92602   0.00188   0.00000   0.01115   0.01111   1.93713
   A31        1.92772  -0.00080   0.00000  -0.00555  -0.00553   1.92219
   A32        1.91154   0.00209   0.00000   0.01330   0.01326   1.92480
   A33        1.90062  -0.00079   0.00000  -0.00632  -0.00630   1.89432
   A34        1.89628  -0.00179   0.00000  -0.00903  -0.00913   1.88715
   A35        1.90117  -0.00067   0.00000  -0.00392  -0.00390   1.89727
   A36        1.93222  -0.00009   0.00000   0.00385   0.00384   1.93606
   A37        1.93032   0.00087   0.00000   0.00896   0.00896   1.93928
   A38        1.92840   0.00013   0.00000   0.00014   0.00017   1.92856
   A39        1.92107  -0.00013   0.00000  -0.00160  -0.00167   1.91941
   A40        1.85238   0.00012   0.00000  -0.00258  -0.00261   1.84977
   A41        1.89769  -0.00096   0.00000  -0.00954  -0.00954   1.88815
   A42        1.93508   0.00218   0.00000   0.01355   0.01349   1.94857
   A43        1.91277   0.00006   0.00000  -0.00151  -0.00150   1.91127
   A44        1.92990   0.00145   0.00000   0.00993   0.00987   1.93977
   A45        1.89407  -0.00147   0.00000  -0.01133  -0.01131   1.88276
   A46        1.89568  -0.00145   0.00000  -0.00507  -0.00519   1.89049
   A47        1.89550  -0.00090   0.00000  -0.00638  -0.00637   1.88913
   A48        1.91793   0.00122   0.00000   0.01306   0.01304   1.93097
   A49        1.91748  -0.00007   0.00000  -0.00283  -0.00282   1.91465
   A50        1.93642   0.00082   0.00000   0.00809   0.00806   1.94447
   A51        1.89666  -0.00047   0.00000  -0.00303  -0.00305   1.89361
   A52        1.90056  -0.00078   0.00000  -0.00451  -0.00462   1.89594
   A53        1.89414  -0.00077   0.00000  -0.01131  -0.01131   1.88283
   A54        2.20629  -0.00154   0.00000  -0.00751  -0.00752   2.19877
   A55        1.97544   0.00311   0.00000   0.01780   0.01779   1.99324
   A56        2.10103  -0.00157   0.00000  -0.01011  -0.01012   2.09092
   A57        2.40274  -0.00041   0.00000  -0.00124  -0.00121   2.40152
   A58        2.48629  -0.00019   0.00000   0.00036   0.00040   2.48669
    D1       -1.04877  -0.00054   0.00000  -0.00177  -0.00177  -1.05054
    D2        1.09070   0.00040   0.00000   0.01109   0.01109   1.10179
    D3       -3.09914   0.00058   0.00000   0.01182   0.01182  -3.08732
    D4       -3.13776  -0.00038   0.00000   0.00087   0.00091  -3.13685
    D5       -0.99828   0.00057   0.00000   0.01374   0.01376  -0.98452
    D6        1.09506   0.00075   0.00000   0.01446   0.01450   1.10956
    D7        1.04172  -0.00096   0.00000  -0.00831  -0.00834   1.03338
    D8       -3.10199  -0.00001   0.00000   0.00456   0.00452  -3.09747
    D9       -1.00865   0.00017   0.00000   0.00529   0.00526  -1.00339
   D10        1.09021  -0.00006   0.00000  -0.00142  -0.00143   1.08878
   D11       -1.00425   0.00043   0.00000   0.00936   0.00939  -0.99485
   D12       -3.10711   0.00008   0.00000   0.00119   0.00115  -3.10596
   D13       -1.05043  -0.00045   0.00000  -0.01129  -0.01131  -1.06174
   D14        3.13829   0.00004   0.00000  -0.00051  -0.00048   3.13781
   D15        1.03543  -0.00031   0.00000  -0.00868  -0.00872   1.02671
   D16        3.11264  -0.00054   0.00000  -0.01093  -0.01093   3.10171
   D17        1.01818  -0.00005   0.00000  -0.00015  -0.00010   1.01808
   D18       -1.08469  -0.00041   0.00000  -0.00832  -0.00834  -1.09303
   D19        1.09734  -0.00044   0.00000  -0.02012  -0.02016   1.07718
   D20       -1.00518  -0.00016   0.00000  -0.01583  -0.01584  -1.02102
   D21       -3.09906  -0.00016   0.00000  -0.01595  -0.01593  -3.11500
   D22       -3.05179  -0.00006   0.00000  -0.01330  -0.01333  -3.06512
   D23        1.12887   0.00022   0.00000  -0.00901  -0.00901   1.11986
   D24       -0.96501   0.00021   0.00000  -0.00914  -0.00910  -0.97411
   D25       -0.95007  -0.00060   0.00000  -0.01930  -0.01932  -0.96939
   D26       -3.05259  -0.00032   0.00000  -0.01501  -0.01500  -3.06759
   D27        1.13671  -0.00033   0.00000  -0.01513  -0.01509   1.12162
   D28       -1.85181  -0.00066   0.00000  -0.02389  -0.02389  -1.87570
   D29        1.25924  -0.00050   0.00000  -0.01779  -0.01777   1.24146
   D30        2.36534  -0.00009   0.00000  -0.01575  -0.01575   2.34959
   D31       -0.80680   0.00007   0.00000  -0.00965  -0.00964  -0.81643
   D32        0.24406  -0.00062   0.00000  -0.02076  -0.02077   0.22329
   D33       -2.92807  -0.00046   0.00000  -0.01466  -0.01465  -2.94273
   D34        0.21424  -0.00011   0.00000  -0.00014  -0.00015   0.21408
   D35        2.31276   0.00025   0.00000   0.00238   0.00236   2.31512
   D36       -1.91013  -0.00139   0.00000  -0.01545  -0.01542  -1.92555
   D37       -2.27215   0.00006   0.00000   0.00799   0.00795  -2.26420
   D38        0.90199  -0.00019   0.00000   0.00104   0.00107   0.90306
   D39        1.07865  -0.00060   0.00000   0.01414   0.01414   1.09279
   D40        1.08258  -0.00060   0.00000   0.01405   0.01406   1.09664
   D41        1.09707  -0.00043   0.00000  -0.02003  -0.02008   1.07699
   D42       -3.05199  -0.00006   0.00000  -0.01330  -0.01333  -3.06532
   D43       -0.94990  -0.00060   0.00000  -0.01930  -0.01932  -0.96923
   D44       -1.00544  -0.00015   0.00000  -0.01579  -0.01580  -1.02124
   D45        1.12869   0.00022   0.00000  -0.00905  -0.00905   1.11964
   D46       -3.05241  -0.00033   0.00000  -0.01505  -0.01505  -3.06746
   D47       -3.09932  -0.00016   0.00000  -0.01592  -0.01590  -3.11522
   D48       -0.96520   0.00021   0.00000  -0.00919  -0.00915  -0.97435
   D49        1.13689  -0.00033   0.00000  -0.01519  -0.01514   1.12174
   D50       -3.10193  -0.00001   0.00000   0.00455   0.00451  -3.09741
   D51        1.09077   0.00040   0.00000   0.01107   0.01107   1.10184
   D52       -0.99824   0.00057   0.00000   0.01373   0.01376  -0.98449
   D53        1.04174  -0.00096   0.00000  -0.00828  -0.00832   1.03343
   D54       -1.04875  -0.00055   0.00000  -0.00176  -0.00176  -1.05051
   D55       -3.13776  -0.00038   0.00000   0.00089   0.00093  -3.13683
   D56       -1.00881   0.00017   0.00000   0.00529   0.00525  -1.00355
   D57       -3.09930   0.00058   0.00000   0.01181   0.01181  -3.08749
   D58        1.09488   0.00075   0.00000   0.01446   0.01450   1.10937
   D59        1.03564  -0.00031   0.00000  -0.00870  -0.00874   1.02690
   D60       -1.05031  -0.00045   0.00000  -0.01131  -0.01133  -1.06164
   D61        3.13842   0.00004   0.00000  -0.00054  -0.00051   3.13791
   D62       -3.10691   0.00007   0.00000   0.00112   0.00108  -3.10583
   D63        1.09032  -0.00006   0.00000  -0.00149  -0.00151   1.08882
   D64       -1.00414   0.00042   0.00000   0.00929   0.00931  -0.99482
   D65       -1.08468  -0.00040   0.00000  -0.00831  -0.00833  -1.09301
   D66        3.11255  -0.00053   0.00000  -0.01092  -0.01092   3.10164
   D67        1.01810  -0.00005   0.00000  -0.00015  -0.00010   1.01800
   D68        0.24687  -0.00063   0.00000  -0.02095  -0.02095   0.22591
   D69       -2.92590  -0.00046   0.00000  -0.01449  -0.01449  -2.94039
   D70       -1.84874  -0.00067   0.00000  -0.02410  -0.02409  -1.87284
   D71        1.26168  -0.00050   0.00000  -0.01765  -0.01763   1.24405
   D72        2.36836  -0.00009   0.00000  -0.01593  -0.01594   2.35243
   D73       -0.80440   0.00008   0.00000  -0.00948  -0.00947  -0.81387
   D74        0.21861  -0.00011   0.00000  -0.00025  -0.00026   0.21836
   D75        2.31723   0.00025   0.00000   0.00229   0.00227   2.31950
   D76       -1.90571  -0.00139   0.00000  -0.01553  -0.01550  -1.92121
   D77       -2.27525   0.00006   0.00000   0.00819   0.00815  -2.26711
   D78        0.89956  -0.00020   0.00000   0.00087   0.00090   0.90045
         Item               Value     Threshold  Converged?
 Maximum Force            0.011586     0.000015     NO 
 RMS     Force            0.004043     0.000010     NO 
 Maximum Displacement     0.109943     0.000060     NO 
 RMS     Displacement     0.030715     0.000040     NO 
 GradGradGradGradGradGradGradGradGradGradGradGradGradGradGradGradGradGrad

                    Distance matrix (angstroms):
                    1          2          3          4          5
     1  C    0.000000
     2  C    1.544782   0.000000
     3  C    2.525775   1.539115   0.000000
     4  C    2.535130   1.532593   2.533142   0.000000
     5  C    2.444958   1.516625   2.474795   2.505399   0.000000
     6  O    3.322797   2.427569   3.520892   2.811171   1.203398
     7  H    1.103589   2.177804   2.761791   2.800148   3.416287
     8  H    1.104002   2.198974   3.496614   2.771490   2.724630
     9  H    1.105143   2.206154   2.787044   3.505993   2.681345
    10  H    2.781454   2.175274   1.103584   2.782529   3.439683
    11  H    2.764410   2.198372   1.105354   3.502688   2.722709
    12  H    3.492916   2.187029   1.103337   2.780627   2.745585
    13  H    2.807483   2.185309   3.497044   1.102719   2.732822
    14  H    2.768834   2.175215   2.814919   1.103751   3.464039
    15  H    3.495704   2.176331   2.749410   1.102667   2.791892
    16  H    2.836561   2.227278   2.678455   3.509612   1.123890
    17  C    6.107853   4.768068   5.357954   4.057223   4.280843
    18  C    6.442615   5.040625   5.383559   4.766253   4.249368
    19  C    7.897361   6.442000   6.585189   6.105802   5.724595
    20  C    6.586991   5.384245   5.939382   5.356752   4.233194
    21  C    5.723298   4.247519   4.230976   4.277189   3.573226
    22  O    5.095921   3.559101   3.337633   3.502554   3.314162
    23  H    6.256703   4.852926   5.245246   3.963770   4.681055
    24  H    6.953380   5.706588   6.410932   4.903480   5.167188
    25  H    5.161608   3.933841   4.766882   3.212146   3.458956
    26  H    8.337198   6.891886   6.892748   6.771147   6.062445
    27  H    8.578000   7.177234   7.480494   6.727375   6.410292
    28  H    8.090946   6.580974   6.574960   6.111392   6.099826
    29  H    5.707109   4.645587   5.386638   4.742294   3.384012
    30  H    7.357330   6.217897   6.900423   6.026795   5.094036
    31  H    7.107710   5.919251   6.293237   6.110438   4.673381
    32  H    6.147673   4.756010   4.576198   5.086093   3.901993
                    6          7          8          9         10
     6  O    0.000000
     7  H    4.293531   0.000000
     8  H    3.256331   1.788662   0.000000
     9  H    3.686245   1.785476   1.790816   0.000000
    10  H    4.445290   2.559453   3.791267   3.153272   0.000000
    11  H    3.886666   3.093711   3.789814   2.567026   1.785693
    12  H    3.575004   3.783402   4.353439   3.795913   1.791017
    13  H    2.657403   3.199354   2.590662   3.810959   3.810149
    14  H    3.893695   2.579201   3.084986   3.799376   2.611835
    15  H    2.904794   3.795640   3.796492   4.354403   3.092461
    16  H    2.013847   3.820778   3.261655   2.613638   3.713903
    17  C    3.504968   6.728471   6.113770   6.773924   6.027010
    18  C    3.559034   7.176943   6.582038   6.893369   6.216332
    19  C    5.095627   8.576944   8.091699   8.337944   7.354500
    20  C    3.338020   7.481543   6.577235   6.895544   6.899817
    21  C    3.311670   6.408141   6.098831   6.062128   5.090962
    22  O    3.354327   5.624496   5.600412   5.523539   4.065143
    23  H    4.126402   6.721062   6.376345   6.996183   5.756119
    24  H    4.247975   7.584003   6.827618   7.647169   7.062262
    25  H    2.624236   5.815282   5.074848   5.863994   5.444548
    26  H    5.522152   9.060701   8.600121   8.650110   7.722033
    27  H    5.625371   9.281293   8.652845   9.062469   8.246644
    28  H    5.599906   8.650915   8.364578   8.600044   7.215887
    29  H    2.394622   6.658078   5.618930   5.986306   6.373027
    30  H    4.067028   8.248688   7.219396   7.725782   7.825366
    31  H    3.941248   8.035850   7.186141   7.267618   7.308409
    32  H    3.754370   6.894546   6.583697   6.295234   5.515196
                   11         12         13         14         15
    11  H    0.000000
    12  H    1.794027   0.000000
    13  H    4.354985   3.776512   0.000000
    14  H    3.823297   3.180082   1.791117   0.000000
    15  H    3.773975   2.538329   1.785629   1.792979   0.000000
    16  H    2.454022   2.987836   3.825026   4.367297   3.772149
    17  C    6.112462   4.743046   3.963988   4.902464   3.211441
    18  C    5.919606   4.644201   4.851515   5.704069   3.931022
    19  C    7.106818   5.704544   6.255440   6.950382   5.158685
    20  C    6.294336   5.385596   5.244324   6.409317   4.764451
    21  C    4.672479   3.381198   4.677823   5.162996   3.454372
    22  O    3.942413   2.393755   4.124513   4.244544   2.620627
    23  H    6.106479   4.540967   4.057561   4.622256   2.964867
    24  H    7.167870   5.835741   4.623760   5.713872   4.134168
    25  H    5.530478   4.352449   2.965315   4.133909   2.569349
    26  H    7.265717   5.982641   6.994261   7.643540   5.860330
    27  H    8.035642   6.656153   6.720838   7.581936   5.813242
    28  H    7.184720   5.616144   6.374817   6.824065   5.071866
    29  H    5.701204   5.017730   4.540114   5.834789   4.350461
    30  H    7.310015   6.372469   5.756370   7.061535   5.443024
    31  H    6.485927   5.698998   6.104833   7.165526   5.527262
    32  H    4.765070   3.749467   5.519894   5.985180   4.377211
                   16         17         18         19         20
    16  H    0.000000
    17  C    5.091620   0.000000
    18  C    4.760584   1.532595   0.000000
    19  C    6.151681   2.535085   1.544810   0.000000
    20  C    4.580968   2.533153   1.539071   2.525765   0.000000
    21  C    3.905573   2.505390   1.516643   2.444787   2.475021
    22  O    3.760344   2.811352   2.427536   3.321388   3.521888
    23  H    5.525077   1.102713   2.185302   2.807321   3.497037
    24  H    5.990914   1.103751   2.175232   2.768881   2.814857
    25  H    4.383151   1.102663   2.176321   3.495674   2.749537
    26  H    6.298451   3.505961   2.206176   1.105143   2.787061
    27  H    6.899075   2.800121   2.177837   1.103593   2.761784
    28  H    6.587404   2.771369   2.198961   1.103998   3.496570
    29  H    3.754656   2.780768   2.187012   3.492919   1.103325
    30  H    5.520315   2.782550   2.175276   2.781503   1.103583
    31  H    4.768793   3.502678   2.198312   2.764352   1.105353
    32  H    3.915574   3.509432   2.227330   2.837704   2.677790
                   21         22         23         24         25
    21  C    0.000000
    22  O    1.203400   0.000000
    23  H    2.732724   2.656786   0.000000
    24  H    3.464044   3.893741   1.791122   0.000000
    25  H    2.791920   2.905949   1.785608   1.792978   0.000000
    26  H    2.681194   3.684821   3.810814   3.799420   4.354393
    27  H    3.416177   4.292380   3.199183   2.579261   3.795672
    28  H    2.724282   3.254022   2.590396   3.085018   3.796329
    29  H    2.745882   3.576904   3.776671   3.180122   2.538616
    30  H    3.439874   4.446052   3.810126   2.611776   3.092618
    31  H    2.722928   3.887468   4.354944   3.823227   3.774082
    32  H    1.123884   2.013854   3.825218   4.367236   3.771347
                   26         27         28         29         30
    26  H    0.000000
    27  H    1.785480   0.000000
    28  H    1.790818   1.788684   0.000000
    29  H    3.795895   3.783433   4.353409   0.000000
    30  H    3.153353   2.559509   3.791290   1.791022   0.000000
    31  H    2.566993   3.093643   3.789742   1.793961   1.785684
    32  H    2.615111   3.821709   3.263051   2.986416   3.713502
                   31         32
    31  H    0.000000
    32  H    2.453523   0.000000
 Framework group  C1[X(C10H20O2)]
 Deg. of freedom    90
                         Standard orientation:                         
 ---------------------------------------------------------------------
 Center     Atomic      Atomic             Coordinates (Angstroms)
 Number     Number       Type             X           Y           Z
 ---------------------------------------------------------------------
      1          6           0        3.900304    0.618118    0.025762
      2          6           0        2.519270   -0.073520    0.052905
      3          6           0        2.599178   -1.435301   -0.659865
      4          6           0        2.014508   -0.232143    1.491270
      5          6           0        1.587712    0.821894   -0.741189
      6          8           0        0.716518    1.516450   -0.286460
      7          1           0        4.640403   -0.016280    0.543161
      8          1           0        3.866023    1.596050    0.536932
      9          1           0        4.255370    0.779016   -1.008347
     10          1           0        3.304058   -2.094512   -0.124624
     11          1           0        2.959141   -1.326228   -1.699258
     12          1           0        1.609610   -1.922895   -0.678822
     13          1           0        1.883754    0.750342    1.974608
     14          1           0        2.735256   -0.821626    2.083975
     15          1           0        1.041545   -0.750933    1.499921
     16          1           0        1.780764    0.821193   -1.848375
     17          6           0       -2.016253    0.230474    1.492031
     18          6           0       -2.519206    0.073642    0.052833
     19          6           0       -3.899486   -0.619454    0.023116
     20          6           0       -2.599811    1.436418   -0.657858
     21          6           0       -1.586006   -0.819892   -0.741486
     22          8           0       -0.716508   -1.516362   -0.286431
     23          1           0       -1.885177   -0.752644    1.973980
     24          1           0       -2.738192    0.818406    2.084828
     25          1           0       -1.043755    0.750090    1.502603
     26          1           0       -4.253245   -0.779144   -1.011628
     27          1           0       -4.640843    0.013344    0.540683
     28          1           0       -3.864653   -1.598132    0.532809
     29          1           0       -1.610750    1.925076   -0.675124
     30          1           0       -3.305935    2.094085   -0.122361
     31          1           0       -2.958570    1.328568   -1.697794
     32          1           0       -1.776151   -0.815902   -1.849160
 ---------------------------------------------------------------------
 Rotational constants (GHZ):           1.6923031           0.4366542           0.4140461
   208 basis functions,   380 primitive gaussians,   220 cartesian basis functions
    48 alpha electrons       48 beta electrons
       nuclear repulsion energy       755.9935529933 Hartrees.
 NAtoms=   32 NActive=   32 NUniq=   32 SFac= 1.00D+00 NAtFMM=   60 NAOKFM=F Big=F
 Nuclear repulsion after empirical dispersion term =      755.9691912526 Hartrees.
   1 Symmetry operations used in ECPInt.
 ECPInt:  NShTT=    6328 NPrTT=   25416 LenC2=    6161 LenP2D=   18035.
 LDataN:  DoStor=T MaxTD1= 4 Len=   56
 Initial guess from the checkpoint file:  "22.chk"
 B after Tr=     0.000000    0.000000    0.000000
         Rot=    0.999997    0.000001    0.000001    0.002283 Ang=   0.26 deg.
 ExpMin= 1.22D-01 ExpMax= 2.27D+03 ExpMxC= 3.41D+02 IAcc=3 IRadAn=         5 AccDes= 0.00D+00
 Harris functional with IExCor= 4639 and IRadAn=       5 diagonalized for initial guess.
 HarFok:  IExCor= 4639 AccDes= 0.00D+00 IRadAn=         5 IDoV= 1 UseB2=F ITyADJ=14
 ICtDFT=  3500011 ScaDFX=  1.000000  1.000000  1.000000  1.000000
 FoFCou: FMM=F IPFlag=           0 FMFlag=      100000 FMFlg1=           0
         NFxFlg=           0 DoJE=T BraDBF=F KetDBF=T FulRan=T
         wScrn=  0.000000 ICntrl=       500 IOpCl=  0 I1Cent=   200000004 NGrid=           0
         NMat0=    1 NMatS0=      1 NMatT0=    0 NMatD0=    1 NMtDS0=    0 NMtDT0=    0
 Petite list used in FoFCou.
     Accept linear search using points  3 and  4.
     Accept linear search using points  1 and  2.
     Minimum is close to point  2 DX=  8.85D-05 DF= -3.41D-13 DXR=  8.84D-05 DFR=  6.36D-09 which will be used.
 SCF Done:  E(RwB97XD) =  -542.957051747     a.u. after    6 cycles
            Convg  =    0.5885D-09                    35 Fock formations.
              S**2 =  0.0000                  -V/T =  2.0104
   1 Symmetry operations used in ECPInt.
 ECPInt:  NShTT=    6328 NPrTT=   25416 LenC2=    6161 LenP2D=   18035.
 LDataN:  DoStor=T MaxTD1= 5 Len=  102
 Calling FoFJK, ICntrl=      2127 FMM=F ISym2X=0 I1Cent= 0 IOpClX= 0 NMat=1 NMatS=1 NMatT=0.

 GradGradGradGradGradGradGradGradGradGradGradGradGradGradGradGradGradGrad
 Using GEDIIS/GDIIS optimizer.
 FormGI is forming the generalized inverse of G from B-inverse, IUseBI=4.
 Internal  Forces:  Max     0.002381553 RMS     0.000378057
 Step number   2 out of a maximum of  178
 All quantities printed in internal units (Hartrees-Bohrs-Radians)
 Mixed Optimization -- En-DIIS/RFO-DIIS
 Trust test= 9.52D-01 RLast= 1.91D-01 DXMaxT set to 5.05D-01
 ITU=  1  0
 Use linear search instead of GDIIS.
     Eigenvalues ---    0.00277   0.00282   0.00283   0.00319   0.00417
     Eigenvalues ---    0.00417   0.00434   0.00827   0.00866   0.01989
     Eigenvalues ---    0.02102   0.02270   0.02408   0.03078   0.03769
     Eigenvalues ---    0.04501   0.04558   0.04714   0.04951   0.05144
     Eigenvalues ---    0.05344   0.05392   0.05395   0.05619   0.05620
     Eigenvalues ---    0.05624   0.05624   0.05689   0.05689   0.05871
     Eigenvalues ---    0.05876   0.06432   0.06700   0.10358   0.11202
     Eigenvalues ---    0.11279   0.12108   0.14121   0.14757   0.15063
     Eigenvalues ---    0.15213   0.15302   0.15867   0.15950   0.15998
     Eigenvalues ---    0.15999   0.16000   0.16000   0.16000   0.16000
     Eigenvalues ---    0.16000   0.16000   0.16000   0.16000   0.16000
     Eigenvalues ---    0.16000   0.16090   0.19932   0.20492   0.21639
     Eigenvalues ---    0.28448   0.28827   0.28906   0.29320   0.29498
     Eigenvalues ---    0.29762   0.30818   0.31434   0.32620   0.32752
     Eigenvalues ---    0.34730   0.34975   0.35016   0.35018   0.35019
     Eigenvalues ---    0.35038   0.35056   0.35075   0.35104   0.35104
     Eigenvalues ---    0.35114   0.35120   0.35126   0.35146   0.35153
     Eigenvalues ---    0.35185   0.35191   0.36504   0.98920   1.04371
 Quartic linear search produced a step of -0.00063.
 Iteration  1 RMS(Cart)=  0.04951264 RMS(Int)=  0.00081152
 Iteration  2 RMS(Cart)=  0.00131252 RMS(Int)=  0.00014927
 Iteration  3 RMS(Cart)=  0.00000109 RMS(Int)=  0.00014927
 Iteration  4 RMS(Cart)=  0.00000000 RMS(Int)=  0.00014927
 Variable       Old X    -DE/DX   Delta X   Delta X   Delta X     New X
                                 (Linear)    (Quad)   (Total)
    R1        2.91922  -0.00151  -0.00001  -0.00485  -0.00486   2.91435
    R2        2.08548   0.00032  -0.00002   0.00163   0.00161   2.08709
    R3        2.08626   0.00001  -0.00002   0.00076   0.00074   2.08701
    R4        2.08842  -0.00000  -0.00002   0.00075   0.00073   2.08915
    R5        2.90851  -0.00137  -0.00001  -0.00433  -0.00428   2.90422
    R6        2.89618  -0.00238  -0.00001  -0.00770  -0.00771   2.88847
    R7        2.86601   0.00032  -0.00001   0.00150   0.00142   2.86743
    R8        2.08547   0.00032  -0.00002   0.00164   0.00162   2.08709
    R9        2.08882   0.00002  -0.00002   0.00083   0.00081   2.08963
   R10        2.08500  -0.00030  -0.00002  -0.00014  -0.00015   2.08485
   R11        2.08384  -0.00002  -0.00002   0.00063   0.00061   2.08445
   R12        2.08579   0.00023  -0.00002   0.00139   0.00137   2.08716
   R13        2.08374  -0.00003  -0.00002   0.00064   0.00062   2.08436
   R14        2.27409   0.00006  -0.00000   0.00019   0.00024   2.27433
   R15        2.12385  -0.00007  -0.00002   0.00040   0.00039   2.12423
   R16        4.52518   0.00026  -0.00001   0.01154   0.01151   4.53669
   R17        4.52354   0.00027  -0.00001   0.01161   0.01158   4.53512
   R18        2.89619  -0.00238  -0.00001  -0.00770  -0.00771   2.88848
   R19        2.08383  -0.00002  -0.00002   0.00063   0.00061   2.08443
   R20        2.08579   0.00023  -0.00002   0.00139   0.00137   2.08716
   R21        2.08373  -0.00002  -0.00002   0.00065   0.00063   2.08436
   R22        2.91927  -0.00151  -0.00001  -0.00485  -0.00486   2.91441
   R23        2.90842  -0.00137  -0.00001  -0.00434  -0.00429   2.90413
   R24        2.86604   0.00032  -0.00001   0.00149   0.00142   2.86746
   R25        2.08842  -0.00000  -0.00002   0.00075   0.00073   2.08915
   R26        2.08549   0.00032  -0.00002   0.00162   0.00161   2.08709
   R27        2.08625   0.00001  -0.00002   0.00076   0.00074   2.08700
   R28        2.08498  -0.00030  -0.00002  -0.00013  -0.00014   2.08484
   R29        2.08547   0.00032  -0.00002   0.00164   0.00162   2.08709
   R30        2.08881   0.00002  -0.00002   0.00083   0.00081   2.08963
   R31        2.27410   0.00006  -0.00000   0.00019   0.00024   2.27434
   R32        2.12383  -0.00008  -0.00002   0.00040   0.00038   2.12422
    A1        1.91127   0.00041   0.00000   0.00238   0.00238   1.91365
    A2        1.93982   0.00010  -0.00001   0.00113   0.00113   1.94094
    A3        1.94857   0.00001  -0.00001   0.00017   0.00016   1.94873
    A4        1.88910  -0.00022   0.00000  -0.00114  -0.00114   1.88796
    A5        1.88276  -0.00028   0.00001  -0.00256  -0.00255   1.88021
    A6        1.89048  -0.00004   0.00000  -0.00017  -0.00017   1.89031
    A7        1.91940  -0.00016   0.00000  -0.00028  -0.00023   1.91917
    A8        1.93614   0.00012  -0.00000   0.00159   0.00156   1.93770
    A9        1.85000   0.00017   0.00000   0.00303   0.00316   1.85316
   A10        1.93923  -0.00001  -0.00001  -0.00140  -0.00140   1.93783
   A11        1.88787   0.00001   0.00001  -0.00212  -0.00218   1.88569
   A12        1.92859  -0.00012  -0.00000  -0.00072  -0.00081   1.92778
   A13        1.91460   0.00028   0.00000   0.00282   0.00281   1.91740
   A14        1.94450   0.00001  -0.00001   0.00042   0.00061   1.94511
   A15        1.93093  -0.00026  -0.00001  -0.00385  -0.00423   1.92670
   A16        1.88284  -0.00023   0.00001  -0.00226  -0.00229   1.88055
   A17        1.89359  -0.00005   0.00000   0.00034   0.00061   1.89419
   A18        1.89602   0.00025   0.00000   0.00257   0.00256   1.89859
   A19        1.93714   0.00012  -0.00001   0.00132   0.00132   1.93846
   A20        1.92217   0.00004   0.00000  -0.00016  -0.00015   1.92202
   A21        1.92481  -0.00007  -0.00001  -0.00014  -0.00015   1.92466
   A22        1.89431  -0.00009   0.00000  -0.00069  -0.00069   1.89362
   A23        1.88717   0.00004   0.00001   0.00058   0.00059   1.88776
   A24        1.89727  -0.00005   0.00000  -0.00096  -0.00095   1.89631
   A25        2.19886  -0.00011   0.00000  -0.00063  -0.00082   2.19804
   A26        1.99318   0.00005  -0.00001   0.00056   0.00065   1.99383
   A27        2.09090   0.00006   0.00001   0.00001   0.00011   2.09101
   A28        2.40497   0.00024   0.00000  -0.00108  -0.00157   2.40340
   A29        2.48762  -0.00000  -0.00000  -0.00238  -0.00314   2.48449
   A30        1.93713   0.00012  -0.00001   0.00132   0.00132   1.93845
   A31        1.92219   0.00004   0.00000  -0.00015  -0.00014   1.92205
   A32        1.92480  -0.00008  -0.00001  -0.00017  -0.00018   1.92462
   A33        1.89432  -0.00009   0.00000  -0.00068  -0.00068   1.89365
   A34        1.88715   0.00004   0.00001   0.00058   0.00059   1.88774
   A35        1.89727  -0.00005   0.00000  -0.00095  -0.00095   1.89632
   A36        1.93606   0.00012  -0.00000   0.00162   0.00159   1.93765
   A37        1.93928  -0.00001  -0.00001  -0.00142  -0.00142   1.93786
   A38        1.92856  -0.00012  -0.00000  -0.00075  -0.00085   1.92771
   A39        1.91941  -0.00016   0.00000  -0.00028  -0.00023   1.91917
   A40        1.84977   0.00018   0.00000   0.00308   0.00321   1.85298
   A41        1.88815   0.00001   0.00001  -0.00214  -0.00220   1.88595
   A42        1.94857   0.00001  -0.00001   0.00017   0.00016   1.94873
   A43        1.91127   0.00040   0.00000   0.00237   0.00237   1.91365
   A44        1.93977   0.00010  -0.00001   0.00114   0.00114   1.94091
   A45        1.88276  -0.00028   0.00001  -0.00256  -0.00255   1.88021
   A46        1.89049  -0.00004   0.00000  -0.00017  -0.00017   1.89032
   A47        1.88913  -0.00022   0.00000  -0.00114  -0.00114   1.88799
   A48        1.93097  -0.00026  -0.00001  -0.00380  -0.00418   1.92679
   A49        1.91465   0.00028   0.00000   0.00279   0.00278   1.91744
   A50        1.94447   0.00001  -0.00001   0.00042   0.00060   1.94508
   A51        1.89361  -0.00005   0.00000   0.00032   0.00059   1.89420
   A52        1.89594   0.00025   0.00000   0.00256   0.00255   1.89849
   A53        1.88283  -0.00023   0.00001  -0.00227  -0.00229   1.88053
   A54        2.19877  -0.00012   0.00000  -0.00069  -0.00088   2.19790
   A55        1.99324   0.00005  -0.00001   0.00060   0.00069   1.99393
   A56        2.09092   0.00007   0.00001   0.00003   0.00013   2.09105
   A57        2.40152   0.00024   0.00000  -0.00103  -0.00152   2.40000
   A58        2.48669   0.00000  -0.00000  -0.00230  -0.00306   2.48362
    D1       -1.05054   0.00010   0.00000   0.01275   0.01275  -1.03779
    D2        1.10179   0.00006  -0.00001   0.01187   0.01188   1.11367
    D3       -3.08732   0.00008  -0.00001   0.01372   0.01370  -3.07362
    D4       -3.13685   0.00005  -0.00000   0.01191   0.01191  -3.12494
    D5       -0.98452   0.00001  -0.00001   0.01103   0.01104  -0.97348
    D6        1.10956   0.00003  -0.00001   0.01289   0.01286   1.12241
    D7        1.03338   0.00003   0.00001   0.01122   0.01123   1.04461
    D8       -3.09747  -0.00002  -0.00000   0.01034   0.01036  -3.08711
    D9       -1.00339   0.00000  -0.00000   0.01220   0.01218  -0.99122
   D10        1.08878  -0.00013   0.00000  -0.02023  -0.02018   1.06860
   D11       -0.99485  -0.00003  -0.00001  -0.01952  -0.01954  -1.01439
   D12       -3.10596  -0.00017  -0.00000  -0.02043  -0.02030  -3.12626
   D13       -1.06174  -0.00016   0.00001  -0.02111  -0.02104  -1.08279
   D14        3.13781  -0.00006   0.00000  -0.02039  -0.02040   3.11741
   D15        1.02671  -0.00020   0.00001  -0.02130  -0.02117   1.00554
   D16        3.10171  -0.00001   0.00001  -0.01796  -0.01776   3.08395
   D17        1.01808   0.00009   0.00000  -0.01725  -0.01712   1.00096
   D18       -1.09303  -0.00005   0.00001  -0.01816  -0.01788  -1.11091
   D19        1.07718  -0.00002   0.00001  -0.02384  -0.02381   1.05338
   D20       -1.02102  -0.00002   0.00001  -0.02372  -0.02369  -1.04472
   D21       -3.11500   0.00006   0.00001  -0.02235  -0.02232  -3.13732
   D22       -3.06512  -0.00015   0.00001  -0.02405  -0.02399  -3.08911
   D23        1.11986  -0.00015   0.00001  -0.02394  -0.02388   1.09599
   D24       -0.97411  -0.00008   0.00001  -0.02256  -0.02250  -0.99661
   D25       -0.96939  -0.00023   0.00001  -0.02812  -0.02818  -0.99757
   D26       -3.06759  -0.00023   0.00001  -0.02800  -0.02807  -3.09566
   D27        1.12162  -0.00015   0.00001  -0.02663  -0.02669   1.09493
   D28       -1.87570  -0.00015   0.00002  -0.03231  -0.03238  -1.90809
   D29        1.24146  -0.00033   0.00001  -0.03497  -0.03485   1.20661
   D30        2.34959  -0.00006   0.00001  -0.03251  -0.03267   2.31691
   D31       -0.81643  -0.00023   0.00001  -0.03518  -0.03514  -0.85157
   D32        0.22329   0.00003   0.00001  -0.02897  -0.02905   0.19424
   D33       -2.94273  -0.00015   0.00001  -0.03164  -0.03152  -2.97424
   D34        0.21408  -0.00005   0.00000  -0.02742  -0.02720   0.18688
   D35        2.31512   0.00011  -0.00000  -0.02609  -0.02595   2.28917
   D36       -1.92555  -0.00006   0.00001  -0.02718  -0.02694  -1.95248
   D37       -2.26420   0.00001  -0.00001   0.00162   0.00207  -2.26213
   D38        0.90306   0.00019  -0.00000   0.00442   0.00466   0.90772
   D39        1.09279   0.00053  -0.00001   0.10011   0.10032   1.19311
   D40        1.09664   0.00053  -0.00001   0.09999   0.10020   1.19684
   D41        1.07699  -0.00002   0.00001  -0.02379  -0.02376   1.05324
   D42       -3.06532  -0.00015   0.00001  -0.02400  -0.02394  -3.08926
   D43       -0.96923  -0.00023   0.00001  -0.02812  -0.02818  -0.99741
   D44       -1.02124  -0.00002   0.00001  -0.02370  -0.02367  -1.04491
   D45        1.11964  -0.00015   0.00001  -0.02391  -0.02385   1.09579
   D46       -3.06746  -0.00024   0.00001  -0.02803  -0.02809  -3.09555
   D47       -3.11522   0.00006   0.00001  -0.02232  -0.02229  -3.13751
   D48       -0.97435  -0.00007   0.00001  -0.02253  -0.02247  -0.99682
   D49        1.12174  -0.00016   0.00001  -0.02665  -0.02671   1.09503
   D50       -3.09741  -0.00002  -0.00000   0.01034   0.01036  -3.08706
   D51        1.10184   0.00006  -0.00001   0.01187   0.01188   1.11372
   D52       -0.98449   0.00001  -0.00001   0.01104   0.01105  -0.97344
   D53        1.03343   0.00003   0.00001   0.01123   0.01124   1.04467
   D54       -1.05051   0.00010   0.00000   0.01276   0.01277  -1.03774
   D55       -3.13683   0.00005  -0.00000   0.01193   0.01193  -3.12490
   D56       -1.00355   0.00000  -0.00000   0.01219   0.01217  -0.99138
   D57       -3.08749   0.00008  -0.00001   0.01372   0.01370  -3.07379
   D58        1.10937   0.00003  -0.00001   0.01289   0.01286   1.12223
   D59        1.02690  -0.00021   0.00001  -0.02139  -0.02126   1.00564
   D60       -1.06164  -0.00016   0.00001  -0.02119  -0.02113  -1.08277
   D61        3.13791  -0.00006   0.00000  -0.02046  -0.02047   3.11744
   D62       -3.10583  -0.00018  -0.00000  -0.02050  -0.02037  -3.12620
[...]
 009,0.00000911,0.00000168,-0.00000442,0.00001860,-0.00000792,0.0000096
 6,0.00004023,-0.00003781,0.00000604,0.00002937,-0.00001161,-0.00002807
 ,0.00006659,-0.00006955,-0.00002061,0.00003439,0.00008755,-0.00003952,
 -0.00000233,-0.00000153,0.00000031,-0.00000629,0.00001004,-0.00000487,
 -0.00000267,0.00000020,0.00000424,-0.00001970,0.00000682,-0.00000787,-
 0.00001320,0.00001166,0.00000241,0.00006221,0.00002904,-0.00002473,-0.
 00002845,0.00002533,-0.00000992,-0.00001649,0.00000461,-0.00000459,0.0
 0002058,-0.00002580,0.00009704,0.00000510,-0.00000351,-0.00000651,0.00
 119073,-0.00102006,0.00100463,-0.02327573,-0.01759473,0.01549999,-0.15
 292437,-0.10994370,0.07548994,0.00181736,-0.00151746,-0.00074894,-0.00
 306044,0.00620237,-0.00285827,-0.00136350,-0.00262009,0.00023486,-0.00
 007159,0.00004659,-0.00002560,-0.00008127,0.00058228,-0.00085459,0.000
 33339,0.00021307,0.00007877,0.00822030,0.00863804,-0.00505386,0.167617
 53,0.00000135,-0.00000253,-0.00000091,-0.00000824,-0.00000570,0.000001
 49,-0.00000375,-0.00000105,-0.00000310,-0.00000042,-0.00000077,0.00000
 362,0.00000919,0.00002912,-0.00000320,-0.00004763,-0.00002968,0.000004
 37,-0.00000153,-0.00000142,-0.00000048,0.00000093,0.00000133,0.0000000
 4,0.00000065,0.00000045,0.00000069,0.00000124,-0.00000237,-0.00000022,
 0.00000229,0.00000052,0.00000017,-0.00000585,0.00000173,0.00000359,0.0
 0000482,0.00000074,0.00000276,0.00000018,-0.00000384,0.00000089,-0.000
 00162,0.00000230,-0.00001292,-0.00000227,0.00000063,0.00000252,-0.0001
 9114,0.00043879,-0.00063477,0.01168163,0.00761025,-0.00731973,-0.11068
 283,-0.15649600,0.07571418,0.00072217,0.00175648,-0.00044972,0.0016422
 1,-0.00263621,0.00031353,0.00055061,0.00169812,0.00015046,-0.00005756,
 -0.00009167,0.00012039,-0.00020619,0.00004782,0.00002839,-0.00004947,0
 .00007256,-0.00025631,-0.00260369,-0.00302947,0.00060694,0.11537956,0.
 16440791,-0.00000211,-0.00000139,-0.00000340,-0.00000186,-0.00000090,0
 .00000549,-0.00000578,0.00000507,-0.00000442,-0.00000414,0.00000613,0.
 00000253,-0.00001023,0.00001679,0.00000698,-0.00001465,-0.00003213,-0.
 00002551,-0.00000030,0.00000048,0.00000050,0.00000056,-0.00000140,0.00
 000262,0.00000287,-0.00000040,-0.00000334,0.00000402,-0.00000243,0.000
 00331,0.00000170,-0.00000070,-0.00000290,-0.00001060,-0.00000803,0.000
 00276,-0.00000394,0.00000129,0.00000007,0.00000712,0.00000040,-0.00000
 122,-0.00000569,-0.00000994,-0.00000603,0.00000092,0.00000538,-0.00000
 597,-0.00078186,-0.00057806,0.00052794,-0.00031158,0.00082730,-0.00096
 094,0.07576846,0.07492784,-0.10039176,0.00010473,0.00048262,-0.0001946
 2,0.00073281,-0.00026423,-0.00010538,-0.00000946,0.00014769,0.00019883
 ,-0.00003869,-0.00008423,-0.00003893,-0.00010833,0.00027442,0.00018704
 ,0.00006138,-0.00008078,-0.00002287,0.01924301,0.01777098,-0.01036359,
 -0.08231424,-0.08176168,0.10202580,-0.00000031,-0.00001424,-0.00001512
 ,-0.00001271,-0.00001623,0.00001876,-0.00001984,0.00000544,-0.00002108
 ,-0.00001737,0.00000715,0.00000644,0.00009597,0.00009021,-0.00000294,-
 0.00013369,-0.00008752,-0.00003874,-0.00000629,0.00000093,-0.00000056,
 0.00000242,-0.00000103,0.00000392,0.00000787,-0.00000069,-0.00000378,-
 0.00000059,-0.00000808,0.00000449,0.00000892,-0.00000158,-0.00000534,-
 0.00001157,-0.00000424,0.00001199,0.00000317,-0.00000263,0.00000180,0.
 00000640,-0.00000178,-0.00000570,-0.00000687,-0.00000163,-0.00001213,-
 0.00000341,0.00000444,-0.00000459,0.00150355,0.00015090,0.00113131,0.0
 0124457,0.02423116,0.01611126,-0.04892453,-0.00745984,-0.00476429,-0.0
 0619207,0.00193507,0.00000084,0.00149787,0.00233799,0.00108498,-0.0000
 2680,-0.00053292,-0.00064462,-0.00031615,-0.00020735,-0.00061908,-0.00
 004165,-0.00007233,-0.00014708,0.00005788,-0.00027511,0.00018008,-0.00
 081471,-0.00955471,-0.00407956,0.00018976,-0.01557969,-0.01222939,0.05
 168286,-0.00000588,0.00001670,0.00001804,0.00001459,0.00002929,-0.0000
 2439,0.00000662,0.00001417,0.00002251,0.00000695,-0.00000158,0.0000055
 1,-0.00015613,-0.00009373,0.00002223,0.00020114,0.00007550,0.00003765,
 0.00001005,0.00000133,0.00000141,-0.00000104,-0.00000446,-0.00000236,-
 0.00000705,-0.00000042,0.00000089,0.00001229,0.00000718,-0.00000007,-0
 .00000306,-0.00000504,0.00000305,-0.00001624,-0.00001612,-0.00000291,0
 .00000193,-0.00000788,-0.00000191,0.00000688,0.00000476,0.00000672,-0.
 00000423,0.00000216,-0.00002767,0.00000566,-0.00000189,0.00000316,-0.0
 0087845,0.00029725,-0.00037592,-0.00131958,-0.00907450,-0.00595151,-0.
 00605154,-0.24263568,-0.11936484,0.00361031,-0.00039039,0.00015974,-0.
 00114431,-0.00083866,0.00036955,0.00084013,0.00071332,0.00023619,0.000
 54199,0.00014692,0.00057658,0.00004699,-0.00012836,-0.00003317,-0.0000
 1162,0.00029780,0.00011266,-0.00011676,0.00823697,0.00482734,0.0011476
 3,-0.01389472,-0.01083265,0.00344906,0.25727852,0.00000017,0.00001262,
 -0.00000020,0.00001156,0.00000916,0.00000556,0.00001424,-0.00000681,0.
 00000943,0.00000701,0.00000684,-0.00000719,-0.00008659,-0.00006965,0.0
 0002141,0.00012732,0.00004596,-0.00002711,0.00000485,-0.00000004,0.000
 00262,-0.00000392,0.00000236,-0.00000159,-0.00000077,-0.00000237,-0.00
 000151,0.00000274,0.00000556,0.00000006,-0.00000241,0.00000051,-0.0000
 0246,0.00000122,-0.00000334,-0.00000122,-0.00001151,0.00000811,-0.0000
 0572,0.00000752,0.00000245,0.00000326,-0.00000432,-0.00002075,0.000012
 63,0.00000622,0.00000166,-0.00001070,-0.00021963,0.00107976,0.00056834
 ,0.00035718,0.00053390,-0.00176331,-0.00342694,-0.11999500,-0.12479146
 ,0.00066795,0.00011142,0.00037789,-0.00039661,-0.00169069,-0.00044147,
 0.00037200,0.00065770,0.00026656,-0.00022350,-0.00003873,0.00022705,0.
 00006962,0.00006951,-0.00000725,0.00008348,0.00005024,-0.00004482,0.00
 032151,-0.02468939,-0.01193846,-0.00060874,0.01321612,0.00894345,0.003
 20768,0.13090736,0.12787580,-0.00003071,0.00013910,0.00007077,0.000256
 58,0.00023672,-0.00021652,0.00009575,-0.00000524,0.00016253,0.00003265
 ,-0.00001033,-0.00006658,-0.00160951,-0.00083380,0.00114713,-0.0004493
 6,0.00048339,-0.00096886,0.00006220,-0.00000584,0.00001063,-0.00001157
 ,-0.00001624,-0.00000119,-0.00002070,-0.00000690,-0.00001177,0.0000150
 8,0.00006365,-0.00002796,-0.00000632,-0.00001961,-0.00000784,-0.000003
 37,-0.00000492,-0.00000348,-0.00000531,-0.00001404,-0.00001702,0.00000
 745,0.00002191,0.00003633,0.00000822,-0.00000180,-0.00000924,0.0002234
 7,-0.00006987,-0.00024358,0.00057705,-0.00046124,-0.00001084,0.0044040
 5,-0.00198035,-0.00056172,0.00046904,-0.00048377,-0.00034695,-0.277240
 36,0.10434249,0.01529327,0.00060801,-0.00020027,0.00031663,0.00002946,
 0.00032285,-0.00005762,0.00011815,-0.00007623,-0.00003841,-0.00010403,
 0.00009927,0.00001996,0.00014779,0.00000115,0.00003742,-0.00002756,-0.
 00011207,0.00000945,0.00023233,-0.00005448,-0.00019896,0.00040812,-0.0
 0012983,-0.00013137,0.29064301,-0.00006778,0.00005580,0.00002447,-0.00
 007225,0.00034772,-0.00020322,0.00009982,0.00005321,0.00015476,0.00002
 005,0.00001574,-0.00003132,-0.00106076,-0.00052414,0.00026730,0.001713
 01,-0.00056032,0.00025063,0.00002908,0.00000174,0.00000804,-0.00000426
 ,-0.00001611,0.00000337,-0.00001137,-0.00000363,-0.00000904,0.00003011
 ,0.00005456,-0.00002172,-0.00001329,-0.00001751,-0.00000494,-0.0000049
 1,-0.00004131,-0.00000353,-0.00000792,-0.00001348,-0.00001152,0.000019
 32,0.00001486,0.00002782,-0.00000335,-0.00002382,-0.00002917,0.0001431
 2,-0.00009092,-0.00004454,0.00038238,0.00092442,0.00122264,0.02423313,
 -0.01160452,-0.00022786,-0.00140022,-0.00508812,-0.00318135,0.10098854
 ,-0.09601239,-0.00567283,0.00269226,0.00040878,-0.00023381,-0.00071136
 ,-0.00013308,-0.00018848,-0.00015068,0.00003241,0.00028423,-0.00014586
 ,-0.00000264,-0.00004910,-0.00035858,0.00023080,-0.00059408,-0.0002935
 2,0.00010375,0.00005370,-0.00003669,0.00017117,-0.00014171,0.00173747,
 -0.00055334,-0.00029828,-0.11124995,0.10433024,-0.00000340,0.00005473,
 0.00003128,0.00012641,-0.00000212,-0.00007496,0.00002748,-0.00001439,0
 .00005077,-0.00002182,-0.00001516,-0.00000393,-0.00001301,0.00002185,0
 .00036488,0.00018174,0.00003110,-0.00087368,0.00002471,-0.00000359,0.0
 0000277,-0.00001199,0.00000293,-0.00000124,0.00000180,-0.00000249,-0.0
 0001071,0.00000048,0.00002184,-0.00001210,0.00001049,-0.00000165,-0.00
 001292,0.00000348,0.00000361,0.00000576,-0.00002853,0.00001166,-0.0000
 2260,0.00001941,0.00001230,-0.00000142,0.00000080,-0.00003665,0.000016
 14,0.00010450,0.00009867,-0.00010180,0.00125890,-0.00001513,0.00058761
 ,0.01505669,-0.00565117,-0.00133571,-0.00068004,-0.00322617,-0.0016498
 1,0.01293617,-0.00443018,-0.05234308,0.00048934,0.00071120,0.00034674,
 -0.00030550,-0.00014156,-0.00019149,-0.00017249,0.00021827,0.00015644,
 0.00005747,-0.00000641,-0.00005893,-0.00052425,-0.00035337,-0.00058045
 ,0.00019065,-0.00018337,0.00022236,-0.00044189,0.00008471,0.00003383,0
 .00093504,-0.00069081,0.00037386,-0.01526018,0.00924939,0.05131024,0.0
 0002383,-0.00004493,-0.00002106,0.00000521,-0.00011512,0.00007398,-0.0
 0003155,-0.00004028,-0.00006582,-0.00000869,-0.00001965,0.00001478,0.0
 0046017,0.00021849,-0.00013555,-0.00091522,0.00012807,-0.00020509,-0.0
 0001970,0.00000124,-0.00000403,-0.00000058,0.00001228,-0.00000276,0.00
 000823,0.00000202,0.00000343,-0.00002158,-0.00002297,0.00000613,0.0000
 0628,0.00001201,-0.00000067,0.00001507,0.00003010,-0.00000051,-0.00001
 014,0.00001600,-0.00000272,-0.00000654,-0.00000414,-0.00001768,0.00000
 838,-0.00000434,0.00003304,-0.00002552,0.00002216,0.00000567,-0.000111
 00,-0.00003139,0.00026301,-0.00113171,-0.00055345,0.00052871,0.0010556
 6,0.00139245,-0.00064784,-0.15240119,-0.10673856,0.07705807,0.00043701
 ,0.00098226,-0.00090754,0.00007449,-0.00030149,0.00006240,0.00005999,0
 .00023161,-0.00015503,0.00013285,-0.00013633,-0.00050353,-0.00014484,-
 0.00010442,0.00009502,-0.00002996,0.00002195,-0.00009045,0.00029979,-0
 .00016821,0.00028363,0.00002458,-0.00004334,-0.00013664,-0.01321166,-0
 .01952282,0.01289145,0.15746348,0.00000141,0.00002448,0.00000414,0.000
 01704,0.00002863,-0.00000881,0.00004761,-0.00005200,0.00003603,0.00003
 944,0.00000009,-0.00002382,-0.00014378,-0.00018224,0.00001882,0.000390
 36,0.00006688,0.00007208,0.00000683,-0.00000237,0.00000244,-0.00000809
 ,0.00000717,-0.00000558,-0.00000697,-0.00000117,0.00000362,-0.00002298
 ,0.00002150,-0.00001135,-0.00001986,0.00000864,0.00000368,0.00006370,0
 .00005456,-0.00002192,-0.00002042,0.00001657,-0.00001006,-0.00001160,0
 .00000464,0.00000460,0.00001945,-0.00002645,0.00007050,0.00001311,-0.0
 0001333,-0.00000655,0.00031193,0.00083310,0.00135148,-0.01693145,-0.02
 147377,0.01306845,-0.00116475,0.00152673,0.00113974,-0.10542404,-0.154
 61971,0.07926310,0.00231741,-0.00283071,-0.00578602,-0.00270557,-0.000
 84307,0.00087165,0.00031829,0.00016605,0.00007868,0.00000866,0.0003532
 8,-0.00077667,0.00002896,-0.00001195,-0.00008005,0.00003391,-0.0000794
 9,-0.00001196,0.00108130,-0.00020852,-0.00046762,0.00006182,0.00054544
 ,-0.00016467,0.00803678,0.01039908,-0.00755475,0.11575511,0.16846851,-
 0.00000340,0.00001989,0.00000280,0.00001553,0.00001563,0.00000855,0.00
 001614,-0.00002510,0.00001773,0.00001956,0.00000541,-0.00000764,-0.000
 13108,-0.00012441,-0.00001668,0.00019327,0.00007511,0.00001189,0.00000
 785,0.00000023,0.00000331,-0.00000448,0.00000007,0.00000007,-0.0000033
 6,-0.00000142,-0.00000236,-0.00000610,0.00001130,0.00000092,-0.0000145
 9,0.00000210,0.00000083,0.00002787,0.00002163,-0.00001209,-0.00001467,
 0.00000686,-0.00000668,0.00000413,0.00000623,0.00000430,-0.00000106,-0
 .00002189,0.00002233,-0.00000189,0.00000100,0.00000038,-0.00049356,-0.
 00055082,0.00124556,-0.01100996,-0.01496608,0.00694136,-0.00083430,0.0
 0060263,0.00053165,0.07667158,0.08074210,-0.10281481,0.00177539,-0.001
 18716,-0.00345257,-0.00179501,-0.00055966,0.00085573,0.00011332,0.0001
 6499,0.00022950,0.00022994,-0.00002744,-0.00034069,-0.00007196,0.00007
 745,-0.00006058,0.00013693,0.00007324,-0.00007289,0.00026540,0.0003792
 3,0.00007615,-0.00023707,0.00011914,-0.00001759,-0.00062071,-0.0000401
 6,-0.00074931,-0.08300815,-0.08234368,0.10779148,0.00000735,-0.0000329
 1,-0.00001158,-0.00006848,-0.00004634,0.00005960,-0.00002760,0.0000149
 9,-0.00004319,0.00000147,-0.00000219,0.00001367,0.00030079,0.00016327,
 -0.00034875,-0.00074641,-0.00014661,0.00026934,-0.00001320,0.00000229,
 -0.00000171,0.00000892,-0.00000306,0.00000242,-0.00000239,0.00000313,0
 .00000665,0.00000628,-0.00001984,0.00001462,-0.00001265,0.00000242,0.0
 0001083,-0.00000632,-0.00001331,-0.00001047,0.00001871,-0.00000868,0.0
 0001613,-0.00000923,-0.00000719,0.00000066,0.00000260,0.00002623,-0.00
 001729,-0.00008559,-0.00001990,0.00011169,0.00024475,-0.00068256,0.000
 11331,-0.00246664,0.00010242,-0.00028387,0.00046858,0.00008958,0.00109
 432,-0.08117909,0.01584233,-0.08452605,-0.00035774,0.00046301,-0.00203
 696,0.00035298,-0.00007899,0.00061114,0.00043300,0.00000779,-0.0003024
 2,0.00004158,0.00014936,-0.00021535,0.00030735,-0.00002490,0.00028044,
 0.00019287,0.00032227,0.00003149,-0.00002347,-0.00008774,0.00009311,-0
 .00005765,-0.00014630,-0.00002084,-0.00553328,0.00305247,-0.02691471,0
 .00817634,-0.00211649,0.01910645,0.08022334,-0.00000980,0.00001914,0.0
 0002527,0.00002818,0.00004230,-0.00005077,0.00000242,0.00002040,0.0000
 2952,0.00000529,-0.00001054,0.00001326,-0.00020947,-0.00010807,0.00013
 193,0.00037863,0.00012384,-0.00006325,0.00001165,0.00000052,0.00000070
 ,-0.00000157,-0.00000504,-0.00000051,-0.00000509,0.00000082,-0.0000032
 0,0.00001201,0.00000863,-0.00000210,0.00000240,-0.00000692,-0.00000047
 ,-0.00001960,-0.00001750,0.00000164,0.00000642,-0.00001176,-0.00000282
 ,0.00000295,0.00000619,0.00000532,0.00000730,0.00001175,-0.00004021,0.
 00003714,0.00000568,-0.00003027,-0.00013977,-0.00510936,-0.00180850,-0
 .00956447,0.00631901,-0.02553098,-0.00096089,0.00126262,-0.00044832,0.
 01667273,-0.05649297,0.04212638,-0.00132643,0.00085250,-0.00232612,0.0
 0078359,-0.00008507,0.00064592,-0.00056608,0.00026805,-0.00163106,0.00
 021724,0.00001733,-0.00011020,-0.00001670,-0.00010588,0.00011797,0.000
 43181,-0.00028779,0.00020867,0.00012274,-0.00005590,0.00009410,-0.0002
 1249,0.00008473,0.00024360,0.00181841,-0.00231270,0.01200334,0.0089549
 3,-0.00272148,0.01750097,-0.01630466,0.05896680,0.00000196,-0.00000962
 ,0.00001228,-0.00002208,-0.00000473,-0.00001302,-0.00000692,0.00000831
 ,-0.00000155,0.00001264,-0.00001658,0.00001159,0.00014148,0.00005711,-
 0.00015741,-0.00016965,-0.00001243,0.00015274,-0.00000244,-0.00000018,
 -0.00000290,0.00000535,-0.00000304,-0.00000245,-0.00000914,0.00000427,
 0.00000940,0.00000065,-0.00000370,0.00000085,-0.00001084,0.00000050,0.
 00001380,0.00000787,0.00000494,-0.00001293,0.00002470,-0.00001518,0.00
 001186,-0.00001932,-0.00000397,0.00000503,0.00002288,0.00004041,-0.000
 02426,-0.00002842,-0.00001133,0.00005741,0.00041319,-0.00446206,-0.000
 77725,-0.00555348,0.00340392,-0.01467886,-0.00052782,0.00112213,0.0004
 2306,-0.08365320,0.04071994,-0.27274576,0.00096612,0.00189690,-0.00108
 545,-0.00012146,-0.00034235,0.00064718,-0.00048106,0.00018018,-0.00109
 538,0.00008637,0.00005278,0.00041327,0.00010304,0.00008999,0.00019952,
 0.00063329,-0.00060425,0.00027014,-0.00000292,-0.00005426,-0.00012130,
 0.00005748,-0.00004724,0.00038477,0.00166347,-0.00070363,0.00457801,-0
 .00560245,0.00084262,-0.01082806,0.09243624,-0.04173281,0.29348405,0.0
 0000585,0.00001058,0.00002558,-0.00000318,-0.00000794,-0.00000518,0.00
 001897,-0.00009846,0.00005302,0.00011584,-0.00000213,-0.00002382,0.000
 03451,-0.00010171,-0.00019201,0.00000180,0.00005082,0.00006056,0.00000
 510,-0.00000227,-0.00000091,-0.00000341,0.00000565,-0.00000623,-0.0000
 2074,0.00000725,0.00001305,-0.00002552,0.00001312,0.00000186,-0.000085
 55,0.00003717,0.00002831,0.00022342,0.00014293,-0.00010458,-0.00005468
 ,0.00003910,-0.00000693,-0.00001519,0.00000205,0.00000513,0.00013866,-
 0.00019965,0.00019677,-0.00000681,0.00000427,0.00005796,-0.00182345,-0
 .00291080,0.00089009,0.01027761,-0.00945283,0.01244843,0.00256972,0.00
 102518,-0.00064761,-0.00034452,-0.00055023,0.00101636,-0.06415867,0.01
 033263,-0.03330424,-0.01338723,-0.01103954,-0.04304990,-0.00012625,0.0
 0024059,0.00002206,0.00059234,-0.00014256,0.00101815,-0.00002483,-0.00
 011440,0.00000198,-0.00044537,0.00003810,-0.00005612,0.00070214,-0.000
 24450,-0.00025251,-0.00014772,0.00013317,0.00001152,-0.00008467,-0.000
 02517,0.00006080,-0.00018146,0.00002288,-0.00033200,-0.00019719,-0.000
 15882,-0.00036553,0.06645050,-0.00000070,-0.00001954,0.00003589,0.0000
 6381,0.00000475,-0.00008266,0.00006864,0.00006106,0.00002232,0.0000424
 6,-0.00007922,-0.00019606,0.00014462,-0.00002287,-0.00009705,-0.000087
 78,0.00010896,-0.00002647,-0.00000350,0.00000062,-0.00000539,0.0000044
 5,-0.00000190,-0.00000168,-0.00001253,0.00000939,0.00000962,0.00002214
 ,-0.00001332,-0.00000097,-0.00002008,0.00000575,0.00001140,-0.00006943
 ,-0.00009097,-0.00009872,-0.00007657,0.00004478,-0.00000752,-0.0000785
 7,0.00002909,-0.00001962,0.00001409,0.00004182,0.00036288,0.00000417,0
 .00000761,0.00001396,-0.00336500,-0.00136261,0.00155831,-0.00117734,0.
 00705996,0.01963075,-0.00084146,-0.00126580,0.00108754,0.00172531,0.00
 251466,0.00061006,0.00822599,-0.06911702,0.04035796,-0.01656249,0.0147
 5845,-0.02243151,-0.00003772,0.00006057,0.00001627,0.00041432,-0.00005
 836,0.00117789,0.00004704,-0.00004422,-0.00026375,-0.00045373,0.000186
 90,-0.00042289,-0.00070003,0.00021996,-0.00029221,0.00002246,-0.000105
 28,0.00001487,0.00017105,-0.00014625,-0.00019662,0.00007078,0.00054094
 ,0.00002261,-0.00049991,-0.00067933,-0.00039664,0.01294551,0.04735142,
 0.00000378,0.00000498,0.00006843,-0.00000608,0.00001263,-0.00009524,0.
 00009442,-0.00002704,0.00004825,0.00015395,-0.00010058,-0.00014174,0.0
 0014636,-0.00012381,-0.00052304,-0.00014859,0.00009874,0.00036828,0.00
 000651,-0.00000253,-0.00000596,0.00000459,-0.00000317,-0.00001069,-0.0
 0004487,0.00001761,0.00003185,-0.00000572,0.00000658,0.00000036,-0.000
 11170,0.00003036,0.00005731,0.00024380,0.00004457,-0.00010164,-0.00004
 781,0.00002738,0.00000886,-0.00011010,0.00002345,0.00000794,0.00013849
 ,0.00002443,0.00032793,-0.00005804,-0.00001369,0.00018446,0.00324140,0
 .00247180,0.00026868,-0.01072984,0.00251565,-0.01414760,-0.00151945,-0
 .00005547,0.00021896,-0.00008299,-0.00046662,-0.00029869,-0.02675718,0
 .04595438,-0.24981301,-0.02857203,-0.01085648,-0.01253450,-0.00015375,
 -0.00015583,0.00016125,-0.00031920,0.00029416,-0.00110473,-0.00001867,
 -0.00017665,0.00001323,0.00109246,-0.00016007,0.00028847,0.00036687,-0
 .00013677,0.00023487,0.00007501,-0.00007426,-0.00001063,0.00003322,0.0
 0014393,-0.00005654,0.00018821,0.00044188,0.00063740,0.00046104,0.0006
 3300,0.00087161,0.06243594,-0.04039258,0.27504588\\0.00000004,-0.00000
 057,-0.00000004,0.,-0.00000019,-0.00000014,0.00000016,-0.00000047,0.00
 000008,-0.00000001,-0.00000023,0.00000016,-0.00000036,-0.00000026,0.00
 000030,-0.00000001,-0.00000024,-0.00000032,-0.00000003,-0.00000065,0.0
 0000002,-0.00000020,-0.00000054,0.00000001,-0.00000014,-0.00000059,0.0
 0000001,0.00000027,-0.00000047,0.,0.00000014,-0.00000042,-0.00000001,0
 .00000020,0.,-0.00000018,-0.00000008,-0.00000028,-0.00000002,0.0000001
 3,-0.00000039,-0.00000003,0.00000012,-0.00000015,-0.00000002,-0.000000
 02,-0.00000033,-0.00000001,-0.00000001,0.00000022,0.00000019,-0.000000
 16,0.00000034,-0.00000013,-0.00000001,0.00000057,0.,-0.00000030,0.0000
 0025,0.,0.00000032,0.00000049,-0.00000009,0.00000015,-0.00000016,0.000
 00024,0.00000010,0.00000027,-0.00000004,-0.00000013,0.00000039,-0.0000
 0003,-0.00000010,0.00000015,-0.00000003,0.00000015,0.00000059,0.000000
 01,0.00000002,0.00000064,0.,0.00000021,0.00000053,0.,-0.00000026,0.000
 00045,0.00000009,-0.00000024,0.00000046,0.00000002,-0.00000014,0.00000
 041,0.,0.00000020,0.00000016,-0.00000006\\\@


 THE CAUTIOUS SELDOM ERR...CONFUCIUS                   
 File lengths (MBytes):  RWF=    171 Int=      0 D2E=      0 Chk=      5 Scr=      1
 Normal termination of Gaussian 16 at Fri Feb  3 11:28:54 2023.
real 2343.33
user 8669.48
sys 50.92
