 Entering Gaussian System, Link 0=g16
 Input=gaussian_test.inp
 Output=gaussian_test.log
 Initial command:
 /sw/restricted/lms/sw/Gaussian/g16_B01/g16/l1.exe "/scratch/user/peterchao1/peterchao1/6113308_1660079070000000022142249/Gau-77950.inp" -scrdir="/scratch/user/peterchao1/peterchao1/6113308_1660079070000000022142249/"
 Entering Link 1 = /sw/restricted/lms/sw/Gaussian/g16_B01/g16/l1.exe PID=     77951.
  
 Copyright (c) 1988-2017, Gaussian, Inc.  All Rights Reserved.
  
 This is part of the Gaussian(R) 16 program.  It is based on
 the Gaussian(R) 09 system (copyright 2009, Gaussian, Inc.),
 the Gaussian(R) 03 system (copyright 2003, Gaussian, Inc.),
 the Gaussian(R) 98 system (copyright 1998, Gaussian, Inc.),
 the Gaussian(R) 94 system (copyright 1995, Gaussian, Inc.),
 the Gaussian 92(TM) system (copyright 1992, Gaussian, Inc.),
 the Gaussian 90(TM) system (copyright 1990, Gaussian, Inc.),
 the Gaussian 88(TM) system (copyright 1988, Gaussian, Inc.),
 the Gaussian 86(TM) system (copyright 1986, Carnegie Mellon
 University), and the Gaussian 82(TM) system (copyright 1983,
 Carnegie Mellon University). Gaussian is a federally registered
 trademark of Gaussian, Inc.
  
 This software contains proprietary and confidential information,
 including trade secrets, belonging to Gaussian, Inc.
  
 This software is provided under written license and may be
 used, copied, transmitted, or stored only in accord with that
 written license.
  
 The following legend is applicable only to US Government
 contracts under FAR:
  
                    RESTRICTED RIGHTS LEGEND
  
 Use, reproduction and disclosure by the US Government is
 subject to restrictions as set forth in subparagraphs (a)
 and (c) of the Commercial Computer Software - Restricted
 Rights clause in FAR 52.227-19.
  
 Gaussian, Inc.
 340 Quinnipiac St., Bldg. 40, Wallingford CT 06492
  
  
 ---------------------------------------------------------------
 Warning -- This program may not be used in any manner that
 competes with the business of Gaussian, Inc. or will provide
 assistance to any competitor of Gaussian, Inc.  The licensee
 of this program is prohibited from giving any competitor of
 Gaussian, Inc. access to this program.  By using this program,
 the user acknowledges that Gaussian, Inc. is engaged in the
 business of creating and licensing software in the field of
 computational chemistry and represents and warrants to the
 licensee that it is not a competitor of Gaussian, Inc. and that
 it will not use this program in any manner prohibited above.
 ---------------------------------------------------------------
  

 Cite this work as:
 Gaussian 16, Revision B.01,
 M. J. Frisch, G. W. Trucks, H. B. Schlegel, G. E. Scuseria, 
 M. A. Robb, J. R. Cheeseman, G. Scalmani, V. Barone, 
 G. A. Petersson, H. Nakatsuji, X. Li, M. Caricato, A. V. Marenich, 
 J. Bloino, B. G. Janesko, R. Gomperts, B. Mennucci, H. P. Hratchian, 
 J. V. Ortiz, A. F. Izmaylov, J. L. Sonnenberg, D. Williams-Young, 
 F. Ding, F. Lipparini, F. Egidi, J. Goings, B. Peng, A. Petrone, 
 T. Henderson, D. Ranasinghe, V. G. Zakrzewski, J. Gao, N. Rega, 
 G. Zheng, W. Liang, M. Hada, M. Ehara, K. Toyota, R. Fukuda, 
 J. Hasegawa, M. Ishida, T. Nakajima, Y. Honda, O. Kitao, H. Nakai, 
 T. Vreven, K. Throssell, J. A. Montgomery, Jr., J. E. Peralta, 
 F. Ogliaro, M. J. Bearpark, J. J. Heyd, E. N. Brothers, K. N. Kudin, 
 V. N. Staroverov, T. A. Keith, R. Kobayashi, J. Normand, 
 K. Raghavachari, A. P. Rendell, J. C. Burant, S. S. Iyengar, 
 J. Tomasi, M. Cossi, J. M. Millam, M. Klene, C. Adamo, R. Cammi, 
 J. W. Ochterski, R. L. Martin, K. Morokuma, O. Farkas, 
 J. B. Foresman, and D. J. Fox, Gaussian, Inc., Wallingford CT, 2016.
 
 ******************************************
 Gaussian 16:  ES64L-G16RevB.01 20-Dec-2017
                 9-Aug-2022 
 ******************************************
 %nprocshared=4
 Will use up to    4 processors via shared memory.
 %mem=8000mb
 ----------------------------------------------------------------------
 #T wB97XD/def2svpp opt=tight freq int(grid=ultrafine) scf=(verytight,q
 c)
 ----------------------------------------------------------------------
 -----
 dimer
 -----
 Symbolic Z-matrix:
 Charge =  0 Multiplicity = 1
 O                    -2.70452  -1.06242   1.88567 
 C                    -3.72559  -0.40581   1.17243 
 C                    -3.27833   0.0766   -0.22426 
 C                    -2.89484  -1.14353  -1.09763 
 O                    -1.98299  -2.03394  -0.50263 
 C                    -4.45817   0.78318  -0.92844 
 O                    -4.89638   1.94952  -0.28631 
 C                    -2.13834   1.10305  -0.08516 
 O                    -1.03493   0.66476   0.67844 
 H                    -2.38206  -1.77513   1.29976 
 H                    -4.01666   0.44771   1.79397 
 H                    -4.59557  -1.06988   1.05968 
 H                    -2.51729  -0.78683  -2.06193 
 H                    -3.80505  -1.72565  -1.28369 
 H                    -1.07126  -1.73833  -0.70043 
 H                    -5.28566   0.0704   -1.048 
 H                    -4.13734   1.10412  -1.9227 
 H                    -5.33036   1.71798   0.5418 
 H                    -2.55706   2.01277   0.36598 
 H                    -1.75183   1.36233  -1.0753 
 H                    -1.39686   0.1601    1.43335 
 O                     5.1353   -0.27588   0.5809 
 C                     4.04696  -1.12339   0.31054 
 C                     2.76369  -0.37088  -0.0992 
 C                     2.99889   0.39887  -1.4158 
 O                     4.04489   1.33795  -1.34101 
 C                     1.65283  -1.41253  -0.32304 
 O                     0.49066  -0.89096  -0.90923 
 C                     2.34157   0.60077   1.02543 
 O                     3.2837    1.61568   1.27678 
 H                     5.26735   0.27279  -0.21285 
 H                     3.86689  -1.6894    1.22999 
 H                     4.30918  -1.83772  -0.4835 
 H                     2.06241   0.88947  -1.71157 
 H                     3.27726  -0.30517  -2.20569 
 H                     3.82474   1.94773  -0.61583 
 H                     1.41722  -1.89602   0.63597 
 H                     2.01161  -2.18056  -1.01435 
 H                     0.10789  -0.20576  -0.31701 
 H                     2.15606   0.01881   1.94064 
 H                     1.41571   1.11794   0.7576 
 H                     4.12535   1.17727   1.48969 
 
 Add virtual bond connecting atoms O28        and H15        Dist= 3.38D+00.
 Add virtual bond connecting atoms H39        and O9         Dist= 3.30D+00.

 GradGradGradGradGradGradGradGradGradGradGradGradGradGradGradGradGradGrad
 Initialization pass.
                           ----------------------------
                           !    Initial Parameters    !
                           ! (Angstroms and Degrees)  !
 --------------------------                            --------------------------
 ! Name  Definition              Value          Derivative Info.                !
 --------------------------------------------------------------------------------
 ! R1    R(1,2)                  1.408          estimate D2E/DX2                !
 ! R2    R(1,10)                 0.9774         estimate D2E/DX2                !
 ! R3    R(2,3)                  1.5439         estimate D2E/DX2                !
 ! R4    R(2,11)                 1.0952         estimate D2E/DX2                !
 ! R5    R(2,12)                 1.1003         estimate D2E/DX2                !
 ! R6    R(3,4)                  1.5487         estimate D2E/DX2                !
 ! R7    R(3,6)                  1.545          estimate D2E/DX2                !
 ! R8    R(3,8)                  1.5403         estimate D2E/DX2                !
 ! R9    R(4,5)                  1.4065         estimate D2E/DX2                !
 ! R10   R(4,13)                 1.0953         estimate D2E/DX2                !
 ! R11   R(4,14)                 1.0963         estimate D2E/DX2                !
 ! R12   R(5,15)                 0.9786         estimate D2E/DX2                !
 ! R13   R(6,7)                  1.4017         estimate D2E/DX2                !
 ! R14   R(6,16)                 1.0987         estimate D2E/DX2                !
 ! R15   R(6,17)                 1.0929         estimate D2E/DX2                !
 ! R16   R(7,18)                 0.9632         estimate D2E/DX2                !
 ! R17   R(8,9)                  1.4116         estimate D2E/DX2                !
 ! R18   R(8,19)                 1.0984         estimate D2E/DX2                !
 ! R19   R(8,20)                 1.0941         estimate D2E/DX2                !
 ! R20   R(9,21)                 0.9775         estimate D2E/DX2                !
 ! R21   R(9,39)                 1.7478         estimate D2E/DX2                !
 ! R22   R(15,28)                1.7892         estimate D2E/DX2                !
 ! R23   R(22,23)                1.4056         estimate D2E/DX2                !
 ! R24   R(22,31)                0.9739         estimate D2E/DX2                !
 ! R25   R(23,24)                1.543          estimate D2E/DX2                !
 ! R26   R(23,32)                1.0946         estimate D2E/DX2                !
 ! R27   R(23,33)                1.0998         estimate D2E/DX2                !
 ! R28   R(24,25)                1.5431         estimate D2E/DX2                !
 ! R29   R(24,27)                1.5392         estimate D2E/DX2                !
 ! R30   R(24,29)                1.545          estimate D2E/DX2                !
 ! R31   R(25,26)                1.4077         estimate D2E/DX2                !
 ! R32   R(25,34)                1.0978         estimate D2E/DX2                !
 ! R33   R(25,35)                1.0941         estimate D2E/DX2                !
 ! R34   R(26,36)                0.9727         estimate D2E/DX2                !
 ! R35   R(27,28)                1.4022         estimate D2E/DX2                !
 ! R36   R(27,37)                1.0995         estimate D2E/DX2                !
 ! R37   R(27,38)                1.0938         estimate D2E/DX2                !
 ! R38   R(28,39)                0.9832         estimate D2E/DX2                !
 ! R39   R(29,30)                1.4074         estimate D2E/DX2                !
 ! R40   R(29,40)                1.1003         estimate D2E/DX2                !
 ! R41   R(29,41)                1.0938         estimate D2E/DX2                !
 ! R42   R(30,42)                0.9726         estimate D2E/DX2                !
 ! A1    A(2,1,10)             106.001          estimate D2E/DX2                !
 ! A2    A(1,2,3)              113.1977         estimate D2E/DX2                !
 ! A3    A(1,2,11)             105.586          estimate D2E/DX2                !
 ! A4    A(1,2,12)             110.1122         estimate D2E/DX2                !
 ! A5    A(3,2,11)             110.2971         estimate D2E/DX2                !
 ! A6    A(3,2,12)             108.9627         estimate D2E/DX2                !
 ! A7    A(11,2,12)            108.5643         estimate D2E/DX2                !
 ! A8    A(2,3,4)              109.6175         estimate D2E/DX2                !
 ! A9    A(2,3,6)              109.5115         estimate D2E/DX2                !
 ! A10   A(2,3,8)              109.9337         estimate D2E/DX2                !
 ! A11   A(4,3,6)              106.9993         estimate D2E/DX2                !
 ! A12   A(4,3,8)              113.1207         estimate D2E/DX2                !
 ! A13   A(6,3,8)              107.552          estimate D2E/DX2                !
 ! A14   A(3,4,5)              114.8793         estimate D2E/DX2                !
 ! A15   A(3,4,13)             108.9821         estimate D2E/DX2                !
 ! A16   A(3,4,14)             107.9648         estimate D2E/DX2                !
 ! A17   A(5,4,13)             110.8015         estimate D2E/DX2                !
 ! A18   A(5,4,14)             105.896          estimate D2E/DX2                !
 ! A19   A(13,4,14)            108.0407         estimate D2E/DX2                !
 ! A20   A(4,5,15)             109.1019         estimate D2E/DX2                !
 ! A21   A(3,6,7)              114.235          estimate D2E/DX2                !
 ! A22   A(3,6,16)             109.1501         estimate D2E/DX2                !
 ! A23   A(3,6,17)             108.9505         estimate D2E/DX2                !
 ! A24   A(7,6,16)             110.746          estimate D2E/DX2                !
 ! A25   A(7,6,17)             105.3186         estimate D2E/DX2                !
 ! A26   A(16,6,17)            108.2163         estimate D2E/DX2                !
 ! A27   A(6,7,18)             109.5549         estimate D2E/DX2                !
 ! A28   A(3,8,9)              114.8634         estimate D2E/DX2                !
 ! A29   A(3,8,19)             107.8714         estimate D2E/DX2                !
 ! A30   A(3,8,20)             109.7338         estimate D2E/DX2                !
 ! A31   A(9,8,19)             109.4486         estimate D2E/DX2                !
 ! A32   A(9,8,20)             106.6782         estimate D2E/DX2                !
 ! A33   A(19,8,20)            108.0658         estimate D2E/DX2                !
 ! A34   A(8,9,21)             106.7758         estimate D2E/DX2                !
 ! A35   A(8,9,39)             110.956          estimate D2E/DX2                !
 ! A36   A(21,9,39)            115.1383         estimate D2E/DX2                !
 ! A37   A(23,22,31)           106.732          estimate D2E/DX2                !
 ! A38   A(22,23,24)           113.638          estimate D2E/DX2                !
 ! A39   A(22,23,32)           106.1156         estimate D2E/DX2                !
 ! A40   A(22,23,33)           110.2347         estimate D2E/DX2                !
 ! A41   A(24,23,32)           109.7802         estimate D2E/DX2                !
 ! A42   A(24,23,33)           108.8649         estimate D2E/DX2                !
 ! A43   A(32,23,33)           108.0485         estimate D2E/DX2                !
 ! A44   A(23,24,25)           110.0641         estimate D2E/DX2                !
 ! A45   A(23,24,27)           107.9865         estimate D2E/DX2                !
 ! A46   A(23,24,29)           109.9156         estimate D2E/DX2                !
 ! A47   A(25,24,27)           108.8741         estimate D2E/DX2                !
 ! A48   A(25,24,29)           110.4256         estimate D2E/DX2                !
 ! A49   A(27,24,29)           109.5284         estimate D2E/DX2                !
 ! A50   A(24,25,26)           113.6212         estimate D2E/DX2                !
 ! A51   A(24,25,34)           108.8307         estimate D2E/DX2                !
 ! A52   A(24,25,35)           109.4973         estimate D2E/DX2                !
 ! A53   A(26,25,34)           110.491          estimate D2E/DX2                !
 ! A54   A(26,25,35)           106.1748         estimate D2E/DX2                !
 ! A55   A(34,25,35)           108.0652         estimate D2E/DX2                !
 ! A56   A(25,26,36)           106.8356         estimate D2E/DX2                !
 ! A57   A(24,27,28)           114.0307         estimate D2E/DX2                !
 ! A58   A(24,27,37)           108.989          estimate D2E/DX2                !
 ! A59   A(24,27,38)           109.2908         estimate D2E/DX2                !
 ! A60   A(28,27,37)           110.522          estimate D2E/DX2                !
 ! A61   A(28,27,38)           105.5933         estimate D2E/DX2                !
 ! A62   A(37,27,38)           108.2257         estimate D2E/DX2                !
 ! A63   A(15,28,27)           119.9057         estimate D2E/DX2                !
 ! A64   A(15,28,39)            85.4062         estimate D2E/DX2                !
 ! A65   A(27,28,39)           109.2729         estimate D2E/DX2                !
 ! A66   A(24,29,30)           113.616          estimate D2E/DX2                !
 ! A67   A(24,29,40)           108.5958         estimate D2E/DX2                !
 ! A68   A(24,29,41)           110.5106         estimate D2E/DX2                !
 ! A69   A(30,29,40)           110.2252         estimate D2E/DX2                !
 ! A70   A(30,29,41)           105.6286         estimate D2E/DX2                !
 ! A71   A(40,29,41)           108.1214         estimate D2E/DX2                !
 ! A72   A(29,30,42)           107.0574         estimate D2E/DX2                !
 ! A73   A(9,39,28)            160.8563         estimate D2E/DX2                !
 ! A74   L(5,15,28,8,-1)       168.8336         estimate D2E/DX2                !
 ! A75   L(5,15,28,8,-2)       177.2396         estimate D2E/DX2                !
 ! D1    D(10,1,2,3)           -54.0549         estimate D2E/DX2                !
 ! D2    D(10,1,2,11)         -174.8086         estimate D2E/DX2                !
 ! D3    D(10,1,2,12)           68.1824         estimate D2E/DX2                !
 ! D4    D(1,2,3,4)             62.9635         estimate D2E/DX2                !
 ! D5    D(1,2,3,6)           -179.934          estimate D2E/DX2                !
 ! D6    D(1,2,3,8)            -61.9749         estimate D2E/DX2                !
 ! D7    D(11,2,3,4)          -178.991          estimate D2E/DX2                !
 ! D8    D(11,2,3,6)           -61.8885         estimate D2E/DX2                !
 ! D9    D(11,2,3,8)            56.0706         estimate D2E/DX2                !
 ! D10   D(12,2,3,4)           -59.9126         estimate D2E/DX2                !
 ! D11   D(12,2,3,6)            57.1899         estimate D2E/DX2                !
 ! D12   D(12,2,3,8)           175.149          estimate D2E/DX2                !
 ! D13   D(2,3,4,5)            -51.3298         estimate D2E/DX2                !
 ! D14   D(2,3,4,13)          -176.3237         estimate D2E/DX2                !
 ! D15   D(2,3,4,14)            66.5586         estimate D2E/DX2                !
 ! D16   D(6,3,4,5)           -169.9985         estimate D2E/DX2                !
 ! D17   D(6,3,4,13)            65.0075         estimate D2E/DX2                !
 ! D18   D(6,3,4,14)           -52.1101         estimate D2E/DX2                !
 ! D19   D(8,3,4,5)             71.745          estimate D2E/DX2                !
 ! D20   D(8,3,4,13)           -53.249          estimate D2E/DX2                !
 ! D21   D(8,3,4,14)          -170.3667         estimate D2E/DX2                !
 ! D22   D(2,3,6,7)             63.604          estimate D2E/DX2                !
 ! D23   D(2,3,6,16)           -60.9747         estimate D2E/DX2                !
 ! D24   D(2,3,6,17)          -178.9516         estimate D2E/DX2                !
 ! D25   D(4,3,6,7)           -177.6586         estimate D2E/DX2                !
 ! D26   D(4,3,6,16)            57.7628         estimate D2E/DX2                !
 ! D27   D(4,3,6,17)           -60.2142         estimate D2E/DX2                !
 ! D28   D(8,3,6,7)            -55.8315         estimate D2E/DX2                !
 ! D29   D(8,3,6,16)           179.5898         estimate D2E/DX2                !
 ! D30   D(8,3,6,17)            61.6129         estimate D2E/DX2                !
 ! D31   D(2,3,8,9)             53.8391         estimate D2E/DX2                !
 ! D32   D(2,3,8,19)           -68.5048         estimate D2E/DX2                !
 ! D33   D(2,3,8,20)           173.9903         estimate D2E/DX2                !
 ! D34   D(4,3,8,9)            -69.0605         estimate D2E/DX2                !
 ! D35   D(4,3,8,19)           168.5955         estimate D2E/DX2                !
 ! D36   D(4,3,8,20)            51.0906         estimate D2E/DX2                !
 ! D37   D(6,3,8,9)            173.0049         estimate D2E/DX2                !
 ! D38   D(6,3,8,19)            50.661          estimate D2E/DX2                !
 ! D39   D(6,3,8,20)           -66.8439         estimate D2E/DX2                !
 ! D40   D(3,4,5,15)           -87.9287         estimate D2E/DX2                !
 ! D41   D(13,4,5,15)           36.1079         estimate D2E/DX2                !
 ! D42   D(14,4,5,15)          153.0215         estimate D2E/DX2                !
 ! D43   D(4,5,28,27)          172.6379         estimate D2E/DX2                !
 ! D44   D(4,5,28,39)           65.2289         estimate D2E/DX2                !
 ! D45   D(3,6,7,18)           -69.9134         estimate D2E/DX2                !
 ! D46   D(16,6,7,18)           53.8113         estimate D2E/DX2                !
 ! D47   D(17,6,7,18)          170.5774         estimate D2E/DX2                !
 ! D48   D(3,8,9,21)           -39.5661         estimate D2E/DX2                !
 ! D49   D(3,8,9,39)            86.6311         estimate D2E/DX2                !
 ! D50   D(19,8,9,21)           81.9227         estimate D2E/DX2                !
 ! D51   D(19,8,9,39)         -151.8801         estimate D2E/DX2                !
 ! D52   D(20,8,9,21)         -161.3909         estimate D2E/DX2                !
 ! D53   D(20,8,9,39)          -35.1937         estimate D2E/DX2                !
 ! D54   D(8,9,39,28)          -62.1608         estimate D2E/DX2                !
 ! D55   D(21,9,39,28)          59.2468         estimate D2E/DX2                !
 ! D56   D(31,22,23,24)        -55.7435         estimate D2E/DX2                !
 ! D57   D(31,22,23,32)       -176.4724         estimate D2E/DX2                !
 ! D58   D(31,22,23,33)         66.7704         estimate D2E/DX2                !
 ! D59   D(22,23,24,25)         62.8838         estimate D2E/DX2                !
 ! D60   D(22,23,24,27)       -178.3874         estimate D2E/DX2                !
 ! D61   D(22,23,24,29)        -58.9528         estimate D2E/DX2                !
 ! D62   D(32,23,24,25)       -178.4699         estimate D2E/DX2                !
 ! D63   D(32,23,24,27)        -59.7411         estimate D2E/DX2                !
 ! D64   D(32,23,24,29)         59.6935         estimate D2E/DX2                !
 ! D65   D(33,23,24,25)        -60.3822         estimate D2E/DX2                !
 ! D66   D(33,23,24,27)         58.3466         estimate D2E/DX2                !
 ! D67   D(33,23,24,29)        177.7812         estimate D2E/DX2                !
 ! D68   D(23,24,25,26)        -58.9254         estimate D2E/DX2                !
 ! D69   D(23,24,25,34)        177.5139         estimate D2E/DX2                !
 ! D70   D(23,24,25,35)         59.5892         estimate D2E/DX2                !
 ! D71   D(27,24,25,26)       -177.1084         estimate D2E/DX2                !
 ! D72   D(27,24,25,34)         59.3309         estimate D2E/DX2                !
 ! D73   D(27,24,25,35)        -58.5938         estimate D2E/DX2                !
 ! D74   D(29,24,25,26)         62.6077         estimate D2E/DX2                !
 ! D75   D(29,24,25,34)        -60.953          estimate D2E/DX2                !
 ! D76   D(29,24,25,35)       -178.8778         estimate D2E/DX2                !
 ! D77   D(23,24,27,28)       -170.1638         estimate D2E/DX2                !
 ! D78   D(23,24,27,37)         65.8249         estimate D2E/DX2                !
 ! D79   D(23,24,27,38)        -52.2667         estimate D2E/DX2                !
 ! D80   D(25,24,27,28)        -50.6795         estimate D2E/DX2                !
 ! D81   D(25,24,27,37)       -174.6908         estimate D2E/DX2                !
 ! D82   D(25,24,27,38)         67.2177         estimate D2E/DX2                !
 ! D83   D(29,24,27,28)         70.1569         estimate D2E/DX2                !
 ! D84   D(29,24,27,37)        -53.8544         estimate D2E/DX2                !
 ! D85   D(29,24,27,38)       -171.946          estimate D2E/DX2                !
 ! D86   D(23,24,29,30)         63.162          estimate D2E/DX2                !
 ! D87   D(23,24,29,40)        -59.8763         estimate D2E/DX2                !
 ! D88   D(23,24,29,41)       -178.3166         estimate D2E/DX2                !
 ! D89   D(25,24,29,30)        -58.459          estimate D2E/DX2                !
 ! D90   D(25,24,29,40)        178.5027         estimate D2E/DX2                !
 ! D91   D(25,24,29,41)         60.0625         estimate D2E/DX2                !
 ! D92   D(27,24,29,30)       -178.3496         estimate D2E/DX2                !
 ! D93   D(27,24,29,40)         58.612          estimate D2E/DX2                !
 ! D94   D(27,24,29,41)        -59.8282         estimate D2E/DX2                !
 ! D95   D(24,25,26,36)        -57.2875         estimate D2E/DX2                !
 ! D96   D(34,25,26,36)         65.3634         estimate D2E/DX2                !
 ! D97   D(35,25,26,36)       -177.6949         estimate D2E/DX2                !
 ! D98   D(24,27,28,15)       -157.328          estimate D2E/DX2                !
 ! D99   D(24,27,28,39)        -61.4027         estimate D2E/DX2                !
 ! D100  D(37,27,28,15)        -34.1455         estimate D2E/DX2                !
 ! D101  D(37,27,28,39)         61.7798         estimate D2E/DX2                !
 ! D102  D(38,27,28,15)         82.674          estimate D2E/DX2                !
 ! D103  D(38,27,28,39)        178.5994         estimate D2E/DX2                !
 ! D104  D(15,28,39,9)          -4.8173         estimate D2E/DX2                !
 ! D105  D(27,28,39,9)        -124.9352         estimate D2E/DX2                !
 ! D106  D(24,29,30,42)        -56.921          estimate D2E/DX2                !
 ! D107  D(40,29,30,42)         65.2192         estimate D2E/DX2                !
 ! D108  D(41,29,30,42)       -178.2128         estimate D2E/DX2                !
 --------------------------------------------------------------------------------
 Number of steps in this run=    235 maximum allowed number of steps=    252.
 GradGradGradGradGradGradGradGradGradGradGradGradGradGradGradGradGradGrad

                    Distance matrix (angstroms):
                    1          2          3          4          5
     1  O    0.000000
     2  C    1.407994   0.000000
     3  C    2.465453   1.543862   0.000000
     4  C    2.990472   2.527365   1.548725   0.000000
     5  O    2.677396   2.914328   2.491939   1.406531   0.000000
     6  C    3.794836   2.522703   1.545037   2.486931   3.774119
     7  O    4.312022   3.007693   2.475833   3.772443   4.939892
     8  C    2.982280   2.525381   1.540309   2.577700   3.168457
     9  O    2.688509   2.937650   2.488709   3.143824   3.094629
    10  H    0.977362   1.922589   2.560245   2.531671   1.864093
    11  H    2.002653   1.095222   2.180850   3.485953   3.945725
    12  H    2.063590   1.100260   2.167496   2.748077   3.193091
    13  H    3.961643   3.473657   2.168346   1.095288   2.066926
    14  H    3.419924   2.789411   2.155898   1.096337   2.006237
    15  H    3.132457   3.511220   2.896868   1.958825   0.978647
    16  H    4.068418   2.755161   2.169779   2.681807   3.953894
    17  H    4.609833   3.468318   2.162954   2.697489   4.062659
    18  H    4.053602   2.735591   2.737118   4.099724   5.135429
    19  H    3.433366   2.804519   2.148811   3.495496   4.178504
    20  H    3.943907   3.474814   2.169696   2.754323   3.451959
    21  H    1.846378   2.410666   2.508905   3.217031   2.984188
    22  O    7.986479   8.881565   8.459419   8.249451   7.411804
    23  C    6.933050   7.853042   7.442166   7.083213   6.152284
    24  C    5.858268   6.612798   6.059866   5.797663   5.045745
    25  C    6.750108   7.250178   6.397432   6.100514   5.618855
    26  O    7.856706   8.350958   7.514504   7.374067   6.957575
    27  C    4.897704   5.672511   5.152053   4.621005   3.692912
    28  O    4.248538   4.727103   3.951037   3.400137   2.755118
    29  C    5.382307   6.151849   5.780987   5.913543   5.289469
    30  O    6.587999   7.295716   6.905230   7.171154   6.650115
    31  H    8.350886   9.124282   8.547944   8.331278   7.613962
    32  H    6.633731   7.700432   7.502517   7.171944   6.110789
    33  H    7.443527   8.327670   7.829573   7.263403   6.295261
    34  H    6.282805   6.595161   5.603245   5.392987   5.135472
    35  H    7.286586   7.775715   6.859125   6.326568   5.793036
    36  H    7.612469   8.108295   7.355816   7.412199   7.042452
    37  H    4.386953   5.381173   5.165214   4.708025   3.588434
    38  H    5.648205   6.391183   5.805385   5.015539   4.029910
    39  H    3.673601   4.117530   3.399242   3.241172   2.783611
    40  H    4.979692   5.946789   5.850027   6.007810   5.226386
    41  H    4.796124   5.378371   4.907394   5.209319   4.803507
    42  H    7.198622   8.015242   7.678781   7.833483   7.182828
                    6          7          8          9         10
     6  C    0.000000
     7  O    1.401678   0.000000
     8  C    2.488990   2.892016   0.000000
     9  O    3.783473   4.182359   1.411626   0.000000
    10  H    3.977446   4.765547   3.203332   2.855498   0.000000
    11  H    2.778305   2.712358   2.736546   3.190960   2.803068
    12  H    2.721276   3.319476   3.474231   3.979005   2.335524
    13  H    2.741668   4.037386   2.760962   3.437176   3.506567
    14  H    2.616675   3.961389   3.495132   4.151815   2.949836
    15  H    4.228608   5.329465   3.096878   2.770821   2.391710
    16  H    1.098678   2.064657   3.449505   4.626292   4.165197
    17  H    1.092921   1.992136   2.715249   4.072336   4.664260
    18  H    1.948380   0.963180   3.310624   4.424780   4.633449
    19  H    2.607994   2.429379   1.098383   2.057097   3.905225
    20  H    2.771504   3.294762   1.094075   2.018954   3.985194
    21  H    3.916364   4.290207   1.935152   0.977530   2.175681
    22  O    9.769052  10.312082   7.433095   6.242283   7.699039
    23  C    8.803818   9.475346   6.585701   5.399852   6.537244
    24  C    7.360354   8.005995   5.118846   4.013332   5.514326
    25  C    7.482842   8.124993   5.353279   4.552832   6.407429
    26  O    8.531121   9.024009   6.313849   5.507813   7.613846
    27  C    6.521655   7.361852   4.556063   3.541495   4.364093
    28  O    5.224373   6.121812   3.401006   2.696003   3.730137
    29  C    7.077241   7.478481   4.642764   3.394886   5.294606
    30  O    8.092751   8.334771   5.613925   4.462380   6.602951
    31  H    9.765158  10.301369   7.453178   6.377053   8.061976
    32  H    8.948689   9.609146   6.752045   5.465720   6.249923
    33  H    9.161526   9.956124   7.097699   6.014323   6.925074
    34  H    6.568295   7.181906   4.509669   3.918697   5.993454
    35  H    7.915347   8.693445   5.984015   5.277686   6.817392
    36  H    8.370209   8.727337   6.045935   5.190137   7.486887
    37  H    6.644222   7.449850   4.707062   3.545764   3.858722
    38  H    7.116824   8.081329   5.372856   4.499202   4.982346
    39  H    4.711768   5.448749   2.610034   1.747792   3.358086
    40  H    7.250101   7.643551   4.870452   3.491825   4.921739
    41  H    6.120236   6.451648   3.652633   2.493449   4.804878
    42  H    8.926338   9.227252   6.459060   5.248744   7.148368
                   11         12         13         14         15
    11  H    0.000000
    12  H    1.782518   0.000000
    13  H    4.317426   3.760834   0.000000
    14  H    3.773619   2.558583   1.773520   0.000000
    15  H    4.435778   3.995694   2.202282   2.795340   0.000000
    16  H    3.135205   2.493749   3.070303   2.339559   4.599285
    17  H    3.776114   3.718981   2.493917   2.919987   4.355946
    18  H    2.215249   2.929210   4.578960   4.185399   5.623978
    19  H    2.572740   3.760247   3.705958   4.272547   4.173198
    20  H    3.768115   4.308207   2.485609   3.714126   3.196529
    21  H    2.660097   3.447351   3.790656   4.091175   2.874555
    22  O    9.260322   9.774946   8.112198   9.247071   6.503998
    23  C    8.348104   8.675102   6.987934   8.034814   5.253226
    24  C    7.087129   7.482675   5.649261   6.810786   4.115619
    25  C    7.715113   8.121643   5.679047   7.129135   4.652474
    26  O    8.695361   9.285398   6.935173   8.426771   6.004073
    27  C    6.331302   6.408737   4.561268   5.550616   2.769344
    28  O    5.423588   5.456962   3.222942   4.392045   1.789203
    29  C    6.406341   7.135559   5.921637   6.966001   4.483015
    30  O    7.411272   8.327203   7.111297   8.244442   5.841613
    31  H    9.500043  10.034908   8.071093   9.351411   6.667863
    32  H    8.187530   8.486816   7.239414   8.073319   5.302287
    33  H    8.929152   9.070044   7.084953   8.154361   5.385736
    34  H    7.031292   7.473125   4.889411   6.438085   4.212794
    35  H    8.352566   8.557390   5.816310   7.281960   4.819691
    36  H    8.339348   9.100268   7.056222   8.494310   6.129027
    37  H    6.030015   6.084054   4.897894   5.566524   2.829024
    38  H    7.150838   7.013564   4.852923   5.840633   3.130212
    39  H    4.679230   4.976402   3.205305   4.307625   1.971345
    40  H    6.189347   6.895355   6.205634   6.998162   4.525309
    41  H    5.570813   6.404165   5.200618   6.285633   4.058222
    42  H    8.180298   9.016048   7.784368   8.888745   6.348396
                   16         17         18         19         20
    16  H    0.000000
    17  H    1.775472   0.000000
    18  H    2.289979   2.806043   0.000000
    19  H    3.635575   2.925917   2.794459   0.000000
    20  H    3.762680   2.544681   3.943016   1.774477   0.000000
    21  H    4.613884   4.434465   4.323690   2.432640   2.804410
    22  O   10.553181   9.703312  10.653973   8.028486   7.270444
    23  C    9.506232   8.771078   9.801069   7.311062   6.459512
    24  C    8.117084   7.288693   8.383792   5.848815   4.934246
    25  C    8.299210   7.188886   8.657291   6.053763   4.859379
    26  O    9.420813   8.206215   9.569996   6.852375   5.802864
    27  C    7.132132   6.512949   7.701497   5.470892   4.456174
    28  O    5.857421   5.140611   6.541898   4.398464   3.183348
    29  C    7.921808   7.135902   7.767921   5.140547   4.663582
    30  O    9.012572   8.097544   8.645968   5.924675   5.563550
    31  H   10.587940   9.594942  10.722388   8.036419   7.155408
    32  H    9.594542   9.044934   9.832255   7.464563   6.796870
    33  H    9.799008   9.059219  10.325458   7.917906   6.879423
    34  H    7.423292   6.207053   7.772848   5.188214   3.895751
    35  H    8.648980   7.552646   9.259211   6.784222   5.417574
    36  H    9.311843   8.112596   9.230857   6.457209   5.626003
    37  H    7.185481   6.811809   7.655046   5.580901   4.856768
    38  H    7.636627   7.030206   8.457232   6.353119   5.169072
    39  H    5.449862   4.723980   5.832060   3.534166   2.548034
    40  H    8.019594   7.463927   7.803237   5.354343   5.115918
    41  H    7.018969   6.166085   6.776146   4.091092   3.667780
    42  H    9.809801   8.939901   9.518479   6.827552   6.415196
                   21         22         23         24         25
    21  H    0.000000
    22  O    6.601963   0.000000
    23  C    5.704665   1.405648   0.000000
    24  C    4.465522   2.469021   1.543020   0.000000
    25  C    5.243789   3.001059   2.529021   1.543136   0.000000
    26  O    6.220702   2.736272   2.964083   2.470557   1.407689
    27  C    3.854702   3.773149   2.493362   1.539208   2.507418
    28  O    3.186720   4.916447   3.766838   2.468464   2.865566
    29  C    3.786353   2.961599   2.528268   1.545018   2.536230
    30  O    4.904171   2.736911   3.003107   2.471865   2.968460
    31  H    6.865452   0.973918   1.926814   2.587571   2.570781
    32  H    5.582925   2.007043   1.094619   2.173080   3.480589
    33  H    6.342284   2.062702   1.099787   2.165145   2.754700
    34  H    4.731712   4.007012   3.475478   2.163338   1.097801
    35  H    5.941928   3.349361   2.755593   2.169185   1.094109
    36  H    5.887263   2.845029   3.215474   2.601661   1.928973
    37  H    3.575262   4.056107   2.760143   2.163223   3.460919
    38  H    4.804957   3.991246   2.648693   2.162890   2.790939
    39  H    2.337074   5.107445   4.092932   2.669831   3.151313
    40  H    3.591738   3.288102   2.745420   2.163797   3.481454
    41  H    3.047075   3.976092   3.485232   2.183514   2.783380
    42  H    5.615396   1.989357   2.586415   2.602963   3.211961
                   26         27         28         29         30
    26  O    0.000000
    27  C    3.784618   0.000000
    28  O    4.217466   1.402242   0.000000
    29  C    3.007458   2.519152   3.064970   0.000000
    30  O    2.740328   3.793310   4.343150   1.407416   0.000000
    31  H    1.975276   3.989637   4.965483   3.193917   2.820851
    32  H    3.975749   2.718567   4.075862   2.759224   3.356460
    33  H    3.300005   2.694946   3.957105   3.477732   4.009508
    34  H    2.066083   2.719367   2.506803   2.766312   3.308960
    35  H    2.009166   2.722014   3.128749   3.483730   3.977094
    36  H    0.972720   4.011758   4.388652   2.589946   1.996239
    37  H    4.612123   1.099539   2.063079   2.690738   4.028201
    38  H    4.076869   1.093845   1.996845   3.464880   4.612908
    39  H    4.351042   1.960403   0.983233   2.727995   3.992938
    40  H    4.009622   2.725113   3.423888   1.100319   2.064525
    41  H    3.371230   2.761754   2.769428   1.093803   2.001668
    42  H    2.836398   4.013277   4.821135   1.931260   0.972579
                   31         32         33         34         35
    31  H    0.000000
    32  H    2.809500   0.000000
    33  H    2.333581   1.775861   0.000000
    34  H    3.591397   4.308075   3.740817   0.000000
    35  H    2.875049   3.750685   2.525767   1.774026   0.000000
    36  H    2.246984   4.078912   3.818611   2.329455   2.811208
    37  H    4.499752   2.529115   3.101625   3.699484   3.750411
    38  H    4.154661   2.953024   2.382894   3.148617   2.557003
    39  H    5.182652   4.327177   4.510197   2.639024   3.690782
    40  H    3.792380   2.519905   3.736187   3.755729   4.307446
    41  H    4.060932   3.756666   4.318382   2.562666   3.777788
    42  H    2.240727   2.889986   3.607964   3.819247   4.070953
                   36         37         38         39         40
    36  H    0.000000
    37  H    4.705054   0.000000
    38  H    4.526478   1.777024   0.000000
    39  H    4.306008   2.340835   2.830244   0.000000
    40  H    3.611199   2.432000   3.686470   3.056539   0.000000
    41  H    2.894525   3.016410   3.791438   2.148803   1.776452
    42  H    2.262122   4.184245   4.691813   4.617024   2.328839
                   41         42
    41  H    0.000000
    42  H    2.807423   0.000000
 Framework group  C1[X(C10H24O8)]
 Deg. of freedom   120
                         Standard orientation:                         
 ---------------------------------------------------------------------
 Center     Atomic      Atomic             Coordinates (Angstroms)
 Number     Number       Type             X           Y           Z
 ---------------------------------------------------------------------
      1          8           0        2.681767    1.043291    1.906459
      2          6           0        3.705998    0.397111    1.188233
      3          6           0        3.262219   -0.073162   -0.213699
      4          6           0        2.875745    1.154118   -1.075657
      5          8           0        1.960098    2.035601   -0.473239
      6          6           0        4.445369   -0.768860   -0.923134
      7          8           0        4.886683   -1.939914   -0.291805
      8          6           0        2.125526   -1.104766   -0.086138
      9          8           0        1.019635   -0.677668    0.680205
     10          1           0        2.357666    1.760589    1.327080
     11          1           0        3.999142   -0.461432    1.801815
     12          1           0        4.573873    1.065183    1.083135
     13          1           0        2.500676    0.805562   -2.043896
     14          1           0        3.784218    1.741093   -1.254800
     15          1           0        1.049641    1.738859   -0.675137
     16          1           0        5.270596   -0.052156   -1.034627
     17          1           0        4.126941   -1.081170   -1.920902
     18          1           0        5.318788   -1.714998    0.539106
     19          1           0        2.546738   -2.017421    0.356681
     20          1           0        1.741208   -1.355685   -1.079285
     21          1           0        1.378859   -0.179170    1.440483
     22          8           0       -5.153615    0.243047    0.583491
     23          6           0       -4.067794    1.096813    0.322872
     24          6           0       -2.781451    0.352670   -0.092441
     25          6           0       -3.012299   -0.404992   -1.416800
     26          8           0       -4.055212   -1.348282   -1.352578
     27          6           0       -1.673831    1.400200   -0.304626
     28          8           0       -0.509130    0.888300   -0.894296
     29          6           0       -2.357518   -0.628464    1.023237
     30          8           0       -3.296535   -1.648946    1.263413
     31          1           0       -5.282759   -0.298310   -0.215741
     32          1           0       -3.890856    1.654442    1.248040
     33          1           0       -4.331394    1.817963   -0.464522
     34          1           0       -2.073771   -0.889521   -1.716073
     35          1           0       -3.292014    0.305766   -2.200162
     36          1           0       -3.833945   -1.964354   -0.633077
     37          1           0       -1.441122    1.875112    0.659372
     38          1           0       -2.034297    2.173720   -0.988897
     39          1           0       -0.124819    0.198648   -0.308265
     40          1           0       -2.175190   -0.054827    1.944324
     41          1           0       -1.429560   -1.139865    0.751634
     42          1           0       -4.139948   -1.215476    1.479442
 ---------------------------------------------------------------------
 Rotational constants (GHZ):           0.8020812           0.1599008           0.1548456
   300 basis functions,   546 primitive gaussians,   318 cartesian basis functions
    74 alpha electrons       74 beta electrons
       nuclear repulsion energy      1569.7062247409 Hartrees.
 NAtoms=   42 NActive=   42 NUniq=   42 SFac= 1.00D+00 NAtFMM=   60 NAOKFM=F Big=F
 Nuclear repulsion after empirical dispersion term =     1569.6692726217 Hartrees.
   1 Symmetry operations used in ECPInt.
 ECPInt:  NShTT=   12246 NPrTT=   49134 LenC2=   11049 LenP2D=   30592.
 LDataN:  DoStor=T MaxTD1= 4 Len=   56
 ExpMin= 1.22D-01 ExpMax= 2.27D+03 ExpMxC= 3.41D+02 IAcc=3 IRadAn=         5 AccDes= 0.00D+00
 Harris functional with IExCor= 4639 and IRadAn=       5 diagonalized for initial guess.
 HarFok:  IExCor= 4639 AccDes= 0.00D+00 IRadAn=         5 IDoV= 1 UseB2=F ITyADJ=14
 ICtDFT=  3500011 ScaDFX=  1.000000  1.000000  1.000000  1.000000
 FoFCou: FMM=F IPFlag=           0 FMFlag=      100000 FMFlg1=           0
         NFxFlg=           0 DoJE=T BraDBF=F KetDBF=T FulRan=T
         wScrn=  0.000000 ICntrl=       500 IOpCl=  0 I1Cent=   200000004 NGrid=           0
         NMat0=    1 NMatS0=      1 NMatT0=    0 NMatD0=    1 NMtDS0=    0 NMtDT0=    0
 Petite list used in FoFCou.
     Minimum is close to point  3 DX= -2.28D-02 DF= -2.16D-04 DXR=  3.95D-02 DFR=  1.55D-03 which will be used.
     Accept linear search using points  2 and  3.
     Accept linear search using points  1 and  2.
     Accept linear search using points  2 and  3.
     Accept linear search using points  1 and  2.
     Minimum is close to point  2 DX= -9.96D-05 DF= -1.14D-13 DXR=  9.96D-05 DFR=  1.44D-08 which will be used.
 SCF Done:  E(RwB97XD) =  -996.158944719     a.u. after    7 cycles
            Convg  =    0.1101D-05                    26 Fock formations.
              S**2 =  0.0000                  -V/T =  2.0079

 **********************************************************************

            Population analysis using the SCF Density.

 **********************************************************************

 Orbital symmetries:
       Occupied  (A) (A) (A) (A) (A) (A) (A) (A) (A) (A) (A) (A)
                 (A) (A) (A) (A) (A) (A) (A) (A) (A) (A) (A) (A)
                 (A) (A) (A) (A) (A) (A) (A) (A) (A) (A) (A) (A)
                 (A) (A) (A) (A) (A) (A) (A) (A) (A) (A) (A) (A)
                 (A) (A) (A) (A) (A) (A) (A) (A) (A) (A) (A) (A)
                 (A) (A) (A) (A) (A) (A) (A) (A) (A) (A) (A) (A)
                 (A) (A)
       Virtual   (A) (A) (A) (A) (A) (A) (A) (A) (A) (A) (A) (A)
                 (A) (A) (A) (A) (A) (A) (A) (A) (A) (A) (A) (A)
                 (A) (A) (A) (A) (A) (A) (A) (A) (A) (A) (A) (A)
                 (A) (A) (A) (A) (A) (A) (A) (A) (A) (A) (A) (A)
                 (A) (A) (A) (A) (A) (A) (A) (A) (A) (A) (A) (A)
                 (A) (A) (A) (A) (A) (A) (A) (A) (A) (A) (A) (A)
                 (A) (A) (A) (A) (A) (A) (A) (A) (A) (A) (A) (A)
                 (A) (A) (A) (A) (A) (A) (A) (A) (A) (A) (A) (A)
                 (A) (A) (A) (A) (A) (A) (A) (A) (A) (A) (A) (A)
                 (A) (A) (A) (A) (A) (A) (A) (A) (A) (A) (A) (A)
                 (A) (A) (A) (A) (A) (A) (A) (A) (A) (A) (A) (A)
                 (A) (A) (A) (A) (A) (A) (A) (A) (A) (A) (A) (A)
                 (A) (A) (A) (A) (A) (A) (A) (A) (A) (A) (A) (A)
                 (A) (A) (A) (A) (A) (A) (A) (A) (A) (A) (A) (A)
                 (A) (A) (A) (A) (A) (A) (A) (A) (A) (A) (A) (A)
                 (A) (A) (A) (A) (A) (A) (A) (A) (A) (A) (A) (A)
                 (A) (A) (A) (A) (A) (A) (A) (A) (A) (A) (A) (A)
                 (A) (A) (A) (A) (A) (A) (A) (A) (A) (A) (A) (A)
                 (A) (A) (A) (A) (A) (A) (A) (A) (A) (A)
 The electronic state is 1-A.
 Alpha  occ. eigenvalues --  -19.27303 -19.27112 -19.26792 -19.26698 -19.26152
 Alpha  occ. eigenvalues --  -19.25603 -19.25356 -19.25337 -10.35873 -10.35814
 Alpha  occ. eigenvalues --  -10.35409 -10.35309 -10.34943 -10.34566 -10.34028
 Alpha  occ. eigenvalues --  -10.33873 -10.32234 -10.31196  -1.15349  -1.14053
 Alpha  occ. eigenvalues --   -1.13697  -1.13174  -1.12586  -1.11412  -1.11022
 Alpha  occ. eigenvalues --   -1.10839  -0.91899  -0.90869  -0.79044  -0.78540
 Alpha  occ. eigenvalues --   -0.77922  -0.77395  -0.77141  -0.76705  -0.68896
 Alpha  occ. eigenvalues --   -0.68073  -0.64879  -0.64079  -0.63014  -0.62417
 Alpha  occ. eigenvalues --   -0.61458  -0.60497  -0.58735  -0.57448  -0.56663
 Alpha  occ. eigenvalues --   -0.55337  -0.54967  -0.54658  -0.54323  -0.53431
 Alpha  occ. eigenvalues --   -0.52855  -0.51973  -0.51561  -0.50421  -0.49770
 Alpha  occ. eigenvalues --   -0.49582  -0.48657  -0.48375  -0.46861  -0.46391
 Alpha  occ. eigenvalues --   -0.44546  -0.44000  -0.43716  -0.42973  -0.42595
 Alpha  occ. eigenvalues --   -0.41337  -0.39381  -0.38329  -0.36750  -0.36295
 Alpha  occ. eigenvalues --   -0.36062  -0.35545  -0.34628  -0.34350
 Alpha virt. eigenvalues --    0.10965   0.11797   0.13368   0.13828   0.14632
 Alpha virt. eigenvalues --    0.15206   0.16212   0.17509   0.17614   0.19374
 Alpha virt. eigenvalues --    0.19689   0.19820   0.20192   0.21160   0.21397
 Alpha virt. eigenvalues --    0.21713   0.22026   0.22953   0.23592   0.24290
 Alpha virt. eigenvalues --    0.24739   0.25320   0.25625   0.26196   0.26585
 Alpha virt. eigenvalues --    0.27414   0.28599   0.29540   0.30237   0.31204
 Alpha virt. eigenvalues --    0.31993   0.32338   0.32576   0.33601   0.34285
 Alpha virt. eigenvalues --    0.34601   0.34768   0.36821   0.38959   0.39384
 Alpha virt. eigenvalues --    0.48805   0.50312   0.50650   0.51617   0.52504
 Alpha virt. eigenvalues --    0.54292   0.56394   0.57136   0.57926   0.59687
 Alpha virt. eigenvalues --    0.60789   0.61292   0.61869   0.62760   0.64049
 Alpha virt. eigenvalues --    0.64771   0.65203   0.66269   0.66712   0.67209
 Alpha virt. eigenvalues --    0.68094   0.68689   0.69193   0.69484   0.70689
 Alpha virt. eigenvalues --    0.71676   0.72790   0.72854   0.73507   0.74053
 Alpha virt. eigenvalues --    0.75897   0.76257   0.76564   0.77315   0.77445
 Alpha virt. eigenvalues --    0.78049   0.78351   0.78548   0.79024   0.79533
 Alpha virt. eigenvalues --    0.80342   0.80885   0.81216   0.81682   0.81974
 Alpha virt. eigenvalues --    0.82250   0.82507   0.83388   0.84302   0.84677
 Alpha virt. eigenvalues --    0.85675   0.86645   0.88355   0.95040   0.98568
 Alpha virt. eigenvalues --    0.99088   0.99482   0.99761   1.05357   1.07668
 Alpha virt. eigenvalues --    1.08195   1.09411   1.13166   1.14541   1.14880
 Alpha virt. eigenvalues --    1.16943   1.17248   1.18400   1.19838   1.20733
 Alpha virt. eigenvalues --    1.21274   1.22249   1.24664   1.25250   1.26927
 Alpha virt. eigenvalues --    1.28064   1.29224   1.29435   1.34793   1.35013
 Alpha virt. eigenvalues --    1.35384   1.36103   1.39441   1.41171   1.42288
 Alpha virt. eigenvalues --    1.44499   1.48640   1.49980   1.50592   1.52104
 Alpha virt. eigenvalues --    1.53843   1.56725   1.60773   1.63219   1.65182
 Alpha virt. eigenvalues --    1.67121   1.67452   1.70613   1.72493   1.75223
 Alpha virt. eigenvalues --    1.77241   1.77891   1.80151   1.82641   1.83120
 Alpha virt. eigenvalues --    1.84516   1.86872   1.88192   1.88988   1.89819
 Alpha virt. eigenvalues --    1.89988   1.90673   1.99548   2.01606   2.03412
 Alpha virt. eigenvalues --    2.05455   2.05630   2.05821   2.06269   2.07515
 Alpha virt. eigenvalues --    2.08355   2.11844   2.14222   2.15655   2.15964
 Alpha virt. eigenvalues --    2.18184   2.19354   2.20941   2.21325   2.22021
 Alpha virt. eigenvalues --    2.22432   2.23182   2.23953   2.24328   2.25607
 Alpha virt. eigenvalues --    2.26921   2.49118   2.50482   2.50649   2.52961
 Alpha virt. eigenvalues --    2.60408   2.61440   2.65457   2.66461   2.67619
 Alpha virt. eigenvalues --    2.68310   2.70443   2.70518   2.72606   2.73710
 Alpha virt. eigenvalues --    2.74218   2.74520   2.75319   2.76780   2.88627
 Alpha virt. eigenvalues --    2.90202   2.90757   2.91783   2.92215   2.92516
 Alpha virt. eigenvalues --    2.92861   2.93546   3.00455   3.01577   3.02413
 Alpha virt. eigenvalues --    3.03600   3.04932   3.05409   3.07796   3.08612
 Alpha virt. eigenvalues --    3.08992   3.09957   3.10550   3.10694   3.11102
 Alpha virt. eigenvalues --    3.12573   3.14516   3.15800   3.44174   3.45647
 Alpha virt. eigenvalues --    3.46699   3.47743   3.48089   3.48822   3.49730
 Alpha virt. eigenvalues --    3.52532
          Condensed to atoms (all electrons):
 Mulliken charges:
               1
     1  O   -0.517568
     2  C    0.050583
     3  C   -0.410601
     4  C    0.073155
     5  O   -0.532362
     6  C    0.073470
     7  O   -0.476555
     8  C    0.097010
     9  O   -0.530507
    10  H    0.339589
    11  H    0.099070
    12  H    0.101872
    13  H    0.110235
    14  H    0.102001
    15  H    0.338200
    16  H    0.101599
    17  H    0.111399
    18  H    0.323559
    19  H    0.118093
    20  H    0.106065
    21  H    0.338906
    22  O   -0.513816
    23  C    0.086463
    24  C   -0.428170
    25  C    0.096398
    26  O   -0.517427
    27  C    0.088077
    28  O   -0.548209
    29  C    0.052801
    30  O   -0.515004
    31  H    0.330282
    32  H    0.103639
    33  H    0.096900
    34  H    0.104199
    35  H    0.100610
    36  H    0.329793
    37  H    0.096154
    38  H    0.105846
    39  H    0.366723
    40  H    0.092235
    41  H    0.127021
    42  H    0.328271
 Sum of Mulliken charges =   0.00000
 Mulliken charges with hydrogens summed into heavy atoms:
               1
     1  O   -0.177979
     2  C    0.251526
     3  C   -0.410601
     4  C    0.285391
     5  O   -0.194162
     6  C    0.286468
     7  O   -0.152996
     8  C    0.321168
     9  O   -0.191601
    22  O   -0.183534
    23  C    0.287003
    24  C   -0.428170
    25  C    0.301207
    26  O   -0.187634
    27  C    0.290077
    28  O   -0.181486
    29  C    0.272056
    30  O   -0.186733
 Electronic spatial extent (au):  <R**2>=           7178.4285
 Charge=              0.0000 electrons
 Dipole moment (field-independent basis, Debye):
    X=              3.5998    Y=              1.6752    Z=             -0.2804  Tot=              3.9804
   1 Symmetry operations used in ECPInt.
 ECPInt:  NShTT=   12246 NPrTT=   49134 LenC2=   11049 LenP2D=   30592.
 LDataN:  DoStor=T MaxTD1= 5 Len=  102
 Calling FoFJK, ICntrl=      2127 FMM=F ISym2X=0 I1Cent= 0 IOpClX= 0 NMat=1 NMatS=1 NMatT=0.

 GradGradGradGradGradGradGradGradGradGradGradGradGradGradGradGradGradGrad
 FormGI is forming the generalized inverse of G from B-inverse, IUseBI=4.
 Internal  Forces:  Max     0.008041666 RMS     0.002177766
 Step number   1 out of a maximum of  235
 All quantities printed in internal units (Hartrees-Bohrs-Radians)
 Mixed Optimization -- RFO/linear search
 Second derivative matrix not updated -- first step.
 ITU=  0
     Eigenvalues ---    0.00230   0.00230   0.00230   0.00230   0.00230
     Eigenvalues ---    0.00247   0.00306   0.00344   0.00765   0.01443
     Eigenvalues ---    0.01586   0.01590   0.01594   0.01617   0.01662
     Eigenvalues ---    0.01670   0.01679   0.03271   0.03859   0.04159
     Eigenvalues ---    0.04238   0.04454   0.04481   0.04614   0.04677
     Eigenvalues ---    0.04678   0.04678   0.04733   0.04765   0.04977
     Eigenvalues ---    0.05018   0.05128   0.05209   0.05499   0.05528
     Eigenvalues ---    0.05713   0.05714   0.05719   0.05762   0.05787
     Eigenvalues ---    0.05802   0.06544   0.06602   0.07844   0.08828
     Eigenvalues ---    0.09792   0.09894   0.09983   0.11801   0.11803
     Eigenvalues ---    0.11828   0.11843   0.11891   0.11895   0.12289
     Eigenvalues ---    0.13086   0.13180   0.13876   0.14023   0.14056
     Eigenvalues ---    0.14056   0.14061   0.14110   0.14313   0.14452
     Eigenvalues ---    0.14471   0.15579   0.16000   0.16000   0.16000
     Eigenvalues ---    0.16000   0.16000   0.16957   0.19504   0.22035
     Eigenvalues ---    0.22078   0.22083   0.22086   0.22089   0.22104
     Eigenvalues ---    0.27293   0.27862   0.28077   0.28079   0.28180
     Eigenvalues ---    0.28243   0.28253   0.28589   0.33647   0.33653
     Eigenvalues ---    0.33706   0.33733   0.33829   0.33862   0.33926
     Eigenvalues ---    0.34090   0.34209   0.34216   0.34284   0.34342
     Eigenvalues ---    0.34346   0.34372   0.34377   0.34477   0.41873
     Eigenvalues ---    0.44126   0.44321   0.44370   0.44413   0.44697
     Eigenvalues ---    0.45251   0.45344   0.49249   0.50162   0.51867
     Eigenvalues ---    0.51901   0.52584   0.52825   0.52853   0.54795
 Linear search not attempted -- first point.
 Iteration  1 RMS(Cart)=  0.08151407 RMS(Int)=  0.00264301
 Iteration  2 RMS(Cart)=  0.00428625 RMS(Int)=  0.00010726
 Iteration  3 RMS(Cart)=  0.00000760 RMS(Int)=  0.00010716
 Iteration  4 RMS(Cart)=  0.00000000 RMS(Int)=  0.00010716
 Variable       Old X    -DE/DX   Delta X   Delta X   Delta X     New X
                                 (Linear)    (Quad)   (Total)
    R1        2.66072   0.00303   0.00000   0.00675   0.00675   2.66747
    R2        1.84695   0.00315   0.00000   0.00600   0.00600   1.85295
    R3        2.91748  -0.00174   0.00000  -0.00604  -0.00604   2.91144
    R4        2.06967   0.00587   0.00000   0.01688   0.01688   2.08655
    R5        2.07919   0.00660   0.00000   0.01926   0.01926   2.09845
    R6        2.92667  -0.00153   0.00000  -0.00491  -0.00484   2.92183
    R7        2.91970   0.00006   0.00000   0.00022   0.00022   2.91991
    R8        2.91076   0.00021   0.00000  -0.00136  -0.00152   2.90925
    R9        2.65796   0.00231   0.00000   0.00515   0.00510   2.66306
   R10        2.06980   0.00804   0.00000   0.02311   0.02311   2.09291
   R11        2.07178   0.00599   0.00000   0.01728   0.01728   2.08906
   R12        1.84937   0.00287   0.00000   0.00686   0.00707   1.85644
   R13        2.64879   0.00316   0.00000   0.00688   0.00688   2.65567
   R14        2.07620   0.00701   0.00000   0.02035   0.02035   2.09655
   R15        2.06532   0.00673   0.00000   0.01920   0.01920   2.08452
   R16        1.82015   0.00264   0.00000   0.00477   0.00477   1.82492
   R17        2.66759   0.00566   0.00000   0.01246   0.01248   2.68006
   R18        2.07564   0.00418   0.00000   0.01215   0.01215   2.08779
   R19        2.06750   0.00689   0.00000   0.01971   0.01971   2.08722
   R20        1.84726   0.00373   0.00000   0.00711   0.00711   1.85438
   R21        3.30285  -0.00193   0.00000  -0.03278  -0.03294   3.26990
   R22        3.38110  -0.00179   0.00000  -0.01570  -0.01550   3.36561
   R23        2.65629   0.00353   0.00000   0.00780   0.00780   2.66409
   R24        1.84044   0.00241   0.00000   0.00453   0.00453   1.84497
   R25        2.91589  -0.00070   0.00000  -0.00242  -0.00242   2.91347
   R26        2.06853   0.00648   0.00000   0.01858   0.01858   2.08711
   R27        2.07830   0.00663   0.00000   0.01934   0.01934   2.09764
   R28        2.91611  -0.00029   0.00000  -0.00102  -0.00102   2.91509
   R29        2.90868   0.00015   0.00000   0.00050   0.00050   2.90918
   R30        2.91966  -0.00014   0.00000  -0.00050  -0.00050   2.91916
   R31        2.66015   0.00464   0.00000   0.01033   0.01033   2.67048
   R32        2.07454   0.00526   0.00000   0.01525   0.01525   2.08979
   R33        2.06757   0.00652   0.00000   0.01866   0.01866   2.08622
   R34        1.83817   0.00240   0.00000   0.00450   0.00450   1.84267
   R35        2.64985   0.00595   0.00000   0.01299   0.01299   2.66284
   R36        2.07783   0.00695   0.00000   0.02025   0.02025   2.09808
   R37        2.06707   0.00617   0.00000   0.01766   0.01766   2.08473
   R38        1.85804   0.00190   0.00000   0.00317   0.00306   1.86110
   R39        2.65963   0.00352   0.00000   0.00782   0.00782   2.66745
   R40        2.07930   0.00660   0.00000   0.01928   0.01928   2.09858
   R41        2.06699   0.00553   0.00000   0.01581   0.01581   2.08280
   R42        1.83791   0.00232   0.00000   0.00433   0.00433   1.84224
    A1        1.85007  -0.00013   0.00000  -0.00078  -0.00078   1.84928
    A2        1.97567  -0.00427   0.00000  -0.01684  -0.01684   1.95883
    A3        1.84282   0.00130   0.00000   0.00264   0.00257   1.84539
    A4        1.92182   0.00262   0.00000   0.02171   0.02175   1.94357
    A5        1.92505   0.00088   0.00000  -0.00096  -0.00099   1.92405
    A6        1.90176   0.00093   0.00000   0.00585   0.00590   1.90766
    A7        1.89480  -0.00139   0.00000  -0.01263  -0.01264   1.88216
    A8        1.91319  -0.00042   0.00000  -0.00880  -0.00868   1.90451
    A9        1.91134   0.00058   0.00000   0.00401   0.00392   1.91526
   A10        1.91870  -0.00071   0.00000  -0.00473  -0.00483   1.91388
   A11        1.86749  -0.00099   0.00000  -0.00637  -0.00639   1.86110
   A12        1.97433   0.00083   0.00000   0.00084   0.00064   1.97496
   A13        1.87714   0.00075   0.00000   0.01573   0.01588   1.89302
   A14        2.00502   0.00009   0.00000   0.00030   0.00019   2.00521
   A15        1.90210   0.00086   0.00000   0.00789   0.00796   1.91005
   A16        1.88434  -0.00009   0.00000  -0.00200  -0.00201   1.88233
   A17        1.93385  -0.00018   0.00000  -0.00045  -0.00055   1.93330
   A18        1.84823   0.00018   0.00000   0.00547   0.00561   1.85385
   A19        1.88567  -0.00098   0.00000  -0.01249  -0.01249   1.87318
   A20        1.90419   0.00174   0.00000   0.01033   0.01015   1.91433
   A21        1.99378   0.00184   0.00000   0.01212   0.01208   2.00586
   A22        1.90503  -0.00058   0.00000  -0.00458  -0.00465   1.90038
   A23        1.90155  -0.00048   0.00000  -0.00309  -0.00319   1.89836
   A24        1.93288  -0.00014   0.00000   0.00428   0.00428   1.93716
   A25        1.83816   0.00020   0.00000   0.00833   0.00830   1.84646
   A26        1.88873  -0.00097   0.00000  -0.01862  -0.01868   1.87005
   A27        1.91209   0.00100   0.00000   0.00600   0.00600   1.91809
   A28        2.00475  -0.00262   0.00000  -0.01743  -0.01782   1.98693
   A29        1.88271   0.00059   0.00000   0.00916   0.00951   1.89222
   A30        1.91522   0.00102   0.00000   0.00115   0.00106   1.91628
   A31        1.91024   0.00147   0.00000   0.01361   0.01369   1.92393
   A32        1.86189   0.00069   0.00000   0.00312   0.00328   1.86516
   A33        1.88610  -0.00111   0.00000  -0.00968  -0.00975   1.87636
   A34        1.86359   0.00257   0.00000   0.02172   0.02187   1.88546
   A35        1.93655   0.00098   0.00000  -0.00164  -0.00194   1.93461
   A36        2.00954  -0.00205   0.00000  -0.01579  -0.01588   1.99366
   A37        1.86283  -0.00044   0.00000  -0.00265  -0.00265   1.86017
   A38        1.98336  -0.00295   0.00000  -0.01134  -0.01133   1.97203
   A39        1.85207   0.00082   0.00000   0.00207   0.00206   1.85412
   A40        1.92396   0.00173   0.00000   0.01389   0.01391   1.93787
   A41        1.91603   0.00091   0.00000   0.00190   0.00190   1.91792
   A42        1.90005   0.00072   0.00000   0.00421   0.00423   1.90428
   A43        1.88580  -0.00118   0.00000  -0.01109  -0.01109   1.87471
   A44        1.92098  -0.00014   0.00000  -0.00753  -0.00752   1.91346
   A45        1.88472  -0.00102   0.00000  -0.00893  -0.00887   1.87585
   A46        1.91839  -0.00001   0.00000  -0.00610  -0.00610   1.91229
   A47        1.90021   0.00093   0.00000   0.01231   0.01225   1.91246
   A48        1.92729  -0.00065   0.00000  -0.00226  -0.00242   1.92487
   A49        1.91163   0.00090   0.00000   0.01268   0.01263   1.92426
   A50        1.98306  -0.00361   0.00000  -0.01406  -0.01407   1.96900
   A51        1.89945   0.00119   0.00000   0.00853   0.00856   1.90801
   A52        1.91109   0.00091   0.00000  -0.00003  -0.00007   1.91102
   A53        1.92843   0.00205   0.00000   0.01777   0.01780   1.94624
   A54        1.85310   0.00089   0.00000  -0.00020  -0.00025   1.85285
   A55        1.88609  -0.00139   0.00000  -0.01266  -0.01265   1.87344
   A56        1.86463  -0.00012   0.00000  -0.00071  -0.00071   1.86393
   A57        1.99021   0.00078   0.00000   0.00740   0.00735   1.99756
   A58        1.90222   0.00017   0.00000   0.00254   0.00244   1.90465
   A59        1.90748  -0.00107   0.00000  -0.01018  -0.01022   1.89727
   A60        1.92897   0.00016   0.00000   0.00796   0.00790   1.93688
   A61        1.84295   0.00077   0.00000   0.00810   0.00814   1.85109
   A62        1.88890  -0.00093   0.00000  -0.01754  -0.01759   1.87131
   A63        2.09275  -0.00062   0.00000  -0.00719  -0.00733   2.08542
   A64        1.49062  -0.00062   0.00000   0.00313   0.00309   1.49371
   A65        1.90717   0.00249   0.00000   0.02754   0.02754   1.93471
   A66        1.98297  -0.00274   0.00000  -0.00932  -0.00931   1.97366
   A67        1.89535   0.00052   0.00000   0.00198   0.00200   1.89735
   A68        1.92877   0.00104   0.00000   0.00322   0.00322   1.93200
   A69        1.92379   0.00181   0.00000   0.01499   0.01500   1.93879
   A70        1.84357   0.00092   0.00000   0.00502   0.00503   1.84860
   A71        1.88707  -0.00151   0.00000  -0.01640  -0.01641   1.87067
   A72        1.86850  -0.00079   0.00000  -0.00479  -0.00479   1.86371
   A73        2.80747   0.00033   0.00000  -0.00353  -0.00415   2.80332
   A74        2.94670  -0.00169   0.00000  -0.05100  -0.05090   2.89580
   A75        3.09341  -0.00020   0.00000   0.06125   0.06133   3.15474
    D1       -0.94344   0.00070   0.00000   0.03548   0.03551  -0.90792
    D2       -3.05099   0.00123   0.00000   0.04468   0.04469  -3.00629
    D3        1.19001   0.00084   0.00000   0.04723   0.04718   1.23718
    D4        1.09892   0.00164   0.00000   0.08794   0.08788   1.18680
    D5       -3.14044   0.00054   0.00000   0.07746   0.07740  -3.06304
    D6       -1.08167   0.00137   0.00000   0.09621   0.09626  -0.98541
    D7       -3.12398   0.00112   0.00000   0.07971   0.07970  -3.04428
    D8       -1.08016   0.00001   0.00000   0.06923   0.06922  -1.01094
    D9        0.97862   0.00085   0.00000   0.08799   0.08808   1.06669
   D10       -1.04567   0.00052   0.00000   0.06728   0.06725  -0.97842
   D11        0.99815  -0.00059   0.00000   0.05681   0.05678   1.05493
   D12        3.05693   0.00025   0.00000   0.07556   0.07563   3.13256
   D13       -0.89587   0.00077   0.00000   0.03237   0.03225  -0.86362
   D14       -3.07743   0.00025   0.00000   0.02639   0.02638  -3.05105
   D15        1.16167   0.00100   0.00000   0.03806   0.03805   1.19971
   D16       -2.96703   0.00088   0.00000   0.03602   0.03586  -2.93117
   D17        1.13460   0.00036   0.00000   0.03003   0.02998   1.16458
   D18       -0.90949   0.00110   0.00000   0.04171   0.04165  -0.86784
   D19        1.25219   0.00013   0.00000   0.02031   0.02010   1.27229
   D20       -0.92937  -0.00039   0.00000   0.01433   0.01422  -0.91515
   D21       -2.97346   0.00035   0.00000   0.02600   0.02589  -2.94756
   D22        1.11010  -0.00002   0.00000  -0.01036  -0.01037   1.09973
   D23       -1.06421  -0.00073   0.00000  -0.02128  -0.02126  -1.08547
   D24       -3.12330   0.00105   0.00000   0.00554   0.00551  -3.11778
   D25       -3.10073  -0.00077   0.00000  -0.02231  -0.02223  -3.12295
   D26        1.00815  -0.00148   0.00000  -0.03323  -0.03312   0.97503
   D27       -1.05094   0.00030   0.00000  -0.00642  -0.00635  -1.05728
   D28       -0.97444   0.00007   0.00000  -0.01615  -0.01624  -0.99069
   D29        3.13443  -0.00064   0.00000  -0.02707  -0.02714   3.10730
   D30        1.07535   0.00114   0.00000  -0.00025  -0.00036   1.07498
   D31        0.93967   0.00009   0.00000   0.01852   0.01846   0.95813
   D32       -1.19563  -0.00047   0.00000   0.00580   0.00579  -1.18985
   D33        3.03670  -0.00004   0.00000   0.01150   0.01142   3.04813
   D34       -1.20533   0.00058   0.00000   0.03286   0.03279  -1.17254
   D35        2.94255   0.00002   0.00000   0.02014   0.02011   2.96266
   D36        0.89170   0.00045   0.00000   0.02584   0.02575   0.91745
   D37        3.01951   0.00083   0.00000   0.03000   0.02990   3.04941
   D38        0.88420   0.00027   0.00000   0.01728   0.01723   0.90143
   D39       -1.16665   0.00070   0.00000   0.02298   0.02287  -1.14378
   D40       -1.53465  -0.00046   0.00000  -0.02977  -0.02986  -1.56451
   D41        0.63020   0.00062   0.00000  -0.01929  -0.01944   0.61076
   D42        2.67073  -0.00053   0.00000  -0.03122  -0.03134   2.63939
   D43        3.01310   0.00221   0.00000   0.05892   0.05906   3.07216
   D44        1.13846   0.00005   0.00000   0.02827   0.02759   1.16605
   D45       -1.22022  -0.00045   0.00000  -0.02026  -0.02025  -1.24047
   D46        0.93918   0.00006   0.00000  -0.01380  -0.01376   0.92543
   D47        2.97714  -0.00104   0.00000  -0.02895  -0.02901   2.94813
   D48       -0.69056   0.00066   0.00000   0.00324   0.00310  -0.68746
   D49        1.51200   0.00051   0.00000  -0.00254  -0.00289   1.50910
   D50        1.42982   0.00071   0.00000   0.01337   0.01329   1.44311
   D51       -2.65081   0.00056   0.00000   0.00759   0.00730  -2.64351
   D52       -2.81680   0.00053   0.00000   0.01065   0.01067  -2.80613
   D53       -0.61425   0.00039   0.00000   0.00487   0.00468  -0.60957
   D54       -1.08491  -0.00141   0.00000  -0.04124  -0.04130  -1.12621
   D55        1.03405   0.00126   0.00000  -0.02531  -0.02554   1.00852
   D56       -0.97291   0.00064   0.00000   0.02859   0.02861  -0.94430
   D57       -3.08002   0.00072   0.00000   0.03158   0.03158  -3.04844
   D58        1.16536   0.00077   0.00000   0.03645   0.03643   1.20179
   D59        1.09753   0.00032   0.00000   0.05409   0.05407   1.15160
   D60       -3.11345   0.00075   0.00000   0.05935   0.05935  -3.05410
   D61       -1.02892   0.00123   0.00000   0.06582   0.06583  -0.96309
   D62       -3.11489   0.00007   0.00000   0.05069   0.05067  -3.06422
   D63       -1.04268   0.00051   0.00000   0.05595   0.05595  -0.98673
   D64        1.04185   0.00098   0.00000   0.06242   0.06243   1.10428
   D65       -1.05387  -0.00040   0.00000   0.04085   0.04083  -1.01303
   D66        1.01834   0.00003   0.00000   0.04611   0.04612   1.06446
   D67        3.10287   0.00051   0.00000   0.05258   0.05260  -3.12772
   D68       -1.02844   0.00101   0.00000   0.07987   0.07984  -0.94861
   D69        3.09820  -0.00002   0.00000   0.06026   0.06024  -3.12474
   D70        1.04003   0.00045   0.00000   0.07059   0.07058   1.11061
   D71       -3.09112   0.00177   0.00000   0.08775   0.08774  -3.00339
   D72        1.03552   0.00075   0.00000   0.06814   0.06814   1.10367
   D73       -1.02265   0.00122   0.00000   0.07847   0.07848  -0.94417
   D74        1.09271   0.00048   0.00000   0.06577   0.06577   1.15848
   D75       -1.06383  -0.00055   0.00000   0.04616   0.04618  -1.01765
   D76       -3.12201  -0.00008   0.00000   0.05649   0.05652  -3.06549
   D77       -2.96992   0.00009   0.00000   0.00227   0.00229  -2.96763
   D78        1.14886  -0.00081   0.00000  -0.01540  -0.01539   1.13347
   D79       -0.91223   0.00082   0.00000   0.01016   0.01013  -0.90210
   D80       -0.88452  -0.00014   0.00000  -0.00493  -0.00498  -0.88950
   D81       -3.04893  -0.00104   0.00000  -0.02260  -0.02265  -3.07158
   D82        1.17317   0.00059   0.00000   0.00296   0.00287   1.17603
   D83        1.22447   0.00018   0.00000   0.00763   0.00771   1.23218
   D84       -0.93994  -0.00072   0.00000  -0.01004  -0.00996  -0.94990
   D85       -3.00102   0.00091   0.00000   0.01552   0.01556  -2.98547
   D86        1.10238   0.00072   0.00000   0.05427   0.05429   1.15667
   D87       -1.04504  -0.00012   0.00000   0.03988   0.03989  -1.00514
   D88       -3.11221   0.00080   0.00000   0.05676   0.05677  -3.05544
   D89       -1.02030   0.00132   0.00000   0.06920   0.06919  -0.95112
   D90        3.11546   0.00049   0.00000   0.05481   0.05480  -3.11293
   D91        1.04829   0.00141   0.00000   0.07169   0.07167   1.11996
   D92       -3.11279   0.00001   0.00000   0.04737   0.04737  -3.06542
   D93        1.02297  -0.00082   0.00000   0.03298   0.03298   1.05596
   D94       -1.04420   0.00010   0.00000   0.04986   0.04986  -0.99434
   D95       -0.99985   0.00037   0.00000   0.02346   0.02349  -0.97637
   D96        1.14081   0.00088   0.00000   0.03794   0.03793   1.17873
   D97       -3.10136   0.00078   0.00000   0.03197   0.03196  -3.06940
   D98       -2.74589  -0.00119   0.00000  -0.03741  -0.03731  -2.78320
   D99       -1.07168  -0.00068   0.00000  -0.01961  -0.01973  -1.09141
   D100      -0.59595  -0.00026   0.00000  -0.02240  -0.02226  -0.61821
   D101       1.07826   0.00025   0.00000  -0.00460  -0.00468   1.07358
   D102       1.44293  -0.00084   0.00000  -0.03456  -0.03447   1.40846
   D103       3.11715  -0.00033   0.00000  -0.01676  -0.01689   3.10026
   D104      -0.08408  -0.00035   0.00000  -0.02550  -0.02564  -0.10971
   D105      -2.18053   0.00026   0.00000  -0.02200  -0.02226  -2.20279
   D106      -0.99346   0.00077   0.00000   0.03014   0.03014  -0.96331
   D107       1.13829   0.00085   0.00000   0.03731   0.03729   1.17558
   D108      -3.11040   0.00048   0.00000   0.02825   0.02826  -3.08214
         Item               Value     Threshold  Converged?
 Maximum Force            0.008042     0.000015     NO 
 RMS     Force            0.002178     0.000010     NO 
 Maximum Displacement     0.323443     0.000060     NO 
 RMS     Displacement     0.081901     0.000040     NO 
 GradGradGradGradGradGradGradGradGradGradGradGradGradGradGradGradGradGrad

                    Distance matrix (angstroms):
                    1          2          3          4          5
     1  O    0.000000
     2  C    1.411564   0.000000
     3  C    2.451916   1.540667   0.000000
     4  C    3.012285   2.514917   1.546164   0.000000
     5  O    2.697102   2.885399   2.492118   1.409230   0.000000
     6  C    3.788596   2.523672   1.545151   2.479072   3.767246
     7  O    4.296277   3.018778   2.488528   3.775006   4.946318
     8  C    2.904755   2.517834   1.539507   2.575431   3.179110
     9  O    2.577987   2.923299   2.479235   3.110663   3.066275
    10  H    0.980536   1.927418   2.528602   2.547297   1.859891
    11  H    2.014177   1.104154   2.183996   3.481441   3.947441
    12  H    2.089823   1.110454   2.176631   2.711266   3.103859
    13  H    3.972761   3.477248   2.181042   1.107518   2.078332
    14  H    3.499796   2.797467   2.158831   1.105484   2.019460
    15  H    3.127239   3.499651   2.919361   1.970687   0.982388
    16  H    4.097096   2.768172   2.174400   2.656846   3.921145
    17  H    4.604265   3.475641   2.168187   2.693193   4.066965
    18  H    4.065529   2.768158   2.766202   4.110249   5.146639
    19  H    3.339568   2.804570   2.159940   3.505035   4.191251
    20  H    3.893246   3.478689   2.177542   2.768262   3.491966
    21  H    1.720060   2.409348   2.513571   3.181017   2.927891
    22  O    8.022058   8.944299   8.480512   8.222803   7.423886
    23  C    6.996685   7.924309   7.469027   7.057951   6.167826
    24  C    5.896847   6.672458   6.083963   5.777833   5.069488
    25  C    6.760755   7.280881   6.395790   6.058528   5.634796
    26  O    7.920735   8.458004   7.587750   7.383968   7.006656
    27  C    4.926443   5.702779   5.162220   4.597768   3.709165
    28  O    4.214890   4.702295   3.922003   3.347248   2.744241
    29  C    5.459039   6.285070   5.873848   5.958763   5.361485
    30  O    6.672735   7.436872   6.983608   7.194251   6.711124
    31  H    8.352129   9.153015   8.538701   8.287839   7.621501
    32  H    6.714443   7.786835   7.541957   7.148602   6.111633
    33  H    7.527406   8.396901   7.852038   7.236305   6.321787
    34  H    6.291760   6.630996   5.615232   5.390642   5.199492
    35  H    7.242974   7.722967   6.769458   6.190880   5.729326
    36  H    7.726246   8.293870   7.512933   7.499683   7.148982
    37  H    4.467775   5.464094   5.228933   4.738360   3.640481
    38  H    5.683509   6.406279   5.802794   4.977694   4.036283
    39  H    3.613530   4.093898   3.372359   3.193581   2.769956
    40  H    5.135438   6.157892   6.016160   6.124456   5.356481
    41  H    4.794576   5.460960   4.972579   5.235869   4.845498
    42  H    7.325869   8.180552   7.764895   7.856018   7.250147
                    6          7          8          9         10
     6  C    0.000000
     7  O    1.405319   0.000000
     8  C    2.502832   2.933751   0.000000
     9  O    3.793151   4.237257   1.418229   0.000000
    10  H    3.976320   4.754582   3.068135   2.633208   0.000000
    11  H    2.750165   2.687446   2.771349   3.260542   2.815375
    12  H    2.759023   3.375749   3.481734   3.953754   2.381024
    13  H    2.759746   4.066085   2.764574   3.401170   3.492135
    14  H    2.588665   3.938347   3.498011   4.135334   3.068815
    15  H    4.250997   5.373631   3.134699   2.757935   2.306032
    16  H    1.109449   2.079144   3.466815   4.630787   4.214434
    17  H    1.103082   2.008874   2.733602   4.084167   4.652207
    18  H    1.957377   0.965705   3.370905   4.503687   4.657422
    19  H    2.644704   2.496915   1.104811   2.077438   3.773181
    20  H    2.782117   3.327174   1.104507   2.034764   3.876011
    21  H    3.941570   4.364179   1.958513   0.981293   1.923642
    22  O    9.778797  10.386264   7.462421   6.294967   7.598237
    23  C    8.813954   9.548387   6.623205   5.459952   6.466033
    24  C    7.370438   8.073299   5.153680   4.072737   5.419242
    25  C    7.460795   8.160882   5.376420   4.613387   6.295381
    26  O    8.593797   9.162545   6.423863   5.652475   7.538335
    27  C    6.518988   7.404468   4.575381   3.561392   4.274136
    28  O    5.189204   6.126400   3.391485   2.679406   3.587853
    29  C    7.166138   7.626875   4.732307   3.512192   5.226294
    30  O    8.162451   8.474676   5.686533   4.580840   6.539155
    31  H    9.740463  10.333392   7.449972   6.402567   7.936292
    32  H    8.976729   9.705219   6.801749   5.529656   6.188907
    33  H    9.156976  10.011123   7.134301   6.077170   6.886622
    34  H    6.558038   7.212207   4.532626   3.979027   5.898021
    35  H    7.793744   8.633223   5.934761   5.274689   6.658763
    36  H    8.531639   8.969326   6.235030   5.401539   7.453047
    37  H    6.699517   7.546787   4.766118   3.589563   3.818373
    38  H    7.094925   8.104632   5.389501   4.517472   4.915362
    39  H    4.686735   5.464755   2.598461   1.730358   3.177010
    40  H    7.415037   7.863742   5.016966   3.651559   4.929314
    41  H    6.193275   6.579928   3.722062   2.581434   4.666974
    42  H    8.996436   9.372511   6.536542   5.375732   7.121328
                   11         12         13         14         15
    11  H    0.000000
    12  H    1.789838   0.000000
    13  H    4.331796   3.752707   0.000000
    14  H    3.761828   2.538217   1.782665   0.000000
    15  H    4.470982   3.928178   2.215327   2.810957   0.000000
    16  H    3.110310   2.538366   3.071327   2.282275   4.592833
    17  H    3.765768   3.755878   2.507737   2.888354   4.388626
    18  H    2.202756   3.003065   4.614846   4.169598   5.673542
    19  H    2.605813   3.796136   3.727543   4.286439   4.212888
    20  H    3.801908   4.324638   2.496596   3.723023   3.266932
    21  H    2.761936   3.422395   3.757076   4.077493   2.825526
    22  O    9.425790   9.792670   8.020993   9.232880   6.491692
    23  C    8.518336   8.693501   6.893271   8.021601   5.238947
    24  C    7.238042   7.497691   5.566114   6.801868   4.120722
    25  C    7.830019   8.111304   5.572923   7.084209   4.670579
    26  O    8.903989   9.350270   6.880381   8.429179   6.050275
    27  C    6.438160   6.387262   4.485469   5.540372   2.761904
    28  O    5.464347   5.388384   3.133406   4.348166   1.781003
    29  C    6.639849   7.237675   5.906975   7.031073   4.530640
    30  O    7.663002   8.444335   7.061486   8.286935   5.878290
    31  H    9.621906  10.025149   7.965219   9.317274   6.660864
    32  H    8.380811   8.514529   7.149061   8.066765   5.261789
    33  H    9.089835   9.080413   6.982239   8.133522   5.384968
    34  H    7.132435   7.483180   4.832329   6.432937   4.293705
    35  H    8.382159   8.451130   5.609970   7.133966   4.762812
    36  H    8.633367   9.251315   7.084793   8.580798   6.225596
    37  H    6.190333   6.112678   4.879582   5.618989   2.838684
    38  H    7.237754   6.966876   4.761211   5.807048   3.115929
    39  H    4.727047   4.920389   3.131652   4.273441   1.967679
    40  H    6.501681   7.073908   6.261025   7.144343   4.614420
    41  H    5.747479   6.464665   5.188098   6.328703   4.090379
    42  H    8.462027   9.151873   7.719831   8.932592   6.381640
                   16         17         18         19         20
    16  H    0.000000
    17  H    1.780237   0.000000
    18  H    2.304128   2.825076   0.000000
    19  H    3.683940   2.969863   2.879128   0.000000
    20  H    3.774787   2.552817   3.992219   1.781777   0.000000
    21  H    4.632105   4.460897   4.425115   2.475053   2.832305
    22  O   10.547513   9.677996  10.775985   8.074260   7.265077
    23  C    9.497271   8.744328   9.921122   7.366405   6.461959
    24  C    8.110886   7.267060   8.493035   5.897533   4.937167
    25  C    8.255240   7.133135   8.731458   6.091808   4.849060
    26  O    9.456667   8.231986   9.749728   6.991246   5.874366
    27  C    7.109655   6.489682   7.775852   5.499060   4.463868
    28  O    5.800477   5.097192   6.567766   4.397657   3.180575
    29  C    8.006446   7.191151   7.964811   5.242863   4.710145
    30  O    9.082535   8.119488   8.847339   6.017981   5.571772
    31  H   10.549790   9.536414  10.799562   8.042784   7.118592
    32  H    9.603026   9.037081   9.977219   7.537374   6.813048
[...]
 00007196,0.00010183,-0.00008774,0.00011743,-0.00006999,0.00006385,-0.0
 0005342,-0.00004140,0.00003175,0.00000180,-0.00000462,-0.00000489,0.00
 001270,0.00000281,0.00001047,-0.00001708,0.00000171,-0.00002090,0.0000
 2421,-0.00001002,0.00001472,-0.00046376,-0.00026715,-0.00010071,0.0000
 1122,-0.00000228,0.00000765,-0.00000268,0.00000108,-0.00000341,-0.0000
 1448,0.00001101,-0.00000526,0.00002003,-0.00001491,0.00000083,0.000015
 50,0.00000910,-0.00000557,-0.00010563,-0.00003739,0.00001663,-0.000298
 65,0.00030133,0.00006842,0.00032664,0.00002671,0.00047678,-0.00262368,
 0.00707542,0.00583534,-0.00014961,0.00114735,0.00113627,-0.00008856,-0
 .00027546,0.00011487,0.04421755,-0.12343587,-0.16389531,0.00099819,0.0
 0362830,0.00583340,0.00057359,0.00066887,-0.00074169,0.00006290,0.0003
 6767,0.00060994,0.00011710,-0.00003086,-0.00000388,0.00007435,-0.00015
 795,-0.00016783,-0.00015336,0.00007592,0.00020226,-0.00008721,0.000076
 76,-0.00007956,0.00015805,-0.00019022,-0.00003217,-0.00000812,0.000015
 60,0.00000069,0.00710104,-0.02097920,-0.01600518,-0.04899738,0.1308419
 2,0.16511987,0.00295017,0.00128674,0.00111249,-0.00132519,0.00077700,-
 0.00065115,-0.00044880,-0.00137192,0.00051889,0.00036700,-0.00090725,-
 0.00164965,-0.00400446,0.00243365,0.00193103,0.00013767,0.00095784,-0.
 00025693,0.00058233,-0.00056527,0.00052298,-0.00342295,0.00737983,-0.0
 0932519,0.00257059,-0.00883781,-0.00025598,-0.00067667,-0.00136924,-0.
 00079884,-0.00009510,-0.00012655,0.00003288,0.00040011,0.00003635,0.00
 025878,-0.00002635,-0.00031654,0.00011663,0.00003537,0.00029441,0.0002
 3822,0.00851212,-0.00444795,-0.00382104,0.00035373,-0.00016020,0.00031
 656,-0.00007814,-0.00010019,0.00001051,-0.00026738,0.00023600,-0.00010
 720,0.00132163,-0.00181059,0.00154610,-0.00003581,-0.00065588,0.001457
 51,-0.00571804,-0.00121077,0.00355437,0.00121017,0.00069912,-0.0005121
 5,-0.00105707,0.00038859,-0.00002619,0.00086314,-0.00013689,0.00098835
 ,0.00022501,-0.00087935,0.00113461,0.00016932,0.00121605,-0.00084285,-
 0.02420130,0.02311458,0.02269745,-0.09608483,0.06940325,0.06243824,-0.
 00176528,-0.00174013,-0.00040653,0.00103326,0.00155588,-0.00003545,-0.
 00018738,-0.00011965,0.00027660,-0.00005240,0.00001104,0.00002557,0.00
 016567,-0.00008938,-0.00005820,0.00012665,-0.00038329,0.00023545,-0.00
 010829,0.00000628,-0.00005507,0.00030579,-0.00041024,0.00024478,0.0020
 6120,0.00056939,0.00021025,-0.00303244,-0.00045749,-0.00126639,0.11869
 035,-0.00181993,-0.00249928,-0.00098099,0.00061829,-0.00000241,-0.0000
 5381,0.00008266,0.00111764,0.00007734,-0.00101321,0.00304825,-0.000313
 59,0.00340364,-0.00236933,0.00143049,-0.00020595,-0.00064731,-0.000023
 25,-0.00036250,0.00014188,-0.00044179,0.00471742,-0.00645612,0.0060077
 1,-0.00669027,-0.00956362,0.00096966,-0.00109417,0.00119025,0.00078266
 ,0.00018478,-0.00002050,-0.00003976,-0.00032719,-0.00013366,-0.0000518
 8,-0.00005239,-0.00010658,0.00013987,0.00015167,-0.00052181,0.00000851
 ,-0.00523872,-0.00144140,-0.00525835,-0.00034621,0.00013394,-0.0002822
 5,0.00006694,0.00003620,0.00007429,0.00017550,-0.00013657,0.00008328,-
 0.00091303,0.00098394,-0.00071506,0.00018451,-0.00026581,-0.00039199,0
 .00018835,0.00872591,-0.00025552,-0.00072461,-0.00106927,0.00013261,0.
 00036845,-0.00051777,-0.00019886,-0.00157194,0.00183164,0.00082713,-0.
 00094920,0.00044898,-0.00066624,0.00040662,-0.00089846,0.00028114,0.00
 640759,0.00377862,0.00581660,0.09292276,-0.18568415,-0.16852466,-0.002
 82790,0.00105327,0.00079382,0.00148514,-0.00056614,-0.00063290,-0.0001
 1087,0.00018908,-0.00011256,0.00020704,0.00002504,0.00008328,0.0002789
 3,-0.00021287,-0.00017509,0.00013678,0.00009734,0.00038162,0.00033869,
 -0.00004115,-0.00039364,-0.00031766,0.00022324,0.00025732,-0.00189067,
 -0.00009517,-0.00139294,-0.00250351,0.00124265,0.00079838,-0.08220775,
 0.19135473,-0.00158682,-0.00079999,-0.00132898,0.00068655,-0.00069577,
 0.00061758,-0.00029152,0.00132192,-0.00038913,-0.00179274,0.00123479,-
 0.00002926,0.00214189,-0.00051711,-0.00012530,-0.00025576,-0.00026600,
 -0.00003704,-0.00011945,-0.00012195,-0.00044040,-0.00294752,-0.0009358
 7,0.00879967,-0.00186650,0.00366081,-0.01346052,-0.00025621,0.00064126
 ,0.00123655,0.00015401,0.00004260,-0.00010133,-0.00022033,0.00003322,-
 0.00018832,0.00025105,0.00010008,-0.00061211,0.00037640,-0.00009561,-0
 .00015833,-0.00367594,-0.00405476,-0.00208872,-0.00020166,0.00007521,-
 0.00018914,0.00004600,0.00008130,-0.00003272,0.00009639,-0.00008897,0.
 00007532,-0.00088736,0.00145602,-0.00177765,0.00022137,0.00126468,-0.0
 0108248,0.00338220,0.00083462,-0.00112400,-0.00098315,-0.00071401,0.00
 013519,0.00096448,-0.00039495,-0.00018017,-0.00088915,-0.00025061,-0.0
 0012696,0.00114606,0.00046600,-0.00098942,-0.00090376,-0.00126852,0.00
 048886,0.00181841,0.00829336,0.00686819,0.09124676,-0.17438514,-0.1879
 6244,-0.00048390,0.00074889,0.00131123,0.00037533,-0.00068845,-0.00099
 215,0.00024968,0.00007985,-0.00009043,-0.00011280,0.00008627,-0.000068
 08,0.00007881,-0.00000938,-0.00011166,-0.00028825,0.00070156,-0.000520
 09,-0.00015799,0.00009533,-0.00004234,-0.00003324,0.00037684,0.0002464
 7,-0.00182216,0.00098193,0.00016889,-0.00359008,0.00091812,0.00131723,
 -0.07877109,0.16200222,0.19200067,-0.00003426,-0.00008300,0.00005831,-
 0.00001899,0.00002543,-0.00010470,-0.00002859,-0.00005717,0.00014866,-
 0.00000175,0.00009027,-0.00003487,0.00001824,-0.00007900,0.00004770,0.
 00004446,-0.00003144,0.00000833,-0.00004524,0.00003659,-0.00000266,0.0
 0031076,0.00019645,-0.00031961,-0.00004886,-0.00039232,0.00049098,0.00
 000997,0.00003419,-0.00003058,0.00000209,0.00000569,0.00000132,-0.0000
 2473,-0.00002018,0.00001714,-0.00000912,-0.00000256,0.00003190,-0.0000
 1118,-0.00001808,-0.00000517,-0.00000905,0.00003480,-0.00003089,-0.000
 01749,0.00000089,-0.00000595,0.00000292,-0.00000497,0.00001786,0.00001
 337,-0.00001324,-0.00000225,-0.00002589,-0.00003411,0.00004284,-0.0000
 0222,-0.00007988,0.00023289,-0.00002662,0.00010656,-0.00014550,-0.0000
 9745,0.00020672,-0.00023344,0.00068365,-0.00060643,0.00147537,0.002279
 21,0.00021812,0.00620503,0.00012602,0.00044358,0.00052431,-0.00000254,
 0.00033889,-0.00008418,-0.00031830,0.00016136,-0.00069173,0.00008592,-
 0.00055802,0.00031383,-0.09750137,0.03300246,-0.08703867,0.00921785,-0
 .01180695,0.01637380,0.00003846,-0.00005804,0.00001734,0.00003499,0.00
 020540,-0.00007697,0.00008737,-0.00008150,-0.00012175,0.00037107,-0.00
 003594,0.00030408,0.00052024,-0.00005767,0.00009798,-0.00030165,-0.000
 34750,-0.00037806,0.00004056,-0.00052893,-0.00002274,-0.00002135,-0.00
 011087,0.00011813,-0.00002367,0.00048162,-0.00046831,0.09219004,0.0000
 0394,0.00002781,-0.00002086,0.00000548,-0.00000670,0.00003375,0.000005
 55,0.00001328,-0.00003986,0.00002369,-0.00001517,-0.00001297,-0.000016
 36,0.00002362,-0.00000060,-0.00000976,-0.00001566,0.00000457,0.0000070
 7,0.00001200,-0.00000158,-0.00005822,-0.00005033,0.00009593,0.00006689
 ,0.00012692,-0.00016061,0.00000052,-0.00000882,0.00000352,-0.00000218,
 -0.00000225,0.00000310,0.00000572,0.00000446,-0.00000644,0.00000076,-0
 .00000728,-0.00000082,-0.00000489,0.00000244,0.00000455,0.00001045,-0.
 00001216,-0.00001004,0.00000589,0.00000271,0.00000036,0.00000074,-0.00
 000208,-0.00000840,-0.00000054,0.00000160,0.00000425,-0.00001073,0.000
 00403,0.00000715,-0.00000684,-0.00002152,-0.00006672,0.00001526,-0.000
 02383,0.00005498,-0.00011535,0.00103632,0.00023829,-0.00120830,0.00028
 485,-0.00022682,-0.00764274,0.00632868,-0.01895580,0.00054694,-0.00480
 483,-0.00272820,0.00053378,0.00155749,0.00130596,-0.00012637,0.0016522
 0,-0.00146326,0.00006080,-0.00008474,0.00023989,0.02986423,-0.06959014
 ,0.06189976,0.00302743,-0.02700233,0.03400054,0.00013005,-0.00031878,-
 0.00022866,0.00024906,-0.00011166,0.00025689,-0.00015669,0.00011237,0.
 00015859,0.00012792,-0.00001730,0.00012999,-0.00037483,0.00072250,-0.0
 0134789,-0.00045098,-0.00076743,-0.00233420,0.00000845,-0.00051496,0.0
 0038401,0.00013275,0.00017918,0.00017657,0.00003796,-0.00006603,0.0000
 5326,-0.02951671,0.09101187,0.00001954,-0.00003012,0.00006728,-0.00000
 502,0.00005071,-0.00004022,-0.00001325,-0.00004184,0.00003091,0.000064
 23,0.00007663,-0.00009715,0.00000447,-0.00004961,0.00010036,0.00003643
 ,0.00000222,-0.00002857,-0.00002242,0.00001616,0.00002806,0.00004662,0
 .00012320,-0.00016605,0.00002057,-0.00012198,0.00023158,0.00001189,0.0
 0000504,-0.00004558,-0.00000679,0.00000052,0.00000641,0.00000243,-0.00
 000408,0.00000627,-0.00001649,-0.00002271,0.00002593,-0.00001159,-0.00
 000485,0.00001239,-0.00001228,0.00000518,-0.00006565,-0.00000037,-0.00
 000265,0.00000550,-0.00000356,-0.00001028,0.00001177,0.00000273,-0.000
 00217,-0.00000594,-0.00000865,-0.00001481,0.00002088,-0.00001187,-0.00
 002869,0.00001330,-0.00004863,0.00000969,-0.00005716,0.00080250,-0.000
 51458,0.00025401,-0.00168612,0.00155254,0.00023950,-0.01109566,0.00632
 947,-0.02225607,0.00152528,-0.00543947,-0.00171993,0.00052633,0.000647
 57,0.00015339,0.00009202,0.00178296,-0.00049958,0.00015089,-0.00039127
 ,0.00046625,-0.08420463,0.06278511,-0.23314193,0.00410638,0.01074778,-
 0.00179123,-0.00059539,0.00021466,0.00003292,0.00115072,-0.00063900,0.
 00028687,-0.00005424,-0.00020359,0.00054614,-0.00003431,0.00003219,0.0
 0025001,-0.00059354,0.00035870,-0.00153639,0.00012750,-0.00019376,0.00
 058069,-0.00014032,-0.00103947,0.00079042,0.00015567,-0.00020124,0.000
 41625,-0.00003433,0.00013759,-0.00039401,0.08891517,-0.07476698,0.2520
 6250,0.00009391,0.00007150,0.00002442,-0.00004172,0.00002257,-0.000014
 29,0.00002944,-0.00004130,0.00005245,0.00005758,-0.00002756,-0.0000125
 2,-0.00008869,0.00002978,-0.00000076,0.00003406,0.00003759,0.00001602,
 0.00000210,-0.00002080,-0.00000377,-0.00107945,-0.00008952,-0.00021287
 ,-0.00182453,-0.00004583,-0.00024148,0.00001107,-0.00003239,-0.0000204
 9,0.00000436,-0.00000277,-0.00000381,0.00001099,-0.00000779,0.00000563
 ,0.00000140,0.00001749,0.00003403,-0.00000815,0.00000861,0.00000389,0.
 00016258,0.00000951,0.00001868,-0.00000412,-0.00000749,0.00000384,0.00
 000246,-0.00000281,0.00000907,0.00000125,0.00000066,0.00000534,0.00007
 789,-0.00000922,-0.00000947,-0.00006775,0.00014377,-0.00012463,-0.0002
 7045,-0.00020074,0.00025022,-0.00006972,0.00022250,0.00013690,0.000972
 85,0.00040438,0.00056338,-0.00240516,0.00212880,-0.00016938,0.00037513
 ,-0.00036282,-0.00051654,0.00034530,0.00012635,0.00022457,-0.00110581,
 0.00002975,0.00049720,0.00004481,-0.00079023,-0.00008190,-0.30647123,0
 .04401516,0.03145861,-0.01404056,-0.00532472,0.00376286,-0.00004440,-0
 .00000775,-0.00025546,0.00018187,-0.00008555,-0.00000726,-0.00014226,0
 .00003545,0.00014784,0.00037719,-0.00007903,0.00045184,0.00024027,0.00
 002983,-0.00005101,-0.00049199,-0.00006614,-0.00037200,-0.00000284,0.0
 0014944,0.00008434,0.00006532,0.00008434,-0.00003039,0.00071196,-0.001
 41583,-0.00061394,-0.00888325,0.00240818,0.00162430,0.33168660,0.00029
 896,0.00010750,0.00008817,-0.00014211,0.00008599,-0.00010738,-0.000004
 58,-0.00024966,0.00020074,-0.00005508,0.00007185,-0.00011722,0.0001731
 5,-0.00001175,0.00012933,0.00001098,0.00014523,-0.00000867,0.00004741,
 -0.00009417,0.00000768,-0.00016504,0.00080779,-0.00080031,0.00037862,-
 0.00010116,0.00017611,-0.00006021,-0.00006497,-0.00000202,0.00000517,-
 0.00001189,-0.00000363,0.00001952,-0.00000691,0.00003081,-0.00000651,-
 0.00000579,-0.00000476,0.00002650,0.00000313,0.00001194,-0.00023636,-0
 .00008107,-0.00016448,0.00002266,-0.00002327,0.00002520,-0.00000787,-0
 .00000577,0.00001009,-0.00002153,0.00002209,-0.00000475,0.00017622,-0.
 00010929,0.00004570,0.00004298,0.00010986,0.00022162,0.00002634,-0.000
 44383,0.00020496,-0.00032467,0.00167486,0.00040415,-0.00099789,-0.0038
 7772,-0.00373150,0.02132022,-0.00268079,-0.00171104,0.00012193,0.00027
 119,0.00119558,-0.00007061,0.00033688,0.00003782,0.00188628,0.00035855
 ,0.00000624,-0.00115564,0.00041991,0.00021004,0.05560580,-0.05760180,-
 0.00588722,-0.04317765,-0.00256648,0.00717479,0.00012413,-0.00028493,-
 0.00006454,-0.00040732,0.00014888,-0.00001914,0.00155048,-0.00018656,-
 0.00046122,-0.00044870,0.00025756,-0.00030773,-0.00010772,-0.00005904,
 0.00019319,-0.00017217,-0.00011979,-0.00050473,-0.00014668,-0.00006004
 ,0.00007206,-0.00001793,0.00016903,0.00010494,-0.00201083,-0.00286927,
 -0.00063333,0.00880606,0.00032196,-0.00222482,-0.03850718,0.07266348,-
 0.00014359,-0.00003533,-0.00010728,0.00008931,-0.00004295,0.00013553,-
 0.00005079,0.00023191,-0.00026377,-0.00004031,0.00001674,0.00011749,0.
 00012964,0.00001096,-0.00006799,-0.00006952,-0.00003821,0.00000255,0.0
 0003089,-0.00003101,-0.00002009,-0.00052828,-0.00077163,0.00090555,-0.
 00027131,-0.00004838,-0.00073306,-0.00001651,0.00003749,0.00008005,0.0
 0001188,-0.00000680,-0.00000646,0.00001110,0.00001297,-0.00002914,0.00
 003396,-0.00000636,-0.00004008,0.00002618,0.00000735,-0.00000644,-0.00
 018722,-0.00003582,-0.00001178,-0.00000625,0.00001502,-0.00002641,0.00
 000315,0.00001808,-0.00003365,-0.00000031,0.00000307,0.00001153,0.0001
 2973,0.00009803,-0.00009150,-0.00014700,0.00026702,-0.00029048,0.00024
 667,0.00016177,-0.00019742,-0.00031459,0.00056221,-0.00004433,-0.00116
 384,-0.00374738,-0.00323137,0.02361116,-0.00448230,-0.00296541,0.00176
 584,0.00025637,0.00136632,-0.00049056,0.00004797,-0.00019428,0.0007856
 6,0.00054691,0.00064525,-0.00036721,0.00046657,-0.00015093,0.02936271,
 -0.00421738,-0.05861973,0.01056429,0.00108580,0.00056018,0.00005035,-0
 .00006571,0.00023109,0.00016829,-0.00022580,0.00020736,0.00145803,-0.0
 0055660,0.00015828,-0.00063872,0.00011511,-0.00048528,-0.00026053,0.00
 000218,0.00029474,0.00038449,-0.00007682,-0.00007039,-0.00015367,-0.00
 021894,-0.00004840,0.00007135,0.00014637,-0.00007437,-0.00079602,-0.00
 046132,0.00105269,-0.02684233,0.00434530,0.00522029,-0.03703245,0.0048
 8361,0.05652287,0.00014830,0.00007692,0.00000726,-0.00005290,0.0000082
 0,0.00002959,0.00001919,-0.00000535,-0.00003356,-0.00002744,-0.0000377
 3,-0.00000827,0.00009779,0.00006610,0.00003893,-0.00005827,0.00005925,
 -0.00001874,0.00008345,-0.00006417,0.00002987,-0.00020203,0.00001503,-
 0.00003253,0.00033441,0.00014740,0.00001874,-0.00005094,-0.00005279,0.
 00001293,-0.00000417,-0.00001047,-0.00000513,0.00003409,0.00001637,0.0
 0000999,0.00000121,0.00000106,-0.00003405,0.00002980,0.00001468,0.0000
 1690,-0.00014042,-0.00007295,-0.00005776,0.00003238,0.00000120,0.00001
 492,-0.00000643,0.00000270,-0.00002081,-0.00003421,0.00002799,-0.00001
 209,-0.00000201,0.00000301,-0.00000260,0.00000672,-0.00000194,-0.00008
 695,-0.00012308,-0.00012751,0.00005233,-0.00632577,-0.00470774,-0.0005
 6373,0.00557069,0.00370700,-0.00324416,0.00151875,0.00127929,-0.001123
 92,-0.00073976,-0.00071590,-0.00023788,-0.00091627,0.00135460,0.001795
 26,-0.00090342,0.00062184,0.00098366,-0.00003689,0.00006826,0.00002587
 ,-0.02108289,-0.00356758,0.00357055,-0.44001153,0.04689859,0.05507881,
 0.00205630,-0.00065687,0.00192183,-0.00031961,-0.00019872,0.00023260,-
 0.00130277,-0.00120150,0.00018661,-0.00007856,0.00000653,-0.00009323,0
 .00017579,0.00022375,0.00031482,-0.00141010,0.00017535,-0.00476897,0.0
 0004389,-0.00004125,-0.00007052,0.00024961,0.00059690,0.00008619,-0.00
 018169,-0.00022388,-0.00001572,0.00137640,0.00242198,-0.00078620,0.001
 55168,-0.00239913,0.00058636,0.46068072,0.00000837,-0.00006437,-0.0000
 4673,-0.00001466,0.00000025,0.00000323,0.00001190,0.00001181,0.0000010
 0,-0.00010178,0.00009594,0.00001919,0.00023834,-0.00008609,0.00001703,
 -0.00004301,0.00005193,0.00000947,0.00003842,-0.00007538,-0.00002886,0
 .00002136,-0.00005502,0.00011570,-0.00012318,-0.00029124,-0.00012217,-
 0.00006054,0.00003266,0.00006097,0.00001277,-0.00000735,-0.00001128,-0
 .00000247,0.00000021,0.00000269,0.00000473,0.00001049,-0.00002429,0.00
 002443,-0.00001058,-0.00000110,-0.00029754,-0.00002739,-0.00007472,-0.
 00000360,-0.00000325,-0.00000597,0.00000060,0.00000957,-0.00000292,-0.
 00000893,0.00001447,0.00000266,0.00001750,-0.00000302,-0.00001772,0.00
 001515,0.00001420,0.00001971,-0.00001852,0.00009784,-0.00000692,-0.001
 57428,0.00254790,0.00454496,-0.00252306,-0.00859109,-0.00055881,-0.000
 87545,0.00092031,-0.00111582,-0.00051728,-0.00008166,-0.00072215,0.001
 01184,-0.00123638,0.00034364,-0.00058511,-0.00040129,0.00051920,0.0014
 3533,-0.00005063,-0.00034707,-0.04581173,0.00140652,0.00663674,0.09439
 161,-0.06012347,-0.00269711,-0.00004642,0.00198717,-0.00259989,0.00024
 374,0.00013421,-0.00019135,0.00062380,0.00094111,0.00031505,0.00026377
 ,-0.00010861,0.00022884,-0.00005644,-0.00006054,-0.00000706,0.00077093
 ,0.00168737,0.00049204,0.00003144,0.00008301,0.00000268,0.00001399,-0.
 00001041,-0.00006129,-0.00008879,0.00056207,0.00037030,0.00012945,0.00
 001772,0.00107005,-0.00284818,-0.00645978,0.00172992,-0.04370849,0.067
 12078,0.00001037,-0.00003360,-0.00007101,-0.00001701,-0.00001862,0.000
 00976,0.00001766,-0.00000032,0.00000997,-0.00011519,0.00004487,0.00006
 071,0.00018079,-0.00004683,-0.00004104,-0.00004147,0.00004439,0.000039
 43,0.00002820,-0.00006414,-0.00005815,0.00002144,0.00002456,0.00003341
 ,0.00002211,-0.00021425,-0.00018446,-0.00005407,0.00002470,0.00007104,
 0.00001647,-0.00000653,-0.00001184,-0.00000926,-0.00000284,-0.00000013
 ,0.00001311,0.00001765,-0.00002932,0.00001967,-0.00001035,-0.00001038,
 -0.00021882,-0.00002506,-0.00001872,-0.00000879,-0.00000616,-0.0000085
 4,0.00000712,0.00001186,-0.00000037,-0.00000171,0.00000793,0.00001226,
 0.00004727,-0.00001355,-0.00002043,0.00003069,0.00006845,0.00005513,0.
 00002352,0.00004868,0.00006269,-0.00106089,0.00754414,-0.00317035,-0.0
 0304306,-0.00530358,0.00285490,-0.00116364,0.00103279,0.00058551,-0.00
 181445,-0.00213020,0.00024515,0.00327265,0.00102900,0.00023288,-0.0000
 9638,-0.00073308,0.00005460,0.00084084,0.00011471,-0.00039935,0.012155
 92,0.00246875,0.00031778,0.04568319,0.00333883,-0.02340432,0.00203909,
 -0.00349144,-0.00541099,-0.00001818,0.00079770,-0.00049654,0.00075181,
 0.00111967,-0.00012357,0.00054822,0.00018959,-0.00001475,0.00010869,0.
 00028344,-0.00015159,-0.00573887,0.00100944,-0.00145749,0.00003653,0.0
 0027841,-0.00019137,-0.00007478,-0.00012131,-0.00009403,-0.00019803,0.
 00028094,0.00032466,0.00119740,-0.00102052,-0.00001440,0.00039899,0.00
 132373,0.00029829,-0.05379716,-0.00786185,0.03011498\\0.00000013,-0.00
 000076,-0.00000039,-0.00000016,0.00000007,0.00000011,-0.00000011,0.000
 00042,0.00000048,-0.00000001,0.00000051,-0.00000022,-0.00000015,0.0000
 0055,-0.00000107,-0.00000013,0.00000077,0.00000099,0.00000027,0.000000
 53,0.00000193,0.00000004,-0.00000002,0.00000050,0.00000013,-0.00000087
 ,0.00000027,0.00000005,-0.00000051,-0.00000071,0.00000020,-0.00000034,
 0.00000062,-0.00000007,0.00000030,-0.00000005,-0.00000018,0.00000105,-
 0.00000023,-0.00000029,0.00000120,-0.00000032,-0.00000031,0.00000017,-
 0.00000107,-0.00000010,0.00000119,0.00000088,-0.00000002,0.00000122,0.
 00000114,0.00000015,0.00000038,0.00000152,0.00000026,-0.00000041,0.000
 00122,0.00000010,0.00000003,0.00000068,0.00000022,-0.00000110,-0.00000
 005,-0.00000006,-0.00000013,-0.00000028,-0.00000010,-0.00000033,-0.000
 00071,0.00000004,-0.00000020,-0.00000041,-0.00000011,0.00000065,-0.000
 00011,0.,0.00000079,0.00000044,0.00000007,-0.00000049,-0.00000126,0.00
 000017,-0.00000004,-0.00000051,0.00000001,-0.00000084,0.00000027,0.000
 00040,-0.00000054,0.00000068,0.00000006,0.00000029,0.00000007,0.,-0.00
 000090,-0.00000095,-0.00000020,0.00000011,-0.00000122,-0.00000009,0.00
 000057,0.00000011,-0.00000023,0.00000093,-0.00000060,-0.00000002,0.000
 00034,0.00000084,-0.00000002,-0.00000100,-0.00000126,-0.00000016,-0.00
 000005,-0.00000162,-0.00000039,-0.00000073,-0.00000065,0.00000027,-0.0
 0000140,-0.00000010,0.00000021,-0.00000081,0.00000035,0.00000011,-0.00
 000064,0.00000071\\\@


 TELEVISION IS CALLED A MEDIUM BECAUSE IT ISN'T
 RARE, AND IT ISN'T WELL DONE.
 File lengths (MBytes):  RWF=    472 Int=      0 D2E=      0 Chk=      8 Scr=      1
 Normal termination of Gaussian 16 at Tue Aug  9 22:12:02 2022.
real 22052.74
user 87508.11
sys 75.71
